 Entering Gaussian System, Link 0=g09
 Initial command:
 /share/apps//g09/l1.exe "/scratch/Gau-735.inp" -scrdir="/scratch/"
 Entering Link 1 = /share/apps//g09/l1.exe PID=       736.
  
 Copyright (c) 1988,1990,1992,1993,1995,1998,2003,2009,2013,
            Gaussian, Inc.  All Rights Reserved.
  
 This is part of the Gaussian(R) 09 program.  It is based on
 the Gaussian(R) 03 system (copyright 2003, Gaussian, Inc.),
 the Gaussian(R) 98 system (copyright 1998, Gaussian, Inc.),
 the Gaussian(R) 94 system (copyright 1995, Gaussian, Inc.),
 the Gaussian 92(TM) system (copyright 1992, Gaussian, Inc.),
 the Gaussian 90(TM) system (copyright 1990, Gaussian, Inc.),
 the Gaussian 88(TM) system (copyright 1988, Gaussian, Inc.),
 the Gaussian 86(TM) system (copyright 1986, Carnegie Mellon
 University), and the Gaussian 82(TM) system (copyright 1983,
 Carnegie Mellon University). Gaussian is a federally registered
 trademark of Gaussian, Inc.
  
 This software contains proprietary and confidential information,
 including trade secrets, belonging to Gaussian, Inc.
  
 This software is provided under written license and may be
 used, copied, transmitted, or stored only in accord with that
 written license.
  
 The following legend is applicable only to US Government
 contracts under FAR:
  
                    RESTRICTED RIGHTS LEGEND
  
 Use, reproduction and disclosure by the US Government is
 subject to restrictions as set forth in subparagraphs (a)
 and (c) of the Commercial Computer Software - Restricted
 Rights clause in FAR 52.227-19.
  
 Gaussian, Inc.
 340 Quinnipiac St., Bldg. 40, Wallingford CT 06492
  
  
 ---------------------------------------------------------------
 Warning -- This program may not be used in any manner that
 competes with the business of Gaussian, Inc. or will provide
 assistance to any competitor of Gaussian, Inc.  The licensee
 of this program is prohibited from giving any competitor of
 Gaussian, Inc. access to this program.  By using this program,
 the user acknowledges that Gaussian, Inc. is engaged in the
 business of creating and licensing software in the field of
 computational chemistry and represents and warrants to the
 licensee that it is not a competitor of Gaussian, Inc. and that
 it will not use this program in any manner prohibited above.
 ---------------------------------------------------------------
  

 Cite this work as:
 Gaussian 09, Revision D.01,
 M. J. Frisch, G. W. Trucks, H. B. Schlegel, G. E. Scuseria, 
 M. A. Robb, J. R. Cheeseman, G. Scalmani, V. Barone, B. Mennucci, 
 G. A. Petersson, H. Nakatsuji, M. Caricato, X. Li, H. P. Hratchian, 
 A. F. Izmaylov, J. Bloino, G. Zheng, J. L. Sonnenberg, M. Hada, 
 M. Ehara, K. Toyota, R. Fukuda, J. Hasegawa, M. Ishida, T. Nakajima, 
 Y. Honda, O. Kitao, H. Nakai, T. Vreven, J. A. Montgomery, Jr., 
 J. E. Peralta, F. Ogliaro, M. Bearpark, J. J. Heyd, E. Brothers, 
 K. N. Kudin, V. N. Staroverov, T. Keith, R. Kobayashi, J. Normand, 
 K. Raghavachari, A. Rendell, J. C. Burant, S. S. Iyengar, J. Tomasi, 
 M. Cossi, N. Rega, J. M. Millam, M. Klene, J. E. Knox, J. B. Cross, 
 V. Bakken, C. Adamo, J. Jaramillo, R. Gomperts, R. E. Stratmann, 
 O. Yazyev, A. J. Austin, R. Cammi, C. Pomelli, J. W. Ochterski, 
 R. L. Martin, K. Morokuma, V. G. Zakrzewski, G. A. Voth, 
 P. Salvador, J. J. Dannenberg, S. Dapprich, A. D. Daniels, 
 O. Farkas, J. B. Foresman, J. V. Ortiz, J. Cioslowski, 
 and D. J. Fox, Gaussian, Inc., Wallingford CT, 2013.
 
 ******************************************
 Gaussian 09:  EM64L-G09RevD.01 24-Apr-2013
                30-Apr-2016 
 ******************************************
 %nproc=20
 Will use up to   20 processors via shared memory.
 %mem=80GB
 %chk=Tri_A131_of.chk
 ----------------------------------------------------------------------
 #P PBE1PBE/6-311+G(d,p) opt=ModRedundant freq optcyc=999 EmpiricalDisp
 ersion=GD3
 ----------------------------------------------------------------------
 1/6=999,14=-1,18=120,19=15,26=3,38=1/1,3;
 2/9=110,12=2,17=6,18=5,40=1/2;
 3/5=4,6=6,7=111,11=2,16=1,25=1,30=1,71=1,74=-13,124=31/1,2,3;
 4//1;
 5/5=2,38=5/2;
 6/7=2,8=2,9=2,10=2,28=1/1;
 7//1,2,3,16;
 1/6=999,14=-1,18=20,19=15,26=3/3(2);
 2/9=110/2;
 99//99;
 2/9=110/2;
 3/5=4,6=6,7=111,11=2,16=1,25=1,30=1,71=1,74=-13,124=31/1,2,3;
 4/5=5,16=3,69=1/1;
 5/5=2,38=5/2;
 7//1,2,3,16;
 1/6=999,14=-1,18=20,19=15,26=3/3(-5);
 2/9=110/2;
 6/7=2,8=2,9=2,10=2,19=2,28=1/1;
 99/9=1/99;
 Leave Link    1 at Sat Apr 30 08:01:03 2016, MaxMem= 10737418240 cpu:         2.3
 (Enter /share/apps//g09/l101.exe)
 -----
 trich
 -----
 Symbolic Z-matrix:
 Charge =  1 Multiplicity = 1
 O                     0.39147  -6.5619    9.43059 
 C                    -0.23201  -5.34309   9.11061 
 C                    -0.22655  -4.40181   10.31776 
 C                     1.19749  -4.16399   10.82521 
 C                     1.86317  -5.50047   11.16047 
 C                     1.7346   -6.46894   9.96869 
 H                    -1.26181  -5.61526   8.828 
 H                    -0.81403  -4.90064   11.1072 
 H                     1.77941  -3.65461   10.04043 
 H                     2.93856  -5.33373   11.33732 
 H                     2.42324  -6.11057   9.18055 
 O                     1.23118  -5.96974   12.3574 
 O                     1.15979  -3.27484   11.93853 
 O                    -0.84579  -3.14353   9.98686 
 O                     0.39448  -4.63858   8.03441 
 C                     2.08484  -7.90941   10.35277 
 H                     1.21654  -8.34176   10.87898 
 H                     2.27044  -8.50032   9.44123 
 O                     3.24216  -7.85754   11.19561 
 H                     3.58527  -8.75942   11.30713 
 H                     1.83316  -6.6231    12.7588 
 H                     1.02447  -3.8444    12.72554 
 H                    -0.62306  -2.56016   10.74233 
 O                    -0.02755  -5.32144   3.91203 
 C                     1.15376  -4.6777    4.3818 
 C                     0.98082  -4.21954   5.82944 
 C                     0.44864  -5.30019   6.75274 
 C                    -0.90178  -5.77101   6.19985 
 C                    -0.67918  -6.27871   4.75783 
 H                     2.04001  -5.32994   4.27764 
 H                     0.20813  -3.43968   5.79879 
 H                     1.12974  -6.16859   6.81336 
 H                    -1.26985  -6.63136   6.78901 
 H                    -0.08179  -7.21094   4.81796 
 O                    -1.86216  -4.70255   6.26712 
 O                     2.21314  -3.6466    6.27834 
 O                     1.41142  -3.59071   3.52489 
 C                    -2.00159  -6.58873   4.04461 
 H                    -1.78742  -6.95949   3.03057 
 H                    -2.54391  -7.3747    4.59061 
 O                    -2.85236  -5.43538   3.99024 
 H                    -2.52912  -4.84448   3.24775 
 H                    -2.43489  -4.81209   5.44143 
 H                     2.17484  -3.66253   7.25419 
 O                    -0.47906  -1.26247   1.41928 
 C                    -1.08761  -0.47265   2.40021 
 C                    -0.09817  -0.07754   3.51323 
 C                     0.7987   -1.26175   3.94893 
 C                     0.3477   -2.6131    3.37404 
 C                     0.07147  -2.54013   1.857 
 H                    -1.42801   0.43538   1.87629 
 H                    -0.66861   0.24798   4.39576 
 H                     1.81649  -1.06154   3.57249 
 H                     1.04191  -2.62713   1.34176 
 H                    -0.55911  -2.95886   3.89195 
 O                     0.83816  -1.26869   5.3932 
 O                     0.66102   1.06337   3.12846 
 O                    -2.22379  -1.17478   2.94973 
 C                    -0.82566  -3.67005   1.34624 
 H                    -0.9851   -3.51302   0.26706 
 H                    -0.31731  -4.63113   1.49451 
 O                    -2.09224  -3.75544   2.01724 
 H                    -2.39533  -2.83178   2.18799 
 H                     1.60411  -1.82511   5.66333 
 H                     1.12324   0.85734   2.29387 
 C                    -3.35519  -0.3393    3.28006 
 H                    -3.00792   0.55386   3.82781 
 H                    -3.84211   0.00538   2.35175 
 C                    -4.3178   -1.16381   4.12439 
 H                    -4.73511  -1.97405   3.50632 
 H                    -5.16694  -0.51644   4.39739 
 C                    -3.68146  -1.77631   5.38136 
 H                    -4.42907  -2.41281   5.88151 
 H                    -2.86948  -2.44495   5.05554 
 C                    -3.14411  -0.74107   6.37722 
 H                    -2.38356  -0.09962   5.90253 
 H                    -3.95663  -0.06338   6.68563 
 C                    -2.55009  -1.33016   7.65112 
 H                    -3.27129  -1.96478   8.18452 
 H                    -2.23167  -0.5328    8.33558 
 N                    -1.34721  -2.18902   7.38472 
 H                    -1.60072  -3.09318   6.90355 
 H                    -0.91659  -2.48538   8.29325 
 H                    -0.64226  -1.7069    6.78994 
 
 The following ModRedundant input section has been read:
 B      45      84 B                                                           
 B      58      84 B                                                           
 B      56      84 B                                                           
 B      41      82 B                                                           
 B      62      82 B                                                           
 B      35      82 B                                                           
 B      13      83 B                                                           
 B      19      83 B                                                           
 B      14      83 B                                                           
 
 NAtoms=     84 NQM=       84 NQMF=       0 NMMI=      0 NMMIF=      0
                NMic=       0 NMicF=      0.
                    Isotopes and Nuclear Properties:
 (Nuclear quadrupole moments (NQMom) in fm**2, nuclear magnetic moments (NMagM)
  in nuclear magnetons)

  Atom         1           2           3           4           5           6           7           8           9          10
 IAtWgt=          16          12          12          12          12          12           1           1           1           1
 AtmWgt=  15.9949146  12.0000000  12.0000000  12.0000000  12.0000000  12.0000000   1.0078250   1.0078250   1.0078250   1.0078250
 NucSpn=           0           0           0           0           0           0           1           1           1           1
 AtZEff=   0.0000000   0.0000000   0.0000000   0.0000000   0.0000000   0.0000000   0.0000000   0.0000000   0.0000000   0.0000000
 NQMom=    0.0000000   0.0000000   0.0000000   0.0000000   0.0000000   0.0000000   0.0000000   0.0000000   0.0000000   0.0000000
 NMagM=    0.0000000   0.0000000   0.0000000   0.0000000   0.0000000   0.0000000   2.7928460   2.7928460   2.7928460   2.7928460
 AtZNuc=   8.0000000   6.0000000   6.0000000   6.0000000   6.0000000   6.0000000   1.0000000   1.0000000   1.0000000   1.0000000

  Atom        11          12          13          14          15          16          17          18          19          20
 IAtWgt=           1          16          16          16          16          12           1           1          16           1
 AtmWgt=   1.0078250  15.9949146  15.9949146  15.9949146  15.9949146  12.0000000   1.0078250   1.0078250  15.9949146   1.0078250
 NucSpn=           1           0           0           0           0           0           1           1           0           1
 AtZEff=   0.0000000   0.0000000   0.0000000   0.0000000   0.0000000   0.0000000   0.0000000   0.0000000   0.0000000   0.0000000
 NQMom=    0.0000000   0.0000000   0.0000000   0.0000000   0.0000000   0.0000000   0.0000000   0.0000000   0.0000000   0.0000000
 NMagM=    2.7928460   0.0000000   0.0000000   0.0000000   0.0000000   0.0000000   2.7928460   2.7928460   0.0000000   2.7928460
 AtZNuc=   1.0000000   8.0000000   8.0000000   8.0000000   8.0000000   6.0000000   1.0000000   1.0000000   8.0000000   1.0000000

  Atom        21          22          23          24          25          26          27          28          29          30
 IAtWgt=           1           1           1          16          12          12          12          12          12           1
 AtmWgt=   1.0078250   1.0078250   1.0078250  15.9949146  12.0000000  12.0000000  12.0000000  12.0000000  12.0000000   1.0078250
 NucSpn=           1           1           1           0           0           0           0           0           0           1
 AtZEff=   0.0000000   0.0000000   0.0000000   0.0000000   0.0000000   0.0000000   0.0000000   0.0000000   0.0000000   0.0000000
 NQMom=    0.0000000   0.0000000   0.0000000   0.0000000   0.0000000   0.0000000   0.0000000   0.0000000   0.0000000   0.0000000
 NMagM=    2.7928460   2.7928460   2.7928460   0.0000000   0.0000000   0.0000000   0.0000000   0.0000000   0.0000000   2.7928460
 AtZNuc=   1.0000000   1.0000000   1.0000000   8.0000000   6.0000000   6.0000000   6.0000000   6.0000000   6.0000000   1.0000000

  Atom        31          32          33          34          35          36          37          38          39          40
 IAtWgt=           1           1           1           1          16          16          16          12           1           1
 AtmWgt=   1.0078250   1.0078250   1.0078250   1.0078250  15.9949146  15.9949146  15.9949146  12.0000000   1.0078250   1.0078250
 NucSpn=           1           1           1           1           0           0           0           0           1           1
 AtZEff=   0.0000000   0.0000000   0.0000000   0.0000000   0.0000000   0.0000000   0.0000000   0.0000000   0.0000000   0.0000000
 NQMom=    0.0000000   0.0000000   0.0000000   0.0000000   0.0000000   0.0000000   0.0000000   0.0000000   0.0000000   0.0000000
 NMagM=    2.7928460   2.7928460   2.7928460   2.7928460   0.0000000   0.0000000   0.0000000   0.0000000   2.7928460   2.7928460
 AtZNuc=   1.0000000   1.0000000   1.0000000   1.0000000   8.0000000   8.0000000   8.0000000   6.0000000   1.0000000   1.0000000

  Atom        41          42          43          44          45          46          47          48          49          50
 IAtWgt=          16           1           1           1          16          12          12          12          12          12
 AtmWgt=  15.9949146   1.0078250   1.0078250   1.0078250  15.9949146  12.0000000  12.0000000  12.0000000  12.0000000  12.0000000
 NucSpn=           0           1           1           1           0           0           0           0           0           0
 AtZEff=   0.0000000   0.0000000   0.0000000   0.0000000   0.0000000   0.0000000   0.0000000   0.0000000   0.0000000   0.0000000
 NQMom=    0.0000000   0.0000000   0.0000000   0.0000000   0.0000000   0.0000000   0.0000000   0.0000000   0.0000000   0.0000000
 NMagM=    0.0000000   2.7928460   2.7928460   2.7928460   0.0000000   0.0000000   0.0000000   0.0000000   0.0000000   0.0000000
 AtZNuc=   8.0000000   1.0000000   1.0000000   1.0000000   8.0000000   6.0000000   6.0000000   6.0000000   6.0000000   6.0000000

  Atom        51          52          53          54          55          56          57          58          59          60
 IAtWgt=           1           1           1           1           1          16          16          16          12           1
 AtmWgt=   1.0078250   1.0078250   1.0078250   1.0078250   1.0078250  15.9949146  15.9949146  15.9949146  12.0000000   1.0078250
 NucSpn=           1           1           1           1           1           0           0           0           0           1
 AtZEff=   0.0000000   0.0000000   0.0000000   0.0000000   0.0000000   0.0000000   0.0000000   0.0000000   0.0000000   0.0000000
 NQMom=    0.0000000   0.0000000   0.0000000   0.0000000   0.0000000   0.0000000   0.0000000   0.0000000   0.0000000   0.0000000
 NMagM=    2.7928460   2.7928460   2.7928460   2.7928460   2.7928460   0.0000000   0.0000000   0.0000000   0.0000000   2.7928460
 AtZNuc=   1.0000000   1.0000000   1.0000000   1.0000000   1.0000000   8.0000000   8.0000000   8.0000000   6.0000000   1.0000000

  Atom        61          62          63          64          65          66          67          68          69          70
 IAtWgt=           1          16           1           1           1          12           1           1          12           1
 AtmWgt=   1.0078250  15.9949146   1.0078250   1.0078250   1.0078250  12.0000000   1.0078250   1.0078250  12.0000000   1.0078250
 NucSpn=           1           0           1           1           1           0           1           1           0           1
 AtZEff=   0.0000000   0.0000000   0.0000000   0.0000000   0.0000000   0.0000000   0.0000000   0.0000000   0.0000000   0.0000000
 NQMom=    0.0000000   0.0000000   0.0000000   0.0000000   0.0000000   0.0000000   0.0000000   0.0000000   0.0000000   0.0000000
 NMagM=    2.7928460   0.0000000   2.7928460   2.7928460   2.7928460   0.0000000   2.7928460   2.7928460   0.0000000   2.7928460
 AtZNuc=   1.0000000   8.0000000   1.0000000   1.0000000   1.0000000   6.0000000   1.0000000   1.0000000   6.0000000   1.0000000

  Atom        71          72          73          74          75          76          77          78          79          80
 IAtWgt=           1          12           1           1          12           1           1          12           1           1
 AtmWgt=   1.0078250  12.0000000   1.0078250   1.0078250  12.0000000   1.0078250   1.0078250  12.0000000   1.0078250   1.0078250
 NucSpn=           1           0           1           1           0           1           1           0           1           1
 AtZEff=   0.0000000   0.0000000   0.0000000   0.0000000   0.0000000   0.0000000   0.0000000   0.0000000   0.0000000   0.0000000
 NQMom=    0.0000000   0.0000000   0.0000000   0.0000000   0.0000000   0.0000000   0.0000000   0.0000000   0.0000000   0.0000000
 NMagM=    2.7928460   0.0000000   2.7928460   2.7928460   0.0000000   2.7928460   2.7928460   0.0000000   2.7928460   2.7928460
 AtZNuc=   1.0000000   6.0000000   1.0000000   1.0000000   6.0000000   1.0000000   1.0000000   6.0000000   1.0000000   1.0000000

  Atom        81          82          83          84
 IAtWgt=          14           1           1           1
 AtmWgt=  14.0030740   1.0078250   1.0078250   1.0078250
 NucSpn=           2           1           1           1
 AtZEff=   0.0000000   0.0000000   0.0000000   0.0000000
 NQMom=    2.0440000   0.0000000   0.0000000   0.0000000
 NMagM=    0.4037610   2.7928460   2.7928460   2.7928460
 AtZNuc=   7.0000000   1.0000000   1.0000000   1.0000000
 Leave Link  101 at Sat Apr 30 08:01:04 2016, MaxMem= 10737418240 cpu:         4.7
 (Enter /share/apps//g09/l103.exe)

 GradGradGradGradGradGradGradGradGradGradGradGradGradGradGradGradGradGrad
 Berny optimization.
 Initialization pass.
                           ----------------------------
                           !    Initial Parameters    !
                           ! (Angstroms and Degrees)  !
 --------------------------                            --------------------------
 ! Name  Definition              Value          Derivative Info.                !
 --------------------------------------------------------------------------------
 ! R1    R(1,2)                  1.4059         estimate D2E/DX2                !
 ! R2    R(1,6)                  1.4499         estimate D2E/DX2                !
 ! R3    R(2,3)                  1.5308         estimate D2E/DX2                !
 ! R4    R(2,7)                  1.102          estimate D2E/DX2                !
 ! R5    R(2,15)                 1.4307         estimate D2E/DX2                !
 ! R6    R(3,4)                  1.5303         estimate D2E/DX2                !
 ! R7    R(3,8)                  1.1033         estimate D2E/DX2                !
 ! R8    R(3,14)                 1.4409         estimate D2E/DX2                !
 ! R9    R(4,5)                  1.5303         estimate D2E/DX2                !
 ! R10   R(4,9)                  1.1018         estimate D2E/DX2                !
 ! R11   R(4,13)                 1.4253         estimate D2E/DX2                !
 ! R12   R(5,6)                  1.541          estimate D2E/DX2                !
 ! R13   R(5,10)                 1.1025         estimate D2E/DX2                !
 ! R14   R(5,12)                 1.4326         estimate D2E/DX2                !
 ! R15   R(6,11)                 1.1063         estimate D2E/DX2                !
 ! R16   R(6,16)                 1.5314         estimate D2E/DX2                !
 ! R17   R(12,21)                0.9749         estimate D2E/DX2                !
 ! R18   R(13,22)                0.9809         estimate D2E/DX2                !
 ! R19   R(13,83)                4.2688         estimate D2E/DX2                !
 ! R20   R(14,23)                0.9801         estimate D2E/DX2                !
 ! R21   R(14,83)                1.8184         estimate D2E/DX2                !
 ! R22   R(15,27)                1.4434         estimate D2E/DX2                !
 ! R23   R(16,17)                1.1035         estimate D2E/DX2                !
 ! R24   R(16,18)                1.1021         estimate D2E/DX2                !
 ! R25   R(16,19)                1.4326         estimate D2E/DX2                !
 ! R26   R(19,20)                0.9714         estimate D2E/DX2                !
 ! R27   R(19,83)                7.3878         estimate D2E/DX2                !
 ! R28   R(24,25)                1.425          estimate D2E/DX2                !
 ! R29   R(24,29)                1.434          estimate D2E/DX2                !
 ! R30   R(25,26)                1.5282         estimate D2E/DX2                !
 ! R31   R(25,30)                1.1053         estimate D2E/DX2                !
 ! R32   R(25,37)                1.4079         estimate D2E/DX2                !
 ! R33   R(26,27)                1.5177         estimate D2E/DX2                !
 ! R34   R(26,31)                1.0983         estimate D2E/DX2                !
 ! R35   R(26,36)                1.4312         estimate D2E/DX2                !
 ! R36   R(27,28)                1.5333         estimate D2E/DX2                !
 ! R37   R(27,32)                1.1053         estimate D2E/DX2                !
 ! R38   R(28,29)                1.5449         estimate D2E/DX2                !
 ! R39   R(28,33)                1.1058         estimate D2E/DX2                !
 ! R40   R(28,35)                1.4382         estimate D2E/DX2                !
 ! R41   R(29,34)                1.1088         estimate D2E/DX2                !
 ! R42   R(29,38)                1.5341         estimate D2E/DX2                !
 ! R43   R(35,43)                1.0108         estimate D2E/DX2                !
 ! R44   R(35,82)                1.7503         estimate D2E/DX2                !
 ! R45   R(36,44)                0.9767         estimate D2E/DX2                !
 ! R46   R(37,49)                1.4526         estimate D2E/DX2                !
 ! R47   R(38,39)                1.1007         estimate D2E/DX2                !
 ! R48   R(38,40)                1.1            estimate D2E/DX2                !
 ! R49   R(38,41)                1.4342         estimate D2E/DX2                !
 ! R50   R(41,42)                1.0025         estimate D2E/DX2                !
 ! R51   R(41,82)                3.9421         estimate D2E/DX2                !
 ! R52   R(45,46)                1.3987         estimate D2E/DX2                !
 ! R53   R(45,50)                1.4585         estimate D2E/DX2                !
 ! R54   R(45,84)                5.3915         estimate D2E/DX2                !
 ! R55   R(46,47)                1.5408         estimate D2E/DX2                !
 ! R56   R(46,51)                1.1022         estimate D2E/DX2                !
 ! R57   R(46,58)                1.4443         estimate D2E/DX2                !
 ! R58   R(47,48)                1.5481         estimate D2E/DX2                !
 ! R59   R(47,52)                1.1001         estimate D2E/DX2                !
 ! R60   R(47,57)                1.4234         estimate D2E/DX2                !
 ! R61   R(48,49)                1.5362         estimate D2E/DX2                !
 ! R62   R(48,53)                1.1035         estimate D2E/DX2                !
 ! R63   R(48,56)                1.4448         estimate D2E/DX2                !
 ! R64   R(49,50)                1.5437         estimate D2E/DX2                !
 ! R65   R(49,55)                1.1            estimate D2E/DX2                !
 ! R66   R(50,54)                1.1022         estimate D2E/DX2                !
 ! R67   R(50,59)                1.5305         estimate D2E/DX2                !
 ! R68   R(56,64)                0.9845         estimate D2E/DX2                !
 ! R69   R(56,84)                2.082          estimate D2E/DX2                !
 ! R70   R(57,65)                0.976          estimate D2E/DX2                !
 ! R71   R(58,66)                1.4447         estimate D2E/DX2                !
 ! R72   R(58,84)                4.1871         estimate D2E/DX2                !
 ! R73   R(59,60)                1.1021         estimate D2E/DX2                !
 ! R74   R(59,61)                1.0973         estimate D2E/DX2                !
 ! R75   R(59,62)                1.4359         estimate D2E/DX2                !
 ! R76   R(62,63)                0.987          estimate D2E/DX2                !
 ! R77   R(62,82)                4.9554         estimate D2E/DX2                !
 ! R78   R(66,67)                1.1038         estimate D2E/DX2                !
 ! R79   R(66,68)                1.1035         estimate D2E/DX2                !
 ! R80   R(66,69)                1.5229         estimate D2E/DX2                !
 ! R81   R(69,70)                1.1012         estimate D2E/DX2                !
 ! R82   R(69,71)                1.1021         estimate D2E/DX2                !
 ! R83   R(69,72)                1.5362         estimate D2E/DX2                !
 ! R84   R(72,73)                1.1019         estimate D2E/DX2                !
 ! R85   R(72,74)                1.1012         estimate D2E/DX2                !
 ! R86   R(72,75)                1.5337         estimate D2E/DX2                !
 ! R87   R(75,76)                1.1024         estimate D2E/DX2                !
 ! R88   R(75,77)                1.1021         estimate D2E/DX2                !
 ! R89   R(75,78)                1.524          estimate D2E/DX2                !
 ! R90   R(78,79)                1.0988         estimate D2E/DX2                !
 ! R91   R(78,80)                1.098          estimate D2E/DX2                !
 ! R92   R(78,81)                1.5018         estimate D2E/DX2                !
 ! R93   R(81,82)                1.0551         estimate D2E/DX2                !
 ! R94   R(81,83)                1.0482         estimate D2E/DX2                !
 ! R95   R(81,84)                1.0407         estimate D2E/DX2                !
 ! A1    A(2,1,6)              116.0846         estimate D2E/DX2                !
 ! A2    A(1,2,3)              110.6103         estimate D2E/DX2                !
 ! A3    A(1,2,7)              104.9911         estimate D2E/DX2                !
 ! A4    A(1,2,15)             113.8213         estimate D2E/DX2                !
 ! A5    A(3,2,7)              110.9427         estimate D2E/DX2                !
 ! A6    A(3,2,15)             106.7878         estimate D2E/DX2                !
 ! A7    A(7,2,15)             109.7488         estimate D2E/DX2                !
 ! A8    A(2,3,4)              111.1228         estimate D2E/DX2                !
 ! A9    A(2,3,8)              106.5202         estimate D2E/DX2                !
 ! A10   A(2,3,14)             110.753          estimate D2E/DX2                !
 ! A11   A(4,3,8)              109.1777         estimate D2E/DX2                !
 ! A12   A(4,3,14)             109.898          estimate D2E/DX2                !
 ! A13   A(8,3,14)             109.288          estimate D2E/DX2                !
 ! A14   A(3,4,5)              109.9815         estimate D2E/DX2                !
 ! A15   A(3,4,9)              109.0944         estimate D2E/DX2                !
 ! A16   A(3,4,13)             109.3503         estimate D2E/DX2                !
 ! A17   A(5,4,9)              109.2728         estimate D2E/DX2                !
 ! A18   A(5,4,13)             112.6567         estimate D2E/DX2                !
 ! A19   A(9,4,13)             106.375          estimate D2E/DX2                !
 ! A20   A(4,5,6)              110.0685         estimate D2E/DX2                !
 ! A21   A(4,5,10)             109.1089         estimate D2E/DX2                !
 ! A22   A(4,5,12)             106.095          estimate D2E/DX2                !
 ! A23   A(6,5,10)             107.4861         estimate D2E/DX2                !
 ! A24   A(6,5,12)             113.796          estimate D2E/DX2                !
 ! A25   A(10,5,12)            110.232          estimate D2E/DX2                !
 ! A26   A(1,6,5)              113.866          estimate D2E/DX2                !
 ! A27   A(1,6,11)             109.4521         estimate D2E/DX2                !
 ! A28   A(1,6,16)             104.1606         estimate D2E/DX2                !
 ! A29   A(5,6,11)             107.1845         estimate D2E/DX2                !
 ! A30   A(5,6,16)             112.2159         estimate D2E/DX2                !
 ! A31   A(11,6,16)            109.9395         estimate D2E/DX2                !
 ! A32   A(5,12,21)            106.9264         estimate D2E/DX2                !
 ! A33   A(4,13,22)            105.5538         estimate D2E/DX2                !
 ! A34   A(4,13,83)             57.3992         estimate D2E/DX2                !
 ! A35   A(22,13,83)           136.5063         estimate D2E/DX2                !
 ! A36   A(3,14,23)            104.187          estimate D2E/DX2                !
 ! A37   A(3,14,83)            123.1403         estimate D2E/DX2                !
 ! A38   A(23,14,83)           120.7516         estimate D2E/DX2                !
 ! A39   A(2,15,27)            117.2998         estimate D2E/DX2                !
 ! A40   A(6,16,17)            107.9489         estimate D2E/DX2                !
 ! A41   A(6,16,18)            109.5984         estimate D2E/DX2                !
 ! A42   A(6,16,19)            107.3526         estimate D2E/DX2                !
 ! A43   A(17,16,18)           108.4726         estimate D2E/DX2                !
 ! A44   A(17,16,19)           111.6713         estimate D2E/DX2                !
 ! A45   A(18,16,19)           111.714          estimate D2E/DX2                !
 ! A46   A(16,19,20)           108.6188         estimate D2E/DX2                !
 ! A47   A(16,19,83)            48.7352         estimate D2E/DX2                !
 ! A48   A(20,19,83)           156.7943         estimate D2E/DX2                !
 ! A49   A(25,24,29)           118.936          estimate D2E/DX2                !
 ! A50   A(24,25,26)           110.7263         estimate D2E/DX2                !
 ! A51   A(24,25,30)           111.5342         estimate D2E/DX2                !
 ! A52   A(24,25,37)           107.4482         estimate D2E/DX2                !
 ! A53   A(26,25,30)           110.9108         estimate D2E/DX2                !
 ! A54   A(26,25,37)           111.4562         estimate D2E/DX2                !
 ! A55   A(30,25,37)           104.566          estimate D2E/DX2                !
 ! A56   A(25,26,27)           113.7334         estimate D2E/DX2                !
 ! A57   A(25,26,31)           105.4302         estimate D2E/DX2                !
 ! A58   A(25,26,36)           108.644          estimate D2E/DX2                !
 ! A59   A(27,26,31)           106.0142         estimate D2E/DX2                !
 ! A60   A(27,26,36)           113.337          estimate D2E/DX2                !
 ! A61   A(31,26,36)           109.2857         estimate D2E/DX2                !
 ! A62   A(15,27,26)           103.1189         estimate D2E/DX2                !
 ! A63   A(15,27,28)           115.334          estimate D2E/DX2                !
 ! A64   A(15,27,32)           109.5454         estimate D2E/DX2                !
 ! A65   A(26,27,28)           107.9444         estimate D2E/DX2                !
 ! A66   A(26,27,32)           112.1297         estimate D2E/DX2                !
 ! A67   A(28,27,32)           108.7381         estimate D2E/DX2                !
 ! A68   A(27,28,29)           108.0944         estimate D2E/DX2                !
 ! A69   A(27,28,33)           109.8734         estimate D2E/DX2                !
 ! A70   A(27,28,35)           110.0676         estimate D2E/DX2                !
 ! A71   A(29,28,33)           106.8331         estimate D2E/DX2                !
 ! A72   A(29,28,35)           112.5825         estimate D2E/DX2                !
 ! A73   A(33,28,35)           109.3186         estimate D2E/DX2                !
 ! A74   A(24,29,28)           113.3681         estimate D2E/DX2                !
 ! A75   A(24,29,34)           110.3891         estimate D2E/DX2                !
 ! A76   A(24,29,38)           104.6192         estimate D2E/DX2                !
 ! A77   A(28,29,34)           107.6556         estimate D2E/DX2                !
 ! A78   A(28,29,38)           112.0953         estimate D2E/DX2                !
 ! A79   A(34,29,38)           108.6456         estimate D2E/DX2                !
 ! A80   A(28,35,43)           105.0484         estimate D2E/DX2                !
 ! A81   A(28,35,82)           126.8959         estimate D2E/DX2                !
 ! A82   A(43,35,82)           118.7698         estimate D2E/DX2                !
 ! A83   A(26,36,44)           105.8473         estimate D2E/DX2                !
 ! A84   A(25,37,49)           116.6666         estimate D2E/DX2                !
 ! A85   A(29,38,39)           109.186          estimate D2E/DX2                !
 ! A86   A(29,38,40)           109.7923         estimate D2E/DX2                !
 ! A87   A(29,38,41)           111.4966         estimate D2E/DX2                !
 ! A88   A(39,38,40)           108.2117         estimate D2E/DX2                !
 ! A89   A(39,38,41)           110.5707         estimate D2E/DX2                !
 ! A90   A(40,38,41)           107.515          estimate D2E/DX2                !
 ! A91   A(38,41,42)           108.1086         estimate D2E/DX2                !
 ! A92   A(38,41,82)           105.1555         estimate D2E/DX2                !
 ! A93   A(42,41,82)            95.4382         estimate D2E/DX2                !
 ! A94   A(46,45,50)           116.643          estimate D2E/DX2                !
 ! A95   A(46,45,84)            48.3003         estimate D2E/DX2                !
 ! A96   A(50,45,84)            68.915          estimate D2E/DX2                !
 ! A97   A(45,46,47)           111.8406         estimate D2E/DX2                !
 ! A98   A(45,46,51)           105.4386         estimate D2E/DX2                !
 ! A99   A(45,46,58)           109.5478         estimate D2E/DX2                !
 ! A100  A(47,46,51)           109.2955         estimate D2E/DX2                !
 ! A101  A(47,46,58)           110.7939         estimate D2E/DX2                !
 ! A102  A(51,46,58)           109.7799         estimate D2E/DX2                !
 ! A103  A(46,47,48)           112.2835         estimate D2E/DX2                !
 ! A104  A(46,47,52)           108.8085         estimate D2E/DX2                !
 ! A105  A(46,47,57)           110.6578         estimate D2E/DX2                !
 ! A106  A(48,47,52)           107.5162         estimate D2E/DX2                !
 ! A107  A(48,47,57)           112.347          estimate D2E/DX2                !
 ! A108  A(52,47,57)           104.8474         estimate D2E/DX2                !
 ! A109  A(47,48,49)           113.4211         estimate D2E/DX2                !
 ! A110  A(47,48,53)           107.4306         estimate D2E/DX2                !
 ! A111  A(47,48,56)           107.5077         estimate D2E/DX2                !
 ! A112  A(49,48,53)           107.6205         estimate D2E/DX2                !
 ! A113  A(49,48,56)           112.2016         estimate D2E/DX2                !
 ! A114  A(53,48,56)           108.4626         estimate D2E/DX2                !
 ! A115  A(37,49,48)           109.7655         estimate D2E/DX2                !
 ! A116  A(37,49,50)           105.3614         estimate D2E/DX2                !
 ! A117  A(37,49,55)           110.0739         estimate D2E/DX2                !
 ! A118  A(48,49,50)           112.2535         estimate D2E/DX2                !
 ! A119  A(48,49,55)           110.0174         estimate D2E/DX2                !
 ! A120  A(50,49,55)           109.2704         estimate D2E/DX2                !
 ! A121  A(45,50,49)           113.8219         estimate D2E/DX2                !
 ! A122  A(45,50,54)           105.1416         estimate D2E/DX2                !
 ! A123  A(45,50,59)           108.9854         estimate D2E/DX2                !
 ! A124  A(49,50,54)           107.3445         estimate D2E/DX2                !
 ! A125  A(49,50,59)           113.4498         estimate D2E/DX2                !
 ! A126  A(54,50,59)           107.5672         estimate D2E/DX2                !
 ! A127  A(48,56,64)           107.3518         estimate D2E/DX2                !
 ! A128  A(48,56,84)           130.7085         estimate D2E/DX2                !
 ! A129  A(64,56,84)           104.4883         estimate D2E/DX2                !
 ! A130  A(47,57,65)           108.3326         estimate D2E/DX2                !
 ! A131  A(46,58,66)           114.9568         estimate D2E/DX2                !
 ! A132  A(46,58,84)            96.5231         estimate D2E/DX2                !
 ! A133  A(66,58,84)            99.1831         estimate D2E/DX2                !
 ! A134  A(50,59,60)           107.8412         estimate D2E/DX2                !
 ! A135  A(50,59,61)           109.2668         estimate D2E/DX2                !
 ! A136  A(50,59,62)           113.8915         estimate D2E/DX2                !
 ! A137  A(60,59,61)           108.912          estimate D2E/DX2                !
 ! A138  A(60,59,62)           109.7819         estimate D2E/DX2                !
 ! A139  A(61,59,62)           107.0627         estimate D2E/DX2                !
 ! A140  A(59,62,63)           107.2215         estimate D2E/DX2                !
 ! A141  A(59,62,82)           111.4291         estimate D2E/DX2                !
 ! A142  A(63,62,82)            74.6215         estimate D2E/DX2                !
 ! A143  A(58,66,67)           109.574          estimate D2E/DX2                !
 ! A144  A(58,66,68)           109.5026         estimate D2E/DX2                !
 ! A145  A(58,66,69)           107.9792         estimate D2E/DX2                !
 ! A146  A(67,66,68)           107.6706         estimate D2E/DX2                !
 ! A147  A(67,66,69)           111.2121         estimate D2E/DX2                !
 ! A148  A(68,66,69)           110.8917         estimate D2E/DX2                !
 ! A149  A(66,69,70)           109.0689         estimate D2E/DX2                !
 ! A150  A(66,69,71)           107.8372         estimate D2E/DX2                !
 ! A151  A(66,69,72)           114.0579         estimate D2E/DX2                !
 ! A152  A(70,69,71)           106.215          estimate D2E/DX2                !
 ! A153  A(70,69,72)           108.8355         estimate D2E/DX2                !
 ! A154  A(71,69,72)           110.5274         estimate D2E/DX2                !
 ! A155  A(69,72,73)           108.7022         estimate D2E/DX2                !
 ! A156  A(69,72,74)           107.7844         estimate D2E/DX2                !
 ! A157  A(69,72,75)           114.0345         estimate D2E/DX2                !
 ! A158  A(73,72,74)           106.49           estimate D2E/DX2                !
 ! A159  A(73,72,75)           109.4443         estimate D2E/DX2                !
 ! A160  A(74,72,75)           110.099          estimate D2E/DX2                !
 ! A161  A(72,75,76)           110.7867         estimate D2E/DX2                !
 ! A162  A(72,75,77)           109.7837         estimate D2E/DX2                !
 ! A163  A(72,75,78)           114.7336         estimate D2E/DX2                !
 ! A164  A(76,75,77)           105.7444         estimate D2E/DX2                !
 ! A165  A(76,75,78)           108.4175         estimate D2E/DX2                !
 ! A166  A(77,75,78)           106.9258         estimate D2E/DX2                !
 ! A167  A(75,78,79)           111.9118         estimate D2E/DX2                !
 ! A168  A(75,78,80)           110.6944         estimate D2E/DX2                !
 ! A169  A(75,78,81)           112.641          estimate D2E/DX2                !
 ! A170  A(79,78,80)           107.8871         estimate D2E/DX2                !
 ! A171  A(79,78,81)           106.3505         estimate D2E/DX2                !
 ! A172  A(80,78,81)           107.0727         estimate D2E/DX2                !
 ! A173  A(78,81,82)           112.2409         estimate D2E/DX2                !
 ! A174  A(78,81,83)           109.6933         estimate D2E/DX2                !
 ! A175  A(78,81,84)           112.2699         estimate D2E/DX2                !
 ! A176  A(82,81,83)           104.5778         estimate D2E/DX2                !
 ! A177  A(82,81,84)           107.4028         estimate D2E/DX2                !
 ! A178  A(83,81,84)           110.3684         estimate D2E/DX2                !
 ! A179  A(35,82,41)            30.4045         estimate D2E/DX2                !
 ! A180  A(35,82,62)            60.248          estimate D2E/DX2                !
 ! A181  A(41,82,62)            32.8997         estimate D2E/DX2                !
 ! A182  A(41,82,81)           157.2868         estimate D2E/DX2                !
 ! A183  A(62,82,81)           126.0168         estimate D2E/DX2                !
 ! A184  A(13,83,14)            28.2102         estimate D2E/DX2                !
 ! A185  A(13,83,19)            41.9465         estimate D2E/DX2                !
 ! A186  A(14,83,19)            49.3816         estimate D2E/DX2                !
 ! A187  A(14,83,81)           157.7627         estimate D2E/DX2                !
 ! A188  A(19,83,81)           141.0212         estimate D2E/DX2                !
 ! A189  A(45,84,56)            44.9957         estimate D2E/DX2                !
 ! A190  A(45,84,58)            24.1248         estimate D2E/DX2                !
 ! A191  A(45,84,81)           128.9008         estimate D2E/DX2                !
 ! A192  A(56,84,58)            68.0704         estimate D2E/DX2                !
 ! A193  A(56,84,81)           164.2696         estimate D2E/DX2                !
 ! A194  A(58,84,81)           109.0974         estimate D2E/DX2                !
 ! A195  L(35,82,81,41,-1)     187.6913         estimate D2E/DX2                !
 ! A196  L(13,83,81,14,-1)     185.9729         estimate D2E/DX2                !
 ! A197  L(35,82,81,41,-2)     186.7692         estimate D2E/DX2                !
 ! A198  L(13,83,81,14,-2)     170.8179         estimate D2E/DX2                !
 ! D1    D(6,1,2,3)            -54.3321         estimate D2E/DX2                !
 ! D2    D(6,1,2,7)           -174.0703         estimate D2E/DX2                !
 ! D3    D(6,1,2,15)            65.8899         estimate D2E/DX2                !
 ! D4    D(2,1,6,5)             51.6424         estimate D2E/DX2                !
 ! D5    D(2,1,6,11)           -68.2839         estimate D2E/DX2                !
 ! D6    D(2,1,6,16)           174.1924         estimate D2E/DX2                !
 ! D7    D(1,2,3,4)             56.6287         estimate D2E/DX2                !
 ! D8    D(1,2,3,8)            -62.1813         estimate D2E/DX2                !
 ! D9    D(1,2,3,14)           179.0789         estimate D2E/DX2                !
 ! D10   D(7,2,3,4)            172.7221         estimate D2E/DX2                !
 ! D11   D(7,2,3,8)             53.9121         estimate D2E/DX2                !
 ! D12   D(7,2,3,14)           -64.8277         estimate D2E/DX2                !
 ! D13   D(15,2,3,4)           -67.716          estimate D2E/DX2                !
 ! D14   D(15,2,3,8)           173.474          estimate D2E/DX2                !
 ! D15   D(15,2,3,14)           54.7341         estimate D2E/DX2                !
 ! D16   D(1,2,15,27)           60.7542         estimate D2E/DX2                !
 ! D17   D(3,2,15,27)         -176.8943         estimate D2E/DX2                !
 ! D18   D(7,2,15,27)          -56.5639         estimate D2E/DX2                !
 ! D19   D(2,3,4,5)            -56.343          estimate D2E/DX2                !
 ! D20   D(2,3,4,9)             63.4934         estimate D2E/DX2                !
 ! D21   D(2,3,4,13)           179.4549         estimate D2E/DX2                !
 ! D22   D(8,3,4,5)             60.8578         estimate D2E/DX2                !
 ! D23   D(8,3,4,9)           -179.3058         estimate D2E/DX2                !
 ! D24   D(8,3,4,13)           -63.3443         estimate D2E/DX2                !
 ! D25   D(14,3,4,5)          -179.2866         estimate D2E/DX2                !
 ! D26   D(14,3,4,9)           -59.4502         estimate D2E/DX2                !
 ! D27   D(14,3,4,13)           56.5114         estimate D2E/DX2                !
 ! D28   D(2,3,14,23)         -168.3084         estimate D2E/DX2                !
 ! D29   D(2,3,14,83)          -25.6617         estimate D2E/DX2                !
 ! D30   D(4,3,14,23)          -45.1474         estimate D2E/DX2                !
 ! D31   D(4,3,14,83)           97.4993         estimate D2E/DX2                !
 ! D32   D(8,3,14,23)           74.6411         estimate D2E/DX2                !
 ! D33   D(8,3,14,83)         -142.7122         estimate D2E/DX2                !
 ! D34   D(3,4,5,6)             51.5434         estimate D2E/DX2                !
 ! D35   D(3,4,5,10)           169.2614         estimate D2E/DX2                !
 ! D36   D(3,4,5,12)           -71.9952         estimate D2E/DX2                !
 ! D37   D(9,4,5,6)            -68.1846         estimate D2E/DX2                !
 ! D38   D(9,4,5,10)            49.5335         estimate D2E/DX2                !
 ! D39   D(9,4,5,12)           168.2768         estimate D2E/DX2                !
 ! D40   D(13,4,5,6)           173.8076         estimate D2E/DX2                !
 ! D41   D(13,4,5,10)          -68.4743         estimate D2E/DX2                !
 ! D42   D(13,4,5,12)           50.269          estimate D2E/DX2                !
 ! D43   D(3,4,13,22)           87.3892         estimate D2E/DX2                !
 ! D44   D(3,4,13,83)          -48.3237         estimate D2E/DX2                !
 ! D45   D(5,4,13,22)          -35.2299         estimate D2E/DX2                !
 ! D46   D(5,4,13,83)         -170.9428         estimate D2E/DX2                !
 ! D47   D(9,4,13,22)         -154.929          estimate D2E/DX2                !
 ! D48   D(9,4,13,83)           69.3582         estimate D2E/DX2                !
 ! D49   D(4,5,6,1)            -48.6818         estimate D2E/DX2                !
 ! D50   D(4,5,6,11)            72.516          estimate D2E/DX2                !
 ! D51   D(4,5,6,16)          -166.694          estimate D2E/DX2                !
 ! D52   D(10,5,6,1)          -167.3999         estimate D2E/DX2                !
 ! D53   D(10,5,6,11)          -46.2021         estimate D2E/DX2                !
 ! D54   D(10,5,6,16)           74.5878         estimate D2E/DX2                !
 ! D55   D(12,5,6,1)            70.2437         estimate D2E/DX2                !
 ! D56   D(12,5,6,11)         -168.5585         estimate D2E/DX2                !
 ! D57   D(12,5,6,16)          -47.7686         estimate D2E/DX2                !
 ! D58   D(4,5,12,21)         -159.9438         estimate D2E/DX2                !
 ! D59   D(6,5,12,21)           78.8874         estimate D2E/DX2                !
 ! D60   D(10,5,12,21)         -41.9438         estimate D2E/DX2                !
 ! D61   D(1,6,16,17)          -44.9835         estimate D2E/DX2                !
 ! D62   D(1,6,16,18)           72.9782         estimate D2E/DX2                !
 ! D63   D(1,6,16,19)         -165.5076         estimate D2E/DX2                !
 ! D64   D(5,6,16,17)           78.6435         estimate D2E/DX2                !
 ! D65   D(5,6,16,18)         -163.3948         estimate D2E/DX2                !
 ! D66   D(5,6,16,19)          -41.8806         estimate D2E/DX2                !
 ! D67   D(11,6,16,17)        -162.1699         estimate D2E/DX2                !
 ! D68   D(11,6,16,18)         -44.2082         estimate D2E/DX2                !
 ! D69   D(11,6,16,19)          77.306          estimate D2E/DX2                !
 ! D70   D(4,13,83,14)          93.7302         estimate D2E/DX2                !
 ! D71   D(4,13,83,19)           2.9313         estimate D2E/DX2                !
 ! D72   D(22,13,83,14)         15.9488         estimate D2E/DX2                !
 ! D73   D(22,13,83,19)        -74.8502         estimate D2E/DX2                !
 ! D74   D(3,14,83,13)         -77.6168         estimate D2E/DX2                !
 ! D75   D(3,14,83,19)         -15.9113         estimate D2E/DX2                !
 ! D76   D(3,14,83,81)         111.5653         estimate D2E/DX2                !
 ! D77   D(23,14,83,13)         59.1897         estimate D2E/DX2                !
 ! D78   D(23,14,83,19)        120.8952         estimate D2E/DX2                !
 ! D79   D(23,14,83,81)       -111.6282         estimate D2E/DX2                !
 ! D80   D(2,15,27,26)         172.3051         estimate D2E/DX2                !
 ! D81   D(2,15,27,28)          54.8956         estimate D2E/DX2                !
 ! D82   D(2,15,27,32)         -68.1446         estimate D2E/DX2                !
 ! D83   D(6,16,19,20)        -168.9302         estimate D2E/DX2                !
 ! D84   D(6,16,19,83)           5.145          estimate D2E/DX2                !
 ! D85   D(17,16,19,20)         72.9326         estimate D2E/DX2                !
 ! D86   D(17,16,19,83)       -112.9922         estimate D2E/DX2                !
 ! D87   D(18,16,19,20)        -48.7516         estimate D2E/DX2                !
 ! D88   D(18,16,19,83)        125.3236         estimate D2E/DX2                !
 ! D89   D(16,19,83,13)        142.3982         estimate D2E/DX2                !
 ! D90   D(16,19,83,14)        103.8852         estimate D2E/DX2                !
 ! D91   D(16,19,83,81)        -47.5956         estimate D2E/DX2                !
 ! D92   D(20,19,83,13)        156.7724         estimate D2E/DX2                !
 ! D93   D(20,19,83,14)        118.2595         estimate D2E/DX2                !
 ! D94   D(20,19,83,81)        -33.2214         estimate D2E/DX2                !
 ! D95   D(29,24,25,26)        -44.7564         estimate D2E/DX2                !
 ! D96   D(29,24,25,30)         79.2691         estimate D2E/DX2                !
 ! D97   D(29,24,25,37)       -166.6873         estimate D2E/DX2                !
 ! D98   D(25,24,29,28)         48.8518         estimate D2E/DX2                !
 ! D99   D(25,24,29,34)        -72.0169         estimate D2E/DX2                !
 ! D100  D(25,24,29,38)        171.2751         estimate D2E/DX2                !
 ! D101  D(24,25,26,27)         49.6599         estimate D2E/DX2                !
 ! D102  D(24,25,26,31)        -66.0608         estimate D2E/DX2                !
 ! D103  D(24,25,26,36)        176.8918         estimate D2E/DX2                !
 ! D104  D(30,25,26,27)        -74.7218         estimate D2E/DX2                !
 ! D105  D(30,25,26,31)        169.5576         estimate D2E/DX2                !
 ! D106  D(30,25,26,36)         52.5101         estimate D2E/DX2                !
 ! D107  D(37,25,26,27)        169.21           estimate D2E/DX2                !
 ! D108  D(37,25,26,31)         53.4893         estimate D2E/DX2                !
 ! D109  D(37,25,26,36)        -63.5582         estimate D2E/DX2                !
 ! D110  D(24,25,37,49)         56.3945         estimate D2E/DX2                !
 ! D111  D(26,25,37,49)        -65.0806         estimate D2E/DX2                !
 ! D112  D(30,25,37,49)        175.0283         estimate D2E/DX2                !
 ! D113  D(25,26,27,15)        179.2258         estimate D2E/DX2                !
 ! D114  D(25,26,27,28)        -58.2741         estimate D2E/DX2                !
 ! D115  D(25,26,27,32)         61.476          estimate D2E/DX2                !
 ! D116  D(31,26,27,15)        -65.3974         estimate D2E/DX2                !
 ! D117  D(31,26,27,28)         57.1027         estimate D2E/DX2                !
 ! D118  D(31,26,27,32)        176.8528         estimate D2E/DX2                !
 ! D119  D(36,26,27,15)         54.4741         estimate D2E/DX2                !
 ! D120  D(36,26,27,28)        176.9741         estimate D2E/DX2                !
 ! D121  D(36,26,27,32)        -63.2758         estimate D2E/DX2                !
 ! D122  D(25,26,36,44)       -160.3938         estimate D2E/DX2                !
 ! D123  D(27,26,36,44)        -32.9356         estimate D2E/DX2                !
 ! D124  D(31,26,36,44)         85.0521         estimate D2E/DX2                !
 ! D125  D(15,27,28,29)        172.6001         estimate D2E/DX2                !
 ! D126  D(15,27,28,33)        -71.165          estimate D2E/DX2                !
 ! D127  D(15,27,28,35)         49.2697         estimate D2E/DX2                !
 ! D128  D(26,27,28,29)         57.937          estimate D2E/DX2                !
 ! D129  D(26,27,28,33)        174.1719         estimate D2E/DX2                !
 ! D130  D(26,27,28,35)        -65.3934         estimate D2E/DX2                !
 ! D131  D(32,27,28,29)        -63.9323         estimate D2E/DX2                !
 ! D132  D(32,27,28,33)         52.3025         estimate D2E/DX2                !
 ! D133  D(32,27,28,35)        172.7372         estimate D2E/DX2                !
 ! D134  D(27,28,29,24)        -53.7712         estimate D2E/DX2                !
 ! D135  D(27,28,29,34)         68.6275         estimate D2E/DX2                !
 ! D136  D(27,28,29,38)       -171.9448         estimate D2E/DX2                !
 ! D137  D(33,28,29,24)       -171.9676         estimate D2E/DX2                !
 ! D138  D(33,28,29,34)        -49.5688         estimate D2E/DX2                !
 ! D139  D(33,28,29,38)         69.8588         estimate D2E/DX2                !
 ! D140  D(35,28,29,24)         68.0217         estimate D2E/DX2                !
 ! D141  D(35,28,29,34)       -169.5796         estimate D2E/DX2                !
 ! D142  D(35,28,29,38)        -50.152          estimate D2E/DX2                !
 ! D143  D(27,28,35,43)        144.4219         estimate D2E/DX2                !
 ! D144  D(27,28,35,82)         -1.1689         estimate D2E/DX2                !
 ! D145  D(29,28,35,43)         23.7548         estimate D2E/DX2                !
 ! D146  D(29,28,35,82)       -121.836          estimate D2E/DX2                !
 ! D147  D(33,28,35,43)        -94.8095         estimate D2E/DX2                !
 ! D148  D(33,28,35,82)        119.5997         estimate D2E/DX2                !
 ! D149  D(24,29,38,39)         57.5857         estimate D2E/DX2                !
 ! D150  D(24,29,38,40)        176.0692         estimate D2E/DX2                !
 ! D151  D(24,29,38,41)        -64.8859         estimate D2E/DX2                !
 ! D152  D(28,29,38,39)       -179.1647         estimate D2E/DX2                !
 ! D153  D(28,29,38,40)        -60.6812         estimate D2E/DX2                !
 ! D154  D(28,29,38,41)         58.3637         estimate D2E/DX2                !
 ! D155  D(34,29,38,39)        -60.3193         estimate D2E/DX2                !
 ! D156  D(34,29,38,40)         58.1642         estimate D2E/DX2                !
 ! D157  D(34,29,38,41)        177.2091         estimate D2E/DX2                !
 ! D158  D(28,35,82,41)        128.8425         estimate D2E/DX2                !
 ! D159  D(28,35,82,62)        108.3651         estimate D2E/DX2                !
 ! D160  D(43,35,82,41)        -12.6534         estimate D2E/DX2                !
 ! D161  D(43,35,82,62)        -33.1308         estimate D2E/DX2                !
 ! D162  D(25,37,49,48)        114.8432         estimate D2E/DX2                !
 ! D163  D(25,37,49,50)       -124.0898         estimate D2E/DX2                !
 ! D164  D(25,37,49,55)         -6.3937         estimate D2E/DX2                !
 ! D165  D(29,38,41,42)         79.1398         estimate D2E/DX2                !
 ! D166  D(29,38,41,82)        -21.9226         estimate D2E/DX2                !
 ! D167  D(39,38,41,42)        -42.5327         estimate D2E/DX2                !
 ! D168  D(39,38,41,82)       -143.5952         estimate D2E/DX2                !
 ! D169  D(40,38,41,42)       -160.4684         estimate D2E/DX2                !
 ! D170  D(40,38,41,82)         98.4692         estimate D2E/DX2                !
 ! D171  D(38,41,82,35)        -32.5968         estimate D2E/DX2                !
 ! D172  D(38,41,82,62)        113.4049         estimate D2E/DX2                !
 ! D173  D(38,41,82,81)        140.634          estimate D2E/DX2                !
 ! D174  D(42,41,82,35)       -143.0389         estimate D2E/DX2                !
 ! D175  D(42,41,82,62)          2.9628         estimate D2E/DX2                !
 ! D176  D(42,41,82,81)         30.1919         estimate D2E/DX2                !
 ! D177  D(50,45,46,47)         61.0661         estimate D2E/DX2                !
 ! D178  D(50,45,46,51)        179.7519         estimate D2E/DX2                !
 ! D179  D(50,45,46,58)        -62.1745         estimate D2E/DX2                !
 ! D180  D(84,45,46,47)         51.489          estimate D2E/DX2                !
 ! D181  D(84,45,46,51)        170.1748         estimate D2E/DX2                !
 ! D182  D(84,45,46,58)        -71.7517         estimate D2E/DX2                !
 ! D183  D(46,45,50,49)        -20.5235         estimate D2E/DX2                !
 ! D184  D(46,45,50,54)       -137.7218         estimate D2E/DX2                !
 ! D185  D(46,45,50,59)        107.2056         estimate D2E/DX2                !
 ! D186  D(84,45,50,49)        -12.8726         estimate D2E/DX2                !
 ! D187  D(84,45,50,54)       -130.0709         estimate D2E/DX2                !
 ! D188  D(84,45,50,59)        114.8565         estimate D2E/DX2                !
 ! D189  D(46,45,84,56)       -111.1635         estimate D2E/DX2                !
 ! D190  D(46,45,84,58)         49.05           estimate D2E/DX2                !
 ! D191  D(46,45,84,81)         88.4055         estimate D2E/DX2                !
 ! D192  D(50,45,84,56)         78.0074         estimate D2E/DX2                !
 ! D193  D(50,45,84,58)       -121.7791         estimate D2E/DX2                !
 ! D194  D(50,45,84,81)        -82.4235         estimate D2E/DX2                !
 ! D195  D(45,46,47,48)        -43.0449         estimate D2E/DX2                !
 ! D196  D(45,46,47,52)       -161.9388         estimate D2E/DX2                !
 ! D197  D(45,46,47,57)         83.3708         estimate D2E/DX2                !
 ! D198  D(51,46,47,48)       -159.4158         estimate D2E/DX2                !
 ! D199  D(51,46,47,52)         81.6904         estimate D2E/DX2                !
 ! D200  D(51,46,47,57)        -33.0            estimate D2E/DX2                !
 ! D201  D(58,46,47,48)         79.4878         estimate D2E/DX2                !
 ! D202  D(58,46,47,52)        -39.406          estimate D2E/DX2                !
 ! D203  D(58,46,47,57)       -154.0964         estimate D2E/DX2                !
 ! D204  D(45,46,58,66)       -143.4621         estimate D2E/DX2                !
 ! D205  D(45,46,58,84)        113.218          estimate D2E/DX2                !
 ! D206  D(47,46,58,66)         92.6813         estimate D2E/DX2                !
 ! D207  D(47,46,58,84)        -10.6386         estimate D2E/DX2                !
 ! D208  D(51,46,58,66)        -28.1285         estimate D2E/DX2                !
 ! D209  D(51,46,58,84)       -131.4484         estimate D2E/DX2                !
 ! D210  D(46,47,48,49)        -10.3909         estimate D2E/DX2                !
 ! D211  D(46,47,48,53)        108.4103         estimate D2E/DX2                !
 ! D212  D(46,47,48,56)       -135.0325         estimate D2E/DX2                !
 ! D213  D(52,47,48,49)        109.2593         estimate D2E/DX2                !
 ! D214  D(52,47,48,53)       -131.9395         estimate D2E/DX2                !
 ! D215  D(52,47,48,56)        -15.3823         estimate D2E/DX2                !
 ! D216  D(57,47,48,49)       -135.8892         estimate D2E/DX2                !
 ! D217  D(57,47,48,53)        -17.088          estimate D2E/DX2                !
 ! D218  D(57,47,48,56)         99.4692         estimate D2E/DX2                !
 ! D219  D(46,47,57,65)        -57.3896         estimate D2E/DX2                !
 ! D220  D(48,47,57,65)         68.9908         estimate D2E/DX2                !
 ! D221  D(52,47,57,65)       -174.5453         estimate D2E/DX2                !
 ! D222  D(47,48,49,37)        164.94           estimate D2E/DX2                !
 ! D223  D(47,48,49,50)         48.1206         estimate D2E/DX2                !
 ! D224  D(47,48,49,55)        -73.7892         estimate D2E/DX2                !
 ! D225  D(53,48,49,37)         46.2481         estimate D2E/DX2                !
 ! D226  D(53,48,49,50)        -70.5713         estimate D2E/DX2                !
 ! D227  D(53,48,49,55)        167.5189         estimate D2E/DX2                !
 ! D228  D(56,48,49,37)        -72.9945         estimate D2E/DX2                !
 ! D229  D(56,48,49,50)        170.1861         estimate D2E/DX2                !
 ! D230  D(56,48,49,55)         48.2762         estimate D2E/DX2                !
 ! D231  D(47,48,56,64)       -163.014          estimate D2E/DX2                !
 ! D232  D(47,48,56,84)         69.0623         estimate D2E/DX2                !
 ! D233  D(49,48,56,64)         71.6121         estimate D2E/DX2                !
 ! D234  D(49,48,56,84)        -56.3115         estimate D2E/DX2                !
 ! D235  D(53,48,56,64)        -47.1356         estimate D2E/DX2                !
 ! D236  D(53,48,56,84)       -175.0593         estimate D2E/DX2                !
 ! D237  D(37,49,50,45)       -153.6084         estimate D2E/DX2                !
 ! D238  D(37,49,50,54)        -37.6943         estimate D2E/DX2                !
 ! D239  D(37,49,50,59)         81.0005         estimate D2E/DX2                !
 ! D240  D(48,49,50,45)        -34.1801         estimate D2E/DX2                !
 ! D241  D(48,49,50,54)         81.734          estimate D2E/DX2                !
 ! D242  D(48,49,50,59)       -159.5712         estimate D2E/DX2                !
 ! D243  D(55,49,50,45)         88.1545         estimate D2E/DX2                !
 ! D244  D(55,49,50,54)       -155.9314         estimate D2E/DX2                !
 ! D245  D(55,49,50,59)        -37.2366         estimate D2E/DX2                !
 ! D246  D(45,50,59,60)         50.4655         estimate D2E/DX2                !
 ! D247  D(45,50,59,61)        168.7074         estimate D2E/DX2                !
 ! D248  D(45,50,59,62)        -71.6366         estimate D2E/DX2                !
 ! D249  D(49,50,59,60)        178.4043         estimate D2E/DX2                !
 ! D250  D(49,50,59,61)        -63.3538         estimate D2E/DX2                !
 ! D251  D(49,50,59,62)         56.3022         estimate D2E/DX2                !
 ! D252  D(54,50,59,60)        -63.0293         estimate D2E/DX2                !
 ! D253  D(54,50,59,61)         55.2126         estimate D2E/DX2                !
 ! D254  D(54,50,59,62)        174.8687         estimate D2E/DX2                !
 ! D255  D(48,56,84,45)         -4.7843         estimate D2E/DX2                !
 ! D256  D(48,56,84,58)        -13.3621         estimate D2E/DX2                !
 ! D257  D(48,56,84,81)         69.2578         estimate D2E/DX2                !
 ! D258  D(64,56,84,45)       -133.7373         estimate D2E/DX2                !
 ! D259  D(64,56,84,58)       -142.3151         estimate D2E/DX2                !
 ! D260  D(64,56,84,81)        -59.6952         estimate D2E/DX2                !
 ! D261  D(46,58,66,67)        -45.997          estimate D2E/DX2                !
 ! D262  D(46,58,66,68)         71.8885         estimate D2E/DX2                !
 ! D263  D(46,58,66,69)       -167.2701         estimate D2E/DX2                !
 ! D264  D(84,58,66,67)         55.6667         estimate D2E/DX2                !
 ! D265  D(84,58,66,68)        173.5522         estimate D2E/DX2                !
 ! D266  D(84,58,66,69)        -65.6064         estimate D2E/DX2                !
 ! D267  D(46,58,84,45)        -33.3463         estimate D2E/DX2                !
 ! D268  D(46,58,84,56)        -18.3938         estimate D2E/DX2                !
 ! D269  D(46,58,84,81)        178.1366         estimate D2E/DX2                !
 ! D270  D(66,58,84,45)       -150.0055         estimate D2E/DX2                !
 ! D271  D(66,58,84,56)       -135.053          estimate D2E/DX2                !
 ! D272  D(66,58,84,81)         61.4775         estimate D2E/DX2                !
 ! D273  D(50,59,62,63)         37.9634         estimate D2E/DX2                !
 ! D274  D(50,59,62,82)        -41.8645         estimate D2E/DX2                !
 ! D275  D(60,59,62,63)        -83.0625         estimate D2E/DX2                !
 ! D276  D(60,59,62,82)       -162.8904         estimate D2E/DX2                !
 ! D277  D(61,59,62,63)        158.8583         estimate D2E/DX2                !
 ! D278  D(61,59,62,82)         79.0304         estimate D2E/DX2                !
 ! D279  D(59,62,82,35)       -104.1688         estimate D2E/DX2                !
 ! D280  D(59,62,82,41)       -123.1928         estimate D2E/DX2                !
 ! D281  D(59,62,82,81)         69.4235         estimate D2E/DX2                !
 ! D282  D(63,62,82,35)        153.0097         estimate D2E/DX2                !
 ! D283  D(63,62,82,41)        133.9857         estimate D2E/DX2                !
 ! D284  D(63,62,82,81)        -33.398          estimate D2E/DX2                !
 ! D285  D(58,66,69,70)        -66.5391         estimate D2E/DX2                !
 ! D286  D(58,66,69,71)        178.5249         estimate D2E/DX2                !
 ! D287  D(58,66,69,72)         55.3593         estimate D2E/DX2                !
 ! D288  D(67,66,69,70)        173.211          estimate D2E/DX2                !
 ! D289  D(67,66,69,71)         58.2749         estimate D2E/DX2                !
 ! D290  D(67,66,69,72)        -64.8907         estimate D2E/DX2                !
 ! D291  D(68,66,69,70)         53.4316         estimate D2E/DX2                !
 ! D292  D(68,66,69,71)        -61.5044         estimate D2E/DX2                !
 ! D293  D(68,66,69,72)        175.3299         estimate D2E/DX2                !
 ! D294  D(66,69,72,73)       -175.714          estimate D2E/DX2                !
 ! D295  D(66,69,72,74)        -60.6712         estimate D2E/DX2                !
 ! D296  D(66,69,72,75)         61.8896         estimate D2E/DX2                !
 ! D297  D(70,69,72,73)        -53.6872         estimate D2E/DX2                !
 ! D298  D(70,69,72,74)         61.3557         estimate D2E/DX2                !
 ! D299  D(70,69,72,75)       -176.0836         estimate D2E/DX2                !
 ! D300  D(71,69,72,73)         62.5937         estimate D2E/DX2                !
 ! D301  D(71,69,72,74)        177.6366         estimate D2E/DX2                !
 ! D302  D(71,69,72,75)        -59.8027         estimate D2E/DX2                !
 ! D303  D(69,72,75,76)        -58.7397         estimate D2E/DX2                !
 ! D304  D(69,72,75,77)         57.6827         estimate D2E/DX2                !
 ! D305  D(69,72,75,78)        178.1033         estimate D2E/DX2                !
 ! D306  D(73,72,75,76)        179.2714         estimate D2E/DX2                !
 ! D307  D(73,72,75,77)        -64.3062         estimate D2E/DX2                !
 ! D308  D(73,72,75,78)         56.1145         estimate D2E/DX2                !
 ! D309  D(74,72,75,76)         62.5459         estimate D2E/DX2                !
 ! D310  D(74,72,75,77)        178.9683         estimate D2E/DX2                !
 ! D311  D(74,72,75,78)        -60.6111         estimate D2E/DX2                !
 ! D312  D(72,75,78,79)        -56.8538         estimate D2E/DX2                !
 ! D313  D(72,75,78,80)       -177.2408         estimate D2E/DX2                !
 ! D314  D(72,75,78,81)         62.9178         estimate D2E/DX2                !
 ! D315  D(76,75,78,79)        178.7282         estimate D2E/DX2                !
 ! D316  D(76,75,78,80)         58.3411         estimate D2E/DX2                !
 ! D317  D(76,75,78,81)        -61.5003         estimate D2E/DX2                !
 ! D318  D(77,75,78,79)         65.1326         estimate D2E/DX2                !
 ! D319  D(77,75,78,80)        -55.2545         estimate D2E/DX2                !
 ! D320  D(77,75,78,81)       -175.0959         estimate D2E/DX2                !
 ! D321  D(75,78,81,82)        -70.2046         estimate D2E/DX2                !
 ! D322  D(75,78,81,83)        173.9985         estimate D2E/DX2                !
 ! D323  D(75,78,81,84)         50.9022         estimate D2E/DX2                !
 ! D324  D(79,78,81,82)         52.7346         estimate D2E/DX2                !
 ! D325  D(79,78,81,83)        -63.0623         estimate D2E/DX2                !
 ! D326  D(79,78,81,84)        173.8414         estimate D2E/DX2                !
 ! D327  D(80,78,81,82)        167.8817         estimate D2E/DX2                !
 ! D328  D(80,78,81,83)         52.0849         estimate D2E/DX2                !
 ! D329  D(80,78,81,84)        -71.0114         estimate D2E/DX2                !
 ! D330  D(78,81,82,41)         68.2245         estimate D2E/DX2                !
 ! D331  D(78,81,82,62)         86.1188         estimate D2E/DX2                !
 ! D332  D(83,81,82,41)       -172.9248         estimate D2E/DX2                !
 ! D333  D(83,81,82,62)       -155.0304         estimate D2E/DX2                !
 ! D334  D(84,81,82,41)        -55.641          estimate D2E/DX2                !
 ! D335  D(84,81,82,62)        -37.7467         estimate D2E/DX2                !
 ! D336  D(78,81,83,14)         47.8819         estimate D2E/DX2                !
 ! D337  D(78,81,83,19)        154.6161         estimate D2E/DX2                !
 ! D338  D(82,81,83,14)        -72.6802         estimate D2E/DX2                !
 ! D339  D(82,81,83,19)         34.054          estimate D2E/DX2                !
 ! D340  D(84,81,83,14)        172.093          estimate D2E/DX2                !
 ! D341  D(84,81,83,19)        -81.1728         estimate D2E/DX2                !
 ! D342  D(78,81,84,45)        -83.2873         estimate D2E/DX2                !
 ! D343  D(78,81,84,56)       -144.1581         estimate D2E/DX2                !
 ! D344  D(78,81,84,58)        -67.3682         estimate D2E/DX2                !
 ! D345  D(82,81,84,45)         40.5604         estimate D2E/DX2                !
 ! D346  D(82,81,84,56)        -20.3103         estimate D2E/DX2                !
 ! D347  D(82,81,84,58)         56.4796         estimate D2E/DX2                !
 ! D348  D(83,81,84,45)        153.9967         estimate D2E/DX2                !
 ! D349  D(83,81,84,56)         93.126          estimate D2E/DX2                !
 ! D350  D(83,81,84,58)        169.9159         estimate D2E/DX2                !
 --------------------------------------------------------------------------------
 Trust Radius=3.00D-01 FncErr=1.00D-07 GrdErr=1.00D-06
 Number of steps in this run=    504 maximum allowed number of steps=    504.
 GradGradGradGradGradGradGradGradGradGradGradGradGradGradGradGradGradGrad

 Leave Link  103 at Sat Apr 30 08:01:04 2016, MaxMem= 10737418240 cpu:         0.5
 (Enter /share/apps//g09/l202.exe)
 Stoichiometry    C23H44NO16(1+)
 Framework group  C1[X(C23H44NO16)]
 Deg. of freedom   246
 Full point group                 C1      NOp   1
 Largest Abelian subgroup         C1      NOp   1
 Largest concise Abelian subgroup C1      NOp   1
                         Standard orientation:                         
 ---------------------------------------------------------------------
 Center     Atomic      Atomic             Coordinates (Angstroms)
 Number     Number       Type             X           Y           Z
 ---------------------------------------------------------------------
      1          8           0       -4.275799   -0.800299   -0.844811
      2          6           0       -3.265720    0.176581   -0.890150
      3          6           0       -3.848900    1.567284   -0.627291
      4          6           0       -4.584941    1.612204    0.713671
      5          6           0       -5.674145    0.537902    0.748571
      6          6           0       -5.080061   -0.830239    0.361198
      7          1           0       -2.850085    0.109804   -1.908591
      8          1           0       -4.566553    1.765538   -1.441447
      9          1           0       -3.864730    1.426429    1.526544
     10          1           0       -6.062765    0.451199    1.776676
     11          1           0       -4.457601   -1.168656    1.210808
     12          8           0       -6.706971    0.990637   -0.134927
     13          8           0       -5.100578    2.923946    0.925662
     14          8           0       -2.812835    2.568378   -0.651808
     15          8           0       -2.224828   -0.023432    0.070876
     16          6           0       -6.164960   -1.868894    0.062317
     17          1           0       -6.548684   -1.676921   -0.954379
     18          1           0       -5.725561   -2.879317    0.084699
     19          8           0       -7.188953   -1.714157    1.052242
     20          1           0       -7.796498   -2.469571    0.990692
     21          1           0       -7.520095    0.511913    0.110094
     22          1           0       -5.981708    2.932990    0.494823
     23          1           0       -3.244994    3.370250   -0.290000
     24          8           0        1.044713   -2.647863   -0.175874
     25          6           0        0.597619   -2.230503    1.111175
     26          6           0       -0.355989   -1.042130    0.993360
     27          6           0       -1.468629   -1.249661   -0.017811
     28          6           0       -0.822839   -1.525096   -1.380927
     29          6           0        0.088749   -2.764218   -1.238399
     30          1           0        0.125390   -3.061769    1.665884
     31          1           0        0.254325   -0.214934    0.606795
     32          1           0       -2.117660   -2.104314    0.246797
     33          1           0       -1.602634   -1.784623   -2.120760
     34          1           0       -0.564452   -3.645335   -1.075595
     35          8           0       -0.107250   -0.361959   -1.832041
     36          8           0       -0.833016   -0.706945    2.300449
     37          8           0        1.738298   -1.902379    1.868418
     38          6           0        0.934412   -3.006130   -2.495338
     39          1           0        1.552187   -3.905190   -2.348182
     40          1           0        0.276185   -3.178977   -3.359535
     41          8           0        1.758637   -1.872741   -2.800402
     42          1           0        2.556865   -1.895830   -2.194402
     43          1           0        0.703831   -0.723686   -2.314829
     44          1           0       -1.647604   -0.186187    2.161670
     45          8           0        5.127271   -0.632050    1.294540
     46          6           0        4.845277    0.696529    0.960280
     47          6           0        3.801249    1.316937    1.908445
     48          6           0        2.629450    0.349706    2.204950
     49          6           0        2.625679   -0.897867    1.308516
     50          6           0        4.012958   -1.571312    1.238056
     51          1           0        5.800773    1.235335    1.067980
     52          1           0        3.377969    2.213626    1.431992
     53          1           0        2.737231    0.010244    3.249381
     54          1           0        4.119594   -2.198962    2.137767
     55          1           0        2.299905   -0.630455    0.292422
     56          8           0        1.403159    1.105593    2.093747
     57          8           0        4.422910    1.794249    3.096639
     58          8           0        4.397337    0.765185   -0.411033
     59          6           0        4.188140   -2.478931    0.018229
     60          1           0        5.212236   -2.885462    0.044109
     61          1           0        3.474009   -3.309793    0.079588
     62          8           0        3.959102   -1.818264   -1.235891
     63          1           0        4.328060   -0.906195   -1.157366
     64          1           0        0.696261    0.585673    2.540100
     65          1           0        4.892555    1.049505    3.517859
     66          6           0        4.835934    1.934243   -1.137770
     67          1           0        4.683204    2.834260   -0.517284
     68          1           0        5.915821    1.852708   -1.349550
     69          6           0        4.033556    2.013029   -2.429788
     70          1           0        4.303864    1.161545   -3.073647
     71          1           0        4.351001    2.919968   -2.969553
     72          6           0        2.511349    2.014538   -2.222561
     73          1           0        2.020469    1.995517   -3.208906
     74          1           0        2.239412    1.073304   -1.719890
     75          6           0        1.991826    3.211588   -1.416724
     76          1           0        2.459808    3.244386   -0.419156
     77          1           0        2.282671    4.150838   -1.914507
     78          6           0        0.478598    3.253056   -1.240291
     79          1           0       -0.047089    3.245619   -2.205166
     80          1           0        0.175819    4.158690   -0.698246
     81          7           0       -0.045377    2.078833   -0.464289
     82          1           0        0.018861    1.178387   -1.010520
     83          1           0       -1.069970    2.204507   -0.282340
     84          1           0        0.466751    1.937251    0.430606
 ---------------------------------------------------------------------
 Rotational constants (GHZ):      0.1554324      0.0547085      0.0511105
 Leave Link  202 at Sat Apr 30 08:01:04 2016, MaxMem= 10737418240 cpu:         1.5
 (Enter /share/apps//g09/l301.exe)
 Standard basis: 6-311+G(d,p) (5D, 7F)
 Ernie: Thresh=  0.10000D-02 Tol=  0.10000D-05 Strict=F.
 There are  1184 symmetry adapted cartesian basis functions of A   symmetry.
 There are  1144 symmetry adapted basis functions of A   symmetry.
  1144 basis functions,  1792 primitive gaussians,  1184 cartesian basis functions
   158 alpha electrons      158 beta electrons
       nuclear repulsion energy      5881.4874579480 Hartrees.
 IExCor= 1009 DFT=T Ex+Corr=PBE1PBE ExCW=0 ScaHFX=  0.250000
 ScaDFX=  0.750000  0.750000  1.000000  1.000000 ScalE2=  1.000000  1.000000
 IRadAn=      0 IRanWt=     -1 IRanGd=            0 ICorTp=0 IEmpDi=131
[...]
 -0.00000308,-0.00003613,0.00004890,0.00007511,-0.00033375,0.00115919,0
 .00057120,-0.00031320,-0.00019767,-0.00057148,-0.00019533,0.00029626,-
 0.00024855,0.00018721,-0.00017549,-0.00003094,-0.00004269,0.00001144,-
 0.00000982,-0.00000145,0.00000857,-0.00000868,-0.00007187,0.00022360,0
 .00013072,0.00000982,-0.00003535,-0.00000116,-0.00015783,0.00002887,-0
 .00019735,-0.00045123,0.00031783,0.00031741,-0.00008123,0.00012307,0.0
 0008147,0.00013013,-0.00000282,-0.00019169,0.00015327,0.00003666,-0.00
 014483,-0.00012652,0.00000180,-0.00030253,0.00031091,-0.00015273,-0.00
 000047,0.00000387,-0.00004325,0.00000187,-0.00000359,-0.00000376,0.000
 01004,-0.00003026,0.00008684,0.00001713,-0.00001463,-0.00000668,0.0001
 3613,-0.00001022,0.00000012,0.00002056,-0.00005632,-0.00005921,-0.0000
 1983,-0.00143929,-0.00000092,0.00036367,-0.00010855,-0.00006431,0.0000
 7814,-0.00009155,-0.00001882,0.00019358,0.00005237,-0.00002215,-0.0000
 2656,-0.00000289,0.00000348,0.00000972,-0.00000315,0.00001040,0.000009
 87,-0.00005564,0.00006991,0.00005710,0.00001658,-0.00006917,-0.0000626
 1,0.00004308,-0.00033294,0.00060934,0.00001277,0.00000468,-0.00001207,
 0.00003772,-0.00001155,-0.00003940,-0.00000975,0.00003126,-0.00001286,
 -0.00001149,-0.00000350,0.00003915,-0.00004425,0.00005766,-0.00008019,
 0.00003010,-0.00001498,0.00003668,0.00004088,-0.00004595,0.00001656,0.
 00020037,0.00010391,0.00049341,-0.00000874,-0.00004770,-0.00003714,0.0
 0004740,-0.00014363,-0.00009036,-0.00356075,0.00223256,0.00260915,0.00
 016795,0.00012741,0.00011543,-0.00016890,0.00047730,-0.00111141,-0.013
 03571,0.00796831,-0.02311915,-0.00040359,-0.00064665,-0.00029581,0.001
 65424,-0.00038522,0.00001738,-0.11603883,0.03133141,-0.10888418,-0.004
 54097,0.00106152,-0.00954371,0.12537078,-0.00088875,0.00124532,-0.0003
 6171,0.00031729,-0.00323484,0.00184603,0.00070922,-0.00314366,0.002445
 57,0.00051865,0.00044253,0.00016727,-0.00016227,-0.00024317,0.00009486
 ,0.00062923,0.00004866,0.00015384,-0.00009436,-0.00031330,-0.00014551,
 -0.00003466,0.00015579,-0.00018408,0.00010361,0.00004337,0.00009587,-0
 .00005366,0.00007302,-0.00008301,-0.00004491,-0.00002915,-0.00000808,-
 0.00006606,0.00018482,-0.00025932,-0.00059370,-0.00009452,-0.00053346,
 -0.00019441,-0.00749851,-0.00313720,-0.00092636,0.00117328,0.00167142,
 0.00010652,-0.00016723,0.00004830,-0.00001196,-0.00001034,-0.00000420,
 -0.00001667,0.00001789,0.00001091,-0.00023928,0.00016765,-0.00009441,0
 .00004323,-0.00003345,0.00000359,0.00002423,-0.00004259,0.00007927,0.0
 0005328,-0.00002567,0.00015618,0.00044889,0.00372058,-0.00259807,-0.00
 008927,-0.00022255,0.00021233,0.00000650,0.00018567,-0.00046520,-0.000
 05138,0.00050693,0.00003244,0.00019955,-0.00052423,-0.00283579,-0.0010
 6779,0.00023197,0.00000679,0.00044026,0.00004038,-0.00018415,0.0000248
 0,-0.00003408,0.00000836,-0.00021823,0.00024217,0.00016690,-0.00005296
 ,0.00034086,0.00051601,0.00008814,-0.00024683,-0.00003493,0.00003969,-
 0.00006169,-0.00004993,0.00116290,-0.00279219,0.00072465,0.00008784,-0
 .00057024,0.00029507,0.00016716,-0.00050054,0.00038849,-0.00024876,0.0
 0017366,0.00003065,0.00006154,-0.00000737,0.00003483,-0.00001308,-0.00
 002618,0.00000214,0.00015952,-0.00027558,0.00016591,0.00001327,0.00018
 070,-0.00008883,-0.00014831,0.00039573,-0.00008227,0.00025698,0.000451
 07,-0.00029681,0.00012037,-0.00021164,-0.00011159,-0.00017787,0.000056
 31,0.00025530,-0.00011163,-0.00003522,0.00007126,0.00014160,-0.0000110
 4,0.00041685,-0.00031608,0.00027353,-0.00006260,-0.00003149,0.00007281
 ,-0.00001207,0.00000583,-0.00000067,-0.00001375,0.00003725,-0.00005330
 ,-0.00000878,0.00001301,0.00001301,-0.00010646,0.00001297,-0.00000217,
 -0.00001859,0.00002390,0.00006623,0.00003941,0.00013012,-0.00017672,-0
 .00072932,0.00007923,0.00004670,-0.00009000,0.00018558,-0.00002119,-0.
 00024746,-0.00003349,0.00003521,0.00000852,-0.00000231,-0.00000884,-0.
 00000717,0.00000777,-0.00001282,-0.00002025,0.00003710,-0.00016642,-0.
 00002541,-0.00003243,0.00013015,0.00010446,-0.00022418,0.00037304,0.00
 003283,-0.00001379,-0.00000923,0.00002493,-0.00011401,0.00002300,0.000
 08699,0.00000887,-0.00004294,0.00001026,0.00002754,0.00000069,-0.00005
 458,-0.00011728,0.00000850,0.00023614,-0.00003720,0.00001296,-0.000070
 64,-0.00004984,0.00007667,-0.00010939,0.00014503,-0.00000883,-0.000691
 42,-0.00004032,0.00002794,0.00005743,-0.00028724,0.00033137,0.00035082
 ,0.00267249,-0.00194153,-0.00180196,-0.00009189,0.00015889,-0.00028651
 ,0.00040177,-0.00008854,0.00073377,0.01080855,-0.00744795,0.01619877,-
 0.00094704,0.00074195,-0.00022364,-0.00046273,-0.00025851,0.00039260,0
 .03059380,-0.07936901,0.06940792,-0.01351327,0.01418718,-0.02767174,-0
 .03745925,0.08832414,0.00065255,-0.00069058,-0.00185957,-0.00095572,0.
 00069870,0.00514092,-0.00551085,0.00983091,0.00179086,-0.00083100,-0.0
 0132510,-0.00005217,0.00042519,0.00090500,0.00027264,-0.00046232,0.000
 12289,0.00066117,0.00010726,0.00008955,-0.00014350,0.00105716,-0.00239
 288,0.00045855,-0.00007291,0.00022721,-0.00005678,0.00015926,-0.000302
 10,0.00011850,0.00014375,0.00000566,-0.00004053,0.00032038,-0.00073906
 ,0.00025063,0.00133225,-0.00052065,0.00063762,0.00295288,-0.00662219,0
 .00265356,-0.00015630,0.00206650,-0.00464803,-0.00009399,0.00018395,-0
 .00007169,0.00000285,0.00005103,0.00001304,0.00006023,-0.00012387,-0.0
 0003341,0.00026140,-0.00026312,-0.00004835,-0.00009695,0.00003668,-0.0
 0000084,-0.00003299,0.00016321,-0.00009066,-0.00019628,0.00009937,-0.0
 0044510,-0.00041600,-0.00356138,-0.00101129,0.00010621,0.00032844,-0.0
 0009526,-0.00020645,-0.00002606,-0.00011611,0.00106934,-0.00093132,0.0
 0035481,0.00031890,-0.00032513,0.00100140,0.00116981,-0.00126759,0.000
 18009,-0.00036395,-0.00002594,0.00007262,-0.00004135,0.00009494,0.0001
 5207,-0.00020674,0.00022180,-0.00044749,-0.00010543,0.00005070,-0.0001
 2841,-0.00002645,0.00037583,0.00003060,-0.00008091,0.00009725,0.000106
 01,-0.00010527,0.00271097,0.00084137,-0.00071885,0.00052310,-0.0004216
 0,-0.00016434,0.00035358,-0.00013791,0.00020445,-0.00035605,-0.0000258
 4,-0.00005566,0.00002434,0.00000838,0.00001805,0.00003169,-0.00002459,
 -0.00002985,0.00049225,0.00027469,-0.00001976,-0.00012258,-0.00002107,
 -0.00031960,-0.00000238,-0.00045031,0.00025469,-0.00036474,0.00055148,
 -0.00015269,0.00022051,0.00024239,0.00028802,-0.00001816,-0.00044427,0
 .00025617,0.00019120,-0.00022472,-0.00023624,-0.00002463,-0.00077355,0
 .00030623,-0.00020800,0.00001397,0.00001337,-0.00004625,-0.00005574,0.
 00000853,-0.00001009,0.00002804,-0.00003423,0.00012791,0.00002513,-0.0
 0003378,-0.00000553,0.00024081,-0.00001996,0.00000303,0.00003026,-0.00
 007548,-0.00009408,-0.00005441,-0.00068301,-0.00018456,0.00140924,-0.0
 0022160,-0.00024936,0.00021907,-0.00029721,-0.00002400,0.00043683,0.00
 007936,-0.00005264,-0.00006693,0.00001085,0.00000156,0.00003738,-0.000
 01374,0.00001277,-0.00001067,-0.00006462,0.00017973,0.00017472,0.00002
 191,-0.00016851,-0.00017438,0.00048187,-0.00014071,0.00004374,0.000038
 00,0.00004752,-0.00005921,0.00015569,-0.00006117,-0.00017897,0.0000110
 4,0.00011670,-0.00005651,-0.00003167,0.00000846,0.00011933,-0.00002299
 ,0.00017758,-0.00009734,0.00003496,0.00000217,0.00018645,-0.00002799,-
 0.00006674,0.00000612,-0.00024729,-0.00040961,-0.00015780,0.00004215,0
 .00004322,0.00000883,-0.00001570,-0.00002390,-0.00019572,0.00366938,-0
 .00222234,-0.00166960,-0.00022468,0.00020429,-0.00019861,0.00085588,-0
 .00067350,0.00118445,-0.00082116,0.00028483,0.01478535,0.00109285,-0.0
 0014513,0.00014852,0.00072568,-0.00113059,0.00041546,-0.10794650,0.070
 57950,-0.28113261,-0.00685337,-0.00031577,-0.01575360,0.11566618,-0.06
 749352,0.28884332,-0.00032226,0.00015863,0.00012605,0.00049039,-0.0003
 0677,-0.00026780,0.00049011,-0.00107173,-0.00004604,0.00021803,0.00021
 712,-0.00011768,-0.00007713,-0.00008309,-0.00004172,0.00021422,0.00003
 228,-0.00005912,-0.00009740,-0.00013810,0.00003720,-0.00008814,0.00020
 138,-0.00002271,-0.00003365,-0.00001842,0.00001750,-0.00003150,0.00003
 989,-0.00002927,-0.00004183,-0.00000291,0.00001743,-0.00005752,0.00004
 167,0.00000632,-0.00024300,0.00003980,-0.00004453,-0.00098647,0.001088
 27,-0.00241915,-0.00083418,0.00012310,0.00068185,0.00001961,-0.0000326
 4,0.00000680,-0.00000396,-0.00001297,0.00000816,-0.00000215,0.00001628
 ,0.00000271,-0.00007022,0.00003380,0.00000532,0.00001762,-0.00000109,-
 0.00000925,0.00000799,-0.00001371,0.00001133,0.00003646,-0.00001363,0.
 00004647,0.00008677,0.00033425,-0.00013777,-0.00065402,-0.00058562,0.0
 0008211,0.00057961,0.00071933,-0.00003068,0.00043593,0.00079103,0.0004
 3002,0.00034743,-0.00015463,-0.00055317,0.00086728,-0.00054324,0.00019
 568,0.00015112,0.00041459,-0.00040157,-0.00002775,-0.00005522,-0.00002
 465,0.00065966,0.00131669,0.00042895,-0.00009091,-0.00002223,0.0000867
 3,-0.00018859,0.00010730,-0.00000559,-0.00003906,-0.00001977,0.0001032
 9,-0.00042434,0.00154146,0.00066811,-0.00023281,-0.00158596,-0.0000969
 2,-0.00024324,-0.00067218,0.00012057,0.00013005,-0.00019614,0.00005202
 ,-0.00001192,0.00004037,0.00002120,-0.00003863,-0.00001344,-0.00001322
 ,-0.00013233,0.00016901,0.00033665,0.00014270,0.00014361,-0.00020893,-
 0.00015103,-0.00012265,-0.00041005,-0.00023568,0.00061230,-0.00035808,
 -0.00043092,0.00003028,0.00002820,0.00112279,0.00062044,-0.00029495,0.
 00040103,-0.00083158,-0.00020161,0.00334465,0.00037345,0.00426327,0.00
 025946,0.00080478,-0.00052695,0.00006208,-0.00052933,0.00023623,-0.000
 14450,-0.00005279,-0.00010170,0.00008108,0.00007713,0.00018953,-0.0001
 2170,-0.00000852,-0.00154807,-0.00003057,0.00001942,0.00002935,0.00002
 128,-0.00007829,0.00007686,-0.00255133,0.00061475,-0.00778381,-0.00039
 059,0.00044572,-0.00025313,-0.00111416,-0.00012482,0.00066392,0.000346
 27,0.00017921,-0.00030995,-0.00010747,-0.00007786,-0.00001464,0.000000
 42,0.00002487,0.00002556,-0.00045908,-0.00006254,0.00019176,0.00015949
 ,-0.00008101,-0.00009716,-0.00219373,0.00069583,0.00041322,0.00008868,
 -0.00015285,0.00019777,0.00055175,-0.00025482,-0.00031648,0.00000676,0
 .00011526,-0.00006287,-0.00007437,0.00003971,0.00010544,0.00009220,0.0
 0011419,-0.00023270,0.00005239,-0.00002485,0.00015213,-0.00001747,-0.0
 0007550,0.00010240,-0.00033403,-0.00018142,-0.00009958,0.00020321,0.00
 004965,0.00012690,-0.00012670,-0.00027555,-0.00044725,0.00075169,-0.00
 113366,-0.00053539,0.00006171,0.00074386,-0.00078174,0.00081245,-0.000
 03818,0.00040843,-0.02064358,-0.01128859,0.01504559,-0.00220557,0.0035
 9073,0.00052371,0.00124210,-0.00026344,-0.00007054,-0.20133445,-0.1044
 2645,0.11959650,-0.00614059,-0.00542068,0.00363126,0.01696415,0.008165
 09,-0.00508087,0.21225993,-0.00010565,0.00027929,-0.00027963,-0.000361
 08,-0.00030599,0.00061010,-0.00001266,-0.00001510,0.00000364,0.0000387
 8,0.00006691,0.00013885,-0.00000440,-0.00002628,0.00004949,0.00013666,
 -0.00001562,0.00010611,0.00004908,0.00007474,-0.00005588,-0.00000603,-
 0.00000037,-0.00003719,0.00003773,0.00003156,0.00001640,-0.00000697,0.
 00000402,-0.00001585,0.00000898,-0.00000412,-0.00000290,-0.00000610,0.
 00001750,-0.00008805,-0.00004802,-0.00007281,-0.00013261,0.00000988,0.
 00025112,-0.00011454,0.00029755,0.00049353,-0.00056077,0.00005272,-0.0
 0003485,0.00002975,-0.00000512,0.00000096,-0.00000452,-0.00000096,-0.0
 0000796,-0.00000079,-0.00007234,0.00003571,-0.00004917,0.00001274,-0.0
 0001093,0.00000723,0.00000961,-0.00000491,0.00002545,0.00001543,0.0000
 0334,0.00002228,0.00008495,0.00004947,0.00004452,0.00004714,0.00002895
 ,0.00028194,-0.00043417,0.00083068,-0.00123706,0.00206955,-0.00108975,
 0.00117670,-0.00023159,-0.00029569,0.00005689,-0.00017136,-0.00015415,
 -0.00022164,0.00008199,-0.00018783,-0.00004546,-0.00001718,0.00003329,
 0.00033744,0.00031842,-0.00093916,-0.00167601,0.00001628,0.00017588,-0
 .00011157,0.00002894,0.00004986,0.00001164,0.00000261,-0.00000826,-0.0
 0002115,0.00049923,-0.00030530,-0.00055818,-0.00091350,-0.00044773,-0.
 00009741,0.00013137,-0.00072877,0.00048017,-0.00009958,0.00003489,-0.0
 0002153,0.00001523,0.00000306,0.00002027,0.00000291,-0.00001163,-0.000
 00197,0.00008069,-0.00007813,0.00017461,0.00000392,0.00013393,-0.00015
 658,-0.00007901,-0.00012423,-0.00025754,0.00030474,-0.00011099,0.00012
 230,0.00000304,-0.00040886,-0.00015956,0.00039100,0.00037033,0.0002521
 4,-0.00042172,0.00000703,0.00048293,0.00119227,-0.00034813,0.00134026,
 0.00016739,0.00071587,-0.00053222,-0.00021973,0.00000292,-0.00002452,-
 0.00003404,-0.00003266,-0.00003052,0.00024291,-0.00025145,0.00014752,-
 0.00005897,-0.00006171,-0.00050993,0.00001646,-0.00000582,0.00004135,-
 0.00015868,-0.00005394,-0.00010408,-0.00036886,-0.00322087,-0.00084561
 ,0.00007073,0.00003610,-0.00029405,-0.00026122,-0.00022085,-0.00003169
 ,0.00007583,0.00005492,-0.00011707,-0.00002206,-0.00002745,0.00000842,
 -0.00000307,-0.00002140,-0.00002705,-0.00005696,-0.00015322,0.00009846
 ,-0.00000866,0.00013248,0.00001451,0.00072410,0.00136144,-0.00162014,0
 .00003513,-0.00000696,0.00005822,0.00016145,0.00009349,0.00003077,-0.0
 0000333,-0.00006890,-0.00002161,-0.00002891,-0.00002887,-0.00000609,0.
 00010362,-0.00003102,-0.00005288,-0.00000997,-0.00001738,0.00001237,0.
 00001802,-0.00002840,0.00005357,-0.00033626,0.00004396,0.00054425,-0.0
 0006843,-0.00021137,-0.00016836,0.00002211,-0.00019385,-0.00025312,0.0
 0024284,0.00212422,-0.00120619,-0.00044327,-0.00101447,0.00089693,-0.0
 0035537,-0.00026167,0.00008710,0.01488851,0.01541377,-0.01404563,0.004
 28551,-0.00290903,-0.00087585,0.00000272,0.00013770,-0.00067189,-0.104
 31120,-0.13825587,0.09035944,-0.01863058,-0.01133192,0.02067339,-0.004
 78611,-0.00501786,0.00174499,0.10616236,0.14607156,0.00024456,-0.00031
 765,0.00002762,-0.00012198,0.00027686,-0.00021170,-0.00027139,0.000481
 65,-0.00024488,0.00002393,0.00003609,-0.00012835,-0.00001996,0.0001127
 0,0.00000227,-0.00017277,-0.00001751,0.00002998,0.00000979,0.00007177,
 0.00000575,0.00001517,-0.00007746,0.00002038,-0.00008674,0.00002818,0.
 00001786,0.00001096,-0.00000939,0.00002088,0.00002478,0.00001481,0.000
 00378,0.00004550,-0.00012543,0.00005396,0.00009934,-0.00008635,0.00011
 574,-0.00039010,-0.00059245,-0.00038904,0.00042562,-0.00068864,-0.0004
 0948,-0.00003713,0.00005103,-0.00000725,0.00000509,0.00000680,-0.00000
 107,0.00000720,-0.00002031,-0.00000652,0.00008036,-0.00005709,0.000000
 23,-0.00002145,0.00000998,0.00000713,-0.00001885,0.00002201,-0.0000121
 3,-0.00003222,0.00002568,-0.00005203,0.00000367,0.00023201,-0.00040851
 ,0.00052927,0.00069749,-0.00028149,-0.00043944,-0.00105503,0.00051257,
 0.00079822,-0.00036940,-0.00005333,-0.00058414,0.00044603,0.00100550,-
 0.00075496,0.00034475,-0.00044475,-0.00019851,-0.00054379,0.00050898,-
 0.00000422,0.00010240,-0.00001277,0.00026070,-0.00158191,0.00014719,0.
 00010360,0.00000758,-0.00018022,0.00013955,-0.00007115,0.00000474,0.00
 003341,0.00003648,-0.00013323,0.00049026,-0.00205424,-0.00154482,-0.00
 041025,0.00064511,-0.00077954,-0.00019665,0.00105856,-0.00034245,0.000
 02331,0.00007736,-0.00001474,-0.00002049,-0.00003372,-0.00003005,0.000
 04019,0.00003160,0.00000571,0.00001159,0.00004082,-0.00050419,-0.00015
 846,-0.00030986,0.00027673,0.00024217,-0.00016343,0.00058192,-0.000303
 23,0.00021825,0.00032177,0.00023160,0.00018653,0.00020784,-0.00067347,
 -0.00043404,-0.00022590,0.00017118,0.00069031,-0.00038533,-0.00159088,
 -0.00016729,-0.00417984,0.00068024,-0.00072040,0.00016109,-0.00017549,
 0.00028459,-0.00023035,0.00010528,0.00001768,0.00011345,-0.00020554,0.
 00027905,-0.00006992,0.00001616,-0.00002306,0.00127577,0.00001376,-0.0
 0000810,0.00006045,-0.00030291,-0.00031119,-0.00019122,-0.00367249,0.0
 0033390,0.00215756,-0.00000481,-0.00052357,0.00048523,0.00095377,0.000
 00596,0.00000957,-0.00024743,-0.00019380,0.00018808,0.00009258,0.00006
 687,0.00002990,-0.00000873,-0.00000864,-0.00000851,0.00037838,0.000261
 97,-0.00007795,-0.00013893,-0.00010618,-0.00007401,0.00047066,-0.00144
 008,0.00250240,-0.00005903,0.00010115,-0.00017327,-0.00067352,0.000305
 75,0.00014434,0.00000225,-0.00001658,0.00001932,0.00009865,-0.00003248
 ,-0.00002203,0.00009889,-0.00017468,-0.00005400,-0.00003496,0.00003170
 ,-0.00008916,0.00006681,0.00000050,0.00001419,-0.00015874,0.00050410,-
 0.00002274,0.00029670,0.00000611,-0.00001183,-0.00012479,-0.00036860,-
 0.00003959,-0.00181154,-0.00084547,0.00185204,0.00056021,0.00053073,0.
 00006163,-0.00001617,0.00022178,-0.00057292,0.00407776,-0.00172277,-0.
 00175914,-0.00114879,-0.00003825,0.00052372,0.00014363,0.00012635,-0.0
 0070564,0.11935836,0.09014752,-0.16541090,-0.01341049,-0.00417011,0.01
 457326,0.02265985,0.01351791,-0.01249529,-0.12544325,-0.09321633,0.164
 94153\\-0.00000307,0.00000508,0.00000282,0.00000904,0.00000704,-0.0000
 0534,0.00000556,-0.00000210,0.00000020,0.00000261,-0.00000086,-0.00000
 415,0.00000642,0.00000371,-0.00000119,0.00001051,0.00000717,0.00000558
 ,0.00000085,0.00000216,0.00000355,0.00000475,0.00000521,0.00000124,0.0
 0000379,0.00000409,-0.00000065,0.00000372,0.00000579,-0.00000013,0.000
 00037,0.00000191,-0.00000198,0.00000619,0.00000495,-0.00000075,0.00000
 697,0.00000540,0.00000027,0.00001121,0.00001486,-0.00000220,-0.0000039
 1,0.00000155,0.00000498,-0.00000308,-0.00000153,-0.00000487,0.00000506
 ,0.00000553,0.00000338,0.00000546,0.00000206,0.00000471,0.00000202,0.0
 0000307,0.00000421,0.00000985,0.00000630,0.00000151,0.00000471,0.00000
 737,-0.00000096,0.00000464,0.00000717,-0.00000341,0.00000342,0.0000006
 5,0.00000103,0.00000651,0.00000111,-0.00000594,-0.00000967,0.00000318,
 0.00000318,0.00000240,0.00000085,-0.00000507,0.00000211,-0.00000681,-0
 .00000465,-0.00001120,0.00001399,0.00000500,-0.00000865,-0.00000911,0.
 00001063,0.00000114,-0.00000065,-0.00000003,-0.00000033,0.00000063,0.0
 0000330,0.00000189,0.00000228,0.00000177,0.00000177,-0.00000304,0.0000
 0397,-0.00000062,-0.00000093,0.00000189,0.00000459,-0.00001983,-0.0000
 1180,0.00000010,-0.00000367,-0.00000057,-0.00000731,-0.00000688,-0.000
 00427,0.00000141,-0.00000460,0.00000410,-0.00000197,-0.00000219,0.0000
 0520,-0.00000150,-0.00000048,0.00000537,0.00000693,0.00001205,-0.00000
 031,-0.00001073,-0.00000969,0.00000777,-0.00000281,0.00000164,0.000005
 98,0.00000038,0.00000299,-0.00000538,-0.00001155,0.00000748,-0.0000069
 9,-0.00000302,-0.00001046,-0.00000456,-0.00000711,-0.00000941,-0.00000
 267,-0.00000200,-0.00000149,-0.00001150,0.00000068,0.00000255,0.000001
 82,0.00000051,-0.00001974,0.00000594,-0.00000494,-0.00000278,-0.000002
 22,-0.00000251,0.00000119,-0.00000471,-0.00000354,-0.00000348,-0.00000
 358,-0.00000470,-0.00000313,-0.00000207,-0.00000295,-0.00000372,-0.000
 00013,-0.00000422,-0.00001067,0.00001175,0.00000640,-0.00000177,-0.000
 00509,0.00000593,-0.00000151,0.00000383,0.00000149,0.00000119,-0.00000
 215,-0.00000655,-0.00000517,0.00000127,-0.00000591,-0.00000483,0.00000
 230,-0.00001111,-0.00000264,-0.00000573,0.00000281,-0.00000927,0.00000
 900,0.00000014,0.00000846,-0.00001254,-0.00000807,-0.00000220,-0.00000
 774,-0.00000957,0.00000322,0.00000047,-0.00000038,-0.00000345,-0.00000
 237,-0.00000287,-0.00000505,-0.00000030,0.00000225,-0.00000328,0.00000
 147,-0.00000331,-0.00000181,0.00000227,-0.00000206,-0.00000175,0.00000
 206,-0.00000297,0.00000057,-0.00000025,0.,-0.00000147,0.00000302,-0.00
 000105,-0.00000089,0.00000163,-0.00000050,0.00000188,-0.00000007,0.000
 00024,0.00000068,-0.00000258,0.00000119,0.00000085,-0.00000078,0.00000
 621,-0.00000256,-0.00000035,0.00000141,0.00000252,0.00000167,0.0000032
 9,0.00000122,-0.00000125,-0.00000960,0.00002455,0.00000563,0.00000283,
 0.00001879,0.00001015,-0.00000237,-0.00001481,-0.00000333,0.00000595,-
 0.00001523,-0.00000933\\\@


 LAWS OF PROGRAMMING DEFINITION:  A WORKING PROGRAM
                                  IS ONE THAT HAS
                                  ONLY UNOBSERVED
                                  BUGS.
 Job cpu time:      17 days 18 hours 31 minutes  5.9 seconds.
 File lengths (MBytes):  RWF=  17221 Int=      0 D2E=      0 Chk=     99 Scr=      1
 Normal termination of Gaussian 09 at Mon May  2 01:19:00 2016.
