 Entering Gaussian System, Link 0=g09
 Initial command:
 /share/apps//g09/l1.exe "/scratch/Gau-24657.inp" -scrdir="/scratch/"
 Entering Link 1 = /share/apps//g09/l1.exe PID=     24658.
  
 Copyright (c) 1988,1990,1992,1993,1995,1998,2003,2009,2013,
            Gaussian, Inc.  All Rights Reserved.
  
 This is part of the Gaussian(R) 09 program.  It is based on
 the Gaussian(R) 03 system (copyright 2003, Gaussian, Inc.),
 the Gaussian(R) 98 system (copyright 1998, Gaussian, Inc.),
 the Gaussian(R) 94 system (copyright 1995, Gaussian, Inc.),
 the Gaussian 92(TM) system (copyright 1992, Gaussian, Inc.),
 the Gaussian 90(TM) system (copyright 1990, Gaussian, Inc.),
 the Gaussian 88(TM) system (copyright 1988, Gaussian, Inc.),
 the Gaussian 86(TM) system (copyright 1986, Carnegie Mellon
 University), and the Gaussian 82(TM) system (copyright 1983,
 Carnegie Mellon University). Gaussian is a federally registered
 trademark of Gaussian, Inc.
  
 This software contains proprietary and confidential information,
 including trade secrets, belonging to Gaussian, Inc.
  
 This software is provided under written license and may be
 used, copied, transmitted, or stored only in accord with that
 written license.
  
 The following legend is applicable only to US Government
 contracts under FAR:
  
                    RESTRICTED RIGHTS LEGEND
  
 Use, reproduction and disclosure by the US Government is
 subject to restrictions as set forth in subparagraphs (a)
 and (c) of the Commercial Computer Software - Restricted
 Rights clause in FAR 52.227-19.
  
 Gaussian, Inc.
 340 Quinnipiac St., Bldg. 40, Wallingford CT 06492
  
  
 ---------------------------------------------------------------
 Warning -- This program may not be used in any manner that
 competes with the business of Gaussian, Inc. or will provide
 assistance to any competitor of Gaussian, Inc.  The licensee
 of this program is prohibited from giving any competitor of
 Gaussian, Inc. access to this program.  By using this program,
 the user acknowledges that Gaussian, Inc. is engaged in the
 business of creating and licensing software in the field of
 computational chemistry and represents and warrants to the
 licensee that it is not a competitor of Gaussian, Inc. and that
 it will not use this program in any manner prohibited above.
 ---------------------------------------------------------------
  

 Cite this work as:
 Gaussian 09, Revision D.01,
 M. J. Frisch, G. W. Trucks, H. B. Schlegel, G. E. Scuseria, 
 M. A. Robb, J. R. Cheeseman, G. Scalmani, V. Barone, B. Mennucci, 
 G. A. Petersson, H. Nakatsuji, M. Caricato, X. Li, H. P. Hratchian, 
 A. F. Izmaylov, J. Bloino, G. Zheng, J. L. Sonnenberg, M. Hada, 
 M. Ehara, K. Toyota, R. Fukuda, J. Hasegawa, M. Ishida, T. Nakajima, 
 Y. Honda, O. Kitao, H. Nakai, T. Vreven, J. A. Montgomery, Jr., 
 J. E. Peralta, F. Ogliaro, M. Bearpark, J. J. Heyd, E. Brothers, 
 K. N. Kudin, V. N. Staroverov, T. Keith, R. Kobayashi, J. Normand, 
 K. Raghavachari, A. Rendell, J. C. Burant, S. S. Iyengar, J. Tomasi, 
 M. Cossi, N. Rega, J. M. Millam, M. Klene, J. E. Knox, J. B. Cross, 
 V. Bakken, C. Adamo, J. Jaramillo, R. Gomperts, R. E. Stratmann, 
 O. Yazyev, A. J. Austin, R. Cammi, C. Pomelli, J. W. Ochterski, 
 R. L. Martin, K. Morokuma, V. G. Zakrzewski, G. A. Voth, 
 P. Salvador, J. J. Dannenberg, S. Dapprich, A. D. Daniels, 
 O. Farkas, J. B. Foresman, J. V. Ortiz, J. Cioslowski, 
 and D. J. Fox, Gaussian, Inc., Wallingford CT, 2013.
 
 ******************************************
 Gaussian 09:  EM64L-G09RevD.01 24-Apr-2013
                 2-May-2016 
 ******************************************
 %nproc=20
 Will use up to   20 processors via shared memory.
 %mem=80GB
 %chk=Tri_A131_of.chk
 ----------------------------------------------------------------------
 #P PBE1PBE/6-311+G(d,p) opt=ModRedundant freq optcyc=999 EmpiricalDisp
 ersion=GD3
 ----------------------------------------------------------------------
 1/6=999,14=-1,18=120,19=15,26=3,38=1/1,3;
 2/9=110,12=2,17=6,18=5,40=1/2;
 3/5=4,6=6,7=111,11=2,16=1,25=1,30=1,71=1,74=-13,124=31/1,2,3;
 4//1;
 5/5=2,38=5/2;
 6/7=2,8=2,9=2,10=2,28=1/1;
 7//1,2,3,16;
 1/6=999,14=-1,18=20,19=15,26=3/3(2);
 2/9=110/2;
 99//99;
 2/9=110/2;
 3/5=4,6=6,7=111,11=2,16=1,25=1,30=1,71=1,74=-13,124=31/1,2,3;
 4/5=5,16=3,69=1/1;
 5/5=2,38=5/2;
 7//1,2,3,16;
 1/6=999,14=-1,18=20,19=15,26=3/3(-5);
 2/9=110/2;
 6/7=2,8=2,9=2,10=2,19=2,28=1/1;
 99/9=1/99;
 Leave Link    1 at Mon May  2 10:56:18 2016, MaxMem= 10737418240 cpu:         2.5
 (Enter /share/apps//g09/l101.exe)
 -----
 trich
 -----
 Symbolic Z-matrix:
 Charge =  1 Multiplicity = 1
 O                     0.51882  -6.66224   9.42361 
 C                    -0.29381  -5.54412   9.13922 
 C                    -0.34947  -4.59495   10.34008 
 C                     1.05215  -4.16843   10.7871 
 C                     1.88736  -5.41503   11.08597 
 C                     1.8648   -6.33409   9.84907 
 H                    -1.28916  -5.96688   8.92296 
 H                    -0.83202  -5.1504    11.16058 
 H                     1.52966  -3.58061   9.98706 
 H                     2.94043  -5.11161   11.25626 
 H                     2.37761  -5.7829    9.03609 
 O                     1.32907  -5.97913   12.26947 
 O                     0.93594  -3.3007    11.91586 
 O                    -1.13519  -3.42481   10.0294 
 O                     0.17931  -4.77167   8.03827 
 C                     2.61619  -7.64525   10.02942 
 H                     2.47433  -8.26233   9.12562 
 H                     3.69038  -7.41248   10.13374 
 O                     2.12333  -8.33059   11.19163 
 H                     2.65284  -9.13218   11.33586 
 H                     1.57397  -6.92935   12.28553 
 H                     0.86135  -3.88548   12.69856 
 H                    -0.98256  -2.83196   10.7951 
 O                    -0.15654  -5.40976   3.90457 
 C                     1.04175  -4.83138   4.39536 
 C                     0.92611  -4.398     5.86105 
 C                     0.29115  -5.43878   6.77458 
 C                    -1.06566  -5.84174   6.17096 
 C                    -0.85321  -6.35253   4.7335 
 H                     1.89189  -5.53465   4.26303 
 H                     0.24426  -3.54139   5.8651 
 H                     0.91782  -6.34425   6.87589 
 H                    -1.49613  -6.67897   6.75162 
 H                    -0.29145  -7.30709   4.788 
 O                    -1.96384  -4.72001   6.21733 
 O                     2.1696   -3.88407   6.35138 
 O                     1.36584  -3.74049   3.56566 
 C                    -2.17669  -6.60451   3.99832 
 H                    -1.96219  -6.97734   2.98496 
 H                    -2.75672  -7.37225   4.53122 
 O                    -2.98224  -5.41976   3.93987 
 H                    -2.62364  -4.82998   3.21366 
 H                    -2.54061  -4.80784   5.3938 
 H                     2.90487  -4.37092   5.93544 
 O                    -0.41423  -1.29599   1.49368 
 C                    -0.96645  -0.48524   2.47877 
 C                     0.01582  -0.17046   3.62911 
 C                     0.85669  -1.393     4.03806 
 C                     0.34849  -2.7088    3.42998 
 C                     0.09181  -2.59352   1.91208 
 H                    -1.25391   0.4449    1.95811 
 H                    -0.57452   0.13419   4.51246 
 H                     1.87532  -1.21169   3.65672 
 H                     1.06492  -2.7025    1.40598 
 H                    -0.57519  -3.02717   3.93569 
 O                     0.88693  -1.42908   5.482 
 O                     0.94612   0.84543   3.26106 
 O                    -2.15219  -1.12479   3.01311 
 C                    -0.84337  -3.67738   1.37117 
 H                    -0.98214  -3.49553   0.29308 
 H                    -0.38183  -4.66316   1.50886 
 O                    -2.12094  -3.71541   2.02643 
 H                    -2.38855  -2.7828    2.20397 
 H                     1.65298  -1.98191   5.75095 
 H                     0.47966   1.69612   3.18523 
 C                    -3.22909  -0.23385   3.36687 
 H                    -2.83412   0.61576   3.95239 
 H                    -3.68763   0.17532   2.44985 
 C                    -4.24846  -1.02523   4.17595 
 H                    -4.70363  -1.78965   3.52714 
 H                    -5.06226  -0.33827   4.46009 
 C                    -3.66514  -1.713     5.41994 
 H                    -4.45405  -2.3248    5.8862 
 H                    -2.88413  -2.41281   5.08453 
 C                    -3.09222  -0.74274   6.46065 
 H                    -2.2805   -0.13673   6.02479 
 H                    -3.87047  -0.02568   6.76887 
 C                    -2.57065  -1.40398   7.73142 
 H                    -3.34072  -2.0194    8.21689 
 H                    -2.24093  -0.646     8.45455 
 N                    -1.40312  -2.31119   7.48047 
 H                    -1.67382  -3.1782    6.94258 
 H                    -1.03883  -2.68132   8.39445 
 H                    -0.64577  -1.84043   6.9506 
 
 The following ModRedundant input section has been read:
 B      45      84 B                                                           
 B      58      84 B                                                           
 B      56      84 B                                                           
 B      41      82 B                                                           
 B      62      82 B                                                           
 B      35      82 B                                                           
 B      13      83 B                                                           
 B      19      83 B                                                           
 B      14      83 B                                                           
 
 NAtoms=     84 NQM=       84 NQMF=       0 NMMI=      0 NMMIF=      0
                NMic=       0 NMicF=      0.
                    Isotopes and Nuclear Properties:
 (Nuclear quadrupole moments (NQMom) in fm**2, nuclear magnetic moments (NMagM)
  in nuclear magnetons)

  Atom         1           2           3           4           5           6           7           8           9          10
 IAtWgt=          16          12          12          12          12          12           1           1           1           1
 AtmWgt=  15.9949146  12.0000000  12.0000000  12.0000000  12.0000000  12.0000000   1.0078250   1.0078250   1.0078250   1.0078250
 NucSpn=           0           0           0           0           0           0           1           1           1           1
 AtZEff=   0.0000000   0.0000000   0.0000000   0.0000000   0.0000000   0.0000000   0.0000000   0.0000000   0.0000000   0.0000000
 NQMom=    0.0000000   0.0000000   0.0000000   0.0000000   0.0000000   0.0000000   0.0000000   0.0000000   0.0000000   0.0000000
 NMagM=    0.0000000   0.0000000   0.0000000   0.0000000   0.0000000   0.0000000   2.7928460   2.7928460   2.7928460   2.7928460
 AtZNuc=   8.0000000   6.0000000   6.0000000   6.0000000   6.0000000   6.0000000   1.0000000   1.0000000   1.0000000   1.0000000

  Atom        11          12          13          14          15          16          17          18          19          20
 IAtWgt=           1          16          16          16          16          12           1           1          16           1
 AtmWgt=   1.0078250  15.9949146  15.9949146  15.9949146  15.9949146  12.0000000   1.0078250   1.0078250  15.9949146   1.0078250
 NucSpn=           1           0           0           0           0           0           1           1           0           1
 AtZEff=   0.0000000   0.0000000   0.0000000   0.0000000   0.0000000   0.0000000   0.0000000   0.0000000   0.0000000   0.0000000
 NQMom=    0.0000000   0.0000000   0.0000000   0.0000000   0.0000000   0.0000000   0.0000000   0.0000000   0.0000000   0.0000000
 NMagM=    2.7928460   0.0000000   0.0000000   0.0000000   0.0000000   0.0000000   2.7928460   2.7928460   0.0000000   2.7928460
 AtZNuc=   1.0000000   8.0000000   8.0000000   8.0000000   8.0000000   6.0000000   1.0000000   1.0000000   8.0000000   1.0000000

  Atom        21          22          23          24          25          26          27          28          29          30
 IAtWgt=           1           1           1          16          12          12          12          12          12           1
 AtmWgt=   1.0078250   1.0078250   1.0078250  15.9949146  12.0000000  12.0000000  12.0000000  12.0000000  12.0000000   1.0078250
 NucSpn=           1           1           1           0           0           0           0           0           0           1
 AtZEff=   0.0000000   0.0000000   0.0000000   0.0000000   0.0000000   0.0000000   0.0000000   0.0000000   0.0000000   0.0000000
 NQMom=    0.0000000   0.0000000   0.0000000   0.0000000   0.0000000   0.0000000   0.0000000   0.0000000   0.0000000   0.0000000
 NMagM=    2.7928460   2.7928460   2.7928460   0.0000000   0.0000000   0.0000000   0.0000000   0.0000000   0.0000000   2.7928460
 AtZNuc=   1.0000000   1.0000000   1.0000000   8.0000000   6.0000000   6.0000000   6.0000000   6.0000000   6.0000000   1.0000000

  Atom        31          32          33          34          35          36          37          38          39          40
 IAtWgt=           1           1           1           1          16          16          16          12           1           1
 AtmWgt=   1.0078250   1.0078250   1.0078250   1.0078250  15.9949146  15.9949146  15.9949146  12.0000000   1.0078250   1.0078250
 NucSpn=           1           1           1           1           0           0           0           0           1           1
 AtZEff=   0.0000000   0.0000000   0.0000000   0.0000000   0.0000000   0.0000000   0.0000000   0.0000000   0.0000000   0.0000000
 NQMom=    0.0000000   0.0000000   0.0000000   0.0000000   0.0000000   0.0000000   0.0000000   0.0000000   0.0000000   0.0000000
 NMagM=    2.7928460   2.7928460   2.7928460   2.7928460   0.0000000   0.0000000   0.0000000   0.0000000   2.7928460   2.7928460
 AtZNuc=   1.0000000   1.0000000   1.0000000   1.0000000   8.0000000   8.0000000   8.0000000   6.0000000   1.0000000   1.0000000

  Atom        41          42          43          44          45          46          47          48          49          50
 IAtWgt=          16           1           1           1          16          12          12          12          12          12
 AtmWgt=  15.9949146   1.0078250   1.0078250   1.0078250  15.9949146  12.0000000  12.0000000  12.0000000  12.0000000  12.0000000
 NucSpn=           0           1           1           1           0           0           0           0           0           0
 AtZEff=   0.0000000   0.0000000   0.0000000   0.0000000   0.0000000   0.0000000   0.0000000   0.0000000   0.0000000   0.0000000
 NQMom=    0.0000000   0.0000000   0.0000000   0.0000000   0.0000000   0.0000000   0.0000000   0.0000000   0.0000000   0.0000000
 NMagM=    0.0000000   2.7928460   2.7928460   2.7928460   0.0000000   0.0000000   0.0000000   0.0000000   0.0000000   0.0000000
 AtZNuc=   8.0000000   1.0000000   1.0000000   1.0000000   8.0000000   6.0000000   6.0000000   6.0000000   6.0000000   6.0000000

  Atom        51          52          53          54          55          56          57          58          59          60
 IAtWgt=           1           1           1           1           1          16          16          16          12           1
 AtmWgt=   1.0078250   1.0078250   1.0078250   1.0078250   1.0078250  15.9949146  15.9949146  15.9949146  12.0000000   1.0078250
 NucSpn=           1           1           1           1           1           0           0           0           0           1
 AtZEff=   0.0000000   0.0000000   0.0000000   0.0000000   0.0000000   0.0000000   0.0000000   0.0000000   0.0000000   0.0000000
 NQMom=    0.0000000   0.0000000   0.0000000   0.0000000   0.0000000   0.0000000   0.0000000   0.0000000   0.0000000   0.0000000
 NMagM=    2.7928460   2.7928460   2.7928460   2.7928460   2.7928460   0.0000000   0.0000000   0.0000000   0.0000000   2.7928460
 AtZNuc=   1.0000000   1.0000000   1.0000000   1.0000000   1.0000000   8.0000000   8.0000000   8.0000000   6.0000000   1.0000000

  Atom        61          62          63          64          65          66          67          68          69          70
 IAtWgt=           1          16           1           1           1          12           1           1          12           1
 AtmWgt=   1.0078250  15.9949146   1.0078250   1.0078250   1.0078250  12.0000000   1.0078250   1.0078250  12.0000000   1.0078250
 NucSpn=           1           0           1           1           1           0           1           1           0           1
 AtZEff=   0.0000000   0.0000000   0.0000000   0.0000000   0.0000000   0.0000000   0.0000000   0.0000000   0.0000000   0.0000000
 NQMom=    0.0000000   0.0000000   0.0000000   0.0000000   0.0000000   0.0000000   0.0000000   0.0000000   0.0000000   0.0000000
 NMagM=    2.7928460   0.0000000   2.7928460   2.7928460   2.7928460   0.0000000   2.7928460   2.7928460   0.0000000   2.7928460
 AtZNuc=   1.0000000   8.0000000   1.0000000   1.0000000   1.0000000   6.0000000   1.0000000   1.0000000   6.0000000   1.0000000

  Atom        71          72          73          74          75          76          77          78          79          80
 IAtWgt=           1          12           1           1          12           1           1          12           1           1
 AtmWgt=   1.0078250  12.0000000   1.0078250   1.0078250  12.0000000   1.0078250   1.0078250  12.0000000   1.0078250   1.0078250
 NucSpn=           1           0           1           1           0           1           1           0           1           1
 AtZEff=   0.0000000   0.0000000   0.0000000   0.0000000   0.0000000   0.0000000   0.0000000   0.0000000   0.0000000   0.0000000
 NQMom=    0.0000000   0.0000000   0.0000000   0.0000000   0.0000000   0.0000000   0.0000000   0.0000000   0.0000000   0.0000000
 NMagM=    2.7928460   0.0000000   2.7928460   2.7928460   0.0000000   2.7928460   2.7928460   0.0000000   2.7928460   2.7928460
 AtZNuc=   1.0000000   6.0000000   1.0000000   1.0000000   6.0000000   1.0000000   1.0000000   6.0000000   1.0000000   1.0000000

  Atom        81          82          83          84
 IAtWgt=          14           1           1           1
 AtmWgt=  14.0030740   1.0078250   1.0078250   1.0078250
 NucSpn=           2           1           1           1
 AtZEff=   0.0000000   0.0000000   0.0000000   0.0000000
 NQMom=    2.0440000   0.0000000   0.0000000   0.0000000
 NMagM=    0.4037610   2.7928460   2.7928460   2.7928460
 AtZNuc=   7.0000000   1.0000000   1.0000000   1.0000000
 Leave Link  101 at Mon May  2 10:56:19 2016, MaxMem= 10737418240 cpu:         5.0
 (Enter /share/apps//g09/l103.exe)

 GradGradGradGradGradGradGradGradGradGradGradGradGradGradGradGradGradGrad
 Berny optimization.
 Initialization pass.
                           ----------------------------
                           !    Initial Parameters    !
                           ! (Angstroms and Degrees)  !
 --------------------------                            --------------------------
 ! Name  Definition              Value          Derivative Info.                !
 --------------------------------------------------------------------------------
 ! R1    R(1,2)                  1.4112         estimate D2E/DX2                !
 ! R2    R(1,6)                  1.4493         estimate D2E/DX2                !
 ! R3    R(2,3)                  1.5317         estimate D2E/DX2                !
 ! R4    R(2,7)                  1.1028         estimate D2E/DX2                !
 ! R5    R(2,15)                 1.4257         estimate D2E/DX2                !
 ! R6    R(3,4)                  1.5318         estimate D2E/DX2                !
 ! R7    R(3,8)                  1.1021         estimate D2E/DX2                !
 ! R8    R(3,14)                 1.4433         estimate D2E/DX2                !
 ! R9    R(4,5)                  1.53           estimate D2E/DX2                !
 ! R10   R(4,9)                  1.1016         estimate D2E/DX2                !
 ! R11   R(4,13)                 1.4285         estimate D2E/DX2                !
 ! R12   R(5,6)                  1.5411         estimate D2E/DX2                !
 ! R13   R(5,10)                 1.1091         estimate D2E/DX2                !
 ! R14   R(5,12)                 1.425          estimate D2E/DX2                !
 ! R15   R(6,11)                 1.108          estimate D2E/DX2                !
 ! R16   R(6,16)                 1.5219         estimate D2E/DX2                !
 ! R17   R(12,21)                0.9814         estimate D2E/DX2                !
 ! R18   R(13,22)                0.9799         estimate D2E/DX2                !
 ! R19   R(13,83)                4.0846         estimate D2E/DX2                !
 ! R20   R(14,23)                0.9803         estimate D2E/DX2                !
 ! R21   R(14,83)                1.7986         estimate D2E/DX2                !
 ! R22   R(15,27)                1.4333         estimate D2E/DX2                !
 ! R23   R(16,17)                1.1035         estimate D2E/DX2                !
 ! R24   R(16,18)                1.1041         estimate D2E/DX2                !
 ! R25   R(16,19)                1.4364         estimate D2E/DX2                !
 ! R26   R(19,20)                0.9715         estimate D2E/DX2                !
 ! R27   R(19,83)                7.0525         estimate D2E/DX2                !
 ! R28   R(24,25)                1.4182         estimate D2E/DX2                !
 ! R29   R(24,29)                1.4357         estimate D2E/DX2                !
 ! R30   R(25,26)                1.5328         estimate D2E/DX2                !
 ! R31   R(25,30)                1.1112         estimate D2E/DX2                !
 ! R32   R(25,37)                1.4084         estimate D2E/DX2                !
 ! R33   R(26,27)                1.5235         estimate D2E/DX2                !
 ! R34   R(26,31)                1.0949         estimate D2E/DX2                !
 ! R35   R(26,36)                1.4321         estimate D2E/DX2                !
 ! R36   R(27,28)                1.5387         estimate D2E/DX2                !
 ! R37   R(27,32)                1.1058         estimate D2E/DX2                !
 ! R38   R(28,29)                1.5402         estimate D2E/DX2                !
 ! R39   R(28,33)                1.1061         estimate D2E/DX2                !
 ! R40   R(28,35)                1.4378         estimate D2E/DX2                !
 ! R41   R(29,34)                1.1089         estimate D2E/DX2                !
 ! R42   R(29,38)                1.5348         estimate D2E/DX2                !
 ! R43   R(35,43)                1.0092         estimate D2E/DX2                !
 ! R44   R(35,82)                1.7284         estimate D2E/DX2                !
 ! R45   R(36,44)                0.975          estimate D2E/DX2                !
 ! R46   R(37,49)                1.4553         estimate D2E/DX2                !
 ! R47   R(38,39)                1.1009         estimate D2E/DX2                !
 ! R48   R(38,40)                1.0999         estimate D2E/DX2                !
 ! R49   R(38,41)                1.4339         estimate D2E/DX2                !
 ! R50   R(41,42)                1.0019         estimate D2E/DX2                !
 ! R51   R(41,82)                3.969          estimate D2E/DX2                !
 ! R52   R(45,46)                1.3902         estimate D2E/DX2                !
 ! R53   R(45,50)                1.4542         estimate D2E/DX2                !
 ! R54   R(45,84)                5.4889         estimate D2E/DX2                !
 ! R55   R(46,47)                1.5451         estimate D2E/DX2                !
 ! R56   R(46,51)                1.104          estimate D2E/DX2                !
 ! R57   R(46,58)                1.4493         estimate D2E/DX2                !
 ! R58   R(47,48)                1.5391         estimate D2E/DX2                !
 ! R59   R(47,52)                1.1053         estimate D2E/DX2                !
 ! R60   R(47,57)                1.4258         estimate D2E/DX2                !
 ! R61   R(48,49)                1.536          estimate D2E/DX2                !
 ! R62   R(48,53)                1.1027         estimate D2E/DX2                !
 ! R63   R(48,56)                1.4447         estimate D2E/DX2                !
 ! R64   R(49,50)                1.5438         estimate D2E/DX2                !
 ! R65   R(49,55)                1.1001         estimate D2E/DX2                !
 ! R66   R(50,54)                1.1023         estimate D2E/DX2                !
 ! R67   R(50,59)                1.5303         estimate D2E/DX2                !
 ! R68   R(56,64)                0.9822         estimate D2E/DX2                !
 ! R69   R(56,84)                2.1622         estimate D2E/DX2                !
 ! R70   R(57,65)                0.9731         estimate D2E/DX2                !
 ! R71   R(58,66)                1.4417         estimate D2E/DX2                !
 ! R72   R(58,84)                4.2761         estimate D2E/DX2                !
 ! R73   R(59,60)                1.1021         estimate D2E/DX2                !
 ! R74   R(59,61)                1.0972         estimate D2E/DX2                !
 ! R75   R(59,62)                1.4363         estimate D2E/DX2                !
 ! R76   R(62,63)                0.9864         estimate D2E/DX2                !
 ! R77   R(62,82)                4.9656         estimate D2E/DX2                !
 ! R78   R(66,67)                1.1048         estimate D2E/DX2                !
 ! R79   R(66,68)                1.1039         estimate D2E/DX2                !
 ! R80   R(66,69)                1.5232         estimate D2E/DX2                !
 ! R81   R(69,70)                1.1011         estimate D2E/DX2                !
 ! R82   R(69,71)                1.1022         estimate D2E/DX2                !
 ! R83   R(69,72)                1.5365         estimate D2E/DX2                !
 ! R84   R(72,73)                1.1019         estimate D2E/DX2                !
 ! R85   R(72,74)                1.101          estimate D2E/DX2                !
 ! R86   R(72,75)                1.5339         estimate D2E/DX2                !
 ! R87   R(75,76)                1.1028         estimate D2E/DX2                !
 ! R88   R(75,77)                1.1022         estimate D2E/DX2                !
 ! R89   R(75,78)                1.5245         estimate D2E/DX2                !
 ! R90   R(78,79)                1.0988         estimate D2E/DX2                !
 ! R91   R(78,80)                1.0983         estimate D2E/DX2                !
 ! R92   R(78,81)                1.4997         estimate D2E/DX2                !
 ! R93   R(81,82)                1.0556         estimate D2E/DX2                !
 ! R94   R(81,83)                1.0512         estimate D2E/DX2                !
 ! R95   R(81,84)                1.0373         estimate D2E/DX2                !
 ! A1    A(2,1,6)              114.4923         estimate D2E/DX2                !
 ! A2    A(1,2,3)              110.7274         estimate D2E/DX2                !
 ! A3    A(1,2,7)              104.8042         estimate D2E/DX2                !
 ! A4    A(1,2,15)             113.1919         estimate D2E/DX2                !
 ! A5    A(3,2,7)              111.0079         estimate D2E/DX2                !
 ! A6    A(3,2,15)             106.3638         estimate D2E/DX2                !
 ! A7    A(7,2,15)             110.8413         estimate D2E/DX2                !
 ! A8    A(2,3,4)              111.5986         estimate D2E/DX2                !
 ! A9    A(2,3,8)              106.6952         estimate D2E/DX2                !
 ! A10   A(2,3,14)             110.6969         estimate D2E/DX2                !
 ! A11   A(4,3,8)              108.888          estimate D2E/DX2                !
 ! A12   A(4,3,14)             109.5852         estimate D2E/DX2                !
 ! A13   A(8,3,14)             109.2996         estimate D2E/DX2                !
 ! A14   A(3,4,5)              109.2471         estimate D2E/DX2                !
 ! A15   A(3,4,9)              109.4672         estimate D2E/DX2                !
 ! A16   A(3,4,13)             108.9842         estimate D2E/DX2                !
 ! A17   A(5,4,9)              109.8765         estimate D2E/DX2                !
 ! A18   A(5,4,13)             112.6429         estimate D2E/DX2                !
 ! A19   A(9,4,13)             106.558          estimate D2E/DX2                !
 ! A20   A(4,5,6)              108.7307         estimate D2E/DX2                !
 ! A21   A(4,5,10)             108.9907         estimate D2E/DX2                !
 ! A22   A(4,5,12)             105.718          estimate D2E/DX2                !
 ! A23   A(6,5,10)             107.4747         estimate D2E/DX2                !
 ! A24   A(6,5,12)             115.1362         estimate D2E/DX2                !
 ! A25   A(10,5,12)            110.6578         estimate D2E/DX2                !
 ! A26   A(1,6,5)              112.5966         estimate D2E/DX2                !
 ! A27   A(1,6,11)             109.091          estimate D2E/DX2                !
 ! A28   A(1,6,16)             107.3523         estimate D2E/DX2                !
 ! A29   A(5,6,11)             106.5854         estimate D2E/DX2                !
 ! A30   A(5,6,16)             114.2948         estimate D2E/DX2                !
 ! A31   A(11,6,16)            106.6792         estimate D2E/DX2                !
 ! A32   A(5,12,21)            107.4042         estimate D2E/DX2                !
 ! A33   A(4,13,22)            105.9531         estimate D2E/DX2                !
 ! A34   A(4,13,83)             56.6473         estimate D2E/DX2                !
 ! A35   A(22,13,83)           137.9312         estimate D2E/DX2                !
 ! A36   A(3,14,23)            103.7333         estimate D2E/DX2                !
 ! A37   A(3,14,83)            120.1079         estimate D2E/DX2                !
 ! A38   A(23,14,83)           116.85           estimate D2E/DX2                !
 ! A39   A(2,15,27)            117.0356         estimate D2E/DX2                !
 ! A40   A(6,16,17)            108.7373         estimate D2E/DX2                !
 ! A41   A(6,16,18)            108.0542         estimate D2E/DX2                !
 ! A42   A(6,16,19)            109.7258         estimate D2E/DX2                !
 ! A43   A(17,16,18)           108.6844         estimate D2E/DX2                !
 ! A44   A(17,16,19)           110.5947         estimate D2E/DX2                !
 ! A45   A(18,16,19)           110.9757         estimate D2E/DX2                !
 ! A46   A(16,19,20)           109.074          estimate D2E/DX2                !
 ! A47   A(16,19,83)            56.6848         estimate D2E/DX2                !
 ! A48   A(20,19,83)           164.6321         estimate D2E/DX2                !
 ! A49   A(25,24,29)           118.5544         estimate D2E/DX2                !
 ! A50   A(24,25,26)           112.4873         estimate D2E/DX2                !
 ! A51   A(24,25,30)           110.3099         estimate D2E/DX2                !
 ! A52   A(24,25,37)           107.8457         estimate D2E/DX2                !
 ! A53   A(26,25,30)           110.5196         estimate D2E/DX2                !
 ! A54   A(26,25,37)           111.2042         estimate D2E/DX2                !
 ! A55   A(30,25,37)           104.1231         estimate D2E/DX2                !
 ! A56   A(25,26,27)           114.3102         estimate D2E/DX2                !
 ! A57   A(25,26,31)           105.7676         estimate D2E/DX2                !
 ! A58   A(25,26,36)           111.3069         estimate D2E/DX2                !
 ! A59   A(27,26,31)           105.8264         estimate D2E/DX2                !
 ! A60   A(27,26,36)           113.6884         estimate D2E/DX2                !
 ! A61   A(31,26,36)           104.9941         estimate D2E/DX2                !
 ! A62   A(15,27,26)           104.0771         estimate D2E/DX2                !
 ! A63   A(15,27,28)           113.5118         estimate D2E/DX2                !
 ! A64   A(15,27,32)           110.154          estimate D2E/DX2                !
 ! A65   A(26,27,28)           108.131          estimate D2E/DX2                !
 ! A66   A(26,27,32)           112.2181         estimate D2E/DX2                !
 ! A67   A(28,27,32)           108.736          estimate D2E/DX2                !
 ! A68   A(27,28,29)           109.3496         estimate D2E/DX2                !
 ! A69   A(27,28,33)           109.6005         estimate D2E/DX2                !
 ! A70   A(27,28,35)           109.5047         estimate D2E/DX2                !
 ! A71   A(29,28,33)           107.0136         estimate D2E/DX2                !
 ! A72   A(29,28,35)           112.0245         estimate D2E/DX2                !
 ! A73   A(33,28,35)           109.2988         estimate D2E/DX2                !
 ! A74   A(24,29,28)           112.8301         estimate D2E/DX2                !
 ! A75   A(24,29,34)           110.3531         estimate D2E/DX2                !
 ! A76   A(24,29,38)           104.4585         estimate D2E/DX2                !
 ! A77   A(28,29,34)           108.0274         estimate D2E/DX2                !
 ! A78   A(28,29,38)           112.4918         estimate D2E/DX2                !
 ! A79   A(34,29,38)           108.6055         estimate D2E/DX2                !
 ! A80   A(28,35,43)           105.2362         estimate D2E/DX2                !
 ! A81   A(28,35,82)           127.2061         estimate D2E/DX2                !
 ! A82   A(43,35,82)           121.0593         estimate D2E/DX2                !
 ! A83   A(26,36,44)           109.2415         estimate D2E/DX2                !
 ! A84   A(25,37,49)           116.3072         estimate D2E/DX2                !
 ! A85   A(29,38,39)           109.1787         estimate D2E/DX2                !
 ! A86   A(29,38,40)           109.7096         estimate D2E/DX2                !
 ! A87   A(29,38,41)           111.6124         estimate D2E/DX2                !
 ! A88   A(39,38,40)           108.2            estimate D2E/DX2                !
 ! A89   A(39,38,41)           110.5957         estimate D2E/DX2                !
 ! A90   A(40,38,41)           107.4706         estimate D2E/DX2                !
 ! A91   A(38,41,42)           108.352          estimate D2E/DX2                !
 ! A92   A(38,41,82)           104.5133         estimate D2E/DX2                !
 ! A93   A(42,41,82)            95.6192         estimate D2E/DX2                !
 ! A94   A(46,45,50)           117.0461         estimate D2E/DX2                !
 ! A95   A(46,45,84)            48.4421         estimate D2E/DX2                !
 ! A96   A(50,45,84)            68.9081         estimate D2E/DX2                !
 ! A97   A(45,46,47)           113.1942         estimate D2E/DX2                !
 ! A98   A(45,46,51)           105.1049         estimate D2E/DX2                !
 ! A99   A(45,46,58)           109.2009         estimate D2E/DX2                !
 ! A100  A(47,46,51)           110.1822         estimate D2E/DX2                !
 ! A101  A(47,46,58)           109.6051         estimate D2E/DX2                !
 ! A102  A(51,46,58)           109.4281         estimate D2E/DX2                !
 ! A103  A(46,47,48)           112.5397         estimate D2E/DX2                !
 ! A104  A(46,47,52)           108.1576         estimate D2E/DX2                !
 ! A105  A(46,47,57)           111.5786         estimate D2E/DX2                !
 ! A106  A(48,47,52)           107.3607         estimate D2E/DX2                !
 ! A107  A(48,47,57)           106.1448         estimate D2E/DX2                !
 ! A108  A(52,47,57)           111.0025         estimate D2E/DX2                !
 ! A109  A(47,48,49)           113.2339         estimate D2E/DX2                !
 ! A110  A(47,48,53)           106.3912         estimate D2E/DX2                !
 ! A111  A(47,48,56)           107.2676         estimate D2E/DX2                !
 ! A112  A(49,48,53)           108.034          estimate D2E/DX2                !
 ! A113  A(49,48,56)           112.4082         estimate D2E/DX2                !
 ! A114  A(53,48,56)           109.2941         estimate D2E/DX2                !
 ! A115  A(37,49,48)           109.8215         estimate D2E/DX2                !
 ! A116  A(37,49,50)           105.1204         estimate D2E/DX2                !
 ! A117  A(37,49,55)           109.8121         estimate D2E/DX2                !
 ! A118  A(48,49,50)           112.3517         estimate D2E/DX2                !
 ! A119  A(48,49,55)           110.1032         estimate D2E/DX2                !
 ! A120  A(50,49,55)           109.5112         estimate D2E/DX2                !
 ! A121  A(45,50,49)           114.0407         estimate D2E/DX2                !
 ! A122  A(45,50,54)           105.2675         estimate D2E/DX2                !
 ! A123  A(45,50,59)           108.5177         estimate D2E/DX2                !
 ! A124  A(49,50,54)           107.2948         estimate D2E/DX2                !
 ! A125  A(49,50,59)           113.3445         estimate D2E/DX2                !
 ! A126  A(54,50,59)           107.8896         estimate D2E/DX2                !
 ! A127  A(48,56,64)           107.701          estimate D2E/DX2                !
 ! A128  A(48,56,84)           131.9718         estimate D2E/DX2                !
 ! A129  A(64,56,84)           105.0575         estimate D2E/DX2                !
 ! A130  A(47,57,65)           109.2813         estimate D2E/DX2                !
 ! A131  A(46,58,66)           115.396          estimate D2E/DX2                !
 ! A132  A(46,58,84)            97.1876         estimate D2E/DX2                !
 ! A133  A(66,58,84)            98.0837         estimate D2E/DX2                !
 ! A134  A(50,59,60)           107.809          estimate D2E/DX2                !
 ! A135  A(50,59,61)           109.5683         estimate D2E/DX2                !
 ! A136  A(50,59,62)           113.6444         estimate D2E/DX2                !
 ! A137  A(60,59,61)           108.9043         estimate D2E/DX2                !
 ! A138  A(60,59,62)           109.7943         estimate D2E/DX2                !
 ! A139  A(61,59,62)           107.0457         estimate D2E/DX2                !
 ! A140  A(59,62,63)           107.362          estimate D2E/DX2                !
 ! A141  A(59,62,82)           111.6362         estimate D2E/DX2                !
 ! A142  A(63,62,82)            75.1633         estimate D2E/DX2                !
 ! A143  A(58,66,67)           109.7681         estimate D2E/DX2                !
 ! A144  A(58,66,68)           109.6021         estimate D2E/DX2                !
 ! A145  A(58,66,69)           108.0083         estimate D2E/DX2                !
 ! A146  A(67,66,68)           107.6802         estimate D2E/DX2                !
 ! A147  A(67,66,69)           110.9334         estimate D2E/DX2                !
 ! A148  A(68,66,69)           110.8454         estimate D2E/DX2                !
 ! A149  A(66,69,70)           108.9262         estimate D2E/DX2                !
 ! A150  A(66,69,71)           107.8927         estimate D2E/DX2                !
 ! A151  A(66,69,72)           114.1143         estimate D2E/DX2                !
 ! A152  A(70,69,71)           106.2222         estimate D2E/DX2                !
 ! A153  A(70,69,72)           108.859          estimate D2E/DX2                !
 ! A154  A(71,69,72)           110.522          estimate D2E/DX2                !
 ! A155  A(69,72,73)           108.6222         estimate D2E/DX2                !
 ! A156  A(69,72,74)           107.889          estimate D2E/DX2                !
 ! A157  A(69,72,75)           114.0781         estimate D2E/DX2                !
 ! A158  A(73,72,74)           106.4921         estimate D2E/DX2                !
 ! A159  A(73,72,75)           109.3628         estimate D2E/DX2                !
 ! A160  A(74,72,75)           110.1086         estimate D2E/DX2                !
 ! A161  A(72,75,76)           110.7555         estimate D2E/DX2                !
 ! A162  A(72,75,77)           109.7262         estimate D2E/DX2                !
 ! A163  A(72,75,78)           114.7705         estimate D2E/DX2                !
 ! A164  A(76,75,77)           105.8277         estimate D2E/DX2                !
 ! A165  A(76,75,78)           108.4201         estimate D2E/DX2                !
 ! A166  A(77,75,78)           106.8969         estimate D2E/DX2                !
 ! A167  A(75,78,79)           111.804          estimate D2E/DX2                !
 ! A168  A(75,78,80)           110.6222         estimate D2E/DX2                !
 ! A169  A(75,78,81)           112.9073         estimate D2E/DX2                !
 ! A170  A(79,78,80)           107.8206         estimate D2E/DX2                !
 ! A171  A(79,78,81)           106.3027         estimate D2E/DX2                !
 ! A172  A(80,78,81)           107.0947         estimate D2E/DX2                !
 ! A173  A(78,81,82)           112.4868         estimate D2E/DX2                !
 ! A174  A(78,81,83)           109.7117         estimate D2E/DX2                !
 ! A175  A(78,81,84)           112.2932         estimate D2E/DX2                !
 ! A176  A(82,81,83)           104.0464         estimate D2E/DX2                !
 ! A177  A(82,81,84)           107.4393         estimate D2E/DX2                !
 ! A178  A(83,81,84)           110.5431         estimate D2E/DX2                !
 ! A179  A(35,82,41)            28.7674         estimate D2E/DX2                !
 ! A180  A(35,82,62)            58.1933         estimate D2E/DX2                !
 ! A181  A(41,82,62)            32.8814         estimate D2E/DX2                !
 ! A182  A(41,82,81)           159.0518         estimate D2E/DX2                !
 ! A183  A(62,82,81)           128.0559         estimate D2E/DX2                !
 ! A184  A(13,83,14)            34.8707         estimate D2E/DX2                !
 ! A185  A(13,83,19)            47.1421         estimate D2E/DX2                !
 ! A186  A(14,83,19)            48.1164         estimate D2E/DX2                !
 ! A187  A(14,83,81)           156.5339         estimate D2E/DX2                !
 ! A188  A(19,83,81)           141.4681         estimate D2E/DX2                !
 ! A189  A(45,84,56)            43.6121         estimate D2E/DX2                !
 ! A190  A(45,84,58)            23.4824         estimate D2E/DX2                !
 ! A191  A(45,84,81)           125.7087         estimate D2E/DX2                !
 ! A192  A(56,84,58)            65.9495         estimate D2E/DX2                !
 ! A193  A(56,84,81)           161.9628         estimate D2E/DX2                !
 ! A194  A(58,84,81)           106.8047         estimate D2E/DX2                !
 ! A195  L(35,82,81,41,-1)     187.8192         estimate D2E/DX2                !
 ! A196  L(13,83,81,14,-1)     191.4046         estimate D2E/DX2                !
 ! A197  L(35,82,81,41,-2)     186.7033         estimate D2E/DX2                !
 ! A198  L(13,83,81,14,-2)     163.1725         estimate D2E/DX2                !
 ! D1    D(6,1,2,3)            -55.3877         estimate D2E/DX2                !
 ! D2    D(6,1,2,7)           -175.1551         estimate D2E/DX2                !
 ! D3    D(6,1,2,15)            63.9424         estimate D2E/DX2                !
 ! D4    D(2,1,6,5)             56.6703         estimate D2E/DX2                !
 ! D5    D(2,1,6,11)           -61.4431         estimate D2E/DX2                !
 ! D6    D(2,1,6,16)          -176.6789         estimate D2E/DX2                !
 ! D7    D(1,2,3,4)             55.2724         estimate D2E/DX2                !
 ! D8    D(1,2,3,8)            -63.5586         estimate D2E/DX2                !
 ! D9    D(1,2,3,14)           177.6141         estimate D2E/DX2                !
 ! D10   D(7,2,3,4)            171.247          estimate D2E/DX2                !
 ! D11   D(7,2,3,8)             52.416          estimate D2E/DX2                !
 ! D12   D(7,2,3,14)           -66.4113         estimate D2E/DX2                !
 ! D13   D(15,2,3,4)           -68.0917         estimate D2E/DX2                !
 ! D14   D(15,2,3,8)           173.0773         estimate D2E/DX2                !
 ! D15   D(15,2,3,14)           54.2501         estimate D2E/DX2                !
 ! D16   D(1,2,15,27)           59.5416         estimate D2E/DX2                !
 ! D17   D(3,2,15,27)         -178.6491         estimate D2E/DX2                !
 ! D18   D(7,2,15,27)          -57.8805         estimate D2E/DX2                !
 ! D19   D(2,3,4,5)            -55.8373         estimate D2E/DX2                !
 ! D20   D(2,3,4,9)             64.519          estimate D2E/DX2                !
 ! D21   D(2,3,4,13)          -179.2971         estimate D2E/DX2                !
 ! D22   D(8,3,4,5)             61.6798         estimate D2E/DX2                !
 ! D23   D(8,3,4,9)           -177.9639         estimate D2E/DX2                !
 ! D24   D(8,3,4,13)           -61.78           estimate D2E/DX2                !
 ! D25   D(14,3,4,5)          -178.8152         estimate D2E/DX2                !
 ! D26   D(14,3,4,9)           -58.4589         estimate D2E/DX2                !
 ! D27   D(14,3,4,13)           57.7251         estimate D2E/DX2                !
 ! D28   D(2,3,14,23)         -171.0043         estimate D2E/DX2                !
 ! D29   D(2,3,14,83)          -38.2252         estimate D2E/DX2                !
 ! D30   D(4,3,14,23)          -47.4944         estimate D2E/DX2                !
 ! D31   D(4,3,14,83)           85.2847         estimate D2E/DX2                !
 ! D32   D(8,3,14,23)           71.7576         estimate D2E/DX2                !
 ! D33   D(8,3,14,83)         -155.4633         estimate D2E/DX2                !
 ! D34   D(3,4,5,6)             54.4749         estimate D2E/DX2                !
 ! D35   D(3,4,5,10)           171.3483         estimate D2E/DX2                !
 ! D36   D(3,4,5,12)           -69.6761         estimate D2E/DX2                !
 ! D37   D(9,4,5,6)            -65.6303         estimate D2E/DX2                !
 ! D38   D(9,4,5,10)            51.2431         estimate D2E/DX2                !
 ! D39   D(9,4,5,12)           170.2187         estimate D2E/DX2                !
 ! D40   D(13,4,5,6)           175.7394         estimate D2E/DX2                !
 ! D41   D(13,4,5,10)          -67.3872         estimate D2E/DX2                !
 ! D42   D(13,4,5,12)           51.5885         estimate D2E/DX2                !
 ! D43   D(3,4,13,22)           84.184          estimate D2E/DX2                !
 ! D44   D(3,4,13,83)          -53.221          estimate D2E/DX2                !
 ! D45   D(5,4,13,22)          -37.2302         estimate D2E/DX2                !
 ! D46   D(5,4,13,83)         -174.6351         estimate D2E/DX2                !
 ! D47   D(9,4,13,22)         -157.7839         estimate D2E/DX2                !
 ! D48   D(9,4,13,83)           64.8111         estimate D2E/DX2                !
 ! D49   D(4,5,6,1)            -54.8611         estimate D2E/DX2                !
 ! D50   D(4,5,6,11)            64.7164         estimate D2E/DX2                !
 ! D51   D(4,5,6,16)          -177.7017         estimate D2E/DX2                !
 ! D52   D(10,5,6,1)          -172.6998         estimate D2E/DX2                !
 ! D53   D(10,5,6,11)          -53.1223         estimate D2E/DX2                !
 ! D54   D(10,5,6,16)           64.4595         estimate D2E/DX2                !
 ! D55   D(12,5,6,1)            63.503          estimate D2E/DX2                !
 ! D56   D(12,5,6,11)         -176.9195         estimate D2E/DX2                !
 ! D57   D(12,5,6,16)          -59.3376         estimate D2E/DX2                !
 ! D58   D(4,5,12,21)          157.2812         estimate D2E/DX2                !
 ! D59   D(6,5,12,21)           37.2456         estimate D2E/DX2                !
 ! D60   D(10,5,12,21)         -84.8538         estimate D2E/DX2                !
 ! D61   D(1,6,16,17)           49.8981         estimate D2E/DX2                !
 ! D62   D(1,6,16,18)          167.6971         estimate D2E/DX2                !
 ! D63   D(1,6,16,19)          -71.181          estimate D2E/DX2                !
 ! D64   D(5,6,16,17)          175.5406         estimate D2E/DX2                !
 ! D65   D(5,6,16,18)          -66.6604         estimate D2E/DX2                !
 ! D66   D(5,6,16,19)           54.4614         estimate D2E/DX2                !
 ! D67   D(11,6,16,17)         -66.9313         estimate D2E/DX2                !
 ! D68   D(11,6,16,18)          50.8677         estimate D2E/DX2                !
 ! D69   D(11,6,16,19)         171.9896         estimate D2E/DX2                !
 ! D70   D(4,13,83,14)          92.455          estimate D2E/DX2                !
 ! D71   D(4,13,83,19)          17.6103         estimate D2E/DX2                !
 ! D72   D(22,13,83,14)         16.2319         estimate D2E/DX2                !
 ! D73   D(22,13,83,19)        -58.6127         estimate D2E/DX2                !
 ! D74   D(3,14,83,13)         -71.106          estimate D2E/DX2                !
 ! D75   D(3,14,83,19)           0.766          estimate D2E/DX2                !
 ! D76   D(3,14,83,81)         125.7215         estimate D2E/DX2                !
 ! D77   D(23,14,83,13)         55.8451         estimate D2E/DX2                !
 ! D78   D(23,14,83,19)        127.7171         estimate D2E/DX2                !
 ! D79   D(23,14,83,81)       -107.3274         estimate D2E/DX2                !
 ! D80   D(2,15,27,26)        -175.2058         estimate D2E/DX2                !
 ! D81   D(2,15,27,28)          67.4738         estimate D2E/DX2                !
 ! D82   D(2,15,27,32)         -54.7218         estimate D2E/DX2                !
 ! D83   D(6,16,19,20)        -175.8217         estimate D2E/DX2                !
 ! D84   D(6,16,19,83)          10.6449         estimate D2E/DX2                !
 ! D85   D(17,16,19,20)         64.2254         estimate D2E/DX2                !
 ! D86   D(17,16,19,83)       -109.308          estimate D2E/DX2                !
 ! D87   D(18,16,19,20)        -56.4767         estimate D2E/DX2                !
 ! D88   D(18,16,19,83)        129.9899         estimate D2E/DX2                !
 ! D89   D(16,19,83,13)       -112.0953         estimate D2E/DX2                !
 ! D90   D(16,19,83,14)       -159.931          estimate D2E/DX2                !
 ! D91   D(16,19,83,81)         51.6638         estimate D2E/DX2                !
 ! D92   D(20,19,83,13)       -135.776          estimate D2E/DX2                !
 ! D93   D(20,19,83,14)        176.3883         estimate D2E/DX2                !
 ! D94   D(20,19,83,81)         27.9831         estimate D2E/DX2                !
 ! D95   D(29,24,25,26)        -43.7904         estimate D2E/DX2                !
 ! D96   D(29,24,25,30)         80.1086         estimate D2E/DX2                !
 ! D97   D(29,24,25,37)       -166.7819         estimate D2E/DX2                !
 ! D98   D(25,24,29,28)         49.3719         estimate D2E/DX2                !
 ! D99   D(25,24,29,34)        -71.5792         estimate D2E/DX2                !
 ! D100  D(25,24,29,38)        171.8645         estimate D2E/DX2                !
 ! D101  D(24,25,26,27)         46.397          estimate D2E/DX2                !
 ! D102  D(24,25,26,31)        -69.6118         estimate D2E/DX2                !
 ! D103  D(24,25,26,36)        176.8921         estimate D2E/DX2                !
 ! D104  D(30,25,26,27)        -77.3857         estimate D2E/DX2                !
 ! D105  D(30,25,26,31)        166.6055         estimate D2E/DX2                !
 ! D106  D(30,25,26,36)         53.1094         estimate D2E/DX2                !
 ! D107  D(37,25,26,27)        167.4852         estimate D2E/DX2                !
 ! D108  D(37,25,26,31)         51.4763         estimate D2E/DX2                !
 ! D109  D(37,25,26,36)        -62.0197         estimate D2E/DX2                !
 ! D110  D(24,25,37,49)         56.607          estimate D2E/DX2                !
 ! D111  D(26,25,37,49)        -67.1652         estimate D2E/DX2                !
 ! D112  D(30,25,37,49)        173.8016         estimate D2E/DX2                !
 ! D113  D(25,26,27,15)       -174.853          estimate D2E/DX2                !
 ! D114  D(25,26,27,28)        -53.863          estimate D2E/DX2                !
 ! D115  D(25,26,27,32)         66.0609         estimate D2E/DX2                !
 ! D116  D(31,26,27,15)        -58.8782         estimate D2E/DX2                !
 ! D117  D(31,26,27,28)         62.1118         estimate D2E/DX2                !
 ! D118  D(31,26,27,32)       -177.9644         estimate D2E/DX2                !
 ! D119  D(36,26,27,15)         55.8315         estimate D2E/DX2                !
 ! D120  D(36,26,27,28)        176.8215         estimate D2E/DX2                !
 ! D121  D(36,26,27,32)        -63.2546         estimate D2E/DX2                !
 ! D122  D(25,26,36,44)        -34.4033         estimate D2E/DX2                !
 ! D123  D(27,26,36,44)         96.4141         estimate D2E/DX2                !
 ! D124  D(31,26,36,44)       -148.3832         estimate D2E/DX2                !
 ! D125  D(15,27,28,29)        171.5284         estimate D2E/DX2                !
 ! D126  D(15,27,28,33)        -71.4557         estimate D2E/DX2                !
 ! D127  D(15,27,28,35)         48.4328         estimate D2E/DX2                !
 ! D128  D(26,27,28,29)         56.5949         estimate D2E/DX2                !
 ! D129  D(26,27,28,33)        173.6108         estimate D2E/DX2                !
 ! D130  D(26,27,28,35)        -66.5007         estimate D2E/DX2                !
 ! D131  D(32,27,28,29)        -65.4929         estimate D2E/DX2                !
 ! D132  D(32,27,28,33)         51.523          estimate D2E/DX2                !
 ! D133  D(32,27,28,35)        171.4115         estimate D2E/DX2                !
 ! D134  D(27,28,29,24)        -54.7485         estimate D2E/DX2                !
 ! D135  D(27,28,29,34)         67.518          estimate D2E/DX2                !
 ! D136  D(27,28,29,38)       -172.6212         estimate D2E/DX2                !
 ! D137  D(33,28,29,24)       -173.3861         estimate D2E/DX2                !
 ! D138  D(33,28,29,34)        -51.1196         estimate D2E/DX2                !
 ! D139  D(33,28,29,38)         68.7412         estimate D2E/DX2                !
 ! D140  D(35,28,29,24)         66.838          estimate D2E/DX2                !
 ! D141  D(35,28,29,34)       -170.8955         estimate D2E/DX2                !
 ! D142  D(35,28,29,38)        -51.0347         estimate D2E/DX2                !
 ! D143  D(27,28,35,43)        146.5759         estimate D2E/DX2                !
 ! D144  D(27,28,35,82)         -4.8446         estimate D2E/DX2                !
 ! D145  D(29,28,35,43)         25.0785         estimate D2E/DX2                !
 ! D146  D(29,28,35,82)       -126.342          estimate D2E/DX2                !
 ! D147  D(33,28,35,43)        -93.3509         estimate D2E/DX2                !
 ! D148  D(33,28,35,82)        115.2286         estimate D2E/DX2                !
 ! D149  D(24,29,38,39)         57.9265         estimate D2E/DX2                !
 ! D150  D(24,29,38,40)        176.3427         estimate D2E/DX2                !
 ! D151  D(24,29,38,41)        -64.6487         estimate D2E/DX2                !
 ! D152  D(28,29,38,39)       -179.36           estimate D2E/DX2                !
 ! D153  D(28,29,38,40)        -60.9439         estimate D2E/DX2                !
 ! D154  D(28,29,38,41)         58.0648         estimate D2E/DX2                !
 ! D155  D(34,29,38,39)        -59.8348         estimate D2E/DX2                !
 ! D156  D(34,29,38,40)         58.5813         estimate D2E/DX2                !
 ! D157  D(34,29,38,41)        177.59           estimate D2E/DX2                !
 ! D158  D(28,35,82,41)        134.9856         estimate D2E/DX2                !
 ! D159  D(28,35,82,62)        112.4627         estimate D2E/DX2                !
 ! D160  D(43,35,82,41)        -12.4117         estimate D2E/DX2                !
 ! D161  D(43,35,82,62)        -34.9346         estimate D2E/DX2                !
 ! D162  D(25,37,49,48)        114.982          estimate D2E/DX2                !
 ! D163  D(25,37,49,50)       -123.9449         estimate D2E/DX2                !
 ! D164  D(25,37,49,55)         -6.2296         estimate D2E/DX2                !
 ! D165  D(29,38,41,42)         78.6239         estimate D2E/DX2                !
 ! D166  D(29,38,41,82)        -22.4711         estimate D2E/DX2                !
 ! D167  D(39,38,41,42)        -43.1363         estimate D2E/DX2                !
 ! D168  D(39,38,41,82)       -144.2313         estimate D2E/DX2                !
 ! D169  D(40,38,41,42)       -161.0454         estimate D2E/DX2                !
 ! D170  D(40,38,41,82)         97.8596         estimate D2E/DX2                !
 ! D171  D(38,41,82,35)        -29.3677         estimate D2E/DX2                !
 ! D172  D(38,41,82,62)        113.7901         estimate D2E/DX2                !
 ! D173  D(38,41,82,81)        143.929          estimate D2E/DX2                !
 ! D174  D(42,41,82,35)       -139.9941         estimate D2E/DX2                !
 ! D175  D(42,41,82,62)          3.1637         estimate D2E/DX2                !
 ! D176  D(42,41,82,81)         33.3026         estimate D2E/DX2                !
 ! D177  D(50,45,46,47)         58.0888         estimate D2E/DX2                !
 ! D178  D(50,45,46,51)        178.3821         estimate D2E/DX2                !
 ! D179  D(50,45,46,58)        -64.3069         estimate D2E/DX2                !
 ! D180  D(84,45,46,47)         51.1026         estimate D2E/DX2                !
 ! D181  D(84,45,46,51)        171.3959         estimate D2E/DX2                !
 ! D182  D(84,45,46,58)        -71.2931         estimate D2E/DX2                !
 ! D183  D(46,45,50,49)        -18.2723         estimate D2E/DX2                !
 ! D184  D(46,45,50,54)       -135.6075         estimate D2E/DX2                !
 ! D185  D(46,45,50,59)        109.1003         estimate D2E/DX2                !
 ! D186  D(84,45,50,49)        -12.6743         estimate D2E/DX2                !
 ! D187  D(84,45,50,54)       -130.0095         estimate D2E/DX2                !
 ! D188  D(84,45,50,59)        114.6984         estimate D2E/DX2                !
 ! D189  D(46,45,84,56)       -109.4194         estimate D2E/DX2                !
 ! D190  D(46,45,84,58)         49.5379         estimate D2E/DX2                !
 ! D191  D(46,45,84,81)         89.9879         estimate D2E/DX2                !
 ! D192  D(50,45,84,56)         77.2481         estimate D2E/DX2                !
 ! D193  D(50,45,84,58)       -123.7946         estimate D2E/DX2                !
 ! D194  D(50,45,84,81)        -83.3446         estimate D2E/DX2                !
 ! D195  D(45,46,47,48)        -40.771          estimate D2E/DX2                !
 ! D196  D(45,46,47,52)       -159.2026         estimate D2E/DX2                !
 ! D197  D(45,46,47,57)         78.4313         estimate D2E/DX2                !
 ! D198  D(51,46,47,48)       -158.1288         estimate D2E/DX2                !
 ! D199  D(51,46,47,52)         83.4397         estimate D2E/DX2                !
 ! D200  D(51,46,47,57)        -38.9264         estimate D2E/DX2                !
 ! D201  D(58,46,47,48)         81.3993         estimate D2E/DX2                !
 ! D202  D(58,46,47,52)        -37.0322         estimate D2E/DX2                !
 ! D203  D(58,46,47,57)       -159.3984         estimate D2E/DX2                !
 ! D204  D(45,46,58,66)       -143.9686         estimate D2E/DX2                !
 ! D205  D(45,46,58,84)        113.5123         estimate D2E/DX2                !
 ! D206  D(47,46,58,66)         91.5071         estimate D2E/DX2                !
 ! D207  D(47,46,58,84)        -11.012          estimate D2E/DX2                !
 ! D208  D(51,46,58,66)        -29.4222         estimate D2E/DX2                !
 ! D209  D(51,46,58,84)       -131.9413         estimate D2E/DX2                !
 ! D210  D(46,47,48,49)        -11.7846         estimate D2E/DX2                !
 ! D211  D(46,47,48,53)        106.7347         estimate D2E/DX2                !
 ! D212  D(46,47,48,56)       -136.3865         estimate D2E/DX2                !
 ! D213  D(52,47,48,49)        107.1138         estimate D2E/DX2                !
 ! D214  D(52,47,48,53)       -134.3669         estimate D2E/DX2                !
 ! D215  D(52,47,48,56)        -17.4881         estimate D2E/DX2                !
 ! D216  D(57,47,48,49)       -134.1072         estimate D2E/DX2                !
 ! D217  D(57,47,48,53)        -15.5879         estimate D2E/DX2                !
 ! D218  D(57,47,48,56)        101.2909         estimate D2E/DX2                !
 ! D219  D(46,47,57,65)         69.5906         estimate D2E/DX2                !
 ! D220  D(48,47,57,65)       -167.4785         estimate D2E/DX2                !
 ! D221  D(52,47,57,65)        -51.1268         estimate D2E/DX2                !
 ! D222  D(47,48,49,37)        165.27           estimate D2E/DX2                !
 ! D223  D(47,48,49,50)         48.6539         estimate D2E/DX2                !
 ! D224  D(47,48,49,55)        -73.6934         estimate D2E/DX2                !
 ! D225  D(53,48,49,37)         47.7063         estimate D2E/DX2                !
 ! D226  D(53,48,49,50)        -68.9098         estimate D2E/DX2                !
 ! D227  D(53,48,49,55)        168.7428         estimate D2E/DX2                !
 ! D228  D(56,48,49,37)        -72.9653         estimate D2E/DX2                !
 ! D229  D(56,48,49,50)        170.4186         estimate D2E/DX2                !
 ! D230  D(56,48,49,55)         48.0712         estimate D2E/DX2                !
 ! D231  D(47,48,56,64)       -160.1457         estimate D2E/DX2                !
 ! D232  D(47,48,56,84)         69.0197         estimate D2E/DX2                !
 ! D233  D(49,48,56,64)         74.7535         estimate D2E/DX2                !
 ! D234  D(49,48,56,84)        -56.0811         estimate D2E/DX2                !
 ! D235  D(53,48,56,64)        -45.19           estimate D2E/DX2                !
 ! D236  D(53,48,56,84)       -176.0245         estimate D2E/DX2                !
 ! D237  D(37,49,50,45)       -154.5951         estimate D2E/DX2                !
 ! D238  D(37,49,50,54)        -38.4348         estimate D2E/DX2                !
 ! D239  D(37,49,50,59)         80.5644         estimate D2E/DX2                !
 ! D240  D(48,49,50,45)        -35.1961         estimate D2E/DX2                !
 ! D241  D(48,49,50,54)         80.9643         estimate D2E/DX2                !
 ! D242  D(48,49,50,59)       -160.0365         estimate D2E/DX2                !
 ! D243  D(55,49,50,45)         87.4858         estimate D2E/DX2                !
 ! D244  D(55,49,50,54)       -156.3539         estimate D2E/DX2                !
 ! D245  D(55,49,50,59)        -37.3547         estimate D2E/DX2                !
 ! D246  D(45,50,59,60)         50.8785         estimate D2E/DX2                !
 ! D247  D(45,50,59,61)        169.2601         estimate D2E/DX2                !
 ! D248  D(45,50,59,62)        -71.0545         estimate D2E/DX2                !
 ! D249  D(49,50,59,60)        178.6483         estimate D2E/DX2                !
 ! D250  D(49,50,59,61)        -62.9701         estimate D2E/DX2                !
 ! D251  D(49,50,59,62)         56.7153         estimate D2E/DX2                !
 ! D252  D(54,50,59,60)        -62.6952         estimate D2E/DX2                !
 ! D253  D(54,50,59,61)         55.6864         estimate D2E/DX2                !
 ! D254  D(54,50,59,62)        175.3718         estimate D2E/DX2                !
 ! D255  D(48,56,84,45)         -4.7896         estimate D2E/DX2                !
 ! D256  D(48,56,84,58)        -13.8037         estimate D2E/DX2                !
 ! D257  D(48,56,84,81)         55.8304         estimate D2E/DX2                !
 ! D258  D(64,56,84,45)       -136.5095         estimate D2E/DX2                !
 ! D259  D(64,56,84,58)       -145.5235         estimate D2E/DX2                !
 ! D260  D(64,56,84,81)        -75.8895         estimate D2E/DX2                !
 ! D261  D(46,58,66,67)        -46.844          estimate D2E/DX2                !
 ! D262  D(46,58,66,68)         71.2269         estimate D2E/DX2                !
 ! D263  D(46,58,66,69)       -167.9114         estimate D2E/DX2                !
 ! D264  D(84,58,66,67)         55.1214         estimate D2E/DX2                !
 ! D265  D(84,58,66,68)        173.1924         estimate D2E/DX2                !
 ! D266  D(84,58,66,69)        -65.9459         estimate D2E/DX2                !
 ! D267  D(46,58,84,45)        -33.3963         estimate D2E/DX2                !
 ! D268  D(46,58,84,56)        -17.6596         estimate D2E/DX2                !
 ! D269  D(46,58,84,81)        179.992          estimate D2E/DX2                !
 ! D270  D(66,58,84,45)       -150.4303         estimate D2E/DX2                !
 ! D271  D(66,58,84,56)       -134.6936         estimate D2E/DX2                !
 ! D272  D(66,58,84,81)         62.958          estimate D2E/DX2                !
 ! D273  D(50,59,62,63)         38.1918         estimate D2E/DX2                !
 ! D274  D(50,59,62,82)        -42.3337         estimate D2E/DX2                !
 ! D275  D(60,59,62,63)        -82.6328         estimate D2E/DX2                !
 ! D276  D(60,59,62,82)       -163.1583         estimate D2E/DX2                !
 ! D277  D(61,59,62,63)        159.3001         estimate D2E/DX2                !
 ! D278  D(61,59,62,82)         78.7746         estimate D2E/DX2                !
 ! D279  D(59,62,82,35)       -102.8564         estimate D2E/DX2                !
 ! D280  D(59,62,82,41)       -122.7064         estimate D2E/DX2                !
 ! D281  D(59,62,82,81)         70.4716         estimate D2E/DX2                !
 ! D282  D(63,62,82,35)        154.0216         estimate D2E/DX2                !
 ! D283  D(63,62,82,41)        134.1717         estimate D2E/DX2                !
 ! D284  D(63,62,82,81)        -32.6503         estimate D2E/DX2                !
 ! D285  D(58,66,69,70)        -66.0565         estimate D2E/DX2                !
 ! D286  D(58,66,69,71)        179.0432         estimate D2E/DX2                !
 ! D287  D(58,66,69,72)         55.8051         estimate D2E/DX2                !
 ! D288  D(67,66,69,70)        173.604          estimate D2E/DX2                !
 ! D289  D(67,66,69,71)         58.7037         estimate D2E/DX2                !
 ! D290  D(67,66,69,72)        -64.5344         estimate D2E/DX2                !
 ! D291  D(68,66,69,70)         54.0267         estimate D2E/DX2                !
 ! D292  D(68,66,69,71)        -60.8736         estimate D2E/DX2                !
 ! D293  D(68,66,69,72)        175.8883         estimate D2E/DX2                !
 ! D294  D(66,69,72,73)       -175.2482         estimate D2E/DX2                !
 ! D295  D(66,69,72,74)        -60.1892         estimate D2E/DX2                !
 ! D296  D(66,69,72,75)         62.49           estimate D2E/DX2                !
 ! D297  D(70,69,72,73)        -53.3496         estimate D2E/DX2                !
 ! D298  D(70,69,72,74)         61.7094         estimate D2E/DX2                !
 ! D299  D(70,69,72,75)       -175.6114         estimate D2E/DX2                !
 ! D300  D(71,69,72,73)         62.9506         estimate D2E/DX2                !
 ! D301  D(71,69,72,74)        178.0096         estimate D2E/DX2                !
 ! D302  D(71,69,72,75)        -59.3112         estimate D2E/DX2                !
 ! D303  D(69,72,75,76)        -59.6702         estimate D2E/DX2                !
 ! D304  D(69,72,75,77)         56.8009         estimate D2E/DX2                !
 ! D305  D(69,72,75,78)        177.1664         estimate D2E/DX2                !
 ! D306  D(73,72,75,76)        178.4751         estimate D2E/DX2                !
 ! D307  D(73,72,75,77)        -65.0538         estimate D2E/DX2                !
 ! D308  D(73,72,75,78)         55.3117         estimate D2E/DX2                !
 ! D309  D(74,72,75,76)         61.7891         estimate D2E/DX2                !
 ! D310  D(74,72,75,77)        178.2602         estimate D2E/DX2                !
 ! D311  D(74,72,75,78)        -61.3743         estimate D2E/DX2                !
 ! D312  D(72,75,78,79)        -55.9603         estimate D2E/DX2                !
 ! D313  D(72,75,78,80)       -176.1413         estimate D2E/DX2                !
 ! D314  D(72,75,78,81)         63.8596         estimate D2E/DX2                !
 ! D315  D(76,75,78,79)        179.6341         estimate D2E/DX2                !
 ! D316  D(76,75,78,80)         59.4532         estimate D2E/DX2                !
 ! D317  D(76,75,78,81)        -60.546          estimate D2E/DX2                !
 ! D318  D(77,75,78,79)         65.9551         estimate D2E/DX2                !
 ! D319  D(77,75,78,80)        -54.2258         estimate D2E/DX2                !
 ! D320  D(77,75,78,81)       -174.225          estimate D2E/DX2                !
 ! D321  D(75,78,81,82)        -68.9929         estimate D2E/DX2                !
 ! D322  D(75,78,81,83)        175.7083         estimate D2E/DX2                !
 ! D323  D(75,78,81,84)         52.3578         estimate D2E/DX2                !
 ! D324  D(79,78,81,82)         53.944          estimate D2E/DX2                !
 ! D325  D(79,78,81,83)        -61.3549         estimate D2E/DX2                !
 ! D326  D(79,78,81,84)        175.2946         estimate D2E/DX2                !
 ! D327  D(80,78,81,82)        169.0024         estimate D2E/DX2                !
 ! D328  D(80,78,81,83)         53.7036         estimate D2E/DX2                !
 ! D329  D(80,78,81,84)        -69.6469         estimate D2E/DX2                !
 ! D330  D(78,81,82,41)         63.8483         estimate D2E/DX2                !
 ! D331  D(78,81,82,62)         84.1024         estimate D2E/DX2                !
 ! D332  D(83,81,82,41)       -177.4756         estimate D2E/DX2                !
 ! D333  D(83,81,82,62)       -157.2214         estimate D2E/DX2                !
 ! D334  D(84,81,82,41)        -60.2337         estimate D2E/DX2                !
 ! D335  D(84,81,82,62)        -39.9795         estimate D2E/DX2                !
 ! D336  D(78,81,83,14)         47.5226         estimate D2E/DX2                !
 ! D337  D(78,81,83,19)        149.1381         estimate D2E/DX2                !
 ! D338  D(82,81,83,14)        -73.0373         estimate D2E/DX2                !
 ! D339  D(82,81,83,19)         28.5782         estimate D2E/DX2                !
 ! D340  D(84,81,83,14)        171.8963         estimate D2E/DX2                !
 ! D341  D(84,81,83,19)        -86.4882         estimate D2E/DX2                !
 ! D342  D(78,81,84,45)        -83.7175         estimate D2E/DX2                !
 ! D343  D(78,81,84,56)       -131.4678         estimate D2E/DX2                !
 ! D344  D(78,81,84,58)        -68.0501         estimate D2E/DX2                !
 ! D345  D(82,81,84,45)         40.4821         estimate D2E/DX2                !
 ! D346  D(82,81,84,56)         -7.2682         estimate D2E/DX2                !
 ! D347  D(82,81,84,58)         56.1495         estimate D2E/DX2                !
 ! D348  D(83,81,84,45)        153.3991         estimate D2E/DX2                !
 ! D349  D(83,81,84,56)        105.6488         estimate D2E/DX2                !
 ! D350  D(83,81,84,58)        169.0665         estimate D2E/DX2                !
 --------------------------------------------------------------------------------
 Trust Radius=3.00D-01 FncErr=1.00D-07 GrdErr=1.00D-06
 Number of steps in this run=    504 maximum allowed number of steps=    504.
 GradGradGradGradGradGradGradGradGradGradGradGradGradGradGradGradGradGrad

 Leave Link  103 at Mon May  2 10:56:19 2016, MaxMem= 10737418240 cpu:         0.5
 (Enter /share/apps//g09/l202.exe)
 Stoichiometry    C23H44NO16(1+)
 Framework group  C1[X(C23H44NO16)]
 Deg. of freedom   246
 Full point group                 C1      NOp   1
 Largest Abelian subgroup         C1      NOp   1
 Largest concise Abelian subgroup C1      NOp   1
                         Standard orientation:                         
 ---------------------------------------------------------------------
 Center     Atomic      Atomic             Coordinates (Angstroms)
 Number     Number       Type             X           Y           Z
 ---------------------------------------------------------------------
      1          8           0       -4.341756   -0.868431   -0.628677
      2          6           0       -3.351562    0.096857   -0.910056
      3          6           0       -3.897120    1.511796   -0.694647
      4          6           0       -4.465083    1.688278    0.716933
      5          6           0       -5.533943    0.622579    0.967398
      6          6           0       -4.922135   -0.765498    0.695304
      7          1           0       -3.089156   -0.068841   -1.968311
      8          1           0       -4.709264    1.652761   -1.426187
      9          1           0       -3.653496    1.585421    1.454740
     10          1           0       -5.829958    0.652431    2.035809
     11          1           0       -4.126779   -0.914467    1.452231
     12          8           0       -6.632957    0.974117    0.131242
     13          8           0       -4.971411    3.017237    0.851312
     14          8           0       -2.868082    2.496381   -0.928696
     15          8           0       -2.200170   -0.020755   -0.077544
     16          6           0       -5.898442   -1.922157    0.854112
     17          1           0       -5.390684   -2.857305    0.561799
     18          1           0       -6.178227   -1.989874    1.919984
     19          8           0       -7.054793   -1.696877    0.032264
     20          1           0       -7.699808   -2.405827    0.190614
     21          1           0       -7.160377    0.160058   -0.018052
     22          1           0       -5.880126    2.997523    0.485253
     23          1           0       -3.274534    3.334805   -0.623889
     24          8           0        1.057771   -2.658049   -0.272302
     25          6           0        0.581363   -2.279368    1.008688
     26          6           0       -0.410881   -1.112881    0.943891
     27          6           0       -1.485586   -1.262337   -0.125504
     28          6           0       -0.787981   -1.517442   -1.473071
     29          6           0        0.117174   -2.757791   -1.352403
     30          1           0        0.124098   -3.151567    1.523486
     31          1           0        0.178459   -0.236710    0.654549
     32          1           0       -2.170591   -2.104565    0.084913
     33          1           0       -1.545866   -1.743845   -2.246232
     34          1           0       -0.533404   -3.645498   -1.216557
     35          8           0       -0.049155   -0.346438   -1.860419
     36          8           0       -0.929787   -0.798456    2.241075
     37          8           0        1.696570   -1.955828    1.805626
     38          6           0        0.986372   -2.973829   -2.598760
     39          1           0        1.600340   -3.876898   -2.459397
     40          1           0        0.343029   -3.128032   -3.477493
     41          8           0        1.816536   -1.836012   -2.867385
     42          1           0        2.600568   -1.863391   -2.244199
     43          1           0        0.761405   -0.694413   -2.350813
     44          1           0       -1.015837   -1.619205    2.760322
     45          8           0        5.077169   -0.626261    1.314573
     46          6           0        4.786854    0.705256    1.039900
     47          6           0        3.695075    1.292749    1.961904
     48          6           0        2.543689    0.303820    2.217317
     49          6           0        2.579150   -0.920062    1.289839
     50          6           0        3.976699   -1.573387    1.233112
     51          1           0        5.739497    1.243608    1.186632
     52          1           0        3.263544    2.179602    1.463013
     53          1           0        2.662206   -0.050512    3.254767
     54          1           0        4.076480   -2.211778    2.126117
     55          1           0        2.265584   -0.634465    0.274754
     56          8           0        1.308753    1.044973    2.104159
     57          8           0        4.218300    1.631796    3.244181
     58          8           0        4.372359    0.827166   -0.343521
     59          6           0        4.184402   -2.454860   -0.000486
     60          1           0        5.211637   -2.852216    0.038258
     61          1           0        3.477636   -3.293681    0.024039
     62          8           0        3.976236   -1.765095   -1.243019
     63          1           0        4.339605   -0.854097   -1.138414
     64          1           0        0.609439    0.532356    2.565647
     65          1           0        4.811331    2.398405    3.156808
     66          6           0        4.795713    2.032416   -1.011935
     67          1           0        4.592489    2.907477   -0.368785
     68          1           0        5.884280    1.993663   -1.191167
     69          6           0        4.033244    2.134461   -2.326559
     70          1           0        4.346296    1.310016   -2.985923
     71          1           0        4.345501    3.065153   -2.827784
     72          6           0        2.505224    2.093058   -2.170859
     73          1           0        2.049391    2.086357   -3.173978
     74          1           0        2.239096    1.133961   -1.700200
     75          6           0        1.927293    3.257972   -1.357416
     76          1           0        2.348546    3.269929   -0.338340
     77          1           0        2.223505    4.215278   -1.816404
     78          6           0        0.406601    3.269734   -1.250232
     79          1           0       -0.072307    3.265117   -2.239199
     80          1           0        0.063483    4.165146   -0.714812
     81          7           0       -0.135932    2.081014   -0.514206
     82          1           0       -0.015634    1.182189   -1.054531
     83          1           0       -1.177209    2.176091   -0.405739
     84          1           0        0.315957    1.950798    0.410347
 ---------------------------------------------------------------------
 Rotational constants (GHZ):      0.1530291      0.0559789      0.0521915
 Leave Link  202 at Mon May  2 10:56:19 2016, MaxMem= 10737418240 cpu:         2.3
 (Enter /share/apps//g09/l301.exe)
 Standard basis: 6-311+G(d,p) (5D, 7F)
 Ernie: Thresh=  0.10000D-02 Tol=  0.10000D-05 Strict=F.
 There are  1184 symmetry adapted cartesian basis functions of A   symmetry.
 There are  1144 symmetry adapted basis functions of A   symmetry.
  1144 basis functions,  1792 primitive gaussians,  1184 cartesian basis functions
   158 alpha electrons      158 beta electrons
       nuclear repulsion energy      5894.0691620074 Hartrees.
 IExCor= 1009 DFT=T Ex+Corr=PBE1PBE ExCW=0 ScaHFX=  0.250000
 ScaDFX=  0.750000  0.750000  1.000000  1.000000 ScalE2=  1.000000  1.000000
 IRadAn=      0 IRanWt=     -1 IRanGd=            0 ICorTp=0 IEmpDi=131
[...]
 0003138,-0.00003312,0.00032846,-0.00035968,-0.00006551,0.00001052,-0.0
 0020747,-0.00030337,-0.00004050,0.00009970,-0.00000672,-0.00003512,0.0
 0005054,0.00007549,-0.00029464,0.00105634,0.00059025,-0.00014405,0.000
 03761,-0.00032819,-0.00018659,0.00029555,-0.00024505,0.00018051,-0.000
 16975,-0.00003544,-0.00004268,0.00001102,-0.00001083,-0.00000100,0.000
 00788,-0.00000793,-0.00006152,0.00021421,0.00012685,0.00000750,-0.0000
 3286,-0.00000123,-0.00016205,0.00003825,-0.00018890,-0.00006010,-0.000
 04907,-0.00000780,-0.00007323,0.00012300,0.00008009,0.00011248,-0.0000
 0533,-0.00018427,0.00016323,0.00004720,-0.00014715,-0.00015542,0.00000
 671,-0.00030007,0.00029226,-0.00016315,0.00000422,0.00000568,-0.000039
 58,0.00000241,-0.00000363,-0.00000601,0.00001025,-0.00004118,0.0000768
 9,0.00003080,-0.00000331,-0.00000204,0.00013382,-0.00001035,0.00000022
 ,0.00001933,-0.00005191,-0.00005011,-0.00001943,-0.00138710,-0.0000001
 7,0.00041988,-0.00011316,-0.00009159,0.00008354,-0.00008007,-0.0000200
 5,0.00018223,0.00004870,-0.00002400,-0.00002247,-0.00000269,0.00000408
 ,0.00000881,-0.00000251,0.00001095,0.00000998,-0.00004976,0.00006453,0
 .00005213,0.00001300,-0.00006059,-0.00005757,0.00001127,-0.00030964,0.
 00061033,0.00001599,0.00002628,-0.00001782,0.00003000,-0.00001210,-0.0
 0003434,-0.00000877,0.00002844,-0.00001122,-0.00001004,-0.00000454,0.0
 0003683,-0.00004704,0.00005800,-0.00006886,0.00002796,-0.00001588,0.00
 003199,0.00003760,-0.00004413,0.00001219,0.00020824,0.00008474,0.00045
 532,-0.00001579,-0.00004363,-0.00003711,0.00002732,-0.00012594,-0.0000
 7828,-0.00343135,0.00223171,0.00256881,0.00016932,0.00011655,0.0001109
 6,-0.00015186,0.00050884,-0.00107549,-0.01232048,0.00883710,-0.0226072
 3,-0.00044323,-0.00057449,-0.00033558,0.00158416,-0.00043357,0.0000276
 9,-0.11097932,0.03444425,-0.10269869,-0.00455911,0.00186132,-0.0103866
 6,0.12012841,-0.00104410,0.00129358,-0.00033127,0.00025023,-0.00335403
 ,0.00190283,0.00102871,-0.00358069,0.00252328,0.00053813,0.00056364,0.
 00020069,-0.00014681,-0.00025770,0.00003997,0.00068833,0.00009743,0.00
 015471,-0.00003283,-0.00008874,-0.00017390,-0.00008036,0.00021292,-0.0
 0019504,0.00013719,0.00006224,0.00010376,-0.00011837,0.00009352,-0.000
 08406,-0.00002047,-0.00006257,0.00001074,-0.00014991,0.00024537,-0.000
 25076,-0.00065909,-0.00014689,-0.00057644,0.00000845,-0.00753979,-0.00
 374388,-0.00062431,0.00072685,0.00219500,-0.00001441,-0.00018230,0.000
 04674,0.00003002,0.00001345,0.00000493,-0.00003997,0.00004017,-0.00004
 334,-0.00003758,0.00022792,-0.00009094,0.00000591,-0.00005460,0.000027
 90,0.00004171,-0.00014591,0.00006010,0.00008079,-0.00002847,0.00017368
 ,0.00066043,0.00397648,-0.00265546,-0.00010558,-0.00024579,0.00022671,
 -0.00001597,0.00021794,-0.00047010,0.00014659,0.00061239,-0.00005837,0
 .00020821,-0.00045086,-0.00315031,-0.00115085,0.00037538,-0.00003617,0
 .00049701,0.00002994,-0.00018267,0.00003581,-0.00004705,0.00001171,-0.
 00027444,0.00030344,0.00011516,-0.00010836,0.00042119,0.00058857,0.000
 07263,-0.00027389,-0.00003846,0.00004622,-0.00007584,-0.00006482,0.001
 12805,-0.00303997,0.00059347,-0.00005437,-0.00049355,0.00026530,0.0001
 7733,-0.00055995,0.00041555,-0.00026814,0.00020085,0.00003831,0.000068
 70,-0.00000900,0.00003865,-0.00001607,-0.00002899,0.00000250,0.0001611
 3,-0.00030867,0.00014982,0.00001838,0.00019297,-0.00009360,-0.00014128
 ,0.00034975,-0.00004982,0.00004910,0.00004794,-0.00010761,0.00013129,-
 0.00024321,-0.00013563,-0.00019935,0.00006234,0.00030127,-0.00014996,-
 0.00004645,0.00009811,0.00013947,-0.00001215,0.00046915,-0.00034326,0.
 00031151,-0.00006279,-0.00003681,0.00008172,-0.00001162,0.00000581,0.0
 0000213,-0.00001582,0.00005448,-0.00006332,-0.00003109,0.00001009,0.00
 000982,-0.00011132,0.00001574,-0.00000309,-0.00002155,0.00003183,0.000
 07310,0.00004620,0.00022527,-0.00016482,-0.00080423,0.00010492,0.00006
 915,-0.00012866,0.00020783,-0.00001988,-0.00028747,-0.00003749,0.00004
 244,0.00000924,-0.00000256,-0.00001009,-0.00000830,0.00000889,-0.00001
 599,-0.00002155,0.00003616,-0.00017890,-0.00003374,-0.00003116,0.00013
 527,0.00011500,-0.00023547,0.00037702,0.00004846,-0.00001618,-0.000024
 92,0.00005698,-0.00011922,0.00003104,0.00010149,0.00000671,-0.00005160
 ,0.00001310,0.00002856,0.00000123,-0.00006333,-0.00011481,-0.00000388,
 0.00023586,-0.00003973,0.00001595,-0.00008317,-0.00004557,0.00008394,-
 0.00010737,0.00015606,0.00002676,-0.00065770,-0.00005031,0.00002928,0.
 00005657,-0.00025089,0.00033557,0.00037581,0.00246991,-0.00188932,-0.0
 0177489,-0.00007274,0.00014302,-0.00027206,0.00034862,-0.00008956,0.00
 068378,0.01099060,-0.00859903,0.01598147,-0.00098085,0.00081253,-0.000
 19282,-0.00055070,-0.00018915,0.00039132,0.03354865,-0.08511957,0.0781
 4375,-0.01241520,0.01529460,-0.02655735,-0.04110758,0.09499902,0.00064
 762,-0.00056807,-0.00199173,-0.00088033,0.00061993,0.00539900,-0.00660
 415,0.00949305,0.00168529,-0.00074077,-0.00117487,-0.00017935,0.000246
 74,0.00083981,0.00039107,-0.00041175,0.00008415,0.00063022,0.00009260,
 0.00005787,-0.00020002,0.00125346,-0.00240437,0.00034502,-0.00015062,0
 .00018490,0.00005336,0.00029886,-0.00032712,0.00009484,0.00014574,0.00
 004145,-0.00000972,0.00054678,-0.00090160,0.00022042,0.00141608,-0.000
 47031,0.00065930,0.00234985,-0.00704841,0.00365934,-0.00039100,0.00237
 583,-0.00479197,-0.00007526,0.00012516,-0.00001684,-0.00001262,-0.0001
 4454,-0.00004753,0.00001757,0.00000454,0.00004000,0.00007138,-0.000333
 18,-0.00013791,0.00001680,0.00008869,-0.00003459,-0.00007203,0.0004670
 2,0.00004810,-0.00023776,0.00009173,-0.00045369,-0.00031797,-0.0033517
 9,-0.00150274,0.00010317,0.00032461,-0.00010295,-0.00015728,-0.0000995
 9,-0.00010883,0.00081528,-0.00094777,0.00024472,0.00033224,-0.00034346
 ,0.00088388,0.00114402,-0.00135730,0.00020251,-0.00036678,-0.00000797,
 0.00006279,-0.00006661,0.00010210,0.00013194,-0.00000820,0.00016928,-0
 .00050448,-0.00011154,0.00007445,-0.00007484,-0.00000738,0.00038579,0.
 00002899,-0.00008370,0.00010246,0.00011332,-0.00002413,0.00271123,0.00
 094545,-0.00054278,0.00042974,-0.00039632,-0.00017527,0.00038288,-0.00
 014058,0.00019790,-0.00036765,-0.00002786,-0.00005554,0.00002623,0.000
 00926,0.00001892,0.00003175,-0.00002464,-0.00000863,0.00050724,0.00029
 355,-0.00002536,-0.00012432,-0.00002280,-0.00036004,0.00002238,-0.0004
 5524,0.00006307,-0.00001980,0.00019085,-0.00014903,0.00024093,0.000259
 15,0.00028301,-0.00001397,-0.00046919,0.00031184,0.00019802,-0.0002348
 1,-0.00024788,0.,-0.00079275,0.00031633,-0.00022368,0.00001730,0.00002
 033,-0.00005010,-0.00005943,0.00000929,-0.00002155,0.00002835,-0.00006
 778,0.00011948,0.00006092,-0.00001512,0.00000791,0.00022253,-0.0000207
 5,0.00000503,0.00003052,-0.00007806,-0.00009382,-0.00006001,-0.0007062
 2,-0.00017836,0.00142361,-0.00025469,-0.00029626,0.00022952,-0.0003049
 8,-0.00002495,0.00045440,0.00007757,-0.00005601,-0.00006586,0.00001139
 ,0.00000180,0.00003808,-0.00001392,0.00001434,-0.00001089,-0.00005751,
 0.00017831,0.00017748,0.00001675,-0.00016012,-0.00017641,0.00047766,-0
 .00013395,0.00003077,0.00004880,0.00007907,-0.00006146,0.00014992,-0.0
 0006325,-0.00018541,0.00001453,0.00011696,-0.00005581,-0.00003082,0.00
 000512,0.00012447,-0.00001244,0.00018702,-0.00009247,0.00003555,-0.000
 00202,0.00019242,-0.00003188,-0.00006760,0.00000442,-0.00026818,-0.000
 41103,-0.00018370,0.00005074,0.00004198,0.00001164,-0.00002302,-0.0000
 2307,-0.00019982,0.00378637,-0.00238671,-0.00175929,-0.00023218,0.0002
 3803,-0.00022549,0.00088741,-0.00075319,0.00121393,-0.00102427,-0.0001
 5441,0.01523699,0.00113031,-0.00017608,0.00016942,0.00068090,-0.001218
 61,0.00037780,-0.10133037,0.07915487,-0.27539124,-0.00724799,0.0005406
 5,-0.01703045,0.11009734,-0.07628629,0.28322578,-0.00033746,0.00016248
 ,0.00012336,0.00042003,-0.00033068,-0.00022005,0.00061656,-0.00102921,
 -0.00006840,0.00021199,0.00021206,-0.00011646,-0.00005073,-0.00006745,
 -0.00005861,0.00022481,0.00005334,-0.00005258,-0.00007771,-0.00011321,
 0.00002966,-0.00011009,0.00020591,-0.00001881,-0.00002339,-0.00000329,
 -0.00000930,-0.00005449,0.00004041,-0.00002644,-0.00003421,-0.00000933
 ,0.00001492,-0.00009688,0.00004156,0.00001449,-0.00025594,0.00002978,-
 0.00003898,-0.00088661,0.00124041,-0.00251553,-0.00076054,0.00020881,0
 .00060888,0.00000525,0.00000032,-0.00002008,0.00000923,0.00001413,0.00
 000580,-0.00001727,0.00000797,-0.00001192,-0.00003155,0.00001093,0.000
 03337,0.00000598,-0.00000468,0.00000371,0.00002043,-0.00004069,0.00000
 228,0.00004239,-0.00001263,0.00004744,0.00009589,0.00031548,-0.0001003
 9,-0.00066594,-0.00055349,0.00006464,0.00060029,0.00062964,0.00000163,
 0.00043313,0.00068642,0.00021492,0.00035528,-0.00018269,-0.00053854,0.
 00082787,-0.00056406,0.00019763,0.00016449,0.00040757,-0.00039141,-0.0
 0003344,-0.00004952,-0.00003138,0.00078422,0.00132716,0.00030110,-0.00
 010968,-0.00000981,0.00008639,-0.00017755,0.00011074,-0.00000942,-0.00
 003970,-0.00001726,0.00010208,-0.00036443,0.00151185,0.00067633,-0.000
 31317,-0.00091320,0.00012730,-0.00024500,-0.00063939,0.00012493,0.0001
 1781,-0.00019133,0.00004782,-0.00001028,0.00003927,0.00002137,-0.00003
 702,-0.00001346,-0.00001290,-0.00011756,0.00016210,0.00033092,0.000138
 58,0.00014228,-0.00019631,-0.00015402,-0.00010107,-0.00041245,-0.00013
 934,-0.00009278,-0.00015281,-0.00039808,0.00005646,0.00003804,0.001096
 69,0.00056375,-0.00029178,0.00042853,-0.00066908,-0.00031594,0.0032677
 3,0.00020643,0.00419476,0.00026729,0.00079679,-0.00052140,0.00005296,-
 0.00053501,0.00022418,-0.00014930,-0.00005215,-0.00009816,0.00005895,0
 .00010734,0.00021656,-0.00018332,-0.00004924,-0.00140590,-0.00003150,0
 .00001765,0.00003134,0.00001723,-0.00008327,0.00007967,-0.00293965,0.0
 0051666,-0.00752087,-0.00034387,0.00026065,-0.00017555,-0.00105958,-0.
 00008213,0.00064018,0.00033112,0.00016982,-0.00029700,-0.00010525,-0.0
 0007397,-0.00001570,0.00000282,0.00002440,0.00002560,-0.00044106,-0.00
 006189,0.00017413,0.00015184,-0.00007193,-0.00009127,-0.00222395,0.000
 60783,0.00067539,0.00001593,0.00002070,0.00002506,0.00050911,-0.000247
 32,-0.00030162,0.00000612,0.00010434,-0.00006290,-0.00007065,0.0000360
 6,0.00010323,0.00009563,0.00011348,-0.00022233,0.00004829,-0.00002989,
 0.00014878,-0.00001977,-0.00007468,0.00009550,-0.00033388,-0.00016591,
 -0.00010096,0.00019624,0.00003671,0.00012334,-0.00008172,-0.00026866,-
 0.00040711,0.00072388,-0.00106661,-0.00059154,0.00002635,0.00074932,-0
 .00073123,0.00080124,-0.00007943,0.00040639,-0.02067976,-0.01081088,0.
 01416759,-0.00199940,0.00357009,0.00056377,0.00125434,-0.00029718,-0.0
 0009272,-0.21200260,-0.10818982,0.12009374,-0.00666638,-0.00562851,0.0
 0397983,0.01671013,0.00730316,-0.00417951,0.22373707,-0.00014278,0.000
 27282,-0.00028796,-0.00032408,-0.00028052,0.00064244,-0.00002856,0.000
 01163,0.00002495,0.00002787,0.00005977,0.00014473,0.00000506,-0.000020
 66,0.00004058,0.00014582,-0.00000359,0.00010388,0.00004950,0.00008032,
 -0.00006110,-0.00000108,-0.00000895,-0.00003408,0.00004150,0.00003388,
 0.00002607,-0.00001400,0.00000321,-0.00001498,0.00001332,-0.00001036,0
 .00000402,-0.00001575,0.00002312,-0.00008031,-0.00003862,-0.00007815,-
 0.00013598,0.00006448,0.00024363,0.00001627,0.00034231,0.00047756,-0.0
 0057663,0.00000760,-0.00004809,0.00003842,0.00000712,-0.00001128,-0.00
 000490,-0.00000931,0.00000781,-0.00001036,-0.00000884,0.00005770,-0.00
 005760,0.00000701,-0.00001349,0.00001091,0.00001114,-0.00001456,0.0000
 2377,0.00001515,0.00000261,0.00002240,0.00008368,0.00000792,0.00007821
 ,0.00005150,0.00001422,0.00026446,-0.00038348,0.00071329,-0.00112746,0
 .00161475,-0.00113955,0.00085579,-0.00018758,-0.00035535,-0.00000631,-
 0.00014529,-0.00014892,-0.00021593,0.00008562,-0.00016458,-0.00004409,
 -0.00002436,0.00002815,0.00030269,0.00058987,-0.00096388,-0.00160595,0
 .00001709,0.00017229,-0.00009030,0.00002470,0.00005099,0.00001237,0.00
 000242,-0.00000984,-0.00002006,0.00050708,-0.00025567,-0.00052973,-0.0
 0067900,-0.00039614,0.00017167,0.00012392,-0.00070306,0.00046388,-0.00
 009854,0.00003525,-0.00002282,0.00001542,0.00000363,0.00002082,0.00000
 233,-0.00001168,-0.00000169,0.00007635,-0.00008188,0.00017142,0.000007
 04,0.00013338,-0.00014419,-0.00007267,-0.00009282,-0.00026898,-0.00003
 628,0.00006350,-0.00009571,0.00000526,-0.00038780,-0.00016729,0.000376
 72,0.00031167,0.00024074,-0.00044689,0.00002238,0.00048798,0.00111672,
 -0.00043059,0.00126988,0.00016068,0.00070054,-0.00050794,-0.00021708,0
 .00000634,-0.00002493,-0.00003467,-0.00003373,-0.00002618,0.00025222,-
 0.00023594,0.00008466,-0.00007302,-0.00006657,-0.00045787,0.00001753,-
 0.00000787,0.00003938,-0.00014297,-0.00004792,-0.00009374,-0.00053212,
 -0.00299087,-0.00080730,0.00011788,0.00004921,-0.00032942,-0.00023779,
 -0.00019356,-0.00004917,0.00006858,0.00005224,-0.00011025,-0.00002109,
 -0.00002581,0.00000704,-0.00000254,-0.00002020,-0.00002614,-0.00005130
 ,-0.00014658,0.00008827,-0.00000821,0.00012165,0.00001439,0.00073362,0
 .00128944,-0.00147168,0.00000973,-0.00002913,0.00012114,0.00015153,0.0
 0009261,0.00004114,-0.00000893,-0.00007339,-0.00002449,-0.00002893,-0.
 00002820,-0.00000829,0.00009079,-0.00003100,-0.00004313,-0.00001044,-0
 .00001662,0.00001031,0.00001656,-0.00002598,0.00004729,-0.00031125,0.0
 0002267,0.00052605,-0.00008723,-0.00020380,-0.00017525,0.00002344,-0.0
 0015056,-0.00021714,0.00032829,0.00214943,-0.00119833,-0.00046139,-0.0
 0102807,0.00090189,-0.00037898,-0.00024819,0.00007465,0.01608403,0.015
 70279,-0.01384702,0.00432778,-0.00308573,-0.00095391,-0.00004322,0.000
 18125,-0.00064259,-0.10816354,-0.13844298,0.08721485,-0.01879247,-0.01
 108781,0.01979817,-0.00621121,-0.00554256,0.00191337,0.11065452,0.1461
 9560,0.00025343,-0.00030079,0.00001391,-0.00010729,0.00025994,-0.00025
 029,-0.00022270,0.00043489,-0.00027466,0.00007602,0.00006999,-0.000157
 63,-0.00004353,0.00011435,0.00001042,-0.00015133,-0.00002436,0.0000290
 1,-0.00000415,0.00004296,0.00001651,-0.00000129,-0.00005291,0.00001201
 ,-0.00011226,0.00003190,0.00001100,0.00002710,-0.00001333,0.00001599,0
 .00001361,0.00002975,0.00000905,0.00004989,-0.00016659,0.00005089,0.00
 008484,-0.00009670,0.00012401,-0.00045224,-0.00045809,-0.00053401,0.00
 035595,-0.00070992,-0.00037618,-0.00001676,0.00003895,0.00000883,-0.00
 001008,-0.00002283,-0.00000919,0.00001139,-0.00000507,0.00001356,0.000
 02410,-0.00006855,-0.00001672,-0.00000198,0.00001699,-0.00000345,-0.00
 002086,0.00007142,0.00000834,-0.00003183,0.00002383,-0.00005000,0.0000
 4690,0.00025835,-0.00041261,0.00054019,0.00066822,-0.00025424,-0.00045
 050,-0.00100980,0.00042368,0.00042307,-0.00043080,0.00003392,-0.000567
 65,0.00046474,0.00102737,-0.00067652,0.00033957,-0.00047096,-0.0002072
 8,-0.00053601,0.00049321,-0.00001804,0.00010644,-0.00000658,0.00020577
 ,-0.00172822,0.00034740,0.00012747,-0.00001257,-0.00017711,0.00012803,
 -0.00005934,0.00000909,0.00003428,0.00003380,-0.00013019,0.00046211,-0
 .00191249,-0.00158053,-0.00015820,0.00079979,-0.00054771,-0.00017733,0
 .00102890,-0.00032061,0.00002573,0.00007318,-0.00001879,-0.00002130,-0
 .00003114,-0.00002874,0.00003980,0.00002997,0.00000588,0.00000872,0.00
 003753,-0.00047529,-0.00015806,-0.00029591,0.00025870,0.00022818,-0.00
 018075,0.00052886,0.00000983,-0.00004752,0.00003831,0.00022284,0.00016
 054,0.00020070,-0.00068416,-0.00037745,-0.00021071,0.00019585,0.000614
 09,-0.00028685,-0.00176812,-0.00007423,-0.00409700,0.00063688,-0.00073
 172,0.00016487,-0.00016452,0.00030147,-0.00023150,0.00011128,0.0000073
 9,0.00011321,-0.00019862,0.00027825,-0.00006871,0.00009240,0.00002283,
 0.00119589,0.00001495,-0.00000678,0.00005599,-0.00028717,-0.00027887,-
 0.00017568,-0.00308721,0.00023725,0.00238237,-0.00008571,-0.00051051,0
 .00039436,0.00091563,-0.00004575,0.00000640,-0.00023965,-0.00018992,0.
 00018120,0.00009120,0.00006439,0.00003115,-0.00000917,-0.00000754,-0.0
 0000941,0.00037192,0.00024574,-0.00006346,-0.00013687,-0.00009265,-0.0
 0007266,0.00049008,-0.00125563,0.00239296,0.00001632,0.00007313,-0.000
 03101,-0.00063617,0.00031443,0.00014116,0.00000234,-0.00001268,0.00001
 828,0.00009448,-0.00003488,-0.00002081,0.00008496,-0.00017044,-0.00005
 338,-0.00003195,0.00003370,-0.00008608,0.00006427,-0.00000224,0.000013
 16,-0.00014010,0.00048743,-0.00002583,0.00028976,-0.00000545,-0.000011
 89,-0.00008991,-0.00035654,-0.00000952,-0.00181929,-0.00079720,0.00177
 236,0.00053580,0.00052590,0.00008616,-0.00000744,0.00022759,-0.0005463
 3,0.00415722,-0.00130150,-0.00210716,-0.00101267,-0.00010080,0.0004940
 5,0.00017764,0.00014166,-0.00070847,0.12029624,0.08716372,-0.15800603,
 -0.01449083,-0.00470495,0.01487656,0.02322406,0.01304814,-0.01158358,-
 0.12676181,-0.08970172,0.15649075\\0.00000027,0.00001391,-0.00000244,0
 .00000744,-0.00000567,0.00001388,0.00000845,0.00000067,-0.00000554,-0.
 00000059,0.00000577,-0.00000938,0.00000636,-0.00000064,-0.00000676,0.0
 0000905,0.00000581,0.00001018,0.00000414,0.00000541,0.00000277,0.00000
 717,0.00000809,0.00000129,0.00000348,0.00000344,-0.00000006,0.00000313
 ,0.00000492,-0.00000050,0.00000193,0.00000343,0.00000004,0.00001699,0.
 00000087,-0.00000033,0.00000479,0.00000394,0.00000260,0.00000320,0.000
 00573,0.00001811,-0.00000141,0.00000079,-0.00000503,0.00000411,-0.0000
 0097,0.00000026,0.00000280,0.00000469,0.00000494,0.00000278,0.00000496
 ,0.00000077,0.00001628,0.00001041,0.00000548,-0.00000504,0.00000607,-0
 .00000186,0.00000301,0.00001706,0.00000069,0.00001071,0.00001095,-0.00
 000382,0.00000598,0.00000304,-0.00000369,0.00000429,0.00000225,-0.0000
 0289,-0.00000533,0.00000317,0.00000514,0.00000214,-0.00000002,-0.00000
 803,0.00000238,0.00000265,-0.00000022,-0.00000071,0.00000579,0.0000028
 6,-0.00001251,-0.00000767,0.00001188,-0.00000308,-0.00000203,-0.000001
 12,0.00000083,-0.00000001,0.00000018,-0.00000074,0.00000215,0.00000047
 ,0.00000110,0.00000156,0.00000544,-0.00000134,0.00000087,0.00000261,-0
 .00000089,0.00000191,0.00000430,0.00000318,-0.00000617,-0.00000389,-0.
 00000708,-0.00001043,-0.00000139,0.00000344,-0.00000601,0.00000528,-0.
 00000551,-0.00000283,0.00000812,-0.00000223,0.00000125,0.00000729,0.00
 000191,0.00000367,-0.00000570,-0.00001047,-0.00000464,0.00001235,0.000
 00119,-0.00000223,0.00000316,-0.00000487,0.00000355,-0.00000265,-0.000
 01475,-0.00000284,-0.00000079,0.00000116,-0.00000548,0.00000315,-0.000
 00942,-0.00001320,-0.00000815,-0.00000930,-0.00000302,-0.00000911,-0.0
 0000442,0.00000639,-0.00000310,0.00000040,-0.00001548,0.00000430,-0.00
 000539,-0.00000537,-0.00000323,0.00000044,-0.00000160,-0.00000579,-0.0
 0000485,-0.00000465,-0.00000574,-0.00000661,-0.00000433,-0.00000161,-0
 .00000173,-0.00000345,-0.00000056,0.00001905,-0.00001157,0.00000268,-0
 .00000463,0.00000401,-0.00000612,0.00000578,-0.00000074,-0.00001482,0.
 00000264,-0.00000188,-0.00000258,-0.00000777,-0.00000807,0.00000267,-0
 .00000741,-0.00000420,0.00000167,-0.00001128,-0.00000056,0.00000081,-0
 .00000312,-0.00001176,0.00000536,-0.00000455,0.00000746,-0.00001298,0.
 00000006,-0.00000927,-0.00000818,-0.00001012,0.00000055,0.00001184,-0.
 00000121,-0.00000602,-0.00000431,-0.00000325,-0.00000626,0.00000116,0.
 00000335,-0.00000237,0.00000133,-0.00000244,-0.00000073,0.00000307,-0.
 00000200,-0.00000263,0.00000221,-0.00000238,0.00000301,-0.00000066,0.0
 0000136,-0.00000053,0.00000297,-0.00000187,-0.00000124,0.00000267,-0.0
 0000079,-0.00000054,0.00000118,-0.00000019,0.00000009,-0.00000164,0.00
 000283,0.00000122,-0.00000198,0.00000425,0.00000196,0.00000050,0.00000
 326,0.00000404,0.00000054,0.00000287,0.00000038,-0.00000196,0.00001142
 ,0.00001661,0.00000800,0.00000536,-0.00001722,0.00000336,-0.00000022,0
 .00000020,-0.00002171,-0.00002527,-0.00000038,-0.00000924\\\@


 CHRISTMAS IS ON TOP OF A STEEP HILL.
 THE CLOSER YOU GET, THE STEEPER THE HILL IS.
          -- LINUS, OF PEANUTS
 Job cpu time:      16 days 21 hours 25 minutes 23.8 seconds.
 File lengths (MBytes):  RWF=  17310 Int=      0 D2E=      0 Chk=     99 Scr=      1
 Normal termination of Gaussian 09 at Wed May  4 12:40:35 2016.
