 Entering Gaussian System, Link 0=g09
 Initial command:
 /share/apps//g09/l1.exe "/scratch/Gau-37464.inp" -scrdir="/scratch/"
 Entering Link 1 = /share/apps//g09/l1.exe PID=     37465.
  
 Copyright (c) 1988,1990,1992,1993,1995,1998,2003,2009,2013,
            Gaussian, Inc.  All Rights Reserved.
  
 This is part of the Gaussian(R) 09 program.  It is based on
 the Gaussian(R) 03 system (copyright 2003, Gaussian, Inc.),
 the Gaussian(R) 98 system (copyright 1998, Gaussian, Inc.),
 the Gaussian(R) 94 system (copyright 1995, Gaussian, Inc.),
 the Gaussian 92(TM) system (copyright 1992, Gaussian, Inc.),
 the Gaussian 90(TM) system (copyright 1990, Gaussian, Inc.),
 the Gaussian 88(TM) system (copyright 1988, Gaussian, Inc.),
 the Gaussian 86(TM) system (copyright 1986, Carnegie Mellon
 University), and the Gaussian 82(TM) system (copyright 1983,
 Carnegie Mellon University). Gaussian is a federally registered
 trademark of Gaussian, Inc.
  
 This software contains proprietary and confidential information,
 including trade secrets, belonging to Gaussian, Inc.
  
 This software is provided under written license and may be
 used, copied, transmitted, or stored only in accord with that
 written license.
  
 The following legend is applicable only to US Government
 contracts under FAR:
  
                    RESTRICTED RIGHTS LEGEND
  
 Use, reproduction and disclosure by the US Government is
 subject to restrictions as set forth in subparagraphs (a)
 and (c) of the Commercial Computer Software - Restricted
 Rights clause in FAR 52.227-19.
  
 Gaussian, Inc.
 340 Quinnipiac St., Bldg. 40, Wallingford CT 06492
  
  
 ---------------------------------------------------------------
 Warning -- This program may not be used in any manner that
 competes with the business of Gaussian, Inc. or will provide
 assistance to any competitor of Gaussian, Inc.  The licensee
 of this program is prohibited from giving any competitor of
 Gaussian, Inc. access to this program.  By using this program,
 the user acknowledges that Gaussian, Inc. is engaged in the
 business of creating and licensing software in the field of
 computational chemistry and represents and warrants to the
 licensee that it is not a competitor of Gaussian, Inc. and that
 it will not use this program in any manner prohibited above.
 ---------------------------------------------------------------
  

 Cite this work as:
 Gaussian 09, Revision D.01,
 M. J. Frisch, G. W. Trucks, H. B. Schlegel, G. E. Scuseria, 
 M. A. Robb, J. R. Cheeseman, G. Scalmani, V. Barone, B. Mennucci, 
 G. A. Petersson, H. Nakatsuji, M. Caricato, X. Li, H. P. Hratchian, 
 A. F. Izmaylov, J. Bloino, G. Zheng, J. L. Sonnenberg, M. Hada, 
 M. Ehara, K. Toyota, R. Fukuda, J. Hasegawa, M. Ishida, T. Nakajima, 
 Y. Honda, O. Kitao, H. Nakai, T. Vreven, J. A. Montgomery, Jr., 
 J. E. Peralta, F. Ogliaro, M. Bearpark, J. J. Heyd, E. Brothers, 
 K. N. Kudin, V. N. Staroverov, T. Keith, R. Kobayashi, J. Normand, 
 K. Raghavachari, A. Rendell, J. C. Burant, S. S. Iyengar, J. Tomasi, 
 M. Cossi, N. Rega, J. M. Millam, M. Klene, J. E. Knox, J. B. Cross, 
 V. Bakken, C. Adamo, J. Jaramillo, R. Gomperts, R. E. Stratmann, 
 O. Yazyev, A. J. Austin, R. Cammi, C. Pomelli, J. W. Ochterski, 
 R. L. Martin, K. Morokuma, V. G. Zakrzewski, G. A. Voth, 
 P. Salvador, J. J. Dannenberg, S. Dapprich, A. D. Daniels, 
 O. Farkas, J. B. Foresman, J. V. Ortiz, J. Cioslowski, 
 and D. J. Fox, Gaussian, Inc., Wallingford CT, 2013.
 
 ******************************************
 Gaussian 09:  EM64L-G09RevD.01 24-Apr-2013
                22-Mar-2016 
 ******************************************
 %nproc=20
 Will use up to   20 processors via shared memory.
 %mem=80GB
 %chk=Tri_A154_of.chk
 -------------------------------------------------------------------
 #P PBE1PBE/6-311+G(d,p) opt optcyc=999 freq EmpiricalDispersion=GD3
 -------------------------------------------------------------------
 1/6=999,14=-1,18=20,19=15,26=3,38=1/1,3;
 2/9=110,12=2,17=6,18=5,40=1/2;
 3/5=4,6=6,7=111,11=2,16=1,25=1,30=1,71=1,74=-13,124=31/1,2,3;
 4//1;
 5/5=2,38=5/2;
 6/7=2,8=2,9=2,10=2,28=1/1;
 7//1,2,3,16;
 1/6=999,14=-1,18=20,19=15,26=3/3(2);
 2/9=110/2;
 99//99;
 2/9=110/2;
 3/5=4,6=6,7=111,11=2,16=1,25=1,30=1,71=1,74=-13,124=31/1,2,3;
 4/5=5,16=3,69=1/1;
 5/5=2,38=5/2;
 7//1,2,3,16;
 1/6=999,14=-1,18=20,19=15,26=3/3(-5);
 2/9=110/2;
 6/7=2,8=2,9=2,10=2,19=2,28=1/1;
 99/9=1/99;
 Leave Link    1 at Tue Mar 22 17:11:02 2016, MaxMem= 10737418240 cpu:         1.8
 (Enter /share/apps//g09/l101.exe)
 -------
 disacch
 -------
 Symbolic Z-matrix:
 Charge =  1 Multiplicity = 1
 O                    -1.33341  -1.17733   2.16485 
 C                    -2.55913  -1.26411   1.48263 
 C                    -2.5163   -2.35763   0.42787 
 C                    -2.08351  -3.67855   1.02765 
 C                    -0.77566  -3.5185    1.78695 
 C                    -0.90777  -2.37573   2.77874 
 C                     0.34857  -2.01498   3.56346 
 O                     1.23111  -1.19837   2.8367 
 O                     0.28585  -3.32471   0.86191 
 O                    -1.85885  -4.64452   0.0279 
 O                    -3.76413  -2.54838  -0.16955 
 O                    -2.70997  -0.06078   0.81993 
 C                    -3.7791    0.81259   1.13748 
 C                    -4.45224   1.19447  -0.16166 
 O                    -4.98815   0.03735  -0.76508 
 C                    -3.43444   1.8419   -1.08123 
 C                    -2.61639   2.94048  -0.38691 
 O                    -2.17447   2.55643   0.90445 
 C                    -3.20554   2.08147   1.7476 
 C                    -2.60111   1.87086   3.11971 
 O                    -3.59916   1.28795   3.92406 
 O                    -1.49385   3.325    -1.1124 
 C                    -0.59209   2.31361  -1.50318 
 C                    -0.45384   2.31126  -3.01345 
 C                     0.54343   1.25239  -3.43331 
 C                     1.86487   1.41381  -2.70593 
 O                     1.6608    1.51058  -1.31513 
 C                     0.78632   2.53641  -0.87825 
 C                     0.78613   2.46387   0.63358 
 O                     0.3328    1.20401   1.10372 
 O                     2.59227   0.26086  -2.93005 
 C                     3.97758   0.34664  -2.6066 
 C                     4.57527  -1.04324  -2.64722 
 C                     3.85573  -2.12658  -1.84734 
 C                     3.90887  -2.04618  -0.32283 
 C                     3.09391  -0.96038   0.35433 
 N                     1.65626  -1.03215  -0.00724 
 O                     0.68918   1.35327  -4.82407 
 O                    -1.70414   2.04501  -3.6072 
 O                    -4.11214   2.35528  -2.19146 
 H                    -3.3835   -1.43406   2.19057 
 H                    -1.76102  -2.04568  -0.30854 
 H                    -2.85961  -4.01831   1.72567 
 H                    -0.58368  -4.43424   2.358 
 H                    -1.66287  -2.71078   3.50628 
 H                     0.88849  -2.92346   3.83175 
 H                     0.04654  -1.51923   4.49162 
 H                     0.78072  -0.36799   2.64946 
 H                     0.10724  -3.95461   0.15181 
 H                    -2.61821  -4.64693  -0.56093 
 H                    -4.11467  -1.69969  -0.48333 
 H                    -4.48675   0.33842   1.81947 
 H                    -5.25462   1.90912   0.05839 
 H                    -5.31916   0.28999  -1.63166 
 H                    -2.76442   1.03516  -1.38692 
 H                    -3.23084   3.84407  -0.3107 
 H                    -4.00727   2.8269    1.82944 
 H                    -1.72706   1.21506   3.0374 
 H                    -2.27219   2.8393    3.50731 
 H                    -3.37864   1.40743   4.84713 
 H                    -0.93767   1.32875  -1.17723 
 H                    -0.09212   3.29821  -3.33177 
 H                     0.1342    0.27141  -3.15068 
 H                     2.40034   2.30416  -3.07123 
 H                     1.165     3.52376  -1.17684 
 H                     1.80944   2.58828   0.98863 
 H                     0.17166   3.26689   1.03869 
 H                    -0.63604   1.21356   1.08709 
 H                     4.09399   0.80998  -1.62473 
 H                     4.47771   0.99112  -3.33691 
 H                     5.61516  -0.96545  -2.31718 
 H                     4.61     -1.36741  -3.69009 
 H                     4.30773  -3.08048  -2.12663 
 H                     2.82091  -2.19989  -2.19709 
 H                     4.94532  -1.91565  -0.00037 
 H                     3.59123  -3.01072   0.08431 
 H                     3.14013  -1.06349   1.43599 
 H                     3.42834   0.03893   0.08828 
 H                     1.20094  -1.88634   0.36402 
 H                     1.55906  -0.98235  -1.01914 
 H                     1.14383  -0.21609   0.37687 
 H                     1.21958   0.61943  -5.14051 
 H                    -1.55844   1.9425   -4.55196 
 H                    -3.45932   2.44506  -2.89815 
 
 NAtoms=     84 NQM=       84 NQMF=       0 NMMI=      0 NMMIF=      0
                NMic=       0 NMicF=      0.
                    Isotopes and Nuclear Properties:
 (Nuclear quadrupole moments (NQMom) in fm**2, nuclear magnetic moments (NMagM)
  in nuclear magnetons)

  Atom         1           2           3           4           5           6           7           8           9          10
 IAtWgt=          16          12          12          12          12          12          12          16          16          16
 AtmWgt=  15.9949146  12.0000000  12.0000000  12.0000000  12.0000000  12.0000000  12.0000000  15.9949146  15.9949146  15.9949146
 NucSpn=           0           0           0           0           0           0           0           0           0           0
 AtZEff=   0.0000000   0.0000000   0.0000000   0.0000000   0.0000000   0.0000000   0.0000000   0.0000000   0.0000000   0.0000000
 NQMom=    0.0000000   0.0000000   0.0000000   0.0000000   0.0000000   0.0000000   0.0000000   0.0000000   0.0000000   0.0000000
 NMagM=    0.0000000   0.0000000   0.0000000   0.0000000   0.0000000   0.0000000   0.0000000   0.0000000   0.0000000   0.0000000
 AtZNuc=   8.0000000   6.0000000   6.0000000   6.0000000   6.0000000   6.0000000   6.0000000   8.0000000   8.0000000   8.0000000

  Atom        11          12          13          14          15          16          17          18          19          20
 IAtWgt=          16          16          12          12          16          12          12          16          12          12
 AtmWgt=  15.9949146  15.9949146  12.0000000  12.0000000  15.9949146  12.0000000  12.0000000  15.9949146  12.0000000  12.0000000
 NucSpn=           0           0           0           0           0           0           0           0           0           0
 AtZEff=   0.0000000   0.0000000   0.0000000   0.0000000   0.0000000   0.0000000   0.0000000   0.0000000   0.0000000   0.0000000
 NQMom=    0.0000000   0.0000000   0.0000000   0.0000000   0.0000000   0.0000000   0.0000000   0.0000000   0.0000000   0.0000000
 NMagM=    0.0000000   0.0000000   0.0000000   0.0000000   0.0000000   0.0000000   0.0000000   0.0000000   0.0000000   0.0000000
 AtZNuc=   8.0000000   8.0000000   6.0000000   6.0000000   8.0000000   6.0000000   6.0000000   8.0000000   6.0000000   6.0000000

  Atom        21          22          23          24          25          26          27          28          29          30
 IAtWgt=          16          16          12          12          12          12          16          12          12          16
 AtmWgt=  15.9949146  15.9949146  12.0000000  12.0000000  12.0000000  12.0000000  15.9949146  12.0000000  12.0000000  15.9949146
 NucSpn=           0           0           0           0           0           0           0           0           0           0
 AtZEff=   0.0000000   0.0000000   0.0000000   0.0000000   0.0000000   0.0000000   0.0000000   0.0000000   0.0000000   0.0000000
 NQMom=    0.0000000   0.0000000   0.0000000   0.0000000   0.0000000   0.0000000   0.0000000   0.0000000   0.0000000   0.0000000
 NMagM=    0.0000000   0.0000000   0.0000000   0.0000000   0.0000000   0.0000000   0.0000000   0.0000000   0.0000000   0.0000000
 AtZNuc=   8.0000000   8.0000000   6.0000000   6.0000000   6.0000000   6.0000000   8.0000000   6.0000000   6.0000000   8.0000000

  Atom        31          32          33          34          35          36          37          38          39          40
 IAtWgt=          16          12          12          12          12          12          14          16          16          16
 AtmWgt=  15.9949146  12.0000000  12.0000000  12.0000000  12.0000000  12.0000000  14.0030740  15.9949146  15.9949146  15.9949146
 NucSpn=           0           0           0           0           0           0           2           0           0           0
 AtZEff=   0.0000000   0.0000000   0.0000000   0.0000000   0.0000000   0.0000000   0.0000000   0.0000000   0.0000000   0.0000000
 NQMom=    0.0000000   0.0000000   0.0000000   0.0000000   0.0000000   0.0000000   2.0440000   0.0000000   0.0000000   0.0000000
 NMagM=    0.0000000   0.0000000   0.0000000   0.0000000   0.0000000   0.0000000   0.4037610   0.0000000   0.0000000   0.0000000
 AtZNuc=   8.0000000   6.0000000   6.0000000   6.0000000   6.0000000   6.0000000   7.0000000   8.0000000   8.0000000   8.0000000

  Atom        41          42          43          44          45          46          47          48          49          50
 IAtWgt=           1           1           1           1           1           1           1           1           1           1
 AtmWgt=   1.0078250   1.0078250   1.0078250   1.0078250   1.0078250   1.0078250   1.0078250   1.0078250   1.0078250   1.0078250
 NucSpn=           1           1           1           1           1           1           1           1           1           1
 AtZEff=   0.0000000   0.0000000   0.0000000   0.0000000   0.0000000   0.0000000   0.0000000   0.0000000   0.0000000   0.0000000
 NQMom=    0.0000000   0.0000000   0.0000000   0.0000000   0.0000000   0.0000000   0.0000000   0.0000000   0.0000000   0.0000000
 NMagM=    2.7928460   2.7928460   2.7928460   2.7928460   2.7928460   2.7928460   2.7928460   2.7928460   2.7928460   2.7928460
 AtZNuc=   1.0000000   1.0000000   1.0000000   1.0000000   1.0000000   1.0000000   1.0000000   1.0000000   1.0000000   1.0000000

  Atom        51          52          53          54          55          56          57          58          59          60
 IAtWgt=           1           1           1           1           1           1           1           1           1           1
 AtmWgt=   1.0078250   1.0078250   1.0078250   1.0078250   1.0078250   1.0078250   1.0078250   1.0078250   1.0078250   1.0078250
 NucSpn=           1           1           1           1           1           1           1           1           1           1
 AtZEff=   0.0000000   0.0000000   0.0000000   0.0000000   0.0000000   0.0000000   0.0000000   0.0000000   0.0000000   0.0000000
 NQMom=    0.0000000   0.0000000   0.0000000   0.0000000   0.0000000   0.0000000   0.0000000   0.0000000   0.0000000   0.0000000
 NMagM=    2.7928460   2.7928460   2.7928460   2.7928460   2.7928460   2.7928460   2.7928460   2.7928460   2.7928460   2.7928460
 AtZNuc=   1.0000000   1.0000000   1.0000000   1.0000000   1.0000000   1.0000000   1.0000000   1.0000000   1.0000000   1.0000000

  Atom        61          62          63          64          65          66          67          68          69          70
 IAtWgt=           1           1           1           1           1           1           1           1           1           1
 AtmWgt=   1.0078250   1.0078250   1.0078250   1.0078250   1.0078250   1.0078250   1.0078250   1.0078250   1.0078250   1.0078250
 NucSpn=           1           1           1           1           1           1           1           1           1           1
 AtZEff=   0.0000000   0.0000000   0.0000000   0.0000000   0.0000000   0.0000000   0.0000000   0.0000000   0.0000000   0.0000000
 NQMom=    0.0000000   0.0000000   0.0000000   0.0000000   0.0000000   0.0000000   0.0000000   0.0000000   0.0000000   0.0000000
 NMagM=    2.7928460   2.7928460   2.7928460   2.7928460   2.7928460   2.7928460   2.7928460   2.7928460   2.7928460   2.7928460
 AtZNuc=   1.0000000   1.0000000   1.0000000   1.0000000   1.0000000   1.0000000   1.0000000   1.0000000   1.0000000   1.0000000

  Atom        71          72          73          74          75          76          77          78          79          80
 IAtWgt=           1           1           1           1           1           1           1           1           1           1
 AtmWgt=   1.0078250   1.0078250   1.0078250   1.0078250   1.0078250   1.0078250   1.0078250   1.0078250   1.0078250   1.0078250
 NucSpn=           1           1           1           1           1           1           1           1           1           1
 AtZEff=   0.0000000   0.0000000   0.0000000   0.0000000   0.0000000   0.0000000   0.0000000   0.0000000   0.0000000   0.0000000
 NQMom=    0.0000000   0.0000000   0.0000000   0.0000000   0.0000000   0.0000000   0.0000000   0.0000000   0.0000000   0.0000000
 NMagM=    2.7928460   2.7928460   2.7928460   2.7928460   2.7928460   2.7928460   2.7928460   2.7928460   2.7928460   2.7928460
 AtZNuc=   1.0000000   1.0000000   1.0000000   1.0000000   1.0000000   1.0000000   1.0000000   1.0000000   1.0000000   1.0000000

  Atom        81          82          83          84
 IAtWgt=           1           1           1           1
 AtmWgt=   1.0078250   1.0078250   1.0078250   1.0078250
 NucSpn=           1           1           1           1
 AtZEff=   0.0000000   0.0000000   0.0000000   0.0000000
 NQMom=    0.0000000   0.0000000   0.0000000   0.0000000
 NMagM=    2.7928460   2.7928460   2.7928460   2.7928460
 AtZNuc=   1.0000000   1.0000000   1.0000000   1.0000000
 Leave Link  101 at Tue Mar 22 17:11:03 2016, MaxMem= 10737418240 cpu:         4.4
 (Enter /share/apps//g09/l103.exe)

 GradGradGradGradGradGradGradGradGradGradGradGradGradGradGradGradGradGrad
 Berny optimization.
 Initialization pass.
                           ----------------------------
                           !    Initial Parameters    !
                           ! (Angstroms and Degrees)  !
 --------------------------                            --------------------------
 ! Name  Definition              Value          Derivative Info.                !
 --------------------------------------------------------------------------------
 ! R1    R(1,2)                  1.4055         estimate D2E/DX2                !
 ! R2    R(1,6)                  1.4122         estimate D2E/DX2                !
 ! R3    R(2,3)                  1.5199         estimate D2E/DX2                !
 ! R4    R(2,12)                 1.382          estimate D2E/DX2                !
 ! R5    R(2,41)                 1.0998         estimate D2E/DX2                !
 ! R6    R(3,4)                  1.5139         estimate D2E/DX2                !
 ! R7    R(3,11)                 1.3966         estimate D2E/DX2                !
 ! R8    R(3,42)                 1.1            estimate D2E/DX2                !
 ! R9    R(4,5)                  1.5207         estimate D2E/DX2                !
 ! R10   R(4,10)                 1.4082         estimate D2E/DX2                !
 ! R11   R(4,43)                 1.0977         estimate D2E/DX2                !
 ! R12   R(5,6)                  1.5189         estimate D2E/DX2                !
 ! R13   R(5,9)                  1.4213         estimate D2E/DX2                !
 ! R14   R(5,44)                 1.0961         estimate D2E/DX2                !
 ! R15   R(6,7)                  1.5246         estimate D2E/DX2                !
 ! R16   R(6,45)                 1.1008         estimate D2E/DX2                !
 ! R17   R(7,8)                  1.405          estimate D2E/DX2                !
 ! R18   R(7,46)                 1.0903         estimate D2E/DX2                !
 ! R19   R(7,47)                 1.0947         estimate D2E/DX2                !
 ! R20   R(8,48)                 0.963          estimate D2E/DX2                !
 ! R21   R(9,49)                 0.9659         estimate D2E/DX2                !
 ! R22   R(10,50)                0.9609         estimate D2E/DX2                !
 ! R23   R(11,51)                0.9704         estimate D2E/DX2                !
 ! R24   R(12,13)                1.4166         estimate D2E/DX2                !
 ! R25   R(13,14)                1.5122         estimate D2E/DX2                !
 ! R26   R(13,19)                1.5203         estimate D2E/DX2                !
 ! R27   R(13,52)                1.0912         estimate D2E/DX2                !
 ! R28   R(14,15)                1.4108         estimate D2E/DX2                !
 ! R29   R(14,16)                1.5168         estimate D2E/DX2                !
 ! R30   R(14,53)                1.0968         estimate D2E/DX2                !
 ! R31   R(15,54)                0.9614         estimate D2E/DX2                !
 ! R32   R(16,17)                1.5356         estimate D2E/DX2                !
 ! R33   R(16,40)                1.3984         estimate D2E/DX2                !
 ! R34   R(16,55)                1.0923         estimate D2E/DX2                !
 ! R35   R(17,18)                1.4179         estimate D2E/DX2                !
 ! R36   R(17,22)                1.3908         estimate D2E/DX2                !
 ! R37   R(17,56)                1.0954         estimate D2E/DX2                !
 ! R38   R(18,19)                1.4141         estimate D2E/DX2                !
 ! R39   R(19,20)                1.5141         estimate D2E/DX2                !
 ! R40   R(19,57)                1.0978         estimate D2E/DX2                !
 ! R41   R(20,21)                1.4081         estimate D2E/DX2                !
 ! R42   R(20,58)                1.0958         estimate D2E/DX2                !
 ! R43   R(20,59)                1.0938         estimate D2E/DX2                !
 ! R44   R(21,60)                0.9565         estimate D2E/DX2                !
 ! R45   R(22,23)                1.4102         estimate D2E/DX2                !
 ! R46   R(23,24)                1.5166         estimate D2E/DX2                !
 ! R47   R(23,28)                1.5298         estimate D2E/DX2                !
 ! R48   R(23,61)                1.0934         estimate D2E/DX2                !
 ! R49   R(24,25)                1.5139         estimate D2E/DX2                !
 ! R50   R(24,39)                1.4095         estimate D2E/DX2                !
 ! R51   R(24,62)                1.0983         estimate D2E/DX2                !
 ! R52   R(25,26)                1.517          estimate D2E/DX2                !
 ! R53   R(25,38)                1.402          estimate D2E/DX2                !
 ! R54   R(25,63)                1.0999         estimate D2E/DX2                !
 ! R55   R(26,27)                1.409          estimate D2E/DX2                !
 ! R56   R(26,31)                1.3815         estimate D2E/DX2                !
 ! R57   R(26,64)                1.1013         estimate D2E/DX2                !
 ! R58   R(27,28)                1.417          estimate D2E/DX2                !
 ! R59   R(28,29)                1.5136         estimate D2E/DX2                !
 ! R60   R(28,65)                1.0988         estimate D2E/DX2                !
 ! R61   R(29,30)                1.4191         estimate D2E/DX2                !
 ! R62   R(29,66)                1.0903         estimate D2E/DX2                !
 ! R63   R(29,67)                1.0893         estimate D2E/DX2                !
 ! R64   R(30,68)                0.969          estimate D2E/DX2                !
 ! R65   R(31,32)                1.4252         estimate D2E/DX2                !
 ! R66   R(32,33)                1.5135         estimate D2E/DX2                !
 ! R67   R(32,69)                1.0919         estimate D2E/DX2                !
 ! R68   R(32,70)                1.0949         estimate D2E/DX2                !
 ! R69   R(33,34)                1.5268         estimate D2E/DX2                !
 ! R70   R(33,71)                1.0938         estimate D2E/DX2                !
 ! R71   R(33,72)                1.0926         estimate D2E/DX2                !
 ! R72   R(34,35)                1.5276         estimate D2E/DX2                !
 ! R73   R(34,73)                1.0919         estimate D2E/DX2                !
 ! R74   R(34,74)                1.0948         estimate D2E/DX2                !
 ! R75   R(35,36)                1.5171         estimate D2E/DX2                !
 ! R76   R(35,75)                1.0933         estimate D2E/DX2                !
 ! R77   R(35,76)                1.0941         estimate D2E/DX2                !
 ! R78   R(36,37)                1.4842         estimate D2E/DX2                !
 ! R79   R(36,77)                1.0875         estimate D2E/DX2                !
 ! R80   R(36,78)                1.0869         estimate D2E/DX2                !
 ! R81   R(37,79)                1.0367         estimate D2E/DX2                !
 ! R82   R(37,80)                1.0178         estimate D2E/DX2                !
 ! R83   R(37,81)                1.0373         estimate D2E/DX2                !
 ! R84   R(38,82)                0.9592         estimate D2E/DX2                !
 ! R85   R(39,83)                0.9614         estimate D2E/DX2                !
 ! R86   R(40,84)                0.9663         estimate D2E/DX2                !
 ! A1    A(2,1,6)              114.9279         estimate D2E/DX2                !
 ! A2    A(1,2,3)              110.8976         estimate D2E/DX2                !
 ! A3    A(1,2,12)             105.9136         estimate D2E/DX2                !
 ! A4    A(1,2,41)             110.5347         estimate D2E/DX2                !
 ! A5    A(3,2,12)             107.2627         estimate D2E/DX2                !
 ! A6    A(3,2,41)             110.8936         estimate D2E/DX2                !
 ! A7    A(12,2,41)            111.1858         estimate D2E/DX2                !
 ! A8    A(2,3,4)              111.1538         estimate D2E/DX2                !
 ! A9    A(2,3,11)             111.7127         estimate D2E/DX2                !
 ! A10   A(2,3,42)             106.2536         estimate D2E/DX2                !
 ! A11   A(4,3,11)             107.8026         estimate D2E/DX2                !
 ! A12   A(4,3,42)             108.4439         estimate D2E/DX2                !
 ! A13   A(11,3,42)            111.4592         estimate D2E/DX2                !
 ! A14   A(3,4,5)              110.6001         estimate D2E/DX2                !
 ! A15   A(3,4,10)             111.2757         estimate D2E/DX2                !
 ! A16   A(3,4,43)             108.6548         estimate D2E/DX2                !
 ! A17   A(5,4,10)             106.8259         estimate D2E/DX2                !
 ! A18   A(5,4,43)             108.8516         estimate D2E/DX2                !
 ! A19   A(10,4,43)            110.6047         estimate D2E/DX2                !
 ! A20   A(4,5,6)              109.2936         estimate D2E/DX2                !
 ! A21   A(4,5,9)              109.3718         estimate D2E/DX2                !
 ! A22   A(4,5,44)             108.8333         estimate D2E/DX2                !
 ! A23   A(6,5,9)              112.7903         estimate D2E/DX2                !
 ! A24   A(6,5,44)             107.6743         estimate D2E/DX2                !
 ! A25   A(9,5,44)             108.7941         estimate D2E/DX2                !
 ! A26   A(1,6,5)              112.386          estimate D2E/DX2                !
 ! A27   A(1,6,7)              105.7435         estimate D2E/DX2                !
 ! A28   A(1,6,45)             109.8073         estimate D2E/DX2                !
 ! A29   A(5,6,7)              116.2602         estimate D2E/DX2                !
 ! A30   A(5,6,45)             105.2022         estimate D2E/DX2                !
 ! A31   A(7,6,45)             107.2839         estimate D2E/DX2                !
 ! A32   A(6,7,8)              112.8876         estimate D2E/DX2                !
 ! A33   A(6,7,46)             109.7282         estimate D2E/DX2                !
 ! A34   A(6,7,47)             108.433          estimate D2E/DX2                !
 ! A35   A(8,7,46)             107.4887         estimate D2E/DX2                !
 ! A36   A(8,7,47)             110.4055         estimate D2E/DX2                !
 ! A37   A(46,7,47)            107.777          estimate D2E/DX2                !
 ! A38   A(7,8,48)             107.9368         estimate D2E/DX2                !
 ! A39   A(5,9,49)             104.5641         estimate D2E/DX2                !
 ! A40   A(4,10,50)            108.1006         estimate D2E/DX2                !
 ! A41   A(3,11,51)            109.977          estimate D2E/DX2                !
 ! A42   A(2,12,13)            120.7781         estimate D2E/DX2                !
 ! A43   A(12,13,14)           107.4021         estimate D2E/DX2                !
 ! A44   A(12,13,19)           108.6514         estimate D2E/DX2                !
 ! A45   A(12,13,52)           111.2011         estimate D2E/DX2                !
 ! A46   A(14,13,19)           107.5744         estimate D2E/DX2                !
 ! A47   A(14,13,52)           110.9772         estimate D2E/DX2                !
 ! A48   A(19,13,52)           110.8868         estimate D2E/DX2                !
 ! A49   A(13,14,15)           109.2343         estimate D2E/DX2                !
 ! A50   A(13,14,16)           109.2648         estimate D2E/DX2                !
 ! A51   A(13,14,53)           108.532          estimate D2E/DX2                !
 ! A52   A(15,14,16)           110.2237         estimate D2E/DX2                !
 ! A53   A(15,14,53)           110.0198         estimate D2E/DX2                !
 ! A54   A(16,14,53)           109.5365         estimate D2E/DX2                !
 ! A55   A(14,15,54)           107.5047         estimate D2E/DX2                !
 ! A56   A(14,16,17)           112.8739         estimate D2E/DX2                !
 ! A57   A(14,16,40)           108.2304         estimate D2E/DX2                !
 ! A58   A(14,16,55)           105.427          estimate D2E/DX2                !
 ! A59   A(17,16,40)           110.7631         estimate D2E/DX2                !
 ! A60   A(17,16,55)           109.155          estimate D2E/DX2                !
 ! A61   A(40,16,55)           110.2563         estimate D2E/DX2                !
 ! A62   A(16,17,18)           112.585          estimate D2E/DX2                !
 ! A63   A(16,17,22)           113.0729         estimate D2E/DX2                !
 ! A64   A(16,17,56)           108.8307         estimate D2E/DX2                !
 ! A65   A(18,17,22)           107.3625         estimate D2E/DX2                !
 ! A66   A(18,17,56)           109.5669         estimate D2E/DX2                !
 ! A67   A(22,17,56)           105.1283         estimate D2E/DX2                !
 ! A68   A(17,18,19)           114.0021         estimate D2E/DX2                !
 ! A69   A(13,19,18)           108.4294         estimate D2E/DX2                !
 ! A70   A(13,19,20)           113.466          estimate D2E/DX2                !
 ! A71   A(13,19,57)           108.7314         estimate D2E/DX2                !
 ! A72   A(18,19,20)           107.2171         estimate D2E/DX2                !
 ! A73   A(18,19,57)           110.4193         estimate D2E/DX2                !
 ! A74   A(20,19,57)           108.5689         estimate D2E/DX2                !
 ! A75   A(19,20,21)           106.9953         estimate D2E/DX2                !
 ! A76   A(19,20,58)           109.4873         estimate D2E/DX2                !
 ! A77   A(19,20,59)           108.5444         estimate D2E/DX2                !
 ! A78   A(21,20,58)           111.1311         estimate D2E/DX2                !
 ! A79   A(21,20,59)           112.1634         estimate D2E/DX2                !
 ! A80   A(58,20,59)           108.46           estimate D2E/DX2                !
 ! A81   A(20,21,60)           109.6407         estimate D2E/DX2                !
 ! A82   A(17,22,23)           117.5401         estimate D2E/DX2                !
 ! A83   A(22,23,24)           109.5937         estimate D2E/DX2                !
 ! A84   A(22,23,28)           111.0092         estimate D2E/DX2                !
 ! A85   A(22,23,61)           111.1777         estimate D2E/DX2                !
 ! A86   A(24,23,28)           108.9594         estimate D2E/DX2                !
 ! A87   A(24,23,61)           108.9213         estimate D2E/DX2                !
 ! A88   A(28,23,61)           107.1085         estimate D2E/DX2                !
 ! A89   A(23,24,25)           109.7128         estimate D2E/DX2                !
 ! A90   A(23,24,39)           109.8114         estimate D2E/DX2                !
 ! A91   A(23,24,62)           108.4971         estimate D2E/DX2                !
 ! A92   A(25,24,39)           109.5957         estimate D2E/DX2                !
 ! A93   A(25,24,62)           109.3404         estimate D2E/DX2                !
 ! A94   A(39,24,62)           109.8651         estimate D2E/DX2                !
 ! A95   A(24,25,26)           111.494          estimate D2E/DX2                !
 ! A96   A(24,25,38)           107.053          estimate D2E/DX2                !
 ! A97   A(24,25,63)           107.9061         estimate D2E/DX2                !
 ! A98   A(26,25,38)           112.174          estimate D2E/DX2                !
 ! A99   A(26,25,63)           107.2056         estimate D2E/DX2                !
 ! A100  A(38,25,63)           110.9631         estimate D2E/DX2                !
 ! A101  A(25,26,27)           110.7585         estimate D2E/DX2                !
 ! A102  A(25,26,31)           106.9809         estimate D2E/DX2                !
 ! A103  A(25,26,64)           110.5184         estimate D2E/DX2                !
 ! A104  A(27,26,31)           107.0796         estimate D2E/DX2                !
 ! A105  A(27,26,64)           110.0171         estimate D2E/DX2                !
 ! A106  A(31,26,64)           111.3998         estimate D2E/DX2                !
 ! A107  A(26,27,28)           116.3226         estimate D2E/DX2                !
 ! A108  A(23,28,27)           108.9465         estimate D2E/DX2                !
 ! A109  A(23,28,29)           113.6376         estimate D2E/DX2                !
 ! A110  A(23,28,65)           109.2922         estimate D2E/DX2                !
 ! A111  A(27,28,29)           105.8631         estimate D2E/DX2                !
 ! A112  A(27,28,65)           110.7347         estimate D2E/DX2                !
 ! A113  A(29,28,65)           108.3325         estimate D2E/DX2                !
 ! A114  A(28,29,30)           111.9321         estimate D2E/DX2                !
 ! A115  A(28,29,66)           108.6442         estimate D2E/DX2                !
 ! A116  A(28,29,67)           109.6467         estimate D2E/DX2                !
 ! A117  A(30,29,66)           107.0526         estimate D2E/DX2                !
 ! A118  A(30,29,67)           110.5529         estimate D2E/DX2                !
 ! A119  A(66,29,67)           108.9187         estimate D2E/DX2                !
 ! A120  A(29,30,68)           107.7555         estimate D2E/DX2                !
 ! A121  A(26,31,32)           115.1346         estimate D2E/DX2                !
 ! A122  A(31,32,33)           108.8143         estimate D2E/DX2                !
 ! A123  A(31,32,69)           109.4663         estimate D2E/DX2                !
 ! A124  A(31,32,70)           109.1506         estimate D2E/DX2                !
 ! A125  A(33,32,69)           111.8211         estimate D2E/DX2                !
 ! A126  A(33,32,70)           110.0142         estimate D2E/DX2                !
 ! A127  A(69,32,70)           107.5363         estimate D2E/DX2                !
 ! A128  A(32,33,34)           116.8351         estimate D2E/DX2                !
 ! A129  A(32,33,71)           107.5803         estimate D2E/DX2                !
 ! A130  A(32,33,72)           108.0967         estimate D2E/DX2                !
 ! A131  A(34,33,71)           109.9033         estimate D2E/DX2                !
 ! A132  A(34,33,72)           107.7276         estimate D2E/DX2                !
 ! A133  A(71,33,72)           106.1933         estimate D2E/DX2                !
 ! A134  A(33,34,35)           117.9761         estimate D2E/DX2                !
 ! A135  A(33,34,73)           106.9047         estimate D2E/DX2                !
 ! A136  A(33,34,74)           109.0021         estimate D2E/DX2                !
 ! A137  A(35,34,73)           106.6698         estimate D2E/DX2                !
 ! A138  A(35,34,74)           110.8081         estimate D2E/DX2                !
 ! A139  A(73,34,74)           104.5409         estimate D2E/DX2                !
 ! A140  A(34,35,36)           117.6738         estimate D2E/DX2                !
 ! A141  A(34,35,75)           109.489          estimate D2E/DX2                !
 ! A142  A(34,35,76)           108.3541         estimate D2E/DX2                !
 ! A143  A(36,35,75)           106.9871         estimate D2E/DX2                !
 ! A144  A(36,35,76)           107.9933         estimate D2E/DX2                !
 ! A145  A(75,35,76)           105.7081         estimate D2E/DX2                !
 ! A146  A(35,36,37)           112.1476         estimate D2E/DX2                !
 ! A147  A(35,36,77)           110.6859         estimate D2E/DX2                !
 ! A148  A(35,36,78)           112.5505         estimate D2E/DX2                !
 ! A149  A(37,36,77)           106.1936         estimate D2E/DX2                !
 ! A150  A(37,36,78)           106.4328         estimate D2E/DX2                !
 ! A151  A(77,36,78)           108.5155         estimate D2E/DX2                !
 ! A152  A(36,37,79)           112.2118         estimate D2E/DX2                !
 ! A153  A(36,37,80)           109.4119         estimate D2E/DX2                !
 ! A154  A(36,37,81)           110.5029         estimate D2E/DX2                !
 ! A155  A(79,37,80)           110.7575         estimate D2E/DX2                !
 ! A156  A(79,37,81)           107.3747         estimate D2E/DX2                !
 ! A157  A(80,37,81)           106.408          estimate D2E/DX2                !
 ! A158  A(25,38,82)           109.2508         estimate D2E/DX2                !
 ! A159  A(24,39,83)           107.4374         estimate D2E/DX2                !
 ! A160  A(16,40,84)           106.6994         estimate D2E/DX2                !
 ! D1    D(6,1,2,3)            -56.4902         estimate D2E/DX2                !
 ! D2    D(6,1,2,12)          -172.541          estimate D2E/DX2                !
 ! D3    D(6,1,2,41)            66.9224         estimate D2E/DX2                !
 ! D4    D(2,1,6,5)             57.6985         estimate D2E/DX2                !
 ! D5    D(2,1,6,7)           -174.475          estimate D2E/DX2                !
 ! D6    D(2,1,6,45)           -59.0309         estimate D2E/DX2                !
 ! D7    D(1,2,3,4)             53.645          estimate D2E/DX2                !
 ! D8    D(1,2,3,11)           174.1058         estimate D2E/DX2                !
 ! D9    D(1,2,3,42)           -64.1409         estimate D2E/DX2                !
 ! D10   D(12,2,3,4)           168.8582         estimate D2E/DX2                !
 ! D11   D(12,2,3,11)          -70.6811         estimate D2E/DX2                !
 ! D12   D(12,2,3,42)           51.0722         estimate D2E/DX2                !
 ! D13   D(41,2,3,4)           -69.561          estimate D2E/DX2                !
 ! D14   D(41,2,3,11)           50.8997         estimate D2E/DX2                !
 ! D15   D(41,2,3,42)          172.653          estimate D2E/DX2                !
 ! D16   D(1,2,12,13)         -116.6832         estimate D2E/DX2                !
 ! D17   D(3,2,12,13)          124.8266         estimate D2E/DX2                !
 ! D18   D(41,2,12,13)           3.4293         estimate D2E/DX2                !
 ! D19   D(2,3,4,5)            -53.0348         estimate D2E/DX2                !
 ! D20   D(2,3,4,10)          -171.604          estimate D2E/DX2                !
 ! D21   D(2,3,4,43)            66.3865         estimate D2E/DX2                !
 ! D22   D(11,3,4,5)          -175.7789         estimate D2E/DX2                !
 ! D23   D(11,3,4,10)           65.6519         estimate D2E/DX2                !
 ! D24   D(11,3,4,43)          -56.3576         estimate D2E/DX2                !
 ! D25   D(42,3,4,5)            63.4149         estimate D2E/DX2                !
 ! D26   D(42,3,4,10)          -55.1543         estimate D2E/DX2                !
 ! D27   D(42,3,4,43)         -177.1637         estimate D2E/DX2                !
 ! D28   D(2,3,11,51)           51.6785         estimate D2E/DX2                !
 ! D29   D(4,3,11,51)          174.0791         estimate D2E/DX2                !
 ! D30   D(42,3,11,51)         -67.0222         estimate D2E/DX2                !
 ! D31   D(3,4,5,6)             52.4136         estimate D2E/DX2                !
 ! D32   D(3,4,5,9)            -71.5126         estimate D2E/DX2                !
 ! D33   D(3,4,5,44)           169.7535         estimate D2E/DX2                !
 ! D34   D(10,4,5,6)           173.6553         estimate D2E/DX2                !
 ! D35   D(10,4,5,9)            49.7291         estimate D2E/DX2                !
 ! D36   D(10,4,5,44)          -69.0048         estimate D2E/DX2                !
 ! D37   D(43,4,5,6)           -66.889          estimate D2E/DX2                !
 ! D38   D(43,4,5,9)           169.1848         estimate D2E/DX2                !
 ! D39   D(43,4,5,44)           50.4509         estimate D2E/DX2                !
 ! D40   D(3,4,10,50)          -49.1588         estimate D2E/DX2                !
 ! D41   D(5,4,10,50)         -169.9708         estimate D2E/DX2                !
 ! D42   D(43,4,10,50)          71.7131         estimate D2E/DX2                !
 ! D43   D(4,5,6,1)            -54.0141         estimate D2E/DX2                !
 ! D44   D(4,5,6,7)           -176.0483         estimate D2E/DX2                !
 ! D45   D(4,5,6,45)            65.4374         estimate D2E/DX2                !
 ! D46   D(9,5,6,1)             67.8753         estimate D2E/DX2                !
 ! D47   D(9,5,6,7)            -54.1589         estimate D2E/DX2                !
 ! D48   D(9,5,6,45)          -172.6732         estimate D2E/DX2                !
 ! D49   D(44,5,6,1)          -172.082          estimate D2E/DX2                !
 ! D50   D(44,5,6,7)            65.8838         estimate D2E/DX2                !
 ! D51   D(44,5,6,45)          -52.6305         estimate D2E/DX2                !
 ! D52   D(4,5,9,49)           -42.0362         estimate D2E/DX2                !
 ! D53   D(6,5,9,49)          -163.8815         estimate D2E/DX2                !
 ! D54   D(44,5,9,49)           76.722          estimate D2E/DX2                !
 ! D55   D(1,6,7,8)            -44.3273         estimate D2E/DX2                !
 ! D56   D(1,6,7,46)          -164.1904         estimate D2E/DX2                !
 ! D57   D(1,6,7,47)            78.3311         estimate D2E/DX2                !
 ! D58   D(5,6,7,8)             81.1449         estimate D2E/DX2                !
 ! D59   D(5,6,7,46)           -38.7182         estimate D2E/DX2                !
 ! D60   D(5,6,7,47)          -156.1967         estimate D2E/DX2                !
 ! D61   D(45,6,7,8)          -161.4843         estimate D2E/DX2                !
 ! D62   D(45,6,7,46)           78.6525         estimate D2E/DX2                !
 ! D63   D(45,6,7,47)          -38.8259         estimate D2E/DX2                !
 ! D64   D(6,7,8,48)            62.758          estimate D2E/DX2                !
 ! D65   D(46,7,8,48)         -176.0988         estimate D2E/DX2                !
 ! D66   D(47,7,8,48)          -58.792          estimate D2E/DX2                !
 ! D67   D(2,12,13,14)        -130.0379         estimate D2E/DX2                !
 ! D68   D(2,12,13,19)         113.8737         estimate D2E/DX2                !
 ! D69   D(2,12,13,52)          -8.4384         estimate D2E/DX2                !
 ! D70   D(12,13,14,15)         62.6877         estimate D2E/DX2                !
 ! D71   D(12,13,14,16)        -57.962          estimate D2E/DX2                !
 ! D72   D(12,13,14,53)       -177.3537         estimate D2E/DX2                !
 ! D73   D(19,13,14,15)        179.4844         estimate D2E/DX2                !
 ! D74   D(19,13,14,16)         58.8347         estimate D2E/DX2                !
 ! D75   D(19,13,14,53)        -60.557          estimate D2E/DX2                !
 ! D76   D(52,13,14,15)        -59.0518         estimate D2E/DX2                !
 ! D77   D(52,13,14,16)       -179.7015         estimate D2E/DX2                !
 ! D78   D(52,13,14,53)         60.9068         estimate D2E/DX2                !
 ! D79   D(12,13,19,18)         49.9833         estimate D2E/DX2                !
 ! D80   D(12,13,19,20)        -69.0146         estimate D2E/DX2                !
 ! D81   D(12,13,19,57)        170.0699         estimate D2E/DX2                !
 ! D82   D(14,13,19,18)        -65.994          estimate D2E/DX2                !
 ! D83   D(14,13,19,20)        175.0081         estimate D2E/DX2                !
 ! D84   D(14,13,19,57)         54.0926         estimate D2E/DX2                !
 ! D85   D(52,13,19,18)        172.4858         estimate D2E/DX2                !
 ! D86   D(52,13,19,20)         53.4879         estimate D2E/DX2                !
 ! D87   D(52,13,19,57)        -67.4276         estimate D2E/DX2                !
 ! D88   D(13,14,15,54)       -173.6214         estimate D2E/DX2                !
 ! D89   D(16,14,15,54)        -53.5594         estimate D2E/DX2                !
 ! D90   D(53,14,15,54)         67.3397         estimate D2E/DX2                !
 ! D91   D(13,14,16,17)        -48.7782         estimate D2E/DX2                !
 ! D92   D(13,14,16,40)       -171.7379         estimate D2E/DX2                !
 ! D93   D(13,14,16,55)         70.2906         estimate D2E/DX2                !
 ! D94   D(15,14,16,17)       -168.8217         estimate D2E/DX2                !
 ! D95   D(15,14,16,40)         68.2185         estimate D2E/DX2                !
 ! D96   D(15,14,16,55)        -49.753          estimate D2E/DX2                !
 ! D97   D(53,14,16,17)         69.9904         estimate D2E/DX2                !
 ! D98   D(53,14,16,40)        -52.9693         estimate D2E/DX2                !
 ! D99   D(53,14,16,55)       -170.9408         estimate D2E/DX2                !
 ! D100  D(14,16,17,18)         44.3895         estimate D2E/DX2                !
 ! D101  D(14,16,17,22)        166.293          estimate D2E/DX2                !
 ! D102  D(14,16,17,56)        -77.2846         estimate D2E/DX2                !
 ! D103  D(40,16,17,18)        165.9278         estimate D2E/DX2                !
 ! D104  D(40,16,17,22)        -72.1686         estimate D2E/DX2                !
 ! D105  D(40,16,17,56)         44.2537         estimate D2E/DX2                !
 ! D106  D(55,16,17,18)        -72.494          estimate D2E/DX2                !
 ! D107  D(55,16,17,22)         49.4095         estimate D2E/DX2                !
 ! D108  D(55,16,17,56)        165.8319         estimate D2E/DX2                !
 ! D109  D(14,16,40,84)       -158.512          estimate D2E/DX2                !
 ! D110  D(17,16,40,84)         77.2561         estimate D2E/DX2                !
 ! D111  D(55,16,40,84)        -43.6721         estimate D2E/DX2                !
 ! D112  D(16,17,18,19)        -52.3396         estimate D2E/DX2                !
 ! D113  D(22,17,18,19)       -177.4231         estimate D2E/DX2                !
 ! D114  D(56,17,18,19)         68.9155         estimate D2E/DX2                !
 ! D115  D(16,17,22,23)        -54.0498         estimate D2E/DX2                !
 ! D116  D(18,17,22,23)         70.7397         estimate D2E/DX2                !
 ! D117  D(56,17,22,23)       -172.6434         estimate D2E/DX2                !
 ! D118  D(17,18,19,13)         63.5807         estimate D2E/DX2                !
 ! D119  D(17,18,19,20)       -173.553          estimate D2E/DX2                !
 ! D120  D(17,18,19,57)        -55.4475         estimate D2E/DX2                !
 ! D121  D(13,19,20,21)        -55.2476         estimate D2E/DX2                !
 ! D122  D(13,19,20,58)         65.285          estimate D2E/DX2                !
 ! D123  D(13,19,20,59)       -176.4866         estimate D2E/DX2                !
 ! D124  D(18,19,20,21)       -174.9388         estimate D2E/DX2                !
 ! D125  D(18,19,20,58)        -54.4062         estimate D2E/DX2                !
 ! D126  D(18,19,20,59)         63.8222         estimate D2E/DX2                !
 ! D127  D(57,19,20,21)         65.7593         estimate D2E/DX2                !
 ! D128  D(57,19,20,58)       -173.7081         estimate D2E/DX2                !
 ! D129  D(57,19,20,59)        -55.4797         estimate D2E/DX2                !
 ! D130  D(19,20,21,60)       -160.8702         estimate D2E/DX2                !
 ! D131  D(58,20,21,60)         79.6507         estimate D2E/DX2                !
 ! D132  D(59,20,21,60)        -41.9496         estimate D2E/DX2                !
 ! D133  D(17,22,23,24)        121.5882         estimate D2E/DX2                !
 ! D134  D(17,22,23,28)       -118.0053         estimate D2E/DX2                !
 ! D135  D(17,22,23,61)          1.1215         estimate D2E/DX2                !
 ! D136  D(22,23,24,25)        178.4097         estimate D2E/DX2                !
 ! D137  D(22,23,24,39)        -61.0763         estimate D2E/DX2                !
 ! D138  D(22,23,24,62)         59.0147         estimate D2E/DX2                !
 ! D139  D(28,23,24,25)         56.7637         estimate D2E/DX2                !
 ! D140  D(28,23,24,39)        177.2778         estimate D2E/DX2                !
 ! D141  D(28,23,24,62)        -62.6312         estimate D2E/DX2                !
 ! D142  D(61,23,24,25)        -59.7611         estimate D2E/DX2                !
 ! D143  D(61,23,24,39)         60.753          estimate D2E/DX2                !
 ! D144  D(61,23,24,62)       -179.156          estimate D2E/DX2                !
 ! D145  D(22,23,28,27)       -179.0925         estimate D2E/DX2                !
 ! D146  D(22,23,28,29)         63.1513         estimate D2E/DX2                !
 ! D147  D(22,23,28,65)        -57.9777         estimate D2E/DX2                !
 ! D148  D(24,23,28,27)        -58.3108         estimate D2E/DX2                !
 ! D149  D(24,23,28,29)       -176.0669         estimate D2E/DX2                !
 ! D150  D(24,23,28,65)         62.804          estimate D2E/DX2                !
 ! D151  D(61,23,28,27)         59.3661         estimate D2E/DX2                !
 ! D152  D(61,23,28,29)        -58.3901         estimate D2E/DX2                !
 ! D153  D(61,23,28,65)       -179.5191         estimate D2E/DX2                !
 ! D154  D(23,24,25,26)        -53.4341         estimate D2E/DX2                !
 ! D155  D(23,24,25,38)       -176.4639         estimate D2E/DX2                !
 ! D156  D(23,24,25,63)         64.0389         estimate D2E/DX2                !
 ! D157  D(39,24,25,26)       -174.0788         estimate D2E/DX2                !
 ! D158  D(39,24,25,38)         62.8913         estimate D2E/DX2                !
 ! D159  D(39,24,25,63)        -56.6059         estimate D2E/DX2                !
 ! D160  D(62,24,25,26)         65.4423         estimate D2E/DX2                !
 ! D161  D(62,24,25,38)        -57.5876         estimate D2E/DX2                !
 ! D162  D(62,24,25,63)       -177.0847         estimate D2E/DX2                !
 ! D163  D(23,24,39,83)       -173.0622         estimate D2E/DX2                !
 ! D164  D(25,24,39,83)        -52.4774         estimate D2E/DX2                !
 ! D165  D(62,24,39,83)         67.682          estimate D2E/DX2                !
 ! D166  D(24,25,26,27)         51.0422         estimate D2E/DX2                !
 ! D167  D(24,25,26,31)        167.4113         estimate D2E/DX2                !
 ! D168  D(24,25,26,64)        -71.1469         estimate D2E/DX2                !
 ! D169  D(38,25,26,27)        171.0978         estimate D2E/DX2                !
 ! D170  D(38,25,26,31)        -72.5331         estimate D2E/DX2                !
 ! D171  D(38,25,26,64)         48.9087         estimate D2E/DX2                !
 ! D172  D(63,25,26,27)        -66.8532         estimate D2E/DX2                !
 ! D173  D(63,25,26,31)         49.5159         estimate D2E/DX2                !
 ! D174  D(63,25,26,64)        170.9577         estimate D2E/DX2                !
 ! D175  D(24,25,38,82)       -172.1798         estimate D2E/DX2                !
 ! D176  D(26,25,38,82)         65.2128         estimate D2E/DX2                !
 ! D177  D(63,25,38,82)        -54.6692         estimate D2E/DX2                !
 ! D178  D(25,26,27,28)        -55.9012         estimate D2E/DX2                !
 ! D179  D(31,26,27,28)       -172.2092         estimate D2E/DX2                !
 ! D180  D(64,26,27,28)         66.5804         estimate D2E/DX2                !
 ! D181  D(25,26,31,32)        165.405          estimate D2E/DX2                !
 ! D182  D(27,26,31,32)        -75.8111         estimate D2E/DX2                !
 ! D183  D(64,26,31,32)         44.5215         estimate D2E/DX2                !
 ! D184  D(26,27,28,23)         59.7789         estimate D2E/DX2                !
 ! D185  D(26,27,28,29)       -177.6567         estimate D2E/DX2                !
 ! D186  D(26,27,28,65)        -60.45           estimate D2E/DX2                !
 ! D187  D(23,28,29,30)         59.4796         estimate D2E/DX2                !
 ! D188  D(23,28,29,66)        177.4808         estimate D2E/DX2                !
 ! D189  D(23,28,29,67)        -63.5862         estimate D2E/DX2                !
 ! D190  D(27,28,29,30)        -60.0466         estimate D2E/DX2                !
 ! D191  D(27,28,29,66)         57.9546         estimate D2E/DX2                !
 ! D192  D(27,28,29,67)        176.8876         estimate D2E/DX2                !
 ! D193  D(65,28,29,30)       -178.8557         estimate D2E/DX2                !
 ! D194  D(65,28,29,66)        -60.8545         estimate D2E/DX2                !
 ! D195  D(65,28,29,67)         58.0785         estimate D2E/DX2                !
 ! D196  D(28,29,30,68)        -81.4468         estimate D2E/DX2                !
 ! D197  D(66,29,30,68)        159.607          estimate D2E/DX2                !
 ! D198  D(67,29,30,68)         41.1046         estimate D2E/DX2                !
 ! D199  D(26,31,32,33)        169.1721         estimate D2E/DX2                !
 ! D200  D(26,31,32,69)         46.6976         estimate D2E/DX2                !
 ! D201  D(26,31,32,70)        -70.7569         estimate D2E/DX2                !
 ! D202  D(31,32,33,34)        -51.3535         estimate D2E/DX2                !
 ! D203  D(31,32,33,71)       -175.444          estimate D2E/DX2                !
 ! D204  D(31,32,33,72)         70.2691         estimate D2E/DX2                !
 ! D205  D(69,32,33,34)         69.6878         estimate D2E/DX2                !
 ! D206  D(69,32,33,71)        -54.4028         estimate D2E/DX2                !
 ! D207  D(69,32,33,72)       -168.6897         estimate D2E/DX2                !
 ! D208  D(70,32,33,34)       -170.888          estimate D2E/DX2                !
 ! D209  D(70,32,33,71)         65.0214         estimate D2E/DX2                !
 ! D210  D(70,32,33,72)        -49.2655         estimate D2E/DX2                !
 ! D211  D(32,33,34,35)        -69.7195         estimate D2E/DX2                !
 ! D212  D(32,33,34,73)        170.2201         estimate D2E/DX2                !
 ! D213  D(32,33,34,74)         57.7506         estimate D2E/DX2                !
 ! D214  D(71,33,34,35)         53.1799         estimate D2E/DX2                !
 ! D215  D(71,33,34,73)        -66.8805         estimate D2E/DX2                !
 ! D216  D(71,33,34,74)       -179.35           estimate D2E/DX2                !
 ! D217  D(72,33,34,35)        168.4649         estimate D2E/DX2                !
 ! D218  D(72,33,34,73)         48.4044         estimate D2E/DX2                !
 ! D219  D(72,33,34,74)        -64.065          estimate D2E/DX2                !
 ! D220  D(33,34,35,36)         72.2301         estimate D2E/DX2                !
 ! D221  D(33,34,35,75)        -50.1504         estimate D2E/DX2                !
 ! D222  D(33,34,35,76)       -164.9848         estimate D2E/DX2                !
 ! D223  D(73,34,35,36)       -167.5874         estimate D2E/DX2                !
 ! D224  D(73,34,35,75)         70.0321         estimate D2E/DX2                !
 ! D225  D(73,34,35,76)        -44.8022         estimate D2E/DX2                !
 ! D226  D(74,34,35,36)        -54.3733         estimate D2E/DX2                !
 ! D227  D(74,34,35,75)       -176.7538         estimate D2E/DX2                !
 ! D228  D(74,34,35,76)         68.4119         estimate D2E/DX2                !
 ! D229  D(34,35,36,37)         56.3546         estimate D2E/DX2                !
 ! D230  D(34,35,36,77)        174.749          estimate D2E/DX2                !
 ! D231  D(34,35,36,78)        -63.6274         estimate D2E/DX2                !
 ! D232  D(75,35,36,37)       -179.996          estimate D2E/DX2                !
 ! D233  D(75,35,36,77)        -61.6016         estimate D2E/DX2                !
 ! D234  D(75,35,36,78)         60.0221         estimate D2E/DX2                !
 ! D235  D(76,35,36,37)        -66.6138         estimate D2E/DX2                !
 ! D236  D(76,35,36,77)         51.7805         estimate D2E/DX2                !
 ! D237  D(76,35,36,78)        173.4042         estimate D2E/DX2                !
 ! D238  D(35,36,37,79)         66.8989         estimate D2E/DX2                !
 ! D239  D(35,36,37,80)        -56.4535         estimate D2E/DX2                !
 ! D240  D(35,36,37,81)       -173.2953         estimate D2E/DX2                !
 ! D241  D(77,36,37,79)        -54.1216         estimate D2E/DX2                !
 ! D242  D(77,36,37,80)       -177.474          estimate D2E/DX2                !
 ! D243  D(77,36,37,81)         65.6842         estimate D2E/DX2                !
 ! D244  D(78,36,37,79)       -169.6155         estimate D2E/DX2                !
 ! D245  D(78,36,37,80)         67.0322         estimate D2E/DX2                !
 ! D246  D(78,36,37,81)        -49.8097         estimate D2E/DX2                !
 --------------------------------------------------------------------------------
 Trust Radius=3.00D-01 FncErr=1.00D-07 GrdErr=1.00D-06
 Number of steps in this run=    504 maximum allowed number of steps=    504.
 GradGradGradGradGradGradGradGradGradGradGradGradGradGradGradGradGradGrad

 Leave Link  103 at Tue Mar 22 17:11:03 2016, MaxMem= 10737418240 cpu:         0.4
 (Enter /share/apps//g09/l202.exe)
 Stoichiometry    C23H44NO16(1+)
 Framework group  C1[X(C23H44NO16)]
 Deg. of freedom   246
 Full point group                 C1      NOp   1
 Largest Abelian subgroup         C1      NOp   1
 Largest concise Abelian subgroup C1      NOp   1
                         Standard orientation:                         
 ---------------------------------------------------------------------
 Center     Atomic      Atomic             Coordinates (Angstroms)
 Number     Number       Type             X           Y           Z
 ---------------------------------------------------------------------
      1          8           0       -1.676566    2.095827   -0.558097
      2          6           0       -2.425302    1.478223    0.458419
      3          6           0       -1.833664    1.778063    1.825971
      4          6           0       -1.674246    3.268621    2.037384
      5          6           0       -0.893511    3.891231    0.890461
      6          6           0       -1.536072    3.494899   -0.427515
      7          6           0       -0.822400    3.958817   -1.692334
      8          8           0        0.258667    3.133186   -2.043812
      9          8           0        0.469180    3.497176    0.979072
     10          8           0       -0.955154    3.543445    3.216557
     11          8           0       -2.637065    1.284222    2.856041
     12          8           0       -2.301395    0.118087    0.247223
     13          6           0       -3.433962   -0.672962   -0.066125
     14          6           0       -3.426859   -1.862726    0.867216
     15          8           0       -3.555032   -1.410670    2.197426
     16          6           0       -2.127162   -2.625640    0.695626
     17          6           0       -1.791423   -2.909502   -0.775722
     18          8           0       -1.997889   -1.780966   -1.608895
     19          6           0       -3.281307   -1.200659   -1.483696
     20          6           0       -3.391746   -0.124366   -2.542835
     21          8           0       -4.622488    0.528811   -2.339124
     22          8           0       -0.479137   -3.329895   -0.964038
     23          6           0        0.547843   -2.511865   -0.449324
     24          6           0        1.386789   -3.306404    0.532975
     25          6           0        2.513804   -2.442389    1.057715
     26          6           0        3.321575   -1.834994   -0.073619
     27          8           0        2.476965   -1.198024   -1.004338
     28          6           0        1.451359   -1.995235   -1.570458
     29          6           0        0.736609   -1.105245   -2.564412
     30          8           0        0.176048    0.040530   -1.942511
     31          8           0        4.123053   -0.856870    0.482744
     32          6           0        5.182473   -0.395498   -0.351419
     33          6           0        5.794305    0.839171    0.274604
     34          6           0        4.834658    1.958549    0.671140
     35          6           0        4.153331    2.747419   -0.445505
     36          6           0        3.062985    2.049905   -1.236888
     37          7           0        1.975004    1.543123   -0.363853
     38          8           0        3.297570   -3.251327    1.892559
     39          8           0        0.583134   -3.738806    1.607148
     40          8           0       -2.220169   -3.817137    1.421663
     41          1           0       -3.477664    1.793965    0.408530
     42          1           0       -0.835368    1.316183    1.837540
     43          1           0       -2.671252    3.726199    2.077395
     44          1           0       -0.951677    4.982627    0.974152
     45          1           0       -2.528877    3.970313   -0.419109
     46          1           0       -0.431391    4.966042   -1.545909
     47          1           0       -1.552675    3.998913   -2.506926
     48          1           0       -0.088387    2.255414   -2.234893
     49          1           0        0.680066    3.561864    1.919423
     50          1           0       -1.342568    3.028494    3.929362
     51          1           0       -2.837168    0.347558    2.700381
     52          1           0       -4.356695   -0.099944    0.038426
     53          1           0       -4.271038   -2.513537    0.608825
     54          1           0       -3.446509   -2.172687    2.773540
     55          1           0       -1.354139   -1.982325    1.121988
     56          1           0       -2.411314   -3.742083   -1.125546
     57          1           0       -4.060760   -1.951876   -1.666068
     58          1           0       -2.552870    0.573661   -2.443551
     59          1           0       -3.333787   -0.597709   -3.527155
     60          1           0       -4.872965    0.997946   -3.134194
     61          1           0        0.137115   -1.636842    0.061808
     62          1           0        1.807973   -4.174794    0.008815
     63          1           0        2.067538   -1.610453    1.621984
     64          1           0        3.922423   -2.608335   -0.577427
     65          1           0        1.878053   -2.848776   -2.115264
     66          1           0        1.461072   -0.749053   -3.297202
     67          1           0       -0.034648   -1.676770   -3.079244
     68          1           0       -0.667793   -0.222060   -1.545023
     69          1           0        4.795922   -0.193879   -1.352535
     70          1           0        5.937562   -1.183224   -0.441783
     71          1           0        6.547476    1.222877   -0.419552
     72          1           0        6.335884    0.531637    1.172371
     73          1           0        5.410710    2.678114    1.256480
     74          1           0        4.095087    1.561716    1.374068
     75          1           0        4.904523    3.084135   -1.164935
     76          1           0        3.727604    3.658072   -0.013690
     77          1           0        2.594821    2.739151   -1.935829
     78          1           0        3.434763    1.193539   -1.793363
     79          1           0        1.439997    2.311324    0.081596
     80          1           0        2.367824    0.921745    0.340031
     81          1           0        1.302748    0.975558   -0.913418
     82          1           0        3.949487   -2.707336    2.338717
     83          1           0        1.164872   -4.140452    2.258738
     84          1           0       -1.315248   -4.111962    1.588521
 ---------------------------------------------------------------------
 Rotational constants (GHZ):      0.1045844      0.0866955      0.0641261
 Leave Link  202 at Tue Mar 22 17:11:03 2016, MaxMem= 10737418240 cpu:         0.6
 (Enter /share/apps//g09/l301.exe)
 Standard basis: 6-311+G(d,p) (5D, 7F)
 Ernie: Thresh=  0.10000D-02 Tol=  0.10000D-05 Strict=F.
 There are  1184 symmetry adapted cartesian basis functions of A   symmetry.
 There are  1144 symmetry adapted basis functions of A   symmetry.
  1144 basis functions,  1792 primitive gaussians,  1184 cartesian basis functions
   158 alpha electrons      158 beta electrons
       nuclear repulsion energy      6047.6987575317 Hartrees.
 IExCor= 1009 DFT=T Ex+Corr=PBE1PBE ExCW=0 ScaHFX=  0.250000
 ScaDFX=  0.750000  0.750000  1.000000  1.000000 ScalE2=  1.000000  1.000000
 IRadAn=      0 IRanWt=     -1 IRanGd=            0 ICorTp=0 IEmpDi=131
 NAtoms=   84 NActive=   84 NUniq=   84 SFac= 1.00D+00 NAtFMM=   60 NAOKFM=T Big=T
 Integral buffers will be    131072 words long.
 Raffenetti 2 integral format.
 Two-electron integral symmetry is turned on.
 R6Disp:  Grimme-D3 Dispersion energy=       -0.0879506427 Hartrees.
 Nuclear repulsion after empirical dispersion term =     6047.6108068889 Hartrees.
 Leave Link  301 at Tue Mar 22 17:11:03 2016, MaxMem= 10737418240 cpu:         2.5
 (Enter /share/apps//g09/l302.exe)
 NPDir=0 NMtPBC=     1 NCelOv=     1 NCel=       1 NClECP=     1 NCelD=      1
         NCelK=      1 NCelE2=     1 NClLst=     1 CellRange=     0.0.
 One-electron integrals computed using PRISM.
 NBasis=  1144 RedAO= T EigKep=  1.61D-06  NBF=  1144
 NBsUse=  1144 1.00D-06 EigRej= -1.00D+00 NBFU=  1144
 Precomputing XC quadrature grid using
 IXCGrd= 4 IRadAn=           0 IRanWt=          -1 IRanGd=           0 AccXCQ= 0.00D+00.
 Generated NRdTot=       0 NPtTot=           0 NUsed=           0 NTot=          32
 NSgBfM=  1130  1130  1130  1130  1130 MxSgAt=    84 MxSgA2=    84.
 Leave Link  302 at Tue Mar 22 17:11:07 2016, MaxMem= 10737418240 cpu:        51.9
 (Enter /share/apps//g09/l303.exe)
 DipDrv:  MaxL=1.
 Leave Link  303 at Tue Mar 22 17:11:10 2016, MaxMem= 10737418240 cpu:        37.5
 (Enter /share/apps//g09/l401.exe)
 ExpMin= 4.38D-02 ExpMax= 8.59D+03 ExpMxC= 1.30D+03 IAcc=2 IRadAn=         4 AccDes= 0.00D+00
 Harris functional with IExCor= 1009 and IRadAn=       4 diagonalized for initial guess.
 HarFok:  IExCor= 1009 AccDes= 0.00D+00 IRadAn=         4 IDoV= 1 UseB2=F ITyADJ=14
 ICtDFT=  3500011 ScaDFX=  1.000000  1.000000  1.000000  1.000000
 FoFCou: FMM=F IPFlag=           0 FMFlag=      100000 FMFlg1=        2001
         NFxFlg=           0 DoJE=T BraDBF=F KetDBF=T FulRan=T
         wScrn=  0.000000 ICntrl=     500 IOpCl=  0 I1Cent=   200000004 NGrid=           0
         NMat0=    1 NMatS0=      1 NMatT0=    0 NMatD0=    1 NMtDS0=    0 NMtDT0=    0
 Petite list used in FoFCou.
 Harris En= -2159.74568989869    
 JPrj=0 DoOrth=F DoCkMO=F.
 Leave Link  401 at Tue Mar 22 17:11:16 2016, MaxMem= 10737418240 cpu:       118.1
 (Enter /share/apps//g09/l502.exe)
 Closed shell SCF:
 Using DIIS extrapolation, IDIIS=  1040.
 Integral symmetry usage will be decided dynamically.
 IVT=     4256630 IEndB=     4256630 NGot= 10737418240 MDV= 10734581291
 LenX= 10734581291 LenY= 10733178251
 Requested convergence on RMS density matrix=1.00D-08 within 128 cycles.
 Requested convergence on MAX density matrix=1.00D-06.
 Requested convergence on             energy=1.00D-06.
 No special actions if energy rises.
 Fock matrices will be formed incrementally for  20 cycles.

 Cycle   1  Pass 1  IDiag  1:
 FoFJK:  IHMeth= 1 ICntrl=       0 DoSepK=F KAlg= 0 I1Cent=   0 FoldK=F
 IRaf= 810000000 NMat=   1 IRICut=       1 DoRegI=T DoRafI=F ISym2E= 0.
 FoFCou: FMM=T IPFlag=           0 FMFlag=      100000 FMFlg1=        2001
         NFxFlg=           0 DoJE=F BraDBF=F KetDBF=F FulRan=T
         wScrn=  0.000000 ICntrl=       0 IOpCl=  0 I1Cent=           0 NGrid=           0
         NMat0=    1 NMatS0=      1 NMatT0=    0 NMatD0=    1 NMtDS0=    0 NMtDT0=    0
 Symmetry not used in FoFCou.
 FMM levels:  10  Number of levels for PrismC:   9
 E= -2158.68031841221    
 DIIS: error= 1.31D-02 at cycle   1 NSaved=   1.
 NSaved= 1 IEnMin= 1 EnMin= -2158.68031841221     IErMin= 1 ErrMin= 1.31D-02
 ErrMax= 1.31D-02  0.00D+00 EMaxC= 1.00D-01 BMatC= 1.07D+00 BMatP= 1.07D+00
 IDIUse=3 WtCom= 8.69D-01 WtEn= 1.31D-01
 Coeff-Com:  0.100D+01
 Coeff-En:   0.100D+01
 Coeff:      0.100D+01
 Gap=     0.259 Goal=   None    Shift=    0.000
 GapD=    0.259 DampG=1.000 DampE=0.500 DampFc=0.5000 IDamp=-1.
 Damping current iteration by 5.00D-01
 RMSDP=1.15D-02 MaxDP=2.09D+00              OVMax= 1.40D-01

 Cycle   2  Pass 1  IDiag  1:
 RMSU=  5.52D-03    CP:  9.63D-01
 E= -2158.98266474677     Delta-E=       -0.302346334563 Rises=F Damp=T
 DIIS: error= 2.98D-03 at cycle   2 NSaved=   2.
 NSaved= 2 IEnMin= 2 EnMin= -2158.98266474677     IErMin= 2 ErrMin= 2.98D-03
 ErrMax= 2.98D-03  0.00D+00 EMaxC= 1.00D-01 BMatC= 8.03D-02 BMatP= 1.07D+00
 IDIUse=3 WtCom= 9.70D-01 WtEn= 2.98D-02
 Coeff-Com:  0.518D-01 0.948D+00
 Coeff-En:   0.142D+00 0.858D+00
 Coeff:      0.545D-01 0.945D+00
 Gap=     0.281 Goal=   None    Shift=    0.000
 RMSDP=4.23D-03 MaxDP=1.14D+00 DE=-3.02D-01 OVMax= 8.58D-02

 Cycle   3  Pass 1  IDiag  1:
 RMSU=  2.83D-03    CP:  8.87D-01  9.24D-01
 E= -2159.36845326836     Delta-E=       -0.385788521588 Rises=F Damp=F
 DIIS: error= 3.37D-03 at cycle   3 NSaved=   3.
 NSaved= 3 IEnMin= 3 EnMin= -2159.36845326836     IErMin= 2 ErrMin= 2.98D-03
 ErrMax= 3.37D-03  0.00D+00 EMaxC= 1.00D-01 BMatC= 4.30D-02 BMatP= 8.03D-02
 IDIUse=3 WtCom= 9.66D-01 WtEn= 3.37D-02
 Coeff-Com: -0.674D-01 0.404D+00 0.663D+00
 Coeff-En:   0.000D+00 0.000D+00 0.100D+01
 Coeff:     -0.651D-01 0.390D+00 0.675D+00
 Gap=     0.273 Goal=   None    Shift=    0.000
 RMSDP=1.45D-03 MaxDP=3.63D-01 DE=-3.86D-01 OVMax= 1.73D-02

 Cycle   4  Pass 1  IDiag  1:
 RMSU=  1.20D-03    CP:  9.00D-01  1.03D+00  9.19D-01
 E= -2159.39493043510     Delta-E=       -0.026477166743 Rises=F Damp=F
 DIIS: error= 1.03D-03 at cycle   4 NSaved=   4.
 NSaved= 4 IEnMin= 4 EnMin= -2159.39493043510     IErMin= 4 ErrMin= 1.03D-03
 ErrMax= 1.03D-03  0.00D+00 EMaxC= 1.00D-01 BMatC= 5.61D-03 BMatP= 4.30D-02
 IDIUse=3 WtCom= 9.90D-01 WtEn= 1.03D-02
 Coeff-Com: -0.355D-01 0.121D+00 0.339D+00 0.575D+00
 Coeff-En:   0.000D+00 0.000D+00 0.673D-01 0.933D+00
 Coeff:     -0.352D-01 0.120D+00 0.337D+00 0.579D+00
 Gap=     0.263 Goal=   None    Shift=    0.000
 RMSDP=1.18D-03 MaxDP=4.04D-01 DE=-2.65D-02 OVMax= 5.47D-03

 Cycle   5  Pass 1  IDiag  1:
 RMSU=  3.32D-04    CP:  8.76D-01  9.99D-01  8.92D-01  5.24D-01
 E= -2159.39963697014     Delta-E=       -0.004706535041 Rises=F Damp=F
 DIIS: error= 3.24D-04 at cycle   5 NSaved=   5.
 NSaved= 5 IEnMin= 5 EnMin= -2159.39963697014     IErMin= 5 ErrMin= 3.24D-04
 ErrMax= 3.24D-04  0.00D+00 EMaxC= 1.00D-01 BMatC= 2.56D-04 BMatP= 5.61D-03
 IDIUse=3 WtCom= 9.97D-01 WtEn= 3.24D-03
 Coeff-Com: -0.112D-01 0.262D-01 0.102D+00 0.252D+00 0.631D+00
 Coeff-En:   0.000D+00 0.000D+00 0.000D+00 0.000D+00 0.100D+01
 Coeff:     -0.112D-01 0.262D-01 0.101D+00 0.251D+00 0.633D+00
 Gap=     0.263 Goal=   None    Shift=    0.000
 RMSDP=1.81D-04 MaxDP=4.53D-02 DE=-4.71D-03 OVMax= 1.46D-03

 Cycle   6  Pass 1  IDiag  1:
 RMSU=  8.32D-05    CP:  8.79D-01  1.01D+00  9.07D-01  5.63D-01  7.42D-01
 E= -2159.39982257670     Delta-E=       -0.000185606556 Rises=F Damp=F
 DIIS: error= 1.03D-04 at cycle   6 NSaved=   6.
 NSaved= 6 IEnMin= 6 EnMin= -2159.39982257670     IErMin= 6 ErrMin= 1.03D-04
 ErrMax= 1.03D-04  0.00D+00 EMaxC= 1.00D-01 BMatC= 2.63D-05 BMatP= 2.56D-04
 IDIUse=3 WtCom= 9.99D-01 WtEn= 1.03D-03
 Coeff-Com: -0.398D-02 0.723D-02 0.353D-01 0.102D+00 0.332D+00 0.527D+00
 Coeff-En:   0.000D+00 0.000D+00 0.000D+00 0.000D+00 0.000D+00 0.100D+01
 Coeff:     -0.397D-02 0.722D-02 0.353D-01 0.102D+00 0.332D+00 0.528D+00
 Gap=     0.263 Goal=   None    Shift=    0.000
 RMSDP=3.88D-05 MaxDP=8.00D-03 DE=-1.86D-04 OVMax= 5.42D-04

 Cycle   7  Pass 1  IDiag  1:
 RMSU=  1.84D-05    CP:  8.79D-01  1.01D+00  9.08D-01  5.71D-01  7.60D-01
                    CP:  6.84D-01
 E= -2159.39984126735     Delta-E=       -0.000018690653 Rises=F Damp=F
 DIIS: error= 2.76D-05 at cycle   7 NSaved=   7.
 NSaved= 7 IEnMin= 7 EnMin= -2159.39984126735     IErMin= 7 ErrMin= 2.76D-05
 ErrMax= 2.76D-05  0.00D+00 EMaxC= 1.00D-01 BMatC= 1.85D-06 BMatP= 2.63D-05
 IDIUse=1 WtCom= 1.00D+00 WtEn= 0.00D+00
 Coeff-Com: -0.103D-02 0.148D-02 0.958D-02 0.318D-01 0.118D+00 0.268D+00
 Coeff-Com:  0.573D+00
 Coeff:     -0.103D-02 0.148D-02 0.958D-02 0.318D-01 0.118D+00 0.268D+00
 Coeff:      0.573D+00
 Gap=     0.263 Goal=   None    Shift=    0.000
 RMSDP=8.65D-06 MaxDP=1.66D-03 DE=-1.87D-05 OVMax= 1.52D-04

 Cycle   8  Pass 1  IDiag  1:
 RMSU=  7.11D-06    CP:  8.79D-01  1.01D+00  9.08D-01  5.73D-01  7.63D-01
                    CP:  6.80D-01  7.97D-01
 E= -2159.39984245843     Delta-E=       -0.000001191078 Rises=F Damp=F
 DIIS: error= 5.05D-06 at cycle   8 NSaved=   8.
 NSaved= 8 IEnMin= 8 EnMin= -2159.39984245843     IErMin= 8 ErrMin= 5.05D-06
 ErrMax= 5.05D-06  0.00D+00 EMaxC= 1.00D-01 BMatC= 1.43D-07 BMatP= 1.85D-06
 IDIUse=1 WtCom= 1.00D+00 WtEn= 0.00D+00
 Coeff-Com:  0.472D-05-0.197D-03 0.197D-03 0.245D-02 0.126D-01 0.551D-01
 Coeff-Com:  0.258D+00 0.672D+00
 Coeff:      0.472D-05-0.197D-03 0.197D-03 0.245D-02 0.126D-01 0.551D-01
 Coeff:      0.258D+00 0.672D+00
 Gap=     0.263 Goal=   None    Shift=    0.000
 RMSDP=3.53D-06 MaxDP=1.07D-03 DE=-1.19D-06 OVMax= 3.59D-05

 Cycle   9  Pass 1  IDiag  1:
 RMSU=  2.15D-06    CP:  8.79D-01  1.01D+00  9.08D-01  5.72D-01  7.65D-01
                    CP:  6.86D-01  8.28D-01  8.95D-01
 E= -2159.39984256372     Delta-E=       -0.000000105294 Rises=F Damp=F
 DIIS: error= 1.42D-06 at cycle   9 NSaved=   9.
 NSaved= 9 IEnMin= 9 EnMin= -2159.39984256372     IErMin= 9 ErrMin= 1.42D-06
 ErrMax= 1.42D-06  0.00D+00 EMaxC= 1.00D-01 BMatC= 9.78D-09 BMatP= 1.43D-07
 IDIUse=1 WtCom= 1.00D+00 WtEn= 0.00D+00
 Coeff-Com:  0.638D-04-0.170D-03-0.526D-03-0.921D-03-0.223D-02 0.537D-02
 Coeff-Com:  0.731D-01 0.291D+00 0.635D+00
 Coeff:      0.638D-04-0.170D-03-0.526D-03-0.921D-03-0.223D-02 0.537D-02
 Coeff:      0.731D-01 0.291D+00 0.635D+00
 Gap=     0.263 Goal=   None    Shift=    0.000
 RMSDP=9.75D-07 MaxDP=2.74D-04 DE=-1.05D-07 OVMax= 9.81D-06

 Cycle  10  Pass 1  IDiag  1:
 RMSU=  6.04D-07    CP:  8.79D-01  1.01D+00  9.08D-01  5.72D-01  7.65D-01
                    CP:  6.91D-01  8.30D-01  9.04D-01  7.90D-01
 E= -2159.39984257127     Delta-E=       -0.000000007545 Rises=F Damp=F
 DIIS: error= 5.30D-07 at cycle  10 NSaved=  10.
 NSaved=10 IEnMin=10 EnMin= -2159.39984257127     IErMin=10 ErrMin= 5.30D-07
 ErrMax= 5.30D-07  0.00D+00 EMaxC= 1.00D-01 BMatC= 1.33D-09 BMatP= 9.78D-09
 IDIUse=1 WtCom= 1.00D+00 WtEn= 0.00D+00
 Coeff-Com:  0.288D-04-0.664D-04-0.274D-03-0.610D-03-0.195D-02-0.123D-02
 Coeff-Com:  0.188D-01 0.968D-01 0.330D+00 0.558D+00
 Coeff:      0.288D-04-0.664D-04-0.274D-03-0.610D-03-0.195D-02-0.123D-02
 Coeff:      0.188D-01 0.968D-01 0.330D+00 0.558D+00
 Gap=     0.263 Goal=   None    Shift=    0.000
 RMSDP=3.86D-07 MaxDP=9.48D-05 DE=-7.55D-09 OVMax= 3.29D-06

 Cycle  11  Pass 1  IDiag  1:
 RMSU=  1.44D-07    CP:  8.79D-01  1.01D+00  9.08D-01  5.72D-01  7.65D-01
                    CP:  6.89D-01  8.37D-01  9.11D-01  8.02D-01  6.84D-01
 E= -2159.39984257216     Delta-E=       -0.000000000895 Rises=F Damp=F
 DIIS: error= 1.34D-07 at cycle  11 NSaved=  11.
 NSaved=11 IEnMin=11 EnMin= -2159.39984257216     IErMin=11 ErrMin= 1.34D-07
 ErrMax= 1.34D-07  0.00D+00 EMaxC= 1.00D-01 BMatC= 8.91D-11 BMatP= 1.33D-09
 IDIUse=1 WtCom= 1.00D+00 WtEn= 0.00D+00
 Coeff-Com:  0.740D-05-0.160D-04-0.861D-04-0.202D-03-0.700D-03-0.989D-03
 Coeff-Com:  0.284D-02 0.211D-01 0.104D+00 0.264D+00 0.611D+00
 Coeff:      0.740D-05-0.160D-04-0.861D-04-0.202D-03-0.700D-03-0.989D-03
 Coeff:      0.284D-02 0.211D-01 0.104D+00 0.264D+00 0.611D+00
 Gap=     0.263 Goal=   None    Shift=    0.000
 RMSDP=6.43D-08 MaxDP=1.73D-05 DE=-8.95D-10 OVMax= 7.65D-07

 Cycle  12  Pass 1  IDiag  1:
 RMSU=  4.11D-08    CP:  8.79D-01  1.01D+00  9.08D-01  5.72D-01  7.65D-01
                    CP:  6.89D-01  8.37D-01  9.12D-01  8.13D-01  7.04D-01
                    CP:  7.68D-01
 E= -2159.39984257229     Delta-E=       -0.000000000131 Rises=F Damp=F
 DIIS: error= 3.61D-08 at cycle  12 NSaved=  12.
 NSaved=12 IEnMin=12 EnMin= -2159.39984257229     IErMin=12 ErrMin= 3.61D-08
 ErrMax= 3.61D-08  0.00D+00 EMaxC= 1.00D-01 BMatC= 7.13D-12 BMatP= 8.91D-11
 IDIUse=1 WtCom= 1.00D+00 WtEn= 0.00D+00
 Coeff-Com:  0.228D-06-0.227D-06-0.117D-04-0.295D-04-0.119D-03-0.313D-03
 Coeff-Com: -0.730D-03-0.838D-03 0.115D-01 0.598D-01 0.268D+00 0.663D+00
 Coeff:      0.228D-06-0.227D-06-0.117D-04-0.295D-04-0.119D-03-0.313D-03
 Coeff:     -0.730D-03-0.838D-03 0.115D-01 0.598D-01 0.268D+00 0.663D+00
 Gap=     0.263 Goal=   None    Shift=    0.000
 RMSDP=1.93D-08 MaxDP=4.20D-06 DE=-1.31D-10 OVMax= 2.11D-07

 Cycle  13  Pass 1  IDiag  1:
 RMSU=  1.27D-08    CP:  8.79D-01  1.01D+00  9.08D-01  5.72D-01  7.65D-01
                    CP:  6.89D-01  8.37D-01  9.13D-01  8.14D-01  7.14D-01
                    CP:  7.48D-01  9.34D-01
 E= -2159.39984257234     Delta-E=       -0.000000000051 Rises=F Damp=F
 DIIS: error= 1.13D-08 at cycle  13 NSaved=  13.
 NSaved=13 IEnMin=13 EnMin= -2159.39984257234     IErMin=13 ErrMin= 1.13D-08
 ErrMax= 1.13D-08  0.00D+00 EMaxC= 1.00D-01 BMatC= 5.32D-13 BMatP= 7.13D-12
 IDIUse=1 WtCom= 1.00D+00 WtEn= 0.00D+00
 Coeff-Com: -0.344D-06 0.860D-06 0.116D-06-0.214D-06-0.750D-05-0.648D-04
 Coeff-Com: -0.479D-03-0.166D-02-0.178D-02 0.848D-02 0.755D-01 0.293D+00
 Coeff-Com:  0.627D+00
 Coeff:     -0.344D-06 0.860D-06 0.116D-06-0.214D-06-0.750D-05-0.648D-04
 Coeff:     -0.479D-03-0.166D-02-0.178D-02 0.848D-02 0.755D-01 0.293D+00
 Coeff:      0.627D+00
 Gap=     0.263 Goal=   None    Shift=    0.000
 RMSDP=6.18D-09 MaxDP=1.52D-06 DE=-5.09D-11 OVMax= 8.60D-08

 Cycle  14  Pass 1  IDiag  1:
[...]
 182,-0.00003514,-0.00000133,-0.00000036,-0.00002079,0.00000627,0.00001
 495,0.00001425,-0.00005470,-0.00001802,0.00006337,0.00122810,-0.001094
 87,0.00079239,-0.05815702,0.00691477,0.09961215,-0.00202587,0.00000103
 ,0.00039585,-0.00000701,-0.00000050,0.00000716,-0.00001355,-0.00000597
 ,0.00001216,-0.00000434,-0.00000422,0.00000259,-0.00000860,-0.00000297
 ,0.00000802,-0.00000570,0.00000223,0.00000304,0.00000006,-0.00000145,-
 0.00000258,-0.00000768,-0.00000165,0.00000813,0.00001344,-0.00001475,-
 0.00001073,0.00003038,0.00001699,-0.00000725,0.00002011,0.00000012,0.0
 0001443,0.00003434,-0.00001146,0.00006036,-0.00000292,-0.00000350,0.00
 000689,-0.00004614,-0.00006727,0.00005506,0.00000590,0.00004505,0.0001
 5240,-0.00001622,0.00033715,-0.00015815,0.00001769,0.00003535,0.000029
 23,-0.00000380,0.00000487,-0.00000038,-0.00000452,0.00000124,-0.000000
 10,-0.00000015,0.00000010,-0.00000144,0.00000553,-0.00000475,-0.000002
 37,0.00001739,0.00016159,0.00024598,-0.00006566,-0.00090010,-0.0000893
 7,-0.00010066,-0.00004652,0.00045489,-0.00001424,-0.00005482,0.0000209
 4,0.00001168,0.00003540,0.00002148,-0.00000765,0.00001693,-0.00026974,
 -0.00000686,-0.00001003,0.00005729,0.00000841,0.00000214,0.00000655,0.
 00007518,0.00002058,0.00004776,0.00001322,-0.00000106,-0.00000183,0.00
 002351,-0.00003069,0.00001346,-0.00002741,0.00000650,0.00000965,0.0000
 0792,-0.00001988,0.00001607,0.00000877,0.00003233,-0.00000622,0.000003
 67,0.00000888,0.00000309,-0.00000575,-0.00001058,0.00001453,0.00000813
 ,-0.00000831,0.00000042,-0.00000470,-0.00001242,-0.00003682,0.00007134
 ,0.00008264,-0.00004561,0.00000046,0.00007784,-0.00012648,0.00008234,-
 0.00008390,-0.00009960,0.00082815,0.00033753,0.00130490,0.06201998,0.0
 0003020,-0.00007585,-0.00001303,-0.00003783,0.00020021,-0.00002307,-0.
 00001539,-0.00003142,0.00007778,0.00000442,0.00003850,0.00003632,-0.00
 003211,-0.00000495,0.00004899,-0.00001890,0.00004120,0.00000781,0.0000
 0449,-0.00000615,0.00001622,0.00000544,-0.00001985,-0.00002976,0.00002
 738,0.00000617,-0.00007387,0.00001291,-0.00002423,-0.00009482,0.000029
 57,-0.00004918,-0.00012524,0.00007867,-0.00022496,0.00003742,-0.000122
 43,0.00006637,-0.00002739,0.00007736,0.00034092,0.00013178,-0.00002234
 ,-0.00022531,-0.00012050,-0.00029776,-0.00027743,0.00030326,-0.0001268
 4,-0.00004513,-0.00008457,0.00002983,-0.00007225,0.00019728,0.00005918
 ,0.00003991,-0.00006015,-0.00001233,0.00002215,-0.00001924,0.00000111,
 -0.00003388,0.00002745,-0.00034818,0.00002430,-0.00011510,-0.00007880,
 -0.00096289,0.00025134,-0.00024740,-0.00135108,-0.00965402,0.00105123,
 0.00175771,0.00271671,0.00020971,0.00021064,0.00053518,0.00005920,-0.0
 0034299,-0.00063178,-0.00029576,0.00085495,-0.00009142,-0.00001955,0.0
 0003432,-0.00007928,0.00005930,-0.00012747,0.00004308,-0.00029455,-0.0
 0014062,-0.00022003,0.00018762,0.00002041,0.00004744,-0.00002273,-0.00
 000470,-0.00000326,0.00003494,0.00000117,0.00002014,-0.00000862,-0.000
 00309,0.00001558,0.00001379,0.00000305,-0.00001606,0.00001539,-0.00003
 596,-0.00002681,-0.00178500,-0.00135900,-0.00110790,0.00026818,-0.0140
 8077,-0.05730410,0.00055335,-0.00028848,0.00011211,0.00000366,-0.00001
 506,-0.00000195,0.00002947,0.00001370,0.00000566,0.00000796,0.00000373
 ,-0.00001190,0.00000433,0.00000215,-0.00000938,0.00000346,-0.00000375,
 -0.00000022,0.00000208,-0.00000048,0.00000483,0.00000039,-0.00000318,-
 0.00000951,-0.00000595,0.00003034,0.00000306,0.00000617,-0.00001167,0.
 00003997,-0.00001566,-0.00001843,0.00005012,-0.00006012,0.00009498,0.0
 0008162,0.00001661,-0.00001979,0.00001490,-0.00004069,-0.00005370,0.00
 002354,-0.00002934,0.00010316,0.00007543,0.00005142,0.00027964,-0.0001
 1096,0.00004508,0.00001479,-0.00002025,-0.00000115,-0.00001063,-0.0000
 0521,0.00000462,0.00000077,0.00000147,-0.00000054,-0.00000433,-0.00000
 297,-0.00000498,0.00000981,-0.00000114,-0.00004781,0.00006614,-0.00005
 958,-0.00003437,-0.00009800,-0.00092996,0.00030559,-0.00053991,0.00022
 060,-0.00021914,-0.00005088,-0.00008296,0.00006537,-0.00006951,0.00001
 257,0.00000339,-0.00000845,0.00002052,-0.00000076,0.00000060,-0.000031
 81,-0.00004067,0.00003910,-0.00002542,-0.00003622,-0.00001004,-0.00002
 969,-0.00001911,-0.00000030,0.00001075,-0.00001669,0.00000944,-0.00000
 805,0.00001874,-0.00000264,-0.00000978,-0.00000096,0.00000369,-0.00000
 477,-0.00001815,-0.00001015,0.00000731,-0.00000550,-0.00000446,-0.0000
 0706,0.00000442,0.00000086,-0.00000297,-0.00000659,0.00000394,-0.00000
 134,-0.00000494,0.00000319,0.00001845,-0.00000991,-0.00000887,0.000031
 51,0.00003792,-0.00000830,0.00008311,-0.00006869,0.00009833,0.00005944
 ,0.00040540,-0.00030452,0.00008337,0.00068276,0.01631996,0.00005969,-0
 .00007603,0.00006892,-0.00005857,0.00013859,-0.00008680,0.00006022,0.0
 0000914,-0.00002721,-0.00001624,0.00006257,0.00002072,0.00000385,0.000
 00171,-0.00001830,-0.00002359,0.00006846,-0.00003554,0.00001466,0.0000
 1655,-0.00002912,0.00000224,-0.00003672,0.00005012,-0.00000223,-0.0000
 4811,0.00002255,-0.00000209,-0.00007764,-0.00002820,-0.00002240,-0.000
 06291,0.00001466,0.00001349,-0.00014056,0.00009417,-0.00006002,0.00001
 075,-0.00001837,0.00013677,0.00012298,-0.00001382,-0.00014423,-0.00012
 660,0.00003652,-0.00007861,0.00001444,-0.00005928,0.00032987,0.0001126
 8,-0.00045391,-0.00007690,-0.00009773,0.00034795,0.00013833,0.00003905
 ,-0.00009821,0.00000797,0.00000939,-0.00006832,-0.00003996,-0.00002235
 ,0.00009408,-0.00024575,0.00035463,0.00096910,-0.00314390,-0.00125039,
 -0.00021939,0.00022965,-0.00145383,-0.01779550,0.00112052,0.00065266,0
 .00259788,-0.00028999,-0.00018254,-0.00134219,-0.00002108,-0.00004698,
 -0.00007559,0.00039865,0.00003497,-0.00059337,-0.00024597,-0.00007695,
 -0.00003885,0.00007176,-0.00004255,0.00013081,0.00092601,-0.00031823,0
 .00014149,-0.00025344,-0.00014155,0.00003524,0.00005728,0.00003895,0.0
 0003898,-0.00000195,-0.00001114,-0.00001931,-0.00000106,0.00001105,0.0
 0000266,-0.00006343,0.00000857,-0.00001068,0.00004495,-0.00005746,0.00
 000560,-0.00003576,0.00021888,-0.00104419,0.05237765,-0.06529817,-0.49
 932298,-0.00066254,-0.00008756,0.00060278,-0.00000375,-0.00000740,0.00
 001464,-0.00002971,0.00000771,0.00000909,0.00000141,-0.00000885,0.0000
 0308,0.00000397,-0.00000818,0.00000607,-0.00000684,-0.00000796,0.00000
 602,0.00000424,-0.00000654,0.00000080,-0.00000704,0.00000264,0.0000035
 0,-0.00001384,0.00002876,-0.00003917,-0.00000795,0.00002736,0.00000369
 ,0.00000775,0.00003850,0.00001219,0.00001393,0.00006984,-0.00002232,0.
 00000832,-0.00002238,0.00001251,-0.00002961,-0.00000307,0.00001849,0.0
 0011854,0.00004796,0.00000506,0.00005790,0.00002740,-0.00015944,-0.000
 03163,0.00000846,0.00003455,-0.00001822,-0.00000195,0.00000355,-0.0000
 0463,0.00000453,0.00000295,-0.00000047,0.00000073,0.00000329,0.0000074
 1,-0.00000215,-0.00001859,0.00002007,-0.00004953,0.00031629,0.00149141
 ,0.00030658,0.00093184,-0.00023529,0.00035760,-0.00030160,0.00012915,0
 .00002731,0.00008753,-0.00004370,-0.00005066,-0.00002903,0.00004640,-0
 .00000373,-0.00004255,-0.00001447,-0.00000860,-0.00000519,-0.00001786,
 0.00003380,-0.00007728,0.00002602,0.00001160,0.00000237,0.00003055,0.0
 0002219,0.00000305,0.00001852,-0.00003214,0.00000137,-0.00000189,-0.00
 001384,-0.00001215,0.00001124,-0.00001434,0.00000595,0.00000318,0.0000
 2298,0.00000964,0.00000780,-0.00000012,-0.00000390,-0.00000441,-0.0000
 0499,-0.00000057,0.00000792,-0.00000275,0.00000028,-0.00000787,-0.0000
 0297,-0.00000986,0.00002225,0.00005188,-0.00001795,-0.00004289,0.00006
 776,-0.00003266,-0.00003720,0.00006425,-0.00002396,-0.00009688,0.00004
 788,-0.00010645,-0.05355871,0.06686015,0.51662283,-0.00039666,0.000152
 02,-0.00016322,0.00041900,-0.00051951,0.00030503,0.00027453,0.00005123
 ,-0.00002249,0.00000966,-0.00008046,0.00000539,0.00015126,0.00003276,-
 0.00011570,0.00003753,-0.00014604,0.00004713,0.00012727,0.00012272,-0.
 00007394,-0.00014185,-0.00013049,0.00013258,-0.00023313,-0.00008847,0.
 00014090,-0.00008762,0.00008241,0.00004812,-0.00033006,0.00022485,-0.0
 0009061,-0.00050618,0.00057658,-0.00021416,0.00166331,0.00025936,-0.00
 049761,-0.00293767,0.00099516,-0.00324685,0.00028524,0.00044228,-0.000
 03245,0.01492508,0.00185634,-0.01872203,0.00336901,0.00227385,-0.00385
 232,-0.00183875,-0.00071410,-0.00073080,0.00011731,0.00024401,0.000347
 62,0.00004478,-0.00009790,0.00006930,-0.00006814,-0.00000331,-0.000091
 74,-0.00163357,0.00000279,0.00244888,-0.00008867,0.00023632,-0.0013865
 4,-0.00548493,-0.00233803,-0.00456630,0.00123659,0.00093938,0.00084566
 ,-0.00062713,-0.00015508,-0.00113148,0.00007855,-0.00000697,0.00050772
 ,-0.00044966,-0.00010082,0.00034320,0.00044326,0.00029823,-0.00037261,
 -0.00039947,-0.00029914,0.00045917,0.00107453,-0.00040544,0.00036368,-
 0.00048507,-0.00009618,-0.00007570,0.00005822,0.00005455,0.00002631,0.
 00000561,-0.00000417,-0.00004517,-0.00000902,0.00000789,-0.00001588,-0
 .00000378,0.00003085,0.00000140,-0.00005061,-0.00013014,0.00008244,0.0
 0067422,-0.00027495,-0.00015210,0.00204360,-0.00015762,0.00041257,-0.2
 5609452,-0.02161040,0.24796275,-0.00003500,0.00001799,0.00000818,-0.00
 004969,-0.00002072,0.00003036,-0.00001385,-0.00001125,0.00001068,-0.00
 003201,0.00000357,0.00001703,-0.00001120,0.00000811,0.00000370,-0.0000
 1842,-0.00000946,-0.00000212,-0.00001772,-0.00000754,0.00002348,0.0000
 6074,0.00007609,-0.00007929,0.00006326,0.00001614,-0.00001791,0.000040
 44,-0.00003667,-0.00001595,0.00020883,-0.00036957,0.00006709,-0.000282
 96,0.00019539,-0.00036299,0.00000289,-0.00025599,0.00002958,-0.0005461
 8,-0.00010278,0.00041010,-0.00057535,0.00194557,-0.00132225,-0.0000744
 2,0.00011058,0.00026347,-0.00004070,0.00002869,0.00004268,-0.00001629,
 0.00004124,-0.00002066,-0.00001348,-0.00001400,-0.00006154,-0.00000657
 ,-0.00002594,0.00002384,0.00015857,-0.00005426,-0.00002088,0.00082429,
 0.00033296,0.00032736,-0.00010610,-0.00001452,0.00002232,0.00005103,-0
 .00003363,0.00006470,-0.00003548,-0.00003041,-0.00002156,-0.00001101,-
 0.00004950,0.00013264,0.00003887,0.00000351,0.00000822,0.00046431,-0.0
 0003879,-0.00018755,0.00005493,0.00003123,0.00002913,0.00003497,0.0000
 0904,0.00000959,0.00003007,-0.00004622,0.00001144,-0.00002177,-0.00001
 124,0.00000272,0.00001247,-0.00002679,0.00001745,0.00000663,0.00004103
 ,-0.00000218,0.00000629,0.00000901,-0.00000008,-0.00000352,-0.00002313
 ,0.00001226,0.00002311,-0.00000387,-0.00000624,-0.00003395,-0.00001252
 ,-0.00003673,0.00017181,0.00018686,-0.00010252,-0.00001317,0.00015390,
 -0.00013427,0.00004593,0.00007325,-0.00013304,-0.00004451,0.00010869,0
 .00019068,0.00280056,-0.00003761,0.00167303,0.24173131,-0.00001296,-0.
 00004124,-0.00007064,0.00002258,0.00005968,0.00002628,0.00004461,-0.00
 001421,0.00012660,0.00001241,-0.00000739,0.00000539,-0.00000226,0.0000
 0460,0.00003119,-0.00001218,0.00000950,0.00002318,0.00000800,0.0000033
 2,0.00001829,-0.00000719,-0.00001352,-0.00002882,-0.00001500,0.0000082
 3,-0.00004696,-0.00000775,0.00000957,-0.00005665,-0.00003975,0.0000192
 4,-0.00019212,0.00009296,-0.00004670,-0.00045054,-0.00151447,-0.000332
 12,0.00096415,0.00276655,-0.00168459,0.00445227,0.00047382,0.00008441,
 -0.00009514,-0.01097366,-0.00387930,0.01657039,0.00056306,0.00143429,-
 0.00251211,-0.00018159,-0.00042340,0.00025825,-0.00001621,-0.00006296,
 -0.00012415,-0.00006345,0.00002167,-0.00001388,0.00001517,-0.00002996,
 0.00006327,0.00120027,-0.00067816,0.00080623,-0.00111235,0.00137361,0.
 00040225,0.00052024,0.00058338,0.00190756,-0.00025674,-0.00011938,-0.0
 0021531,0.00014965,0.00011648,0.00035259,0.00015794,-0.00015794,-0.000
 18742,0.00004579,-0.00011000,-0.00001426,-0.00007084,0.00004858,0.0000
 4667,0.00005057,-0.00009323,-0.00007775,-0.00022294,0.00002393,-0.0000
 9818,0.00011181,0.00002631,0.00001722,-0.00001687,-0.00000868,-0.00000
 766,0.00001449,0.00000103,0.00001129,-0.00000437,-0.00000334,0.0000046
 5,0.00002959,0.00000228,-0.00000128,-0.00001223,-0.00001785,-0.0000158
 4,-0.00021825,-0.00007569,-0.00001633,-0.00116739,-0.00351676,-0.00159
 473,-0.00478392,-0.01661572,0.02323495,0.00001706,0.00002818,-0.000033
 02,0.00004919,-0.00001667,-0.00000458,0.00000353,0.00001106,-0.0000091
 7,-0.00000448,0.00000390,-0.00000813,0.00000339,0.00000238,-0.00000153
 ,-0.00000006,0.00000005,0.00000204,-0.00000052,-0.00000420,-0.00000925
 ,0.00000054,0.00001756,0.00001575,0.00001991,-0.00001358,0.00002107,0.
 00000070,-0.00003465,0.00002994,-0.00005816,-0.00001136,0.00018679,0.0
 0029023,-0.00014096,0.00035175,0.00012197,0.00013185,-0.00010236,-0.00
 037375,0.00055037,0.00018846,-0.00109730,0.00042292,0.00042947,0.00007
 379,-0.00016005,-0.00025671,-0.00000578,0.00001889,0.00001192,0.000010
 42,-0.00000002,0.00000680,0.00000209,-0.00000366,-0.00000187,-0.000000
 55,0.00002177,0.00000438,0.00027163,-0.00029276,0.00016400,-0.00077200
 ,-0.00019331,-0.00013172,0.00007895,-0.00008521,0.00001112,-0.00003005
 ,0.00000100,-0.00002232,-0.00009480,-0.00002789,-0.00000438,0.00000486
 ,-0.00000329,-0.00002495,-0.00001155,-0.00001378,-0.00004499,-0.000066
 84,0.00008504,0.00006202,-0.00001591,-0.00000257,-0.00001130,-0.000010
 65,-0.00000251,0.00000335,-0.00000881,0.00000781,-0.00000343,0.0000068
 7,0.00000091,-0.00000167,-0.00000155,0.00000331,-0.00000207,-0.0000094
 4,-0.00000589,-0.00000128,-0.00000503,-0.00000180,-0.00000104,0.000003
 68,0.00000030,-0.00000029,-0.00000520,0.00000309,-0.00000056,-0.000002
 48,0.00000066,0.00000853,0.00000800,-0.00000132,0.00001485,0.00003199,
 -0.00000737,0.00002544,-0.00001505,0.00003957,0.00004461,0.00006326,0.
 00000520,-0.00005443,-0.00035840,0.00028440,-0.00015574,0.01631917,0.0
 2348468,0.00028665,-0.00021942,0.00016972,-0.00033749,0.00058378,-0.00
 026281,-0.00010930,-0.00003909,0.00002476,-0.00001455,0.00012633,0.000
 02753,-0.00009389,-0.00001889,0.00006818,-0.00005845,0.00018310,-0.000
 06574,-0.00004915,-0.00005042,0.00001228,0.00008380,0.00001366,-0.0000
 3200,0.00013987,0.00000236,-0.00008564,0.00004886,-0.00014070,-0.00008
 917,0.00019266,-0.00025538,0.00000679,0.00031753,-0.00077776,0.0005099
 4,0.00081376,0.00062194,-0.00039330,-0.00338701,0.00120861,-0.00346688
 ,-0.00004822,-0.00105359,0.00083228,0.01969497,0.00670930,-0.03274009,
 -0.00131036,-0.00073180,-0.00281687,0.00076700,-0.00005904,0.00178062,
 0.00044831,0.00019374,-0.00036869,-0.00004679,0.00005690,-0.00019416,-
 0.00003991,-0.00008443,0.00022763,0.00228682,-0.00055360,-0.00005348,-
 0.00201632,0.00110626,0.00098774,0.00248469,0.00229829,0.00379255,-0.0
 0116075,-0.00056191,-0.00056806,0.00016174,0.00028399,0.00112026,0.000
 43407,-0.00024597,-0.00060995,-0.00007797,0.00017536,-0.00028627,-0.00
 023847,-0.00010887,0.00013082,0.00036314,-0.00000052,-0.00015450,-0.00
 047318,0.00009988,-0.00031010,0.00018146,0.00006223,0.00005822,-0.0000
 3695,-0.00002282,-0.00001261,0.00000147,-0.00000834,0.00002533,0.00000
 168,0.00000338,0.00001855,-0.00005293,-0.00001187,-0.00002078,0.000101
 71,-0.00001290,-0.00006045,-0.00022128,-0.00001039,-0.00030760,-0.0040
 1710,-0.00109246,-0.00719346,0.20272805,0.03677665,-0.27619291,0.00000
 646,-0.00005276,0.00003251,0.00001302,0.00002703,0.00000012,0.00001176
 ,-0.00000036,-0.00000710,0.00002527,-0.00001118,-0.00000704,0.,-0.0000
 1557,0.00000535,0.00001606,-0.00000373,0.00000432,0.00000066,0.0000064
 6,-0.00001413,-0.00005694,0.00001860,-0.00000297,-0.00004102,0.0000138
 8,0.00002520,-0.00001508,0.00005446,0.00003963,-0.00016494,0.00041278,
 -0.00001186,-0.00014550,-0.00006463,-0.00014410,-0.00018680,-0.0001470
 3,0.00012659,0.00045670,0.00123427,-0.00003481,0.00128260,-0.00045295,
 0.00257443,0.00005510,-0.00008758,-0.00016820,-0.00002326,-0.00005336,
 -0.00001509,0.00000182,-0.00001288,0.00002560,-0.00000390,0.00000505,0
 .00001243,-0.00000408,0.00000018,-0.00003412,-0.00015379,-0.00001399,-
 0.00016206,-0.00053734,-0.00023459,-0.00017764,0.00008829,0.00002377,-
 0.00003208,-0.00001790,0.00001814,-0.00007067,0.00007662,0.00002126,0.
 00004862,0.00004312,-0.00000631,-0.00004447,-0.00007305,-0.00003664,-0
 .00007680,-0.00038280,0.00015301,-0.00000459,-0.00003852,-0.00001768,-
 0.00002301,-0.00000880,0.00000069,-0.00000837,-0.00001311,0.00002211,-
 0.00000140,0.00001182,0.00000078,-0.00000953,0.00000053,0.00000751,-0.
 00001184,-0.00000188,-0.00001041,0.00000739,0.00000335,-0.00000725,-0.
 00000517,0.00000018,0.00000832,-0.00001038,-0.00001206,0.00000424,0.00
 000298,0.00000629,0.00000886,0.00002437,-0.00008302,-0.00005942,0.0000
 5089,-0.00001381,-0.00004054,0.00009837,-0.00012106,0.00011228,0.00011
 020,0.00007486,-0.00002601,-0.00006897,0.00203008,-0.00104602,-0.00109
 301,-0.21985411,-0.04419842,0.31554275\\-0.00000842,-0.00001201,-0.000
 01342,0.00002130,0.00002635,0.00000108,-0.00001870,0.00000253,-0.00001
 182,-0.00000302,-0.00001227,-0.00001774,0.00000613,-0.00000312,-0.0000
 0562,-0.00000929,0.00000693,-0.00000506,0.00000369,0.00000505,0.000001
 46,-0.00000073,-0.00001329,0.00000360,-0.00000391,0.00000709,0.0000014
 9,0.00000102,0.00001177,0.00000508,0.00001138,-0.00001565,-0.00000349,
 -0.00001206,0.00000020,0.00001593,0.00001545,-0.00001155,-0.00000264,-
 0.00001084,-0.00001002,-0.00001466,0.00000839,0.00002071,0.00000234,-0
 .00001127,-0.00000425,-0.00002426,0.00001285,0.00001888,0.00001311,-0.
 00000336,0.00000342,-0.00000409,0.00001493,0.00000175,-0.00000478,-0.0
 0001920,-0.00000585,0.00000508,0.00001462,-0.00002012,-0.00000959,0.00
 001076,-0.00001388,0.00000670,-0.00001617,0.00002164,-0.00000503,-0.00
 000742,0.00000039,0.00000379,0.00000802,0.00000811,-0.00000873,-0.0000
 0689,0.00000704,0.00002761,0.00001395,0.00002062,-0.00000623,0.0000148
 2,-0.00001280,-0.00001253,-0.00002034,-0.00002469,0.00000329,0.0000316
 1,0.00000385,0.00000755,0.00001070,-0.00000755,0.00000069,-0.00001891,
 -0.00001342,0.00001173,0.00000164,-0.00000015,0.00000269,0.00000924,0.
 00000371,0.00000943,-0.00000174,-0.00000242,-0.00000848,0.00000391,-0.
 00000289,-0.00000288,-0.00000629,-0.00000026,0.00000223,-0.00000414,0.
 00000359,0.00000598,0.00000997,-0.00000056,0.00000364,-0.00000357,0.00
 000735,0.00001430,-0.00001016,-0.00000788,-0.00000016,0.00000998,-0.00
 000015,-0.00000347,-0.00000675,0.00000242,0.00000085,-0.00000621,-0.00
 000725,-0.00000329,-0.00000817,-0.00000076,0.00000129,0.00000090,-0.00
 000454,-0.00000019,-0.00000682,-0.00000393,0.00000228,-0.00000238,0.00
 000170,-0.00000553,0.00000061,-0.00000396,-0.00000252,-0.00000445,-0.0
 0000104,-0.00000377,-0.00000627,0.00001189,0.00000242,-0.00000496,-0.0
 0000325,0.00000290,-0.00000213,0.00000519,-0.00000502,-0.00000444,0.00
 000358,-0.00000656,0.00000792,-0.00000095,-0.00000578,-0.00000344,0.00
 000380,-0.00000139,-0.00000517,0.00000636,-0.00000101,0.00000219,-0.00
 000549,-0.00000567,0.00000602,-0.00000116,0.00000550,-0.00001111,0.000
 01632,0.00000324,-0.00000860,-0.00000743,0.00000230,0.00000419,0.00000
 073,-0.00000305,-0.00000490,-0.00000225,0.00000093,0.00000441,0.000006
 40,-0.00000156,0.00000229,0.00000714,0.00000541,0.00000456,-0.00000388
 ,0.00000547,0.00000155,0.00000508,0.00000702,-0.00001922,0.00000372,0.
 00000590,0.00000525,0.00000036,0.00000950,0.00000417,0.00000691,-0.000
 00100,0.00000381,0.00000070,0.00000275,0.00000332,-0.00000344,-0.00000
 188,-0.00000136,-0.00000497,0.00000127,-0.00000641,-0.00000303,-0.0000
 0250,-0.00000074,-0.00000020,0.00000459,-0.00000369,-0.00000595,0.0000
 0407,-0.00000632,-0.00000076,0.00000427,0.00000632,0.00000199,-0.00000
 107,-0.00000121,-0.00000842,0.00000259,0.00000161,-0.00000357,-0.00000
 609,0.00000074,-0.00000066,0.00001033,0.00001127,-0.00000006,-0.000000
 03,0.00000428,0.00000442,-0.00000668,0.00001139,0.00000202,-0.00000439
 \\\@


 CLIMB THE MOUNTAINS AND GET THEIR GOOD TIDINGS.
 NATURE'S PEACE WILL FLOW INTO YOU AS SUNSHINE FLOWS INTO TREES.
 THE WINDS WILL BLOW THEIR OWN FRESHNESS INTO YOU, 
 AND CARES WILL DROP OFF LIKE AUTUMN LEAVES.

                                         -- JOHN MUIR
 Job cpu time:      18 days 11 hours 42 minutes  3.4 seconds.
 File lengths (MBytes):  RWF=  23592 Int=      0 D2E=      0 Chk=     97 Scr=      1
 Normal termination of Gaussian 09 at Thu Mar 24 16:57:34 2016.
