 Entering Gaussian System, Link 0=g09
 Initial command:
 /share/apps//g09/l1.exe "/scratch/Gau-40975.inp" -scrdir="/scratch/"
 Entering Link 1 = /share/apps//g09/l1.exe PID=     40976.
  
 Copyright (c) 1988,1990,1992,1993,1995,1998,2003,2009,2013,
            Gaussian, Inc.  All Rights Reserved.
  
 This is part of the Gaussian(R) 09 program.  It is based on
 the Gaussian(R) 03 system (copyright 2003, Gaussian, Inc.),
 the Gaussian(R) 98 system (copyright 1998, Gaussian, Inc.),
 the Gaussian(R) 94 system (copyright 1995, Gaussian, Inc.),
 the Gaussian 92(TM) system (copyright 1992, Gaussian, Inc.),
 the Gaussian 90(TM) system (copyright 1990, Gaussian, Inc.),
 the Gaussian 88(TM) system (copyright 1988, Gaussian, Inc.),
 the Gaussian 86(TM) system (copyright 1986, Carnegie Mellon
 University), and the Gaussian 82(TM) system (copyright 1983,
 Carnegie Mellon University). Gaussian is a federally registered
 trademark of Gaussian, Inc.
  
 This software contains proprietary and confidential information,
 including trade secrets, belonging to Gaussian, Inc.
  
 This software is provided under written license and may be
 used, copied, transmitted, or stored only in accord with that
 written license.
  
 The following legend is applicable only to US Government
 contracts under FAR:
  
                    RESTRICTED RIGHTS LEGEND
  
 Use, reproduction and disclosure by the US Government is
 subject to restrictions as set forth in subparagraphs (a)
 and (c) of the Commercial Computer Software - Restricted
 Rights clause in FAR 52.227-19.
  
 Gaussian, Inc.
 340 Quinnipiac St., Bldg. 40, Wallingford CT 06492
  
  
 ---------------------------------------------------------------
 Warning -- This program may not be used in any manner that
 competes with the business of Gaussian, Inc. or will provide
 assistance to any competitor of Gaussian, Inc.  The licensee
 of this program is prohibited from giving any competitor of
 Gaussian, Inc. access to this program.  By using this program,
 the user acknowledges that Gaussian, Inc. is engaged in the
 business of creating and licensing software in the field of
 computational chemistry and represents and warrants to the
 licensee that it is not a competitor of Gaussian, Inc. and that
 it will not use this program in any manner prohibited above.
 ---------------------------------------------------------------
  

 Cite this work as:
 Gaussian 09, Revision D.01,
 M. J. Frisch, G. W. Trucks, H. B. Schlegel, G. E. Scuseria, 
 M. A. Robb, J. R. Cheeseman, G. Scalmani, V. Barone, B. Mennucci, 
 G. A. Petersson, H. Nakatsuji, M. Caricato, X. Li, H. P. Hratchian, 
 A. F. Izmaylov, J. Bloino, G. Zheng, J. L. Sonnenberg, M. Hada, 
 M. Ehara, K. Toyota, R. Fukuda, J. Hasegawa, M. Ishida, T. Nakajima, 
 Y. Honda, O. Kitao, H. Nakai, T. Vreven, J. A. Montgomery, Jr., 
 J. E. Peralta, F. Ogliaro, M. Bearpark, J. J. Heyd, E. Brothers, 
 K. N. Kudin, V. N. Staroverov, T. Keith, R. Kobayashi, J. Normand, 
 K. Raghavachari, A. Rendell, J. C. Burant, S. S. Iyengar, J. Tomasi, 
 M. Cossi, N. Rega, J. M. Millam, M. Klene, J. E. Knox, J. B. Cross, 
 V. Bakken, C. Adamo, J. Jaramillo, R. Gomperts, R. E. Stratmann, 
 O. Yazyev, A. J. Austin, R. Cammi, C. Pomelli, J. W. Ochterski, 
 R. L. Martin, K. Morokuma, V. G. Zakrzewski, G. A. Voth, 
 P. Salvador, J. J. Dannenberg, S. Dapprich, A. D. Daniels, 
 O. Farkas, J. B. Foresman, J. V. Ortiz, J. Cioslowski, 
 and D. J. Fox, Gaussian, Inc., Wallingford CT, 2013.
 
 ******************************************
 Gaussian 09:  EM64L-G09RevD.01 24-Apr-2013
                 6-Apr-2016 
 ******************************************
 %nproc=20
 Will use up to   20 processors via shared memory.
 %mem=80GB
 %chk=Tri_A131_of.chk
 ----------------------------------------------------------------------
 #P PBE1PBE/6-311+G(d,p) opt=ModRedundant freq optcyc=999 EmpiricalDisp
 ersion=GD3
 ----------------------------------------------------------------------
 1/6=999,14=-1,18=120,19=15,26=3,38=1/1,3;
 2/9=110,12=2,17=6,18=5,40=1/2;
 3/5=4,6=6,7=111,11=2,16=1,25=1,30=1,71=1,74=-13,124=31/1,2,3;
 4//1;
 5/5=2,38=5/2;
 6/7=2,8=2,9=2,10=2,28=1/1;
 7//1,2,3,16;
 1/6=999,14=-1,18=20,19=15,26=3/3(2);
 2/9=110/2;
 99//99;
 2/9=110/2;
 3/5=4,6=6,7=111,11=2,16=1,25=1,30=1,71=1,74=-13,124=31/1,2,3;
 4/5=5,16=3,69=1/1;
 5/5=2,38=5/2;
 7//1,2,3,16;
 1/6=999,14=-1,18=20,19=15,26=3/3(-5);
 2/9=110/2;
 6/7=2,8=2,9=2,10=2,19=2,28=1/1;
 99/9=1/99;
 Leave Link    1 at Wed Apr  6 15:55:05 2016, MaxMem= 10737418240 cpu:         4.2
 (Enter /share/apps//g09/l101.exe)
 -------
 disacch
 -------
 Symbolic Z-matrix:
 Charge =  1 Multiplicity = 1
 O                     1.23295  -5.42957   8.93058 
 C                     0.04552  -4.66766   8.91954 
 C                     0.30085  -3.16239   9.09179 
 C                     1.29585  -2.69084   8.015 
 C                     2.58143  -3.51977   8.08121 
 C                     2.24829  -5.01675   7.98627 
 H                    -0.55519  -5.06962   9.75267 
 H                     0.75229  -3.00425   10.08262 
 H                     0.83789  -2.8053    7.0196 
 H                     3.20909  -3.26935   7.20049 
 H                     1.89954  -5.20976   6.95325 
 O                     3.24266  -3.12264   9.28046 
 O                     1.59982  -1.29237   8.15087 
 O                    -0.92135  -2.4304    9.06534 
 O                    -0.68397  -4.76678   7.69179 
 C                     3.44554  -5.92794   8.24583 
 H                     3.14054  -6.97774   8.11119 
 H                     4.24212  -5.70469   7.52222 
 O                     4.02012  -5.72619   9.54817 
 H                     3.39998  -6.10168   10.20072 
 H                     3.75119  -3.90118   9.60839 
 H                     2.22404  -1.21831   8.90143 
 H                    -1.50194  -2.89673   8.43317 
 O                    -2.79607  -6.91214   5.00574 
 C                    -1.52283  -6.34925   4.81485 
 C                    -0.60687  -6.5447    6.03681 
 C                    -1.21325  -6.06032   7.36691 
 C                    -2.76369  -6.036     7.36188 
 C                    -3.28583  -7.07855   6.36119 
 H                    -1.08367  -6.87855   3.95083 
 H                     0.33236  -6.00485   5.86212 
 H                    -0.8818   -6.79592   8.11623 
 H                    -3.11693  -6.34912   8.36163 
 H                    -2.97384  -8.07386   6.72803 
 O                    -3.27305  -4.71765   7.10977 
 O                    -0.35168  -7.94456   6.20747 
 O                    -1.75586  -4.97766   4.41483 
 C                    -4.80682  -7.05622   6.2163 
 H                    -5.13146  -7.88519   5.56918 
 H                    -5.29275  -7.1667    7.19517 
 O                    -5.25291  -5.79481   5.67459 
 H                    -4.87276  -5.74806   4.77484 
 H                    -4.12528  -4.84878   6.6131 
 H                     0.0241   -8.29003   5.37789 
 O                    -0.40077  -1.60405   4.24676 
 C                     0.67743  -1.71534   3.27921 
 C                     1.40719  -3.0411    3.5076 
 C                     0.454    -4.24186   3.49133 
 C                    -0.70603  -4.00967   4.46917 
 C                    -1.36856  -2.66737   4.09168 
 H                     0.23671  -1.66371   2.2616 
 H                     1.87952  -2.9798    4.50816 
 H                     0.03494  -4.35282   2.47175 
 H                    -1.68581  -2.70975   3.03033 
 H                    -0.31799  -3.92223   5.49894 
 O                     1.18254  -5.42306   3.84174 
 O                     2.38114  -3.2969    2.49996 
 O                     1.59511  -0.69682   3.486 
 C                    -2.61014  -2.3187    4.90671 
 H                    -2.92852  -1.3033    4.62143 
 H                    -3.41402  -3.01291   4.62124 
 O                    -2.4071   -2.33972   6.3179 
 H                    -2.6325   -3.26061   6.63517 
 H                     1.95328  -5.44744   3.24363 
 H                     3.06097  -2.60153   2.55643 
 C                     1.25793   0.60591   2.93861 
 H                     2.23065   1.08424   2.75386 
 H                     0.75075   0.47007   1.9691 
 C                     0.41012   1.44652   3.8928 
 H                    -0.57883   0.97173   3.98549 
 H                     0.23392   2.42606   3.41907 
 C                     1.08056   1.62756   5.26414 
 H                     1.57369   0.68433   5.55093 
 H                     1.89862   2.35904   5.17554 
 C                     0.15271   2.08469   6.40124 
 H                     0.75141   2.20051   7.31854 
 H                    -0.26532   3.08019   6.1835 
 C                    -1.03112   1.15837   6.69189 
 H                    -1.78836   1.19769   5.89737 
 H                    -1.5238    1.43413   7.63292 
 N                    -0.60865  -0.27343   6.8071 
 H                    -0.24287  -0.62456   5.89939 
 H                    -1.40206  -0.92182   7.00258 
 H                     0.1329   -0.43671   7.52726 
 
 The following ModRedundant input section has been read:
 B      45      82 B                                                           
 B      62      83 B                                                           
 B      13      84 B                                                           
 B      35      63 B                                                           
 B      11      31 B                                                           
 
 NAtoms=     84 NQM=       84 NQMF=       0 NMMI=      0 NMMIF=      0
                NMic=       0 NMicF=      0.
                    Isotopes and Nuclear Properties:
 (Nuclear quadrupole moments (NQMom) in fm**2, nuclear magnetic moments (NMagM)
  in nuclear magnetons)

  Atom         1           2           3           4           5           6           7           8           9          10
 IAtWgt=          16          12          12          12          12          12           1           1           1           1
 AtmWgt=  15.9949146  12.0000000  12.0000000  12.0000000  12.0000000  12.0000000   1.0078250   1.0078250   1.0078250   1.0078250
 NucSpn=           0           0           0           0           0           0           1           1           1           1
 AtZEff=   0.0000000   0.0000000   0.0000000   0.0000000   0.0000000   0.0000000   0.0000000   0.0000000   0.0000000   0.0000000
 NQMom=    0.0000000   0.0000000   0.0000000   0.0000000   0.0000000   0.0000000   0.0000000   0.0000000   0.0000000   0.0000000
 NMagM=    0.0000000   0.0000000   0.0000000   0.0000000   0.0000000   0.0000000   2.7928460   2.7928460   2.7928460   2.7928460
 AtZNuc=   8.0000000   6.0000000   6.0000000   6.0000000   6.0000000   6.0000000   1.0000000   1.0000000   1.0000000   1.0000000

  Atom        11          12          13          14          15          16          17          18          19          20
 IAtWgt=           1          16          16          16          16          12           1           1          16           1
 AtmWgt=   1.0078250  15.9949146  15.9949146  15.9949146  15.9949146  12.0000000   1.0078250   1.0078250  15.9949146   1.0078250
 NucSpn=           1           0           0           0           0           0           1           1           0           1
 AtZEff=   0.0000000   0.0000000   0.0000000   0.0000000   0.0000000   0.0000000   0.0000000   0.0000000   0.0000000   0.0000000
 NQMom=    0.0000000   0.0000000   0.0000000   0.0000000   0.0000000   0.0000000   0.0000000   0.0000000   0.0000000   0.0000000
 NMagM=    2.7928460   0.0000000   0.0000000   0.0000000   0.0000000   0.0000000   2.7928460   2.7928460   0.0000000   2.7928460
 AtZNuc=   1.0000000   8.0000000   8.0000000   8.0000000   8.0000000   6.0000000   1.0000000   1.0000000   8.0000000   1.0000000

  Atom        21          22          23          24          25          26          27          28          29          30
 IAtWgt=           1           1           1          16          12          12          12          12          12           1
 AtmWgt=   1.0078250   1.0078250   1.0078250  15.9949146  12.0000000  12.0000000  12.0000000  12.0000000  12.0000000   1.0078250
 NucSpn=           1           1           1           0           0           0           0           0           0           1
 AtZEff=   0.0000000   0.0000000   0.0000000   0.0000000   0.0000000   0.0000000   0.0000000   0.0000000   0.0000000   0.0000000
 NQMom=    0.0000000   0.0000000   0.0000000   0.0000000   0.0000000   0.0000000   0.0000000   0.0000000   0.0000000   0.0000000
 NMagM=    2.7928460   2.7928460   2.7928460   0.0000000   0.0000000   0.0000000   0.0000000   0.0000000   0.0000000   2.7928460
 AtZNuc=   1.0000000   1.0000000   1.0000000   8.0000000   6.0000000   6.0000000   6.0000000   6.0000000   6.0000000   1.0000000

  Atom        31          32          33          34          35          36          37          38          39          40
 IAtWgt=           1           1           1           1          16          16          16          12           1           1
 AtmWgt=   1.0078250   1.0078250   1.0078250   1.0078250  15.9949146  15.9949146  15.9949146  12.0000000   1.0078250   1.0078250
 NucSpn=           1           1           1           1           0           0           0           0           1           1
 AtZEff=   0.0000000   0.0000000   0.0000000   0.0000000   0.0000000   0.0000000   0.0000000   0.0000000   0.0000000   0.0000000
 NQMom=    0.0000000   0.0000000   0.0000000   0.0000000   0.0000000   0.0000000   0.0000000   0.0000000   0.0000000   0.0000000
 NMagM=    2.7928460   2.7928460   2.7928460   2.7928460   0.0000000   0.0000000   0.0000000   0.0000000   2.7928460   2.7928460
 AtZNuc=   1.0000000   1.0000000   1.0000000   1.0000000   8.0000000   8.0000000   8.0000000   6.0000000   1.0000000   1.0000000

  Atom        41          42          43          44          45          46          47          48          49          50
 IAtWgt=          16           1           1           1          16          12          12          12          12          12
 AtmWgt=  15.9949146   1.0078250   1.0078250   1.0078250  15.9949146  12.0000000  12.0000000  12.0000000  12.0000000  12.0000000
 NucSpn=           0           1           1           1           0           0           0           0           0           0
 AtZEff=   0.0000000   0.0000000   0.0000000   0.0000000   0.0000000   0.0000000   0.0000000   0.0000000   0.0000000   0.0000000
 NQMom=    0.0000000   0.0000000   0.0000000   0.0000000   0.0000000   0.0000000   0.0000000   0.0000000   0.0000000   0.0000000
 NMagM=    0.0000000   2.7928460   2.7928460   2.7928460   0.0000000   0.0000000   0.0000000   0.0000000   0.0000000   0.0000000
 AtZNuc=   8.0000000   1.0000000   1.0000000   1.0000000   8.0000000   6.0000000   6.0000000   6.0000000   6.0000000   6.0000000

  Atom        51          52          53          54          55          56          57          58          59          60
 IAtWgt=           1           1           1           1           1          16          16          16          12           1
 AtmWgt=   1.0078250   1.0078250   1.0078250   1.0078250   1.0078250  15.9949146  15.9949146  15.9949146  12.0000000   1.0078250
 NucSpn=           1           1           1           1           1           0           0           0           0           1
 AtZEff=   0.0000000   0.0000000   0.0000000   0.0000000   0.0000000   0.0000000   0.0000000   0.0000000   0.0000000   0.0000000
 NQMom=    0.0000000   0.0000000   0.0000000   0.0000000   0.0000000   0.0000000   0.0000000   0.0000000   0.0000000   0.0000000
 NMagM=    2.7928460   2.7928460   2.7928460   2.7928460   2.7928460   0.0000000   0.0000000   0.0000000   0.0000000   2.7928460
 AtZNuc=   1.0000000   1.0000000   1.0000000   1.0000000   1.0000000   8.0000000   8.0000000   8.0000000   6.0000000   1.0000000

  Atom        61          62          63          64          65          66          67          68          69          70
 IAtWgt=           1          16           1           1           1          12           1           1          12           1
 AtmWgt=   1.0078250  15.9949146   1.0078250   1.0078250   1.0078250  12.0000000   1.0078250   1.0078250  12.0000000   1.0078250
 NucSpn=           1           0           1           1           1           0           1           1           0           1
 AtZEff=   0.0000000   0.0000000   0.0000000   0.0000000   0.0000000   0.0000000   0.0000000   0.0000000   0.0000000   0.0000000
 NQMom=    0.0000000   0.0000000   0.0000000   0.0000000   0.0000000   0.0000000   0.0000000   0.0000000   0.0000000   0.0000000
 NMagM=    2.7928460   0.0000000   2.7928460   2.7928460   2.7928460   0.0000000   2.7928460   2.7928460   0.0000000   2.7928460
 AtZNuc=   1.0000000   8.0000000   1.0000000   1.0000000   1.0000000   6.0000000   1.0000000   1.0000000   6.0000000   1.0000000

  Atom        71          72          73          74          75          76          77          78          79          80
 IAtWgt=           1          12           1           1          12           1           1          12           1           1
 AtmWgt=   1.0078250  12.0000000   1.0078250   1.0078250  12.0000000   1.0078250   1.0078250  12.0000000   1.0078250   1.0078250
 NucSpn=           1           0           1           1           0           1           1           0           1           1
 AtZEff=   0.0000000   0.0000000   0.0000000   0.0000000   0.0000000   0.0000000   0.0000000   0.0000000   0.0000000   0.0000000
 NQMom=    0.0000000   0.0000000   0.0000000   0.0000000   0.0000000   0.0000000   0.0000000   0.0000000   0.0000000   0.0000000
 NMagM=    2.7928460   0.0000000   2.7928460   2.7928460   0.0000000   2.7928460   2.7928460   0.0000000   2.7928460   2.7928460
 AtZNuc=   1.0000000   6.0000000   1.0000000   1.0000000   6.0000000   1.0000000   1.0000000   6.0000000   1.0000000   1.0000000

  Atom        81          82          83          84
 IAtWgt=          14           1           1           1
 AtmWgt=  14.0030740   1.0078250   1.0078250   1.0078250
 NucSpn=           2           1           1           1
 AtZEff=   0.0000000   0.0000000   0.0000000   0.0000000
 NQMom=    2.0440000   0.0000000   0.0000000   0.0000000
 NMagM=    0.4037610   2.7928460   2.7928460   2.7928460
 AtZNuc=   7.0000000   1.0000000   1.0000000   1.0000000
 Leave Link  101 at Wed Apr  6 15:55:05 2016, MaxMem= 10737418240 cpu:         5.4
 (Enter /share/apps//g09/l103.exe)

 GradGradGradGradGradGradGradGradGradGradGradGradGradGradGradGradGradGrad
 Berny optimization.
 Initialization pass.
                           ----------------------------
                           !    Initial Parameters    !
                           ! (Angstroms and Degrees)  !
 --------------------------                            --------------------------
 ! Name  Definition              Value          Derivative Info.                !
 --------------------------------------------------------------------------------
 ! R1    R(1,2)                  1.4109         estimate D2E/DX2                !
 ! R2    R(1,6)                  1.4467         estimate D2E/DX2                !
 ! R3    R(2,3)                  1.5365         estimate D2E/DX2                !
 ! R4    R(2,7)                  1.103          estimate D2E/DX2                !
 ! R5    R(2,15)                 1.4316         estimate D2E/DX2                !
 ! R6    R(3,4)                  1.5401         estimate D2E/DX2                !
 ! R7    R(3,8)                  1.1003         estimate D2E/DX2                !
 ! R8    R(3,14)                 1.4249         estimate D2E/DX2                !
 ! R9    R(4,5)                  1.5311         estimate D2E/DX2                !
 ! R10   R(4,9)                  1.1017         estimate D2E/DX2                !
 ! R11   R(4,13)                 1.4376         estimate D2E/DX2                !
 ! R12   R(5,6)                  1.5365         estimate D2E/DX2                !
 ! R13   R(5,10)                 1.1101         estimate D2E/DX2                !
 ! R14   R(5,12)                 1.4259         estimate D2E/DX2                !
 ! R15   R(6,11)                 1.1073         estimate D2E/DX2                !
 ! R16   R(6,16)                 1.5268         estimate D2E/DX2                !
 ! R17   R(11,31)                2.0685         estimate D2E/DX2                !
 ! R18   R(12,21)                0.986          estimate D2E/DX2                !
 ! R19   R(13,22)                0.979          estimate D2E/DX2                !
 ! R20   R(13,84)                1.8091         estimate D2E/DX2                !
 ! R21   R(14,23)                0.9768         estimate D2E/DX2                !
 ! R22   R(15,27)                1.4349         estimate D2E/DX2                !
 ! R23   R(16,17)                1.1015         estimate D2E/DX2                !
 ! R24   R(16,18)                1.0991         estimate D2E/DX2                !
 ! R25   R(16,19)                1.4377         estimate D2E/DX2                !
 ! R26   R(19,20)                0.9754         estimate D2E/DX2                !
 ! R27   R(24,25)                1.4051         estimate D2E/DX2                !
 ! R28   R(24,29)                1.4508         estimate D2E/DX2                !
 ! R29   R(25,26)                1.5396         estimate D2E/DX2                !
 ! R30   R(25,30)                1.1043         estimate D2E/DX2                !
 ! R31   R(25,37)                1.4476         estimate D2E/DX2                !
 ! R32   R(26,27)                1.54           estimate D2E/DX2                !
 ! R33   R(26,31)                1.0973         estimate D2E/DX2                !
 ! R34   R(26,36)                1.4331         estimate D2E/DX2                !
 ! R35   R(27,28)                1.5506         estimate D2E/DX2                !
 ! R36   R(27,32)                1.1011         estimate D2E/DX2                !
 ! R37   R(28,29)                1.5365         estimate D2E/DX2                !
 ! R38   R(28,33)                1.1056         estimate D2E/DX2                !
 ! R39   R(28,35)                1.4356         estimate D2E/DX2                !
 ! R40   R(29,34)                1.1057         estimate D2E/DX2                !
 ! R41   R(29,38)                1.528          estimate D2E/DX2                !
 ! R42   R(35,43)                0.9951         estimate D2E/DX2                !
 ! R43   R(35,63)                1.6609         estimate D2E/DX2                !
 ! R44   R(36,44)                0.974          estimate D2E/DX2                !
 ! R45   R(37,49)                1.429          estimate D2E/DX2                !
 ! R46   R(38,39)                1.1006         estimate D2E/DX2                !
 ! R47   R(38,40)                1.0984         estimate D2E/DX2                !
 ! R48   R(38,41)                1.4435         estimate D2E/DX2                !
 ! R49   R(41,42)                0.9779         estimate D2E/DX2                !
 ! R50   R(45,46)                1.4529         estimate D2E/DX2                !
 ! R51   R(45,50)                1.4461         estimate D2E/DX2                !
 ! R52   R(45,82)                1.9276         estimate D2E/DX2                !
 ! R53   R(46,47)                1.5305         estimate D2E/DX2                !
 ! R54   R(46,51)                1.1101         estimate D2E/DX2                !
 ! R55   R(46,58)                1.3865         estimate D2E/DX2                !
 ! R56   R(47,48)                1.5332         estimate D2E/DX2                !
 ! R57   R(47,52)                1.1081         estimate D2E/DX2                !
 ! R58   R(47,57)                1.4246         estimate D2E/DX2                !
 ! R59   R(48,49)                1.5348         estimate D2E/DX2                !
 ! R60   R(48,53)                1.1079         estimate D2E/DX2                !
 ! R61   R(48,56)                1.4314         estimate D2E/DX2                !
 ! R62   R(49,50)                1.5438         estimate D2E/DX2                !
 ! R63   R(49,55)                1.1039         estimate D2E/DX2                !
 ! R64   R(50,54)                1.1086         estimate D2E/DX2                !
 ! R65   R(50,59)                1.5256         estimate D2E/DX2                !
 ! R66   R(56,64)                0.9759         estimate D2E/DX2                !
 ! R67   R(57,65)                0.9741         estimate D2E/DX2                !
 ! R68   R(58,66)                1.4527         estimate D2E/DX2                !
 ! R69   R(59,60)                1.1017         estimate D2E/DX2                !
 ! R70   R(59,61)                1.0998         estimate D2E/DX2                !
 ! R71   R(59,62)                1.4259         estimate D2E/DX2                !
 ! R72   R(62,63)                0.9998         estimate D2E/DX2                !
 ! R73   R(62,83)                1.868          estimate D2E/DX2                !
 ! R74   R(66,67)                1.0996         estimate D2E/DX2                !
 ! R75   R(66,68)                1.1026         estimate D2E/DX2                !
 ! R76   R(66,69)                1.5284         estimate D2E/DX2                !
 ! R77   R(69,70)                1.1009         estimate D2E/DX2                !
 ! R78   R(69,71)                1.1023         estimate D2E/DX2                !
 ! R79   R(69,72)                1.5372         estimate D2E/DX2                !
 ! R80   R(72,73)                1.1023         estimate D2E/DX2                !
 ! R81   R(72,74)                1.101          estimate D2E/DX2                !
 ! R82   R(72,75)                1.5372         estimate D2E/DX2                !
 ! R83   R(75,76)                1.1015         estimate D2E/DX2                !
 ! R84   R(75,77)                1.1014         estimate D2E/DX2                !
 ! R85   R(75,78)                1.531          estimate D2E/DX2                !
 ! R86   R(78,79)                1.0983         estimate D2E/DX2                !
 ! R87   R(78,80)                1.0974         estimate D2E/DX2                !
 ! R88   R(78,81)                1.4973         estimate D2E/DX2                !
 ! R89   R(81,82)                1.0397         estimate D2E/DX2                !
 ! R90   R(81,83)                1.0431         estimate D2E/DX2                !
 ! R91   R(81,84)                1.0465         estimate D2E/DX2                !
 ! A1    A(2,1,6)              115.5601         estimate D2E/DX2                !
 ! A2    A(1,2,3)              112.85           estimate D2E/DX2                !
 ! A3    A(1,2,7)              104.8126         estimate D2E/DX2                !
 ! A4    A(1,2,15)             113.4651         estimate D2E/DX2                !
 ! A5    A(3,2,7)              111.2762         estimate D2E/DX2                !
 ! A6    A(3,2,15)             104.3985         estimate D2E/DX2                !
 ! A7    A(7,2,15)             110.185          estimate D2E/DX2                !
 ! A8    A(2,3,4)              109.2051         estimate D2E/DX2                !
 ! A9    A(2,3,8)              108.0567         estimate D2E/DX2                !
 ! A10   A(2,3,14)             111.0185         estimate D2E/DX2                !
 ! A11   A(4,3,8)              108.6961         estimate D2E/DX2                !
 ! A12   A(4,3,14)             112.5753         estimate D2E/DX2                !
 ! A13   A(8,3,14)             107.1469         estimate D2E/DX2                !
 ! A14   A(3,4,5)              110.2715         estimate D2E/DX2                !
 ! A15   A(3,4,9)              109.3511         estimate D2E/DX2                !
 ! A16   A(3,4,13)             111.6162         estimate D2E/DX2                !
 ! A17   A(5,4,9)              109.3821         estimate D2E/DX2                !
 ! A18   A(5,4,13)             110.1847         estimate D2E/DX2                !
 ! A19   A(9,4,13)             105.9245         estimate D2E/DX2                !
 ! A20   A(4,5,6)              110.0441         estimate D2E/DX2                !
 ! A21   A(4,5,10)             108.5605         estimate D2E/DX2                !
 ! A22   A(4,5,12)             105.9595         estimate D2E/DX2                !
 ! A23   A(6,5,10)             107.0581         estimate D2E/DX2                !
 ! A24   A(6,5,12)             115.0783         estimate D2E/DX2                !
 ! A25   A(10,5,12)            110.0135         estimate D2E/DX2                !
 ! A26   A(1,6,5)              112.9439         estimate D2E/DX2                !
 ! A27   A(1,6,11)             109.7653         estimate D2E/DX2                !
 ! A28   A(1,6,16)             105.6094         estimate D2E/DX2                !
 ! A29   A(5,6,11)             107.2032         estimate D2E/DX2                !
 ! A30   A(5,6,16)             113.6357         estimate D2E/DX2                !
 ! A31   A(11,6,16)            107.5516         estimate D2E/DX2                !
 ! A32   A(6,11,31)            142.9168         estimate D2E/DX2                !
 ! A33   A(5,12,21)            107.3958         estimate D2E/DX2                !
 ! A34   A(4,13,22)            106.3121         estimate D2E/DX2                !
 ! A35   A(4,13,84)            104.8375         estimate D2E/DX2                !
 ! A36   A(22,13,84)           138.2006         estimate D2E/DX2                !
 ! A37   A(3,14,23)            106.0566         estimate D2E/DX2                !
 ! A38   A(2,15,27)            116.3954         estimate D2E/DX2                !
 ! A39   A(6,16,17)            109.3229         estimate D2E/DX2                !
 ! A40   A(6,16,18)            109.5838         estimate D2E/DX2                !
 ! A41   A(6,16,19)            112.5599         estimate D2E/DX2                !
 ! A42   A(17,16,18)           108.2888         estimate D2E/DX2                !
 ! A43   A(17,16,19)           110.8022         estimate D2E/DX2                !
 ! A44   A(18,16,19)           106.1548         estimate D2E/DX2                !
 ! A45   A(16,19,20)           107.3324         estimate D2E/DX2                !
 ! A46   A(25,24,29)           118.6047         estimate D2E/DX2                !
 ! A47   A(24,25,26)           112.359          estimate D2E/DX2                !
 ! A48   A(24,25,30)           105.9398         estimate D2E/DX2                !
 ! A49   A(24,25,37)           105.7375         estimate D2E/DX2                !
 ! A50   A(26,25,30)           108.8772         estimate D2E/DX2                !
 ! A51   A(26,25,37)           115.809          estimate D2E/DX2                !
 ! A52   A(30,25,37)           107.5742         estimate D2E/DX2                !
 ! A53   A(25,26,27)           114.2885         estimate D2E/DX2                !
 ! A54   A(25,26,31)           108.688          estimate D2E/DX2                !
 ! A55   A(25,26,36)           108.9324         estimate D2E/DX2                !
 ! A56   A(27,26,31)           108.6503         estimate D2E/DX2                !
 ! A57   A(27,26,36)           105.9322         estimate D2E/DX2                !
 ! A58   A(31,26,36)           110.3099         estimate D2E/DX2                !
 ! A59   A(15,27,26)           109.5037         estimate D2E/DX2                !
 ! A60   A(15,27,28)           110.8186         estimate D2E/DX2                !
 ! A61   A(15,27,32)           109.7021         estimate D2E/DX2                !
 ! A62   A(26,27,28)           113.3186         estimate D2E/DX2                !
 ! A63   A(26,27,32)           105.0176         estimate D2E/DX2                !
 ! A64   A(28,27,32)           108.28           estimate D2E/DX2                !
 ! A65   A(27,28,29)           109.3444         estimate D2E/DX2                !
 ! A66   A(27,28,33)           108.1851         estimate D2E/DX2                !
 ! A67   A(27,28,35)           111.6986         estimate D2E/DX2                !
 ! A68   A(29,28,33)           106.7492         estimate D2E/DX2                !
 ! A69   A(29,28,35)           112.839          estimate D2E/DX2                !
 ! A70   A(33,28,35)           107.7892         estimate D2E/DX2                !
 ! A71   A(24,29,28)           114.5775         estimate D2E/DX2                !
 ! A72   A(24,29,34)           108.5401         estimate D2E/DX2                !
 ! A73   A(24,29,38)           104.2266         estimate D2E/DX2                !
 ! A74   A(28,29,34)           107.3865         estimate D2E/DX2                !
 ! A75   A(28,29,38)           112.96           estimate D2E/DX2                !
 ! A76   A(34,29,38)           108.9946         estimate D2E/DX2                !
 ! A77   A(11,31,26)           138.904          estimate D2E/DX2                !
 ! A78   A(28,35,43)           105.6942         estimate D2E/DX2                !
 ! A79   A(28,35,63)           135.9676         estimate D2E/DX2                !
 ! A80   A(43,35,63)           107.655          estimate D2E/DX2                !
 ! A81   A(26,36,44)           108.2835         estimate D2E/DX2                !
 ! A82   A(25,37,49)           120.8665         estimate D2E/DX2                !
 ! A83   A(29,38,39)           109.7762         estimate D2E/DX2                !
 ! A84   A(29,38,40)           110.7554         estimate D2E/DX2                !
 ! A85   A(29,38,41)           110.8529         estimate D2E/DX2                !
 ! A86   A(39,38,40)           108.5255         estimate D2E/DX2                !
 ! A87   A(39,38,41)           110.2664         estimate D2E/DX2                !
 ! A88   A(40,38,41)           106.5958         estimate D2E/DX2                !
 ! A89   A(38,41,42)           105.4821         estimate D2E/DX2                !
 ! A90   A(46,45,50)           111.6469         estimate D2E/DX2                !
 ! A91   A(46,45,82)           123.3034         estimate D2E/DX2                !
 ! A92   A(50,45,82)           121.3587         estimate D2E/DX2                !
 ! A93   A(45,46,47)           108.7121         estimate D2E/DX2                !
 ! A94   A(45,46,51)           108.195          estimate D2E/DX2                !
 ! A95   A(45,46,58)           109.6078         estimate D2E/DX2                !
 ! A96   A(47,46,51)           111.4919         estimate D2E/DX2                !
 ! A97   A(47,46,58)           107.3674         estimate D2E/DX2                !
 ! A98   A(51,46,58)           111.4269         estimate D2E/DX2                !
 ! A99   A(46,47,48)           112.3583         estimate D2E/DX2                !
 ! A100  A(46,47,52)           106.8616         estimate D2E/DX2                !
 ! A101  A(46,47,57)           112.0854         estimate D2E/DX2                !
 ! A102  A(48,47,52)           108.5359         estimate D2E/DX2                !
 ! A103  A(48,47,57)           106.0761         estimate D2E/DX2                !
 ! A104  A(52,47,57)           110.9276         estimate D2E/DX2                !
 ! A105  A(47,48,49)           110.16           estimate D2E/DX2                !
 ! A106  A(47,48,53)           108.8662         estimate D2E/DX2                !
 ! A107  A(47,48,56)           109.1029         estimate D2E/DX2                !
 ! A108  A(49,48,53)           108.3956         estimate D2E/DX2                !
 ! A109  A(49,48,56)           110.7053         estimate D2E/DX2                !
 ! A110  A(53,48,56)           109.5824         estimate D2E/DX2                !
 ! A111  A(37,49,48)           115.3753         estimate D2E/DX2                !
 ! A112  A(37,49,50)           105.331          estimate D2E/DX2                !
 ! A113  A(37,49,55)           110.3261         estimate D2E/DX2                !
 ! A114  A(48,49,50)           107.4643         estimate D2E/DX2                !
 ! A115  A(48,49,55)           109.9141         estimate D2E/DX2                !
 ! A116  A(50,49,55)           108.0643         estimate D2E/DX2                !
 ! A117  A(45,50,49)           109.0199         estimate D2E/DX2                !
 ! A118  A(45,50,54)           108.8021         estimate D2E/DX2                !
 ! A119  A(45,50,59)           108.6209         estimate D2E/DX2                !
 ! A120  A(49,50,54)           108.8862         estimate D2E/DX2                !
 ! A121  A(49,50,59)           114.6681         estimate D2E/DX2                !
 ! A122  A(54,50,59)           106.6978         estimate D2E/DX2                !
 ! A123  A(48,56,64)           105.8167         estimate D2E/DX2                !
 ! A124  A(47,57,65)           107.9361         estimate D2E/DX2                !
 ! A125  A(46,58,66)           116.6757         estimate D2E/DX2                !
 ! A126  A(50,59,60)           107.9083         estimate D2E/DX2                !
 ! A127  A(50,59,61)           108.175          estimate D2E/DX2                !
 ! A128  A(50,59,62)           114.1725         estimate D2E/DX2                !
 ! A129  A(60,59,61)           107.6564         estimate D2E/DX2                !
 ! A130  A(60,59,62)           108.1201         estimate D2E/DX2                !
 ! A131  A(61,59,62)           110.5887         estimate D2E/DX2                !
 ! A132  A(59,62,63)           107.1908         estimate D2E/DX2                !
 ! A133  A(59,62,83)           115.3524         estimate D2E/DX2                !
 ! A134  A(63,62,83)           134.7622         estimate D2E/DX2                !
 ! A135  A(58,66,67)           104.3637         estimate D2E/DX2                !
 ! A136  A(58,66,68)           109.1241         estimate D2E/DX2                !
 ! A137  A(58,66,69)           112.7507         estimate D2E/DX2                !
 ! A138  A(67,66,68)           108.2268         estimate D2E/DX2                !
 ! A139  A(67,66,69)           110.8763         estimate D2E/DX2                !
 ! A140  A(68,66,69)           111.197          estimate D2E/DX2                !
 ! A141  A(66,69,70)           108.2801         estimate D2E/DX2                !
 ! A142  A(66,69,71)           108.0066         estimate D2E/DX2                !
 ! A143  A(66,69,72)           112.3219         estimate D2E/DX2                !
 ! A144  A(70,69,71)           106.0121         estimate D2E/DX2                !
 ! A145  A(70,69,72)           111.5601         estimate D2E/DX2                !
 ! A146  A(71,69,72)           110.3943         estimate D2E/DX2                !
 ! A147  A(69,72,73)           109.0531         estimate D2E/DX2                !
 ! A148  A(69,72,74)           109.3013         estimate D2E/DX2                !
 ! A149  A(69,72,75)           115.5754         estimate D2E/DX2                !
 ! A150  A(73,72,74)           104.8947         estimate D2E/DX2                !
 ! A151  A(73,72,75)           109.3925         estimate D2E/DX2                !
 ! A152  A(74,72,75)           108.0866         estimate D2E/DX2                !
 ! A153  A(72,75,76)           108.616          estimate D2E/DX2                !
 ! A154  A(72,75,77)           110.5872         estimate D2E/DX2                !
 ! A155  A(72,75,78)           115.2923         estimate D2E/DX2                !
 ! A156  A(76,75,77)           106.0145         estimate D2E/DX2                !
 ! A157  A(76,75,78)           109.0141         estimate D2E/DX2                !
 ! A158  A(77,75,78)           106.9122         estimate D2E/DX2                !
 ! A159  A(75,78,79)           111.9706         estimate D2E/DX2                !
 ! A160  A(75,78,80)           110.971          estimate D2E/DX2                !
 ! A161  A(75,78,81)           112.0252         estimate D2E/DX2                !
 ! A162  A(79,78,80)           107.5656         estimate D2E/DX2                !
 ! A163  A(79,78,81)           106.5257         estimate D2E/DX2                !
 ! A164  A(80,78,81)           107.517          estimate D2E/DX2                !
 ! A165  A(78,81,82)           110.7957         estimate D2E/DX2                !
 ! A166  A(78,81,83)           113.2167         estimate D2E/DX2                !
 ! A167  A(78,81,84)           113.7089         estimate D2E/DX2                !
 ! A168  A(82,81,83)           102.7837         estimate D2E/DX2                !
 ! A169  A(82,81,84)           107.3856         estimate D2E/DX2                !
 ! A170  A(83,81,84)           108.2413         estimate D2E/DX2                !
 ! A171  A(45,82,81)           153.0366         estimate D2E/DX2                !
 ! A172  A(62,83,81)           144.3272         estimate D2E/DX2                !
 ! A173  A(13,84,81)           152.3212         estimate D2E/DX2                !
 ! A174  L(35,63,62,1,-1)      189.4606         estimate D2E/DX2                !
 ! A175  L(35,63,62,1,-2)      182.2409         estimate D2E/DX2                !
 ! D1    D(6,1,2,3)            -53.8379         estimate D2E/DX2                !
 ! D2    D(6,1,2,7)           -175.0854         estimate D2E/DX2                !
 ! D3    D(6,1,2,15)            64.6574         estimate D2E/DX2                !
 ! D4    D(2,1,6,5)             52.0098         estimate D2E/DX2                !
 ! D5    D(2,1,6,11)           -67.5539         estimate D2E/DX2                !
 ! D6    D(2,1,6,16)           176.7812         estimate D2E/DX2                !
 ! D7    D(1,2,3,4)             54.8782         estimate D2E/DX2                !
 ! D8    D(1,2,3,8)            -63.1941         estimate D2E/DX2                !
 ! D9    D(1,2,3,14)           179.5824         estimate D2E/DX2                !
 ! D10   D(7,2,3,4)            172.3824         estimate D2E/DX2                !
 ! D11   D(7,2,3,8)             54.3101         estimate D2E/DX2                !
 ! D12   D(7,2,3,14)           -62.9134         estimate D2E/DX2                !
 ! D13   D(15,2,3,4)           -68.7839         estimate D2E/DX2                !
 ! D14   D(15,2,3,8)           173.1438         estimate D2E/DX2                !
 ! D15   D(15,2,3,14)           55.9203         estimate D2E/DX2                !
 ! D16   D(1,2,15,27)           64.663          estimate D2E/DX2                !
 ! D17   D(3,2,15,27)         -172.0729         estimate D2E/DX2                !
 ! D18   D(7,2,15,27)          -52.5003         estimate D2E/DX2                !
 ! D19   D(2,3,4,5)            -55.6376         estimate D2E/DX2                !
 ! D20   D(2,3,4,9)             64.6722         estimate D2E/DX2                !
 ! D21   D(2,3,4,13)          -178.4583         estimate D2E/DX2                !
 ! D22   D(8,3,4,5)             62.033          estimate D2E/DX2                !
 ! D23   D(8,3,4,9)           -177.6572         estimate D2E/DX2                !
 ! D24   D(8,3,4,13)           -60.7877         estimate D2E/DX2                !
 ! D25   D(14,3,4,5)          -179.4273         estimate D2E/DX2                !
 ! D26   D(14,3,4,9)           -59.1175         estimate D2E/DX2                !
 ! D27   D(14,3,4,13)           57.752          estimate D2E/DX2                !
 ! D28   D(2,3,14,23)          -34.6183         estimate D2E/DX2                !
 ! D29   D(4,3,14,23)           88.1598         estimate D2E/DX2                !
 ! D30   D(8,3,14,23)         -152.3963         estimate D2E/DX2                !
 ! D31   D(3,4,5,6)             54.3252         estimate D2E/DX2                !
 ! D32   D(3,4,5,10)           171.1901         estimate D2E/DX2                !
 ! D33   D(3,4,5,12)           -70.6772         estimate D2E/DX2                !
 ! D34   D(9,4,5,6)            -65.966          estimate D2E/DX2                !
 ! D35   D(9,4,5,10)            50.899          estimate D2E/DX2                !
 ! D36   D(9,4,5,12)           169.0317         estimate D2E/DX2                !
 ! D37   D(13,4,5,6)           177.98           estimate D2E/DX2                !
 ! D38   D(13,4,5,10)          -65.155          estimate D2E/DX2                !
 ! D39   D(13,4,5,12)           52.9777         estimate D2E/DX2                !
 ! D40   D(3,4,13,22)           76.7572         estimate D2E/DX2                !
 ! D41   D(3,4,13,84)          -75.0145         estimate D2E/DX2                !
 ! D42   D(5,4,13,22)          -46.113          estimate D2E/DX2                !
 ! D43   D(5,4,13,84)          162.1153         estimate D2E/DX2                !
 ! D44   D(9,4,13,22)         -164.3151         estimate D2E/DX2                !
 ! D45   D(9,4,13,84)           43.9132         estimate D2E/DX2                !
 ! D46   D(4,5,6,1)            -51.3614         estimate D2E/DX2                !
 ! D47   D(4,5,6,11)            69.6683         estimate D2E/DX2                !
 ! D48   D(4,5,6,16)          -171.6403         estimate D2E/DX2                !
 ! D49   D(10,5,6,1)          -169.1602         estimate D2E/DX2                !
 ! D50   D(10,5,6,11)          -48.1305         estimate D2E/DX2                !
 ! D51   D(10,5,6,16)           70.5609         estimate D2E/DX2                !
 ! D52   D(12,5,6,1)            68.2349         estimate D2E/DX2                !
 ! D53   D(12,5,6,11)         -170.7354         estimate D2E/DX2                !
 ! D54   D(12,5,6,16)          -52.044          estimate D2E/DX2                !
 ! D55   D(4,5,12,21)          149.7663         estimate D2E/DX2                !
 ! D56   D(6,5,12,21)           27.9351         estimate D2E/DX2                !
 ! D57   D(10,5,12,21)         -93.0717         estimate D2E/DX2                !
 ! D58   D(1,6,11,31)           -2.5937         estimate D2E/DX2                !
 ! D59   D(5,6,11,31)         -125.6108         estimate D2E/DX2                !
 ! D60   D(16,6,11,31)         111.8336         estimate D2E/DX2                !
 ! D61   D(1,6,16,17)           58.451          estimate D2E/DX2                !
 ! D62   D(1,6,16,18)          176.9866         estimate D2E/DX2                !
 ! D63   D(1,6,16,19)          -65.1357         estimate D2E/DX2                !
 ! D64   D(5,6,16,17)         -177.21           estimate D2E/DX2                !
 ! D65   D(5,6,16,18)          -58.6744         estimate D2E/DX2                !
 ! D66   D(5,6,16,19)           59.2033         estimate D2E/DX2                !
 ! D67   D(11,6,16,17)         -58.7187         estimate D2E/DX2                !
 ! D68   D(11,6,16,18)          59.8169         estimate D2E/DX2                !
 ! D69   D(11,6,16,19)         177.6946         estimate D2E/DX2                !
 ! D70   D(6,11,31,26)          -5.7222         estimate D2E/DX2                !
 ! D71   D(4,13,84,81)         -49.7938         estimate D2E/DX2                !
 ! D72   D(22,13,84,81)        173.1331         estimate D2E/DX2                !
 ! D73   D(2,15,27,26)        -119.3193         estimate D2E/DX2                !
 ! D74   D(2,15,27,28)         114.952          estimate D2E/DX2                !
 ! D75   D(2,15,27,32)          -4.5594         estimate D2E/DX2                !
 ! D76   D(6,16,19,20)          72.2076         estimate D2E/DX2                !
 ! D77   D(17,16,19,20)        -50.5527         estimate D2E/DX2                !
 ! D78   D(18,16,19,20)       -167.91           estimate D2E/DX2                !
 ! D79   D(29,24,25,26)         24.7467         estimate D2E/DX2                !
 ! D80   D(29,24,25,30)        143.5178         estimate D2E/DX2                !
 ! D81   D(29,24,25,37)       -102.4829         estimate D2E/DX2                !
 ! D82   D(25,24,29,28)         30.1513         estimate D2E/DX2                !
 ! D83   D(25,24,29,34)        -89.8459         estimate D2E/DX2                !
 ! D84   D(25,24,29,38)        154.1021         estimate D2E/DX2                !
 ! D85   D(24,25,26,27)        -53.2292         estimate D2E/DX2                !
 ! D86   D(24,25,26,31)       -174.764          estimate D2E/DX2                !
 ! D87   D(24,25,26,36)         65.0112         estimate D2E/DX2                !
 ! D88   D(30,25,26,27)       -170.2606         estimate D2E/DX2                !
 ! D89   D(30,25,26,31)         68.2046         estimate D2E/DX2                !
 ! D90   D(30,25,26,36)        -52.0203         estimate D2E/DX2                !
 ! D91   D(37,25,26,27)         68.419          estimate D2E/DX2                !
 ! D92   D(37,25,26,31)        -53.1158         estimate D2E/DX2                !
 ! D93   D(37,25,26,36)       -173.3406         estimate D2E/DX2                !
 ! D94   D(24,25,37,49)        163.6366         estimate D2E/DX2                !
 ! D95   D(26,25,37,49)         38.5163         estimate D2E/DX2                !
 ! D96   D(30,25,37,49)        -83.4996         estimate D2E/DX2                !
 ! D97   D(25,26,27,15)        -99.8769         estimate D2E/DX2                !
 ! D98   D(25,26,27,28)         24.4045         estimate D2E/DX2                !
 ! D99   D(25,26,27,32)        142.3921         estimate D2E/DX2                !
 ! D100  D(31,26,27,15)         21.6787         estimate D2E/DX2                !
 ! D101  D(31,26,27,28)        145.9601         estimate D2E/DX2                !
 ! D102  D(31,26,27,32)        -96.0523         estimate D2E/DX2                !
 ! D103  D(36,26,27,15)        140.189          estimate D2E/DX2                !
 ! D104  D(36,26,27,28)        -95.5296         estimate D2E/DX2                !
 ! D105  D(36,26,27,32)         22.458          estimate D2E/DX2                !
 ! D106  D(25,26,31,11)        158.45           estimate D2E/DX2                !
 ! D107  D(27,26,31,11)         33.5284         estimate D2E/DX2                !
 ! D108  D(36,26,31,11)        -82.1828         estimate D2E/DX2                !
 ! D109  D(25,26,36,44)         55.9251         estimate D2E/DX2                !
 ! D110  D(27,26,36,44)        179.3021         estimate D2E/DX2                !
 ! D111  D(31,26,36,44)        -63.2937         estimate D2E/DX2                !
 ! D112  D(15,27,28,29)        150.3865         estimate D2E/DX2                !
 ! D113  D(15,27,28,33)        -93.7132         estimate D2E/DX2                !
 ! D114  D(15,27,28,35)         24.7646         estimate D2E/DX2                !
 ! D115  D(26,27,28,29)         26.823          estimate D2E/DX2                !
 ! D116  D(26,27,28,33)        142.7233         estimate D2E/DX2                !
 ! D117  D(26,27,28,35)        -98.7989         estimate D2E/DX2                !
 ! D118  D(32,27,28,29)        -89.2522         estimate D2E/DX2                !
 ! D119  D(32,27,28,33)         26.6481         estimate D2E/DX2                !
 ! D120  D(32,27,28,35)        145.1259         estimate D2E/DX2                !
 ! D121  D(27,28,29,24)        -56.749          estimate D2E/DX2                !
 ! D122  D(27,28,29,34)         63.8879         estimate D2E/DX2                !
 ! D123  D(27,28,29,38)       -175.9093         estimate D2E/DX2                !
 ! D124  D(33,28,29,24)       -173.5613         estimate D2E/DX2                !
 ! D125  D(33,28,29,34)        -52.9243         estimate D2E/DX2                !
 ! D126  D(33,28,29,38)         67.2784         estimate D2E/DX2                !
 ! D127  D(35,28,29,24)         68.2132         estimate D2E/DX2                !
 ! D128  D(35,28,29,34)       -171.1499         estimate D2E/DX2                !
 ! D129  D(35,28,29,38)        -50.9471         estimate D2E/DX2                !
 ! D130  D(27,28,35,43)        147.675          estimate D2E/DX2                !
 ! D131  D(27,28,35,63)          9.6128         estimate D2E/DX2                !
 ! D132  D(29,28,35,43)         24.0039         estimate D2E/DX2                !
 ! D133  D(29,28,35,63)       -114.0583         estimate D2E/DX2                !
 ! D134  D(33,28,35,43)        -93.6115         estimate D2E/DX2                !
 ! D135  D(33,28,35,63)        128.3263         estimate D2E/DX2                !
 ! D136  D(24,29,38,39)         60.6919         estimate D2E/DX2                !
 ! D137  D(24,29,38,40)       -179.4843         estimate D2E/DX2                !
 ! D138  D(24,29,38,41)        -61.3715         estimate D2E/DX2                !
 ! D139  D(28,29,38,39)       -174.3197         estimate D2E/DX2                !
 ! D140  D(28,29,38,40)        -54.4959         estimate D2E/DX2                !
 ! D141  D(28,29,38,41)         63.6169         estimate D2E/DX2                !
 ! D142  D(34,29,38,39)        -55.0419         estimate D2E/DX2                !
 ! D143  D(34,29,38,40)         64.7819         estimate D2E/DX2                !
 ! D144  D(34,29,38,41)       -177.1053         estimate D2E/DX2                !
 ! D145  D(28,35,62,59)         93.5212         estimate D2E/DX2                !
 ! D146  D(28,35,62,83)        -73.053          estimate D2E/DX2                !
 ! D147  D(43,35,62,59)        -43.3855         estimate D2E/DX2                !
 ! D148  D(43,35,62,83)        150.0404         estimate D2E/DX2                !
 ! D149  D(25,37,49,48)         66.5353         estimate D2E/DX2                !
 ! D150  D(25,37,49,50)       -175.1413         estimate D2E/DX2                !
 ! D151  D(25,37,49,55)        -58.7544         estimate D2E/DX2                !
 ! D152  D(29,38,41,42)         64.0536         estimate D2E/DX2                !
 ! D153  D(39,38,41,42)        -57.723          estimate D2E/DX2                !
 ! D154  D(40,38,41,42)       -175.3338         estimate D2E/DX2                !
 ! D155  D(50,45,46,47)        -61.4919         estimate D2E/DX2                !
 ! D156  D(50,45,46,51)         59.7402         estimate D2E/DX2                !
 ! D157  D(50,45,46,58)       -178.5711         estimate D2E/DX2                !
 ! D158  D(82,45,46,47)         97.0405         estimate D2E/DX2                !
 ! D159  D(82,45,46,51)       -141.7274         estimate D2E/DX2                !
 ! D160  D(82,45,46,58)        -20.0387         estimate D2E/DX2                !
 ! D161  D(46,45,50,49)         67.0631         estimate D2E/DX2                !
 ! D162  D(46,45,50,54)        -51.5601         estimate D2E/DX2                !
 ! D163  D(46,45,50,59)       -167.3457         estimate D2E/DX2                !
 ! D164  D(82,45,50,49)        -91.9475         estimate D2E/DX2                !
 ! D165  D(82,45,50,54)        149.4293         estimate D2E/DX2                !
 ! D166  D(82,45,50,59)         33.6438         estimate D2E/DX2                !
 ! D167  D(46,45,82,81)       -179.1753         estimate D2E/DX2                !
 ! D168  D(50,45,82,81)        -22.6506         estimate D2E/DX2                !
 ! D169  D(45,46,47,48)         53.8809         estimate D2E/DX2                !
 ! D170  D(45,46,47,52)        -65.0562         estimate D2E/DX2                !
 ! D171  D(45,46,47,57)        173.2236         estimate D2E/DX2                !
 ! D172  D(51,46,47,48)        -65.3074         estimate D2E/DX2                !
 ! D173  D(51,46,47,52)        175.7555         estimate D2E/DX2                !
 ! D174  D(51,46,47,57)         54.0353         estimate D2E/DX2                !
 ! D175  D(58,46,47,48)        172.3816         estimate D2E/DX2                !
 ! D176  D(58,46,47,52)         53.4445         estimate D2E/DX2                !
 ! D177  D(58,46,47,57)        -68.2757         estimate D2E/DX2                !
 ! D178  D(45,46,58,66)        -80.3805         estimate D2E/DX2                !
 ! D179  D(47,46,58,66)        161.699          estimate D2E/DX2                !
 ! D180  D(51,46,58,66)         39.3477         estimate D2E/DX2                !
 ! D181  D(46,47,48,49)        -52.5875         estimate D2E/DX2                !
 ! D182  D(46,47,48,53)         66.1445         estimate D2E/DX2                !
 ! D183  D(46,47,48,56)       -174.3056         estimate D2E/DX2                !
 ! D184  D(52,47,48,49)         65.3632         estimate D2E/DX2                !
 ! D185  D(52,47,48,53)       -175.9048         estimate D2E/DX2                !
 ! D186  D(52,47,48,56)        -56.3549         estimate D2E/DX2                !
 ! D187  D(57,47,48,49)       -175.3824         estimate D2E/DX2                !
 ! D188  D(57,47,48,53)        -56.6503         estimate D2E/DX2                !
 ! D189  D(57,47,48,56)         62.8996         estimate D2E/DX2                !
 ! D190  D(46,47,57,65)         63.5459         estimate D2E/DX2                !
 ! D191  D(48,47,57,65)       -173.4868         estimate D2E/DX2                !
 ! D192  D(52,47,57,65)        -55.8148         estimate D2E/DX2                !
 ! D193  D(47,48,49,37)        172.0211         estimate D2E/DX2                !
 ! D194  D(47,48,49,50)         54.8922         estimate D2E/DX2                !
 ! D195  D(47,48,49,55)        -62.4767         estimate D2E/DX2                !
 ! D196  D(53,48,49,37)         53.0013         estimate D2E/DX2                !
 ! D197  D(53,48,49,50)        -64.1275         estimate D2E/DX2                !
 ! D198  D(53,48,49,55)        178.5035         estimate D2E/DX2                !
 ! D199  D(56,48,49,37)        -67.2174         estimate D2E/DX2                !
 ! D200  D(56,48,49,50)        175.6537         estimate D2E/DX2                !
 ! D201  D(56,48,49,55)         58.2848         estimate D2E/DX2                !
 ! D202  D(47,48,56,64)        -52.4459         estimate D2E/DX2                !
 ! D203  D(49,48,56,64)       -173.8331         estimate D2E/DX2                !
 ! D204  D(53,48,56,64)         66.6595         estimate D2E/DX2                !
 ! D205  D(37,49,50,45)        174.5379         estimate D2E/DX2                !
 ! D206  D(37,49,50,54)        -66.8916         estimate D2E/DX2                !
 ! D207  D(37,49,50,59)         52.5338         estimate D2E/DX2                !
 ! D208  D(48,49,50,45)        -61.952          estimate D2E/DX2                !
 ! D209  D(48,49,50,54)         56.6185         estimate D2E/DX2                !
 ! D210  D(48,49,50,59)        176.0439         estimate D2E/DX2                !
 ! D211  D(55,49,50,45)         56.6158         estimate D2E/DX2                !
 ! D212  D(55,49,50,54)        175.1863         estimate D2E/DX2                !
 ! D213  D(55,49,50,59)        -65.3884         estimate D2E/DX2                !
 ! D214  D(45,50,59,60)         52.038          estimate D2E/DX2                !
 ! D215  D(45,50,59,61)        168.2428         estimate D2E/DX2                !
 ! D216  D(45,50,59,62)        -68.1807         estimate D2E/DX2                !
 ! D217  D(49,50,59,60)        174.2589         estimate D2E/DX2                !
 ! D218  D(49,50,59,61)        -69.5364         estimate D2E/DX2                !
 ! D219  D(49,50,59,62)         54.0401         estimate D2E/DX2                !
 ! D220  D(54,50,59,60)        -65.1009         estimate D2E/DX2                !
 ! D221  D(54,50,59,61)         51.1039         estimate D2E/DX2                !
 ! D222  D(54,50,59,62)        174.6804         estimate D2E/DX2                !
 ! D223  D(46,58,66,67)       -152.6179         estimate D2E/DX2                !
 ! D224  D(46,58,66,68)        -37.1168         estimate D2E/DX2                !
 ! D225  D(46,58,66,69)         86.9662         estimate D2E/DX2                !
 ! D226  D(50,59,62,63)        -91.4123         estimate D2E/DX2                !
 ! D227  D(50,59,62,83)         72.7917         estimate D2E/DX2                !
 ! D228  D(60,59,62,63)        148.4875         estimate D2E/DX2                !
 ! D229  D(60,59,62,83)        -47.3085         estimate D2E/DX2                !
 ! D230  D(61,59,62,63)         30.8525         estimate D2E/DX2                !
 ! D231  D(61,59,62,83)       -164.9435         estimate D2E/DX2                !
 ! D232  D(59,62,83,81)        -34.5276         estimate D2E/DX2                !
 ! D233  D(63,62,83,81)        123.9877         estimate D2E/DX2                !
 ! D234  D(58,66,69,70)        -67.7714         estimate D2E/DX2                !
 ! D235  D(58,66,69,71)        177.8456         estimate D2E/DX2                !
 ! D236  D(58,66,69,72)         55.8694         estimate D2E/DX2                !
 ! D237  D(67,66,69,70)        175.6233         estimate D2E/DX2                !
 ! D238  D(67,66,69,71)         61.2402         estimate D2E/DX2                !
 ! D239  D(67,66,69,72)        -60.7359         estimate D2E/DX2                !
 ! D240  D(68,66,69,70)         55.1621         estimate D2E/DX2                !
 ! D241  D(68,66,69,71)        -59.221          estimate D2E/DX2                !
 ! D242  D(68,66,69,72)        178.8029         estimate D2E/DX2                !
 ! D243  D(66,69,72,73)        -38.9148         estimate D2E/DX2                !
 ! D244  D(66,69,72,74)         75.233          estimate D2E/DX2                !
 ! D245  D(66,69,72,75)       -162.6069         estimate D2E/DX2                !
 ! D246  D(70,69,72,73)         82.8753         estimate D2E/DX2                !
 ! D247  D(70,69,72,74)       -162.977          estimate D2E/DX2                !
 ! D248  D(70,69,72,75)        -40.8169         estimate D2E/DX2                !
 ! D249  D(71,69,72,73)       -159.5227         estimate D2E/DX2                !
 ! D250  D(71,69,72,74)        -45.375          estimate D2E/DX2                !
 ! D251  D(71,69,72,75)         76.7852         estimate D2E/DX2                !
 ! D252  D(69,72,75,76)       -178.6476         estimate D2E/DX2                !
 ! D253  D(69,72,75,77)        -62.7032         estimate D2E/DX2                !
 ! D254  D(69,72,75,78)         58.709          estimate D2E/DX2                !
 ! D255  D(73,72,75,76)         57.8384         estimate D2E/DX2                !
 ! D256  D(73,72,75,77)        173.7828         estimate D2E/DX2                !
 ! D257  D(73,72,75,78)        -64.805          estimate D2E/DX2                !
 ! D258  D(74,72,75,76)        -55.8418         estimate D2E/DX2                !
 ! D259  D(74,72,75,77)         60.1026         estimate D2E/DX2                !
 ! D260  D(74,72,75,78)       -178.4852         estimate D2E/DX2                !
 ! D261  D(72,75,78,79)        -71.348          estimate D2E/DX2                !
 ! D262  D(72,75,78,80)        168.4438         estimate D2E/DX2                !
 ! D263  D(72,75,78,81)         48.2604         estimate D2E/DX2                !
 ! D264  D(76,75,78,79)        166.2212         estimate D2E/DX2                !
 ! D265  D(76,75,78,80)         46.013          estimate D2E/DX2                !
 ! D266  D(76,75,78,81)        -74.1704         estimate D2E/DX2                !
 ! D267  D(77,75,78,79)         52.0308         estimate D2E/DX2                !
 ! D268  D(77,75,78,80)        -68.1775         estimate D2E/DX2                !
 ! D269  D(77,75,78,81)        171.6392         estimate D2E/DX2                !
 ! D270  D(75,78,81,82)        -64.9761         estimate D2E/DX2                !
 ! D271  D(75,78,81,83)       -179.8392         estimate D2E/DX2                !
 ! D272  D(75,78,81,84)         56.0793         estimate D2E/DX2                !
 ! D273  D(79,78,81,82)         57.7756         estimate D2E/DX2                !
 ! D274  D(79,78,81,83)        -57.0875         estimate D2E/DX2                !
 ! D275  D(79,78,81,84)        178.8311         estimate D2E/DX2                !
 ! D276  D(80,78,81,82)        172.8476         estimate D2E/DX2                !
 ! D277  D(80,78,81,83)         57.9845         estimate D2E/DX2                !
 ! D278  D(80,78,81,84)        -66.097          estimate D2E/DX2                !
 ! D279  D(78,81,82,45)       -100.934          estimate D2E/DX2                !
 ! D280  D(83,81,82,45)         20.3024         estimate D2E/DX2                !
 ! D281  D(84,81,82,45)        134.3429         estimate D2E/DX2                !
 ! D282  D(78,81,83,62)        114.8958         estimate D2E/DX2                !
 ! D283  D(82,81,83,62)         -4.6729         estimate D2E/DX2                !
 ! D284  D(84,81,83,62)       -118.0879         estimate D2E/DX2                !
 ! D285  D(78,81,84,13)       -145.7433         estimate D2E/DX2                !
 ! D286  D(82,81,84,13)        -22.7987         estimate D2E/DX2                !
 ! D287  D(83,81,84,13)         87.5252         estimate D2E/DX2                !
 --------------------------------------------------------------------------------
 Trust Radius=3.00D-01 FncErr=1.00D-07 GrdErr=1.00D-06
 Number of steps in this run=    504 maximum allowed number of steps=    504.
 GradGradGradGradGradGradGradGradGradGradGradGradGradGradGradGradGradGrad

 Leave Link  103 at Wed Apr  6 15:55:06 2016, MaxMem= 10737418240 cpu:         1.0
 (Enter /share/apps//g09/l202.exe)
 Stoichiometry    C23H44NO16(1+)
 Framework group  C1[X(C23H44NO16)]
 Deg. of freedom   246
 Full point group                 C1      NOp   1
 Largest Abelian subgroup         C1      NOp   1
 Largest concise Abelian subgroup C1      NOp   1
                         Standard orientation:                         
 ---------------------------------------------------------------------
 Center     Atomic      Atomic             Coordinates (Angstroms)
 Number     Number       Type             X           Y           Z
 ---------------------------------------------------------------------
      1          8           0       -1.795078    3.166951   -0.365729
      2          6           0       -1.546815    2.191435   -1.354340
      3          6           0       -0.130562    2.285179   -1.942679
      4          6           0        0.898604    2.218621   -0.798892
      5          6           0        0.614413    3.311839    0.234709
      6          6           0       -0.840062    3.212427    0.720059
      7          1           0       -2.313666    2.370972   -2.126503
      8          1           0       -0.034610    3.258177   -2.447276
      9          1           0        0.840640    1.231781   -0.312643
     10          1           0        1.264832    3.140775    1.117901
     11          1           0       -0.920136    2.290479    1.328014
     12          8           0        0.958950    4.544568   -0.393631
     13          8           0        2.244445    2.337971   -1.289855
     14          8           0        0.081100    1.278154   -2.928265
     15          8           0       -1.641602    0.848797   -0.866806
     16          6           0       -1.273266    4.382912    1.599458
     17          1           0       -2.305064    4.215526    1.946745
     18          1           0       -0.618571    4.444079    2.480154
     19          8           0       -1.159651    5.649002    0.927861
     20          1           0       -1.870704    5.689251    0.261399
     21          1           0        0.374408    5.242239   -0.014380
     22          1           0        2.380868    3.286456   -1.490456
     23          1           0       -0.418793    0.495174   -2.626208
     24          8           0       -3.781589   -2.197569    0.688352
     25          6           0       -2.758460   -1.478391    1.328987
     26          6           0       -2.858904    0.036515    1.073368
     27          6           0       -2.935603    0.424038   -0.415064
     28          6           0       -3.489418   -0.709461   -1.316701
     29          6           0       -4.407764   -1.618429   -0.485233
     30          1           0       -2.885531   -1.667608    2.409543
     31          1           0       -1.984353    0.527037    1.519075
     32          1           0       -3.638600    1.270653   -0.453610
     33          1           0       -4.120124   -0.250217   -2.100045
     34          1           0       -5.269510   -1.007493   -0.158577
     35          8           0       -2.434410   -1.431207   -1.970226
     36          8           0       -4.064393    0.529986    1.670979
     37          8           0       -1.520533   -2.106195    0.917920
     38          6           0       -4.922106   -2.824365   -1.270136
     39          1           0       -5.650832   -3.381353   -0.661803
     40          1           0       -5.414763   -2.503565   -2.197982
     41          8           0       -3.832186   -3.687149   -1.659081
     42          1           0       -3.453553   -4.022786   -0.822281
     43          1           0       -2.762199   -2.366673   -2.057574
     44          1           0       -4.056593    0.292516    2.615600
     45          8           0        2.064927   -1.700048    0.443280
     46          6           0        2.575330   -1.552203    1.795569
     47          6           0        1.600777   -0.685224    2.596159
     48          6           0        0.165911   -1.223188    2.547012
     49          6           0       -0.268049   -1.440261    1.090884
     50          6           0        0.778760   -2.360995    0.427821
     51          1           0        2.678499   -2.564379    2.239738
     52          1           0        1.614989    0.322866    2.136240
     53          1           0        0.130819   -2.198511    3.071398
     54          1           0        0.852497   -3.299901    1.012565
     55          1           0       -0.267935   -0.477378    0.550973
     56          8           0       -0.705068   -0.294935    3.201637
     57          8           0        1.950653   -0.620177    3.975545
     58          8           0        3.791212   -0.886694    1.763793
     59          6           0        0.454873   -2.762965   -1.007757
     60          1           0        1.314698   -3.326433   -1.403981
     61          1           0       -0.408909   -3.443470   -0.986898
     62          8           0        0.205602   -1.662898   -1.880019
     63          1           0       -0.778173   -1.486129   -1.858964
     64          1           0       -0.310686   -0.133924    4.079650
     65          1           0        2.818959   -0.184080    4.044544
     66          6           0        4.960178   -1.679853    1.424901
     67          1           0        5.793845   -1.163272    1.922153
     68          1           0        4.858994   -2.682090    1.873138
     69          6           0        5.196639   -1.769899   -0.082369
     70          1           0        4.380080   -2.360711   -0.525327
     71          1           0        6.117839   -2.351902   -0.248585
     72          6           0        5.312274   -0.384855   -0.738968
     73          1           0        4.582277    0.296667   -0.272341
     74          1           0        6.296042    0.049095   -0.502276
     75          6           0        5.133203   -0.357068   -2.265412
     76          1           0        5.261685    0.679310   -2.615711
     77          1           0        5.923353   -0.944761   -2.758829
     78          6           0        3.793704   -0.893986   -2.776745
     79          1           0        3.719649   -1.984369   -2.668106
     80          1           0        3.655340   -0.656855   -3.839260
     81          7           0        2.633644   -0.311853   -2.030296
     82          1           0        2.649547   -0.608384   -1.033882
     83          1           0        1.710876   -0.667435   -2.362236
     84          1           0        2.606097    0.734195   -2.044844
 ---------------------------------------------------------------------
 Rotational constants (GHZ):      0.1056562      0.0793768      0.0657503
 Leave Link  202 at Wed Apr  6 15:55:07 2016, MaxMem= 10737418240 cpu:         7.2
 (Enter /share/apps//g09/l301.exe)
 Standard basis: 6-311+G(d,p) (5D, 7F)
 Ernie: Thresh=  0.10000D-02 Tol=  0.10000D-05 Strict=F.
 There are  1184 symmetry adapted cartesian basis functions of A   symmetry.
 There are  1144 symmetry adapted basis functions of A   symmetry.
  1144 basis functions,  1792 primitive gaussians,  1184 cartesian basis functions
   158 alpha electrons      158 beta electrons
       nuclear repulsion energy      6016.1859361179 Hartrees.
 IExCor= 1009 DFT=T Ex+Corr=PBE1PBE ExCW=0 ScaHFX=  0.250000
 ScaDFX=  0.750000  0.750000  1.000000  1.000000 ScalE2=  1.000000  1.000000
 IRadAn=      0 IRanWt=     -1 IRanGd=            0 ICorTp=0 IEmpDi=131
 NAtoms=   84 NActive=   84 NUniq=   84 SFac= 1.00D+00 NAtFMM=   60 NAOKFM=T Big=T
 Integral buffers will be    131072 words long.
 Raffenetti 2 integral format.
 Two-electron integral symmetry is turned on.
 R6Disp:  Grimme-D3 Dispersion energy=       -0.0875148265 Hartrees.
 Nuclear repulsion after empirical dispersion term =     6016.0984212914 Hartrees.
 Leave Link  301 at Wed Apr  6 15:55:08 2016, MaxMem= 10737418240 cpu:         3.8
 (Enter /share/apps//g09/l302.exe)
 NPDir=0 NMtPBC=     1 NCelOv=     1 NCel=       1 NClECP=     1 NCelD=      1
         NCelK=      1 NCelE2=     1 NClLst=     1 CellRange=     0.0.
 One-electron integrals computed using PRISM.
 NBasis=  1144 RedAO= T EigKep=  1.26D-06  NBF=  1144
 NBsUse=  1143 1.00D-06 EigRej=  9.94D-07 NBFU=  1143
 Precomputing XC quadrature grid using
 IXCGrd= 4 IRadAn=           0 IRanWt=          -1 IRanGd=           0 AccXCQ= 0.00D+00.
 Generated NRdTot=       0 NPtTot=           0 NUsed=           0 NTot=          32
 NSgBfM=  1092  1093  1102  1102  1105 MxSgAt=    84 MxSgA2=    84.
 Leave Link  302 at Wed Apr  6 15:55:16 2016, MaxMem= 10737418240 cpu:        76.0
 (Enter /share/apps//g09/l303.exe)
 DipDrv:  MaxL=1.
 Leave Link  303 at Wed Apr  6 15:55:17 2016, MaxMem= 10737418240 cpu:        10.1
 (Enter /share/apps//g09/l401.exe)
 ExpMin= 4.38D-02 ExpMax= 8.59D+03 ExpMxC= 1.30D+03 IAcc=2 IRadAn=         4 AccDes= 0.00D+00
 Harris functional with IExCor= 1009 and IRadAn=       4 diagonalized for initial guess.
 HarFok:  IExCor= 1009 AccDes= 0.00D+00 IRadAn=         4 IDoV= 1 UseB2=F ITyADJ=14
 ICtDFT=  3500011 ScaDFX=  1.000000  1.000000  1.000000  1.000000
 FoFCou: FMM=F IPFlag=           0 FMFlag=      100000 FMFlg1=        2001
         NFxFlg=           0 DoJE=T BraDBF=F KetDBF=T FulRan=T
         wScrn=  0.000000 ICntrl=     500 IOpCl=  0 I1Cent=   200000004 NGrid=           0
         NMat0=    1 NMatS0=      1 NMatT0=    0 NMatD0=    1 NMtDS0=    0 NMtDT0=    0
 Petite list used in FoFCou.
 Harris En= -2159.70321950694    
 JPrj=0 DoOrth=F DoCkMO=F.
 Leave Link  401 at Wed Apr  6 15:55:25 2016, MaxMem= 10737418240 cpu:       147.6
 (Enter /share/apps//g09/l502.exe)
 Closed shell SCF:
 Using DIIS extrapolation, IDIIS=  1040.
 Integral symmetry usage will be decided dynamically.
 IVT=     4256630 IEndB=     4256630 NGot= 10737418240 MDV= 10734581291
 LenX= 10734581291 LenY= 10733178251
 Requested convergence on RMS density matrix=1.00D-08 within 128 cycles.
 Requested convergence on MAX density matrix=1.00D-06.
 Requested convergence on             energy=1.00D-06.
 No special actions if energy rises.
 Fock matrices will be formed incrementally for  20 cycles.

 Cycle   1  Pass 1  IDiag  1:
 FoFJK:  IHMeth= 1 ICntrl=       0 DoSepK=F KAlg= 0 I1Cent=   0 FoldK=F
 IRaf= 800000000 NMat=   1 IRICut=       1 DoRegI=T DoRafI=F ISym2E= 0.
 FoFCou: FMM=T IPFlag=           0 FMFlag=      100000 FMFlg1=        2001
         NFxFlg=           0 DoJE=F BraDBF=F KetDBF=F FulRan=T
         wScrn=  0.000000 ICntrl=       0 IOpCl=  0 I1Cent=           0 NGrid=           0
         NMat0=    1 NMatS0=      1 NMatT0=    0 NMatD0=    1 NMtDS0=    0 NMtDT0=    0
 Symmetry not used in FoFCou.
 FMM levels:  10  Number of levels for PrismC:   9
 E= -2158.69895592940    
 DIIS: error= 1.21D-02 at cycle   1 NSaved=   1.
 NSaved= 1 IEnMin= 1 EnMin= -2158.69895592940     IErMin= 1 ErrMin= 1.21D-02
 ErrMax= 1.21D-02  0.00D+00 EMaxC= 1.00D-01 BMatC= 1.01D+00 BMatP= 1.01D+00
 IDIUse=3 WtCom= 8.79D-01 WtEn= 1.21D-01
 Coeff-Com:  0.100D+01
 Coeff-En:   0.100D+01
 Coeff:      0.100D+01
 Gap=     0.293 Goal=   None    Shift=    0.000
 GapD=    0.293 DampG=1.000 DampE=0.500 DampFc=0.5000 IDamp=-1.
 Damping current iteration by 5.00D-01
 RMSDP=1.14D-02 MaxDP=1.64D+00              OVMax= 1.38D-01

 Cycle   2  Pass 1  IDiag  1:
 RMSU=  5.54D-03    CP:  1.03D+00
 E= -2158.97931017342     Delta-E=       -0.280354244020 Rises=F Damp=T
 DIIS: error= 3.14D-03 at cycle   2 NSaved=   2.
 NSaved= 2 IEnMin= 2 EnMin= -2158.97931017342     IErMin= 2 ErrMin= 3.14D-03
 ErrMax= 3.14D-03  0.00D+00 EMaxC= 1.00D-01 BMatC= 8.05D-02 BMatP= 1.01D+00
 IDIUse=3 WtCom= 9.69D-01 WtEn= 3.14D-02
 Coeff-Com:  0.577D-01 0.942D+00
 Coeff-En:   0.152D+00 0.848D+00
 Coeff:      0.606D-01 0.939D+00
 Gap=     0.302 Goal=   None    Shift=    0.000
 RMSDP=5.24D-03 MaxDP=1.70D+00 DE=-2.80D-01 OVMax= 8.39D-02

 Cycle   3  Pass 1  IDiag  1:
 RMSU=  2.97D-03    CP:  9.36D-01  8.40D-01
 E= -2159.34154450003     Delta-E=       -0.362234326614 Rises=F Damp=F
 DIIS: error= 3.09D-03 at cycle   3 NSaved=   3.
 NSaved= 3 IEnMin= 3 EnMin= -2159.34154450003     IErMin= 3 ErrMin= 3.09D-03
 ErrMax= 3.09D-03  0.00D+00 EMaxC= 1.00D-01 BMatC= 4.52D-02 BMatP= 8.05D-02
 IDIUse=3 WtCom= 9.69D-01 WtEn= 3.09D-02
 Coeff-Com: -0.686D-01 0.412D+00 0.657D+00
 Coeff-En:   0.000D+00 0.000D+00 0.100D+01
 Coeff:     -0.664D-01 0.399D+00 0.667D+00
 Gap=     0.288 Goal=   None    Shift=    0.000
 RMSDP=1.93D-03 MaxDP=8.58D-01 DE=-3.62D-01 OVMax= 1.74D-02

 Cycle   4  Pass 1  IDiag  1:
 RMSU=  1.56D-03    CP:  9.52D-01  9.68D-01  8.28D-01
 E= -2159.36982483026     Delta-E=       -0.028280330223 Rises=F Damp=F
 DIIS: error= 1.08D-03 at cycle   4 NSaved=   4.
 NSaved= 4 IEnMin= 4 EnMin= -2159.36982483026     IErMin= 4 ErrMin= 1.08D-03
 ErrMax= 1.08D-03  0.00D+00 EMaxC= 1.00D-01 BMatC= 5.99D-03 BMatP= 4.52D-02
 IDIUse=3 WtCom= 9.89D-01 WtEn= 1.08D-02
 Coeff-Com: -0.365D-01 0.128D+00 0.342D+00 0.567D+00
 Coeff-En:   0.000D+00 0.000D+00 0.755D-01 0.924D+00
 Coeff:     -0.361D-01 0.126D+00 0.339D+00 0.571D+00
 Gap=     0.278 Goal=   None    Shift=    0.000
 RMSDP=1.39D-03 MaxDP=5.93D-01 DE=-2.83D-02 OVMax= 5.88D-03

 Cycle   5  Pass 1  IDiag  1:
 RMSU=  4.32D-04    CP:  9.27D-01  9.13D-01  7.97D-01  6.16D-01
 E= -2159.37489219362     Delta-E=       -0.005067363369 Rises=F Damp=F
 DIIS: error= 2.82D-04 at cycle   5 NSaved=   5.
 NSaved= 5 IEnMin= 5 EnMin= -2159.37489219362     IErMin= 5 ErrMin= 2.82D-04
 ErrMax= 2.82D-04  0.00D+00 EMaxC= 1.00D-01 BMatC= 3.06D-04 BMatP= 5.99D-03
 IDIUse=3 WtCom= 9.97D-01 WtEn= 2.82D-03
 Coeff-Com: -0.115D-01 0.265D-01 0.103D+00 0.257D+00 0.626D+00
 Coeff-En:   0.000D+00 0.000D+00 0.000D+00 0.000D+00 0.100D+01
 Coeff:     -0.115D-01 0.265D-01 0.103D+00 0.256D+00 0.627D+00
 Gap=     0.279 Goal=   None    Shift=    0.000
 RMSDP=2.78D-04 MaxDP=6.01D-02 DE=-5.07D-03 OVMax= 1.50D-03

 Cycle   6  Pass 1  IDiag  1:
 RMSU=  1.00D-04    CP:  9.31D-01  9.30D-01  8.25D-01  6.24D-01  7.07D-01
 E= -2159.37512461611     Delta-E=       -0.000232422486 Rises=F Damp=F
 DIIS: error= 7.91D-05 at cycle   6 NSaved=   6.
 NSaved= 6 IEnMin= 6 EnMin= -2159.37512461611     IErMin= 6 ErrMin= 7.91D-05
 ErrMax= 7.91D-05  0.00D+00 EMaxC= 1.00D-01 BMatC= 2.88D-05 BMatP= 3.06D-04
 IDIUse=1 WtCom= 1.00D+00 WtEn= 0.00D+00
 Coeff-Com: -0.439D-02 0.797D-02 0.387D-01 0.110D+00 0.334D+00 0.514D+00
 Coeff:     -0.439D-02 0.797D-02 0.387D-01 0.110D+00 0.334D+00 0.514D+00
 Gap=     0.279 Goal=   None    Shift=    0.000
 RMSDP=5.04D-05 MaxDP=1.22D-02 DE=-2.32D-04 OVMax= 4.89D-04

 Cycle   7  Pass 1  IDiag  1:
 RMSU=  2.23D-05    CP:  9.31D-01  9.28D-01  8.26D-01  6.31D-01  7.12D-01
                    CP:  5.94D-01
 E= -2159.37514553754     Delta-E=       -0.000020921429 Rises=F Damp=F
 DIIS: error= 2.25D-05 at cycle   7 NSaved=   7.
 NSaved= 7 IEnMin= 7 EnMin= -2159.37514553754     IErMin= 7 ErrMin= 2.25D-05
 ErrMax= 2.25D-05  0.00D+00 EMaxC= 1.00D-01 BMatC= 2.08D-06 BMatP= 2.88D-05
 IDIUse=1 WtCom= 1.00D+00 WtEn= 0.00D+00
 Coeff-Com: -0.118D-02 0.168D-02 0.107D-01 0.342D-01 0.118D+00 0.263D+00
 Coeff-Com:  0.574D+00
 Coeff:     -0.118D-02 0.168D-02 0.107D-01 0.342D-01 0.118D+00 0.263D+00
 Coeff:      0.574D+00
[...]
 2,-0.00007957,0.00002063,0.00006499,0.00005372,0.00008246,0.00195680,-
 0.00060699,-0.00013781,0.00007209,-0.00006039,-0.00042129,0.00008171,0
 .00010644,0.00003825,-0.00022094,0.00006861,-0.00001123,0.00003766,0.0
 0000837,-0.00001445,-0.00000406,-0.00001345,0.00010793,0.00031723,0.00
 003252,-0.00003881,-0.00009872,-0.00004643,-0.00024216,-0.00024890,-0.
 00011347,0.00006062,-0.00002335,0.00001435,-0.00093627,-0.00115543,-0.
 00095842,0.00023728,0.00030070,-0.00005520,0.00011339,0.00013139,0.000
 10078,0.00022847,0.00011807,-0.00009524,0.00019814,-0.00009411,0.00016
 151,0.00171899,0.00098275,0.00062143,0.00002378,-0.00000334,-0.0001408
 7,-0.00005174,0.00001753,-0.00003606,-0.00003533,-0.00001304,-0.000026
 97,-0.00041247,-0.00012146,0.00012890,0.00010315,0.00003291,-0.0000526
 2,-0.00027596,-0.00003074,0.00003705,-0.00009353,-0.00015023,-0.000020
 35,-0.00025681,-0.00065985,-0.00015902,0.00006021,0.00174642,-0.004849
 07,0.00003742,-0.00032262,0.00005506,0.00009778,0.00005287,0.00099187,
 -0.00275199,0.00290805,0.00171465,-0.00079679,-0.00246069,0.00358769,0
 .00003957,0.00006969,0.00001078,-0.00001852,0.00005324,0.00003303,-0.0
 0016607,0.00038835,0.00004204,0.00001630,-0.00004000,0.00001449,0.0000
 2355,-0.00008346,-0.00008954,0.00016644,-0.00011736,0.00002088,0.00005
 247,0.00004116,0.00015419,0.00003522,0.00002393,-0.00002629,-0.0004657
 3,0.00002127,0.00031984,-0.00006566,-0.00021507,0.00002747,0.00010777,
 -0.00001805,-0.00009990,-0.00213768,0.00416358,-0.00036743,0.00005085,
 -0.00002093,0.00006001,0.00113942,0.00100712,-0.00020492,0.01742321,0.
 00451485,-0.00435402,0.00003481,0.00052132,-0.00061287,0.00044527,0.00
 028241,0.00020338,-0.26028821,-0.14132501,0.06114282,-0.01059974,-0.00
 582921,0.00439221,0.27562860,-0.00075462,0.00025750,0.00003312,0.00058
 596,-0.00014585,0.00072711,0.00169797,-0.00100824,-0.00019562,0.000722
 92,0.00206849,0.00059930,-0.00002340,-0.00034831,0.00006575,0.00046065
 ,0.00014560,-0.00012901,-0.00005546,-0.00007183,-0.00004958,-0.0002940
 9,0.00018544,-0.00009147,0.00026929,0.00014691,-0.00021686,-0.00013116
 ,0.00005811,0.00001904,0.00000693,-0.00002105,0.00000521,-0.00017800,-
 0.00022786,-0.00003450,0.00135203,-0.00235733,0.00106961,-0.00176861,-
 0.00010726,-0.00100187,-0.00055190,0.00033116,-0.00042161,0.00002306,-
 0.00007667,0.00008410,0.00002545,-0.00003766,0.00000113,-0.00003036,0.
 00001154,-0.00000418,-0.00009020,-0.00003558,-0.00008657,0.00005002,-0
 .00001173,0.00002661,0.00001863,0.00005050,-0.00004538,0.00003803,-0.0
 0025236,-0.00007601,0.00010552,-0.00304778,0.00294736,-0.00002230,0.00
 013775,0.00007155,0.00006792,-0.00047159,-0.00005434,0.00010299,-0.000
 13382,-0.00004668,-0.00000082,-0.00017221,-0.00013242,0.00064236,-0.00
 074836,0.00023897,-0.00008878,0.00005380,-0.00015076,-0.00001988,0.000
 08518,0.00003024,0.00002191,0.00001225,-0.00000078,-0.00000815,0.00006
 055,0.00000344,-0.00005598,0.00019892,-0.00009736,0.00001975,0.0000683
 3,0.00005444,0.00032796,0.00219492,-0.00063871,-0.00014977,0.00021809,
 0.00000490,-0.00031050,0.00024513,0.00027404,-0.00003549,-0.00018947,0
 .00006591,0.00000767,0.00003869,0.00002188,-0.00002159,-0.00000770,-0.
 00001815,0.00025851,0.00032322,0.00010320,-0.00010213,-0.00010313,-0.0
 0007028,-0.00044479,-0.00022102,-0.00014390,0.00005984,-0.00004364,0.0
 0000254,-0.00166432,-0.00193758,-0.00063708,0.00075422,0.00069958,0.00
 005870,0.00014246,0.00015831,-0.00000810,0.00035949,0.00012405,-0.0000
 7071,0.00005491,-0.00018431,-0.00028030,0.00166474,0.00085391,0.000113
 84,-0.00005391,0.00000098,-0.00009425,-0.00001632,0.00004223,-0.000014
 72,-0.00006409,-0.00000847,0.00002257,-0.00051225,-0.00017907,0.000237
 80,0.00023488,-0.00015793,-0.00002775,-0.00031633,-0.00004956,0.000103
 29,-0.00018014,-0.00022459,0.00008927,-0.00037584,-0.00111021,-0.00026
 679,0.00056900,0.00379720,-0.00653586,0.00015920,-0.00050826,0.0008287
 4,0.00032255,-0.00005896,0.00193838,0.00026229,0.00012039,0.00384928,-
 0.00008853,-0.00342250,0.00352680,0.00005742,0.00007084,-0.00001460,-0
 .00002065,0.00010104,0.00001947,-0.00019290,0.00067114,0.00013192,0.00
 003875,-0.00008676,0.00001151,0.00001941,-0.00009770,-0.00010047,0.000
 00452,-0.00014730,0.00005782,0.00011891,0.00008958,0.00020967,0.000011
 13,0.00000493,-0.00013466,0.00114496,0.00010294,-0.00003989,-0.0004669
 8,0.00050448,-0.00005292,0.00001541,0.00026851,-0.00027118,0.00298183,
 -0.00431695,0.00017365,0.00018130,0.00001053,-0.00015804,-0.00109465,-
 0.00042130,0.00005831,-0.02231044,-0.01829195,0.00696326,-0.00007676,0
 .00114802,0.00061627,-0.00044080,0.00109744,-0.00090887,-0.14336853,-0
 .16174235,0.04696608,0.00958368,0.00990310,0.00026234,0.14785371,0.168
 81545,0.00031570,-0.00064054,-0.00038374,0.00063021,0.00075541,0.00062
 215,-0.00300301,0.00074278,0.00011115,-0.00035259,-0.00023865,0.000342
 69,0.00007154,0.00027058,-0.00014898,-0.00020110,0.00001943,0.00030854
 ,-0.00001875,0.00006927,-0.00006888,0.00025494,-0.00015947,0.00002658,
 0.00012792,-0.00002464,-0.00004386,0.00015498,-0.00004774,-0.00002698,
 0.00001616,-0.00000538,-0.00005246,0.00012787,-0.00003504,-0.00008004,
 -0.00022538,0.00094737,-0.00082818,0.00273347,-0.00243650,0.00119380,-
 0.00032293,-0.00061870,-0.00075284,-0.00000021,0.00004154,-0.00000509,
 -0.00000398,-0.00001431,0.00000886,0.00002363,0.00000219,0.00000633,0.
 00003423,-0.00006860,-0.00003454,-0.00003650,0.00004053,-0.00000614,-0
 .00005095,0.00005330,-0.00000546,-0.00022028,0.00012642,-0.00002508,0.
 00073340,0.00312638,-0.00004502,0.00008796,0.00014163,-0.00014574,0.00
 000714,-0.00057099,0.00018013,-0.00000955,-0.00004672,0.00006256,0.000
 22819,0.00033651,0.00015497,0.00038352,-0.00033777,0.00009044,-0.00010
 518,0.00005560,0.00009163,-0.00003481,0.00006523,-0.00002229,0.0000095
 8,-0.00000964,0.00005347,-0.00002384,-0.00000961,-0.00001012,-0.000016
 52,0.00013510,-0.00005898,0.00000930,0.00004158,0.00001255,0.00010338,
 0.00124924,-0.00067678,-0.00006953,0.00005760,-0.00013127,-0.00009333,
 0.00056201,-0.00006319,0.00002506,-0.00012111,0.00002625,-0.00001608,0
 .00001617,-0.00000115,0.00000466,0.00000621,-0.00001199,0.00004757,0.0
 0015858,-0.00003878,-0.00004115,-0.00007952,0.00000076,-0.00011959,-0.
 00009944,0.00006631,0.00003624,-0.00003388,0.00001801,-0.00163304,-0.0
 0031874,0.00091796,0.00115486,0.00051930,-0.00025583,0.00013044,-0.000
 07569,0.00012427,0.00021760,-0.00011180,-0.00006518,-0.00009474,-0.000
 26135,0.00009064,0.00020572,-0.00052117,-0.00072746,-0.00013790,0.0000
 3741,0.00009249,-0.00001983,0.00001029,-0.00002024,-0.00002961,0.00000
 095,-0.00001642,-0.00008962,0.00002035,0.00010231,0.00008968,-0.000085
 71,0.00006418,-0.00022607,0.00020200,-0.00002932,-0.00024929,0.0001017
 8,0.00005187,-0.00030441,-0.00041486,-0.00009923,-0.00102394,-0.001951
 02,-0.00304896,-0.00032649,0.00013663,-0.00012840,0.00010451,0.0002530
 4,0.00016559,0.00107179,0.00523880,-0.00481480,0.00053306,-0.00145116,
 0.00292428,0.00002587,-0.00000038,0.00000252,0.00005783,-0.00000434,0.
 00001595,-0.00004667,0.00016592,-0.00001387,-0.00001722,-0.00002307,0.
 00001411,0.00001789,-0.00001274,-0.00002717,0.00006848,-0.00001284,0.0
 0015140,0.00003786,0.00004459,-0.00000681,-0.00000556,0.00000058,-0.00
 002407,0.00024517,-0.00000391,0.00013354,-0.00015512,0.00023310,-0.000
 12614,-0.00006806,0.00013357,-0.00004776,0.00031550,-0.00056295,0.0000
 9517,0.00010294,0.00024754,0.00003494,-0.00004627,-0.00010854,0.000309
 62,-0.00080433,-0.00020892,-0.00120541,0.00012713,0.00059302,-0.000447
 94,-0.00028575,-0.00094113,0.00007412,0.06007893,0.04549169,-0.0761026
 9,0.02909846,0.02060336,-0.00783488,-0.07076784,-0.05333999,0.08063533
 ,-0.00101890,0.00009445,0.00013453,0.00015665,0.00038918,0.00115587,0.
 00350999,-0.00252776,-0.00031355,0.00496684,0.00950963,0.00276283,-0.0
 0108882,-0.00199275,0.00021585,0.00164856,0.00040089,0.00012472,-0.000
 15935,-0.00040532,-0.00006803,-0.00011040,0.00015668,-0.00024589,-0.00
 000654,-0.00057420,-0.00065656,-0.00019030,0.00018922,-0.00005193,-0.0
 0001968,-0.00002196,-0.00000479,0.00047631,-0.00113800,0.00039568,-0.0
 0049262,-0.00318451,0.00275273,-0.00222134,0.00345644,-0.00249190,-0.0
 0087444,-0.00039920,-0.00063768,-0.00043839,-0.00024212,-0.00001518,0.
 00013299,-0.00020576,0.00006397,-0.00004580,0.00007043,0.00000654,0.00
 014414,-0.00047463,0.00008024,-0.00001520,0.00012896,-0.00009666,-0.00
 033024,0.00034242,-0.00041068,-0.00011329,-0.00405248,-0.00216881,-0.0
 0020502,-0.00109711,0.00052550,-0.00005921,0.00009145,-0.00010443,0.00
 012075,-0.00042391,0.00019757,0.00005989,0.00002233,0.00001365,0.00021
 603,0.00034582,0.00009288,0.00032263,-0.00037173,0.00008475,-0.0000711
 5,0.00006352,0.00004761,-0.00003575,0.00004790,-0.00001714,-0.00000294
 ,-0.00000663,0.00009541,0.00001070,0.00001835,-0.00000601,-0.00001180,
 0.00006080,-0.00003055,0.00001522,0.00003792,0.00001281,-0.00015373,0.
 00065701,-0.00023345,-0.00014560,-0.00000474,-0.00013544,-0.00018187,0
 .00048975,-0.00018963,0.00007309,-0.00013351,0.00002634,-0.00002108,0.
 00001584,-0.00000415,0.00000313,0.00000266,-0.00000700,-0.00004276,0.0
 0015824,-0.00005473,0.00000585,-0.00006479,0.00001072,-0.00001510,-0.0
 0008613,0.00002682,0.00006929,-0.00000446,0.00004314,-0.00100472,0.001
 68339,0.00215120,0.00143818,0.00021359,-0.00059496,0.00025125,-0.00016
 696,0.00048911,0.00018496,-0.00019437,-0.00004670,0.00013785,-0.000195
 54,0.00032117,-0.00047766,-0.00072206,0.00001283,-0.00017639,0.0000611
 3,0.00014123,-0.00007223,0.00004204,-0.00008646,-0.00003987,-0.0000170
 5,-0.00006074,0.00004948,0.00014069,0.00006819,0.00009340,-0.00002205,
 0.00001279,-0.00028754,0.00025609,-0.00013630,-0.00032166,0.00025239,-
 0.00013157,-0.00043733,0.00013649,-0.00006657,0.00011399,-0.00009786,-
 0.00053628,-0.00017300,0.00009321,-0.00006515,0.00003726,0.00008200,0.
 00011523,0.00042853,0.00094159,0.00044528,-0.00001585,-0.00084964,0.00
 044995,0.00004194,-0.00000077,0.00005380,0.00011984,-0.00008524,0.0000
 9749,0.00008636,-0.00038883,-0.00012991,-0.00008257,0.00004578,0.00005
 868,-0.00000450,0.00005400,-0.00000115,0.00022670,0.00045466,0.0000974
 4,-0.00027818,-0.00008461,-0.00037810,-0.00017964,-0.00004526,-0.00006
 492,0.00042631,-0.00071575,-0.00011979,-0.00019048,0.00017242,0.000767
 87,-0.00024379,0.00003836,0.00010932,0.00235746,-0.00038826,0.00113959
 ,-0.00007116,-0.00009897,-0.00067202,-0.00076197,-0.00030148,0.0000006
 5,-0.00217285,0.00693037,-0.00036995,0.00109041,-0.00159987,0.00095517
 ,-0.00047427,-0.00039830,0.00005481,-0.21371410,0.02938095,-0.14478412
 ,0.01356223,-0.00588828,0.00682632,-0.01860664,0.00298125,-0.01855332,
 0.21527953,0.00007266,0.00041690,0.00014444,-0.00016603,-0.00071747,-0
 .00069487,0.00027372,-0.00101191,0.00110764,0.00245460,-0.00693857,0.0
 0088883,0.00035137,-0.00027097,-0.00022672,-0.00034707,-0.00023244,-0.
 00020627,0.00008239,0.00017430,0.00006791,-0.00001033,0.00003413,-0.00
 001348,0.00017856,-0.00053885,-0.00061800,-0.00009118,-0.00000706,0.00
 004245,0.00000025,-0.00000971,0.00001562,-0.00073892,0.00079038,-0.000
 48171,-0.00312487,-0.00490641,-0.00362382,0.00130543,0.00117370,-0.001
 07334,0.00053684,0.00076356,0.00061189,0.00021028,0.00001164,0.0000242
 1,-0.00004387,0.00009351,-0.00003359,0.00000197,-0.00003311,-0.0000092
 9,-0.00014986,0.00031450,-0.00007303,0.00005133,-0.00009956,0.00007475
 ,0.00019592,-0.00025372,0.00019863,-0.00117687,0.00270497,0.00177863,-
 0.00083816,-0.00024006,-0.00031972,0.00004206,-0.00004332,0.00011574,-
 0.00008582,0.00026887,-0.00018104,0.00000333,-0.00005140,-0.00004447,-
 0.00027541,-0.00046917,-0.00019136,-0.00023638,0.00021847,-0.00003739,
 0.00006609,-0.00006799,-0.00007555,0.00002855,-0.00002417,0.00002838,0
 .00001676,0.00000676,-0.00007718,0.00001405,0.00002322,0.00000760,0.00
 000373,-0.00005208,0.00001927,-0.00001061,-0.00002479,-0.00000696,0.00
 016249,-0.00046320,0.00028534,0.00006502,0.00008129,0.00013577,0.00012
 734,-0.00030556,0.00020801,-0.00006958,0.00008511,-0.00000791,0.000023
 38,-0.00000578,0.00001053,-0.00000790,-0.00000707,0.00000312,0.0000785
 6,-0.00007506,0.00006850,-0.00002101,0.00003913,-0.00002285,-0.0000506
 8,0.00004959,-0.00006571,-0.00003629,-0.00000298,-0.00003109,0.0005601
 4,-0.00114864,-0.00105135,-0.00043399,0.00017860,0.00021450,-0.0001506
 8,0.00010790,-0.00037463,-0.00005231,0.00013629,0.00002389,-0.00013845
 ,0.00011761,-0.00036659,0.00025997,0.00054621,-0.00000615,0.00006074,-
 0.00004970,-0.00006778,0.00007750,-0.00000962,0.00006512,0.00001373,0.
 00001324,0.00005836,-0.00001151,-0.00008834,-0.00001630,-0.00002649,-0
 .00002529,-0.00001110,0.00013884,-0.00019432,0.00012820,0.00012664,-0.
 00020841,0.00015672,0.00010684,-0.00051744,-0.00004276,0.00012176,0.00
 032539,0.00034174,0.00016918,-0.00008479,0.00011134,-0.00002677,-0.000
 04266,0.00001827,-0.00037826,-0.00262205,0.00059754,-0.00022258,0.0004
 9191,-0.00078622,-0.00000845,0.00001182,-0.00004150,-0.00007041,0.0000
 9804,-0.00005443,-0.00025124,0.00040783,0.00001605,0.00001667,-0.00001
 741,0.00001873,0.00003239,-0.00010720,-0.00006869,0.00023718,-0.000063
 08,-0.00004245,0.00005621,-0.00006418,0.00004009,0.00003454,0.00002084
 ,-0.00008195,-0.00034988,0.00007329,0.00033481,-0.00045798,0.00016344,
 0.00034188,0.00001232,0.00016810,-0.00018460,0.00011321,0.00128519,0.0
 0105603,-0.00081341,-0.00048555,-0.00079114,0.00013615,0.00046984,-0.0
 0068778,0.02545292,-0.00555256,0.02446637,0.00108658,-0.00575495,-0.00
 053604,0.00020773,0.00108388,-0.00035926,0.03119187,-0.06918234,0.0289
 3259,-0.01184902,0.00325112,-0.00552236,-0.01280018,0.00730947,-0.0170
 4601,-0.03103740,0.07956095,-0.00017093,-0.00037865,-0.00021034,0.0002
 8088,0.00071611,0.00091949,-0.00047477,0.00043233,-0.00067678,0.002530
 17,0.00552576,0.00264412,-0.00055354,-0.00133766,-0.00010506,0.0007727
 7,0.00013182,0.00036902,-0.00009181,-0.00015999,-0.00008079,0.00007062
 ,0.00011966,-0.00023003,-0.00021770,-0.00110737,-0.00049515,0.00003001
 ,0.00008320,-0.00007858,-0.00000798,-0.00001888,-0.00005617,0.00017820
 ,-0.00044379,-0.00000717,0.00328808,-0.00488937,-0.00275947,-0.0013725
 8,-0.00081561,-0.00073930,-0.00053710,-0.00070056,-0.00076477,-0.00025
 945,-0.00013344,-0.00003596,0.00007323,-0.00011983,0.00004130,-0.00000
 121,0.00003536,0.00000541,0.00011404,-0.00027472,0.00002593,-0.0000434
 6,0.00009959,-0.00005494,-0.00023645,0.00018473,-0.00020918,-0.0009404
 3,-0.00022398,-0.00212120,0.00044879,-0.00054442,0.00091103,0.00002712
 ,0.00009871,-0.00016282,0.00004447,-0.00045984,0.00022607,-0.00000325,
 0.00000432,0.00005387,0.00024953,0.00043014,0.00013830,0.00024915,-0.0
 0025606,0.00006766,-0.00008140,0.00005935,0.00011440,-0.00003528,0.000
 03967,-0.00003072,-0.00000039,-0.00001375,0.00008800,-0.00000396,0.000
 00046,-0.00000737,0.00000078,0.00006351,-0.00003056,0.00000915,0.00003
 089,0.00000262,-0.00012149,0.00054544,-0.00033657,-0.00008308,-0.00001
 539,-0.00015423,-0.00002613,0.00050488,-0.00017156,0.00006064,-0.00010
 349,0.00001659,-0.00002311,0.00000906,-0.00000745,0.00000961,0.0000062
 9,-0.00000681,-0.00005034,0.00010741,-0.00007278,0.00000161,-0.0000546
 8,0.00002132,0.00001985,-0.00006718,0.00007112,0.00004338,-0.00001431,
 0.00003431,0.00037374,0.00042715,0.00028773,0.00018803,-0.00057772,-0.
 00050854,0.00017702,-0.00006555,0.00007604,0.00011555,-0.00022127,0.00
 000675,-0.00006596,-0.00020220,0.00018196,-0.00024275,-0.00054130,-0.0
 0000889,-0.00000942,0.00005263,0.00008176,0.00000447,-0.00004431,0.000
 00502,-0.00001562,0.00000725,-0.00003924,0.00001757,0.00010373,0.00005
 289,0.00005432,-0.00004286,0.00007635,-0.00018137,0.00029044,-0.000128
 12,-0.00017103,0.00020983,-0.00001692,-0.00013230,0.00051339,0.0003122
 6,-0.00003192,-0.00008791,-0.00049258,-0.00013368,0.00001698,-0.000097
 44,0.00004986,0.00003146,0.00007942,0.00071939,0.00225698,-0.00017548,
 0.00002042,-0.00066476,0.00086983,0.00002300,-0.00003669,0.00003128,0.
 00010429,-0.00010220,0.00002863,0.00015820,-0.00028033,-0.00017368,-0.
 00003917,0.00001859,-0.00000440,-0.00000094,0.00006686,0.00007096,-0.0
 0002531,0.00001797,-0.00009424,-0.00006195,-0.00007749,-0.00001994,0.0
 0006420,0.00000058,0.00010893,-0.00081984,0.00026192,-0.00047868,0.000
 97355,-0.00018455,-0.00030433,0.00002195,-0.00036645,0.00033233,0.0008
 9566,0.00076323,0.00046856,-0.00034316,-0.00005033,-0.00027259,-0.0002
 7696,-0.00034203,-0.00000988,0.00319547,0.00489757,0.00386023,0.000700
 28,-0.00229798,0.00093372,0.00078854,-0.00070399,0.00036227,-0.1442256
 2,0.02733604,-0.19803699,-0.02414689,0.00505282,-0.01972773,0.00760821
 ,-0.00602620,0.00933270,0.15150393,-0.02650504,0.20688523\\0.00000146,
 -0.00000006,-0.00000519,0.00000025,0.00000278,0.00001843,-0.00000106,-
 0.00000040,-0.00000506,-0.00000116,-0.00001131,0.00000438,-0.00000676,
 0.00000365,-0.00000165,-0.00002631,-0.00000726,0.00001401,-0.00000515,
 0.00000082,-0.00000224,-0.00000386,-0.00000117,0.00000172,0.00000015,-
 0.00000013,-0.00000061,-0.00000091,-0.00000201,0.00000375,0.00002074,0
 .00001012,-0.00001446,-0.00000622,0.00001617,0.00000748,-0.00000548,0.
 00000907,-0.00000380,-0.00000229,0.00000654,0.00000026,-0.00001140,0.0
 0000944,-0.00000533,0.00000380,-0.00000057,0.00001009,-0.00000513,0.00
 000005,0.00000723,-0.00000335,-0.00000247,0.00000347,-0.00001081,0.000
 00451,0.00000212,-0.00000265,-0.00000409,0.00000603,0.00000306,-0.0000
 1044,0.00000671,-0.00000066,0.00000013,0.00000379,-0.00000590,-0.00000
 531,-0.00000683,-0.00002304,-0.00000240,-0.00000425,0.00002212,0.00001
 907,-0.00000784,0.00000400,-0.00000793,0.00000059,0.00000625,-0.000009
 13,-0.00000666,-0.00000662,-0.00000061,-0.00000543,0.00001094,-0.00000
 362,0.00000865,-0.00000106,-0.00000408,0.00000412,-0.00001143,-0.00000
 163,0.00002244,-0.00000614,0.00000149,0.00000293,0.00000015,0.00000463
 ,-0.00000207,-0.00000658,0.00000073,-0.00000305,0.00000535,-0.00000185
 ,0.00000917,-0.00001254,0.00000171,0.00000041,0.00000486,-0.00000145,0
 .00000807,-0.00001037,0.00000903,-0.00000859,-0.00000081,-0.00000037,-
 0.00000322,-0.00000103,0.00000120,-0.00000258,0.00000088,-0.00000260,0
 .00000188,0.00000520,-0.00000063,-0.00000918,-0.00001402,0.00000696,-0
 .00001310,0.00000586,0.00000278,0.00000261,0.00000276,0.00000315,-0.00
 000957,-0.00000560,-0.00000888,-0.00000016,0.00000837,-0.00000057,0.00
 000382,-0.00000498,-0.00000782,0.00000433,-0.00000761,-0.00001212,-0.0
 0000674,0.00001111,0.00000285,0.00000078,0.00000584,-0.00000170,0.0000
 0173,0.00000212,0.00000026,-0.00000013,0.00000887,0.00000010,-0.000001
 05,0.00000129,-0.00000118,-0.00000091,0.00000178,0.00000086,0.00000063
 ,0.00000291,-0.00000052,0.00000427,0.,-0.00000138,0.00000070,0.0000119
 1,0.00000250,0.00000564,0.00000244,0.00000077,-0.00000137,0.00000260,0
 .00000079,-0.00000567,0.00000201,0.00000098,-0.00000305,0.00000541,-0.
 00000222,0.00001336,-0.00000378,0.00001336,-0.00001222,0.00000459,-0.0
 0000283,-0.00000045,0.00000798,-0.00000200,0.00000448,0.00000593,-0.00
 000583,-0.00000140,0.00000450,0.00000068,0.00000078,0.00000612,-0.0000
 0216,-0.00000093,0.00000177,0.00000446,-0.00000027,0.00000335,0.000001
 30,-0.00000339,0.00000677,-0.00000279,-0.00000328,0.00000011,-0.000001
 98,0.00000122,0.00000128,-0.00000109,-0.00000058,0.00000241,0.00000066
 ,-0.00000009,0.00000611,-0.00000193,-0.00000272,0.00000084,-0.00000038
 ,-0.00000230,0.00000064,0.00000018,-0.00000227,0.00000034,0.00000224,-
 0.00000411,0.00000270,0.00000024,-0.00000507,0.00000067,0.00000055,-0.
 00000387,0.00000374,0.00001342,-0.00000174,-0.00000561,-0.00001039,-0.
 00000070,-0.00000470,-0.00000579,-0.00001160,0.00000062,-0.00000516,0.
 00000476\\\@


 TO DETECT ERRORS, THE PROGRAMMER MUST HAVE A CONNIVING MIND,
 ONE THAT DELIGHTS IN UNCOVERING FLAWS WHERE BEAUTY AND
 PERFECTION WERE ONCE THOUGHT TO LIE.

             -- THE PSYCHOLOGY OF COMPUTER PROGRAMMING
                GERALD M. WEINBERG
 Job cpu time:      21 days  1 hours 39 minutes 39.8 seconds.
 File lengths (MBytes):  RWF=  23770 Int=      0 D2E=      0 Chk=     98 Scr=      1
 Normal termination of Gaussian 09 at Fri Apr  8 06:11:06 2016.
