 Entering Gaussian System, Link 0=g09
 Initial command:
 /share/apps//g09/l1.exe "/scratch/Gau-24379.inp" -scrdir="/scratch/"
 Entering Link 1 = /share/apps//g09/l1.exe PID=     24380.
  
 Copyright (c) 1988,1990,1992,1993,1995,1998,2003,2009,2013,
            Gaussian, Inc.  All Rights Reserved.
  
 This is part of the Gaussian(R) 09 program.  It is based on
 the Gaussian(R) 03 system (copyright 2003, Gaussian, Inc.),
 the Gaussian(R) 98 system (copyright 1998, Gaussian, Inc.),
 the Gaussian(R) 94 system (copyright 1995, Gaussian, Inc.),
 the Gaussian 92(TM) system (copyright 1992, Gaussian, Inc.),
 the Gaussian 90(TM) system (copyright 1990, Gaussian, Inc.),
 the Gaussian 88(TM) system (copyright 1988, Gaussian, Inc.),
 the Gaussian 86(TM) system (copyright 1986, Carnegie Mellon
 University), and the Gaussian 82(TM) system (copyright 1983,
 Carnegie Mellon University). Gaussian is a federally registered
 trademark of Gaussian, Inc.
  
 This software contains proprietary and confidential information,
 including trade secrets, belonging to Gaussian, Inc.
  
 This software is provided under written license and may be
 used, copied, transmitted, or stored only in accord with that
 written license.
  
 The following legend is applicable only to US Government
 contracts under FAR:
  
                    RESTRICTED RIGHTS LEGEND
  
 Use, reproduction and disclosure by the US Government is
 subject to restrictions as set forth in subparagraphs (a)
 and (c) of the Commercial Computer Software - Restricted
 Rights clause in FAR 52.227-19.
  
 Gaussian, Inc.
 340 Quinnipiac St., Bldg. 40, Wallingford CT 06492
  
  
 ---------------------------------------------------------------
 Warning -- This program may not be used in any manner that
 competes with the business of Gaussian, Inc. or will provide
 assistance to any competitor of Gaussian, Inc.  The licensee
 of this program is prohibited from giving any competitor of
 Gaussian, Inc. access to this program.  By using this program,
 the user acknowledges that Gaussian, Inc. is engaged in the
 business of creating and licensing software in the field of
 computational chemistry and represents and warrants to the
 licensee that it is not a competitor of Gaussian, Inc. and that
 it will not use this program in any manner prohibited above.
 ---------------------------------------------------------------
  

 Cite this work as:
 Gaussian 09, Revision D.01,
 M. J. Frisch, G. W. Trucks, H. B. Schlegel, G. E. Scuseria, 
 M. A. Robb, J. R. Cheeseman, G. Scalmani, V. Barone, B. Mennucci, 
 G. A. Petersson, H. Nakatsuji, M. Caricato, X. Li, H. P. Hratchian, 
 A. F. Izmaylov, J. Bloino, G. Zheng, J. L. Sonnenberg, M. Hada, 
 M. Ehara, K. Toyota, R. Fukuda, J. Hasegawa, M. Ishida, T. Nakajima, 
 Y. Honda, O. Kitao, H. Nakai, T. Vreven, J. A. Montgomery, Jr., 
 J. E. Peralta, F. Ogliaro, M. Bearpark, J. J. Heyd, E. Brothers, 
 K. N. Kudin, V. N. Staroverov, T. Keith, R. Kobayashi, J. Normand, 
 K. Raghavachari, A. Rendell, J. C. Burant, S. S. Iyengar, J. Tomasi, 
 M. Cossi, N. Rega, J. M. Millam, M. Klene, J. E. Knox, J. B. Cross, 
 V. Bakken, C. Adamo, J. Jaramillo, R. Gomperts, R. E. Stratmann, 
 O. Yazyev, A. J. Austin, R. Cammi, C. Pomelli, J. W. Ochterski, 
 R. L. Martin, K. Morokuma, V. G. Zakrzewski, G. A. Voth, 
 P. Salvador, J. J. Dannenberg, S. Dapprich, A. D. Daniels, 
 O. Farkas, J. B. Foresman, J. V. Ortiz, J. Cioslowski, 
 and D. J. Fox, Gaussian, Inc., Wallingford CT, 2013.
 
 ******************************************
 Gaussian 09:  EM64L-G09RevD.01 24-Apr-2013
                24-Mar-2016 
 ******************************************
 %nproc=20
 Will use up to   20 processors via shared memory.
 %mem=80GB
 %chk=Tri_A154_of.chk
 -------------------------------------------------------------------
 #P PBE1PBE/6-311+G(d,p) opt optcyc=999 freq EmpiricalDispersion=GD3
 -------------------------------------------------------------------
 1/6=999,14=-1,18=20,19=15,26=3,38=1/1,3;
 2/9=110,12=2,17=6,18=5,40=1/2;
 3/5=4,6=6,7=111,11=2,16=1,25=1,30=1,71=1,74=-13,124=31/1,2,3;
 4//1;
 5/5=2,38=5/2;
 6/7=2,8=2,9=2,10=2,28=1/1;
 7//1,2,3,16;
 1/6=999,14=-1,18=20,19=15,26=3/3(2);
 2/9=110/2;
 99//99;
 2/9=110/2;
 3/5=4,6=6,7=111,11=2,16=1,25=1,30=1,71=1,74=-13,124=31/1,2,3;
 4/5=5,16=3,69=1/1;
 5/5=2,38=5/2;
 7//1,2,3,16;
 1/6=999,14=-1,18=20,19=15,26=3/3(-5);
 2/9=110/2;
 6/7=2,8=2,9=2,10=2,19=2,28=1/1;
 99/9=1/99;
 Leave Link    1 at Thu Mar 24 20:25:17 2016, MaxMem= 10737418240 cpu:         1.7
 (Enter /share/apps//g09/l101.exe)
 -------
 disacch
 -------
 Symbolic Z-matrix:
 Charge =  1 Multiplicity = 1
 O                    -3.31456   0.36807  -1.07561 
 C                    -3.64031  -0.97609  -0.79241 
 C                    -4.3068   -1.10394   0.5638 
 C                    -5.53393  -0.22001   0.61672 
 C                    -5.1683    1.21581   0.28707 
 C                    -4.38609   1.29346  -1.01846 
 C                    -3.79356   2.66846  -1.27381 
 O                    -2.81684   3.04019  -0.32111 
 O                    -4.40926   1.77498   1.34222 
 O                    -6.1052   -0.20757   1.90022 
 O                    -4.72329  -2.41562   0.80181 
 O                    -2.42022  -1.62369  -0.78019 
 C                    -2.21554  -2.78556  -1.55937 
 C                    -1.62531  -3.84328  -0.64985 
 O                    -2.52796  -4.14526   0.38815 
 C                    -0.32593  -3.3094   -0.08785 
 C                     0.63848  -2.93668  -1.21274 
 O                     0.02569  -2.09906  -2.16735 
 C                    -1.21655  -2.51758  -2.68005 
 C                    -1.65203  -1.46113  -3.68618 
 O                    -1.55513  -0.13574  -3.22069 
 O                     1.77278  -2.27443  -0.7539 
 C                     1.56464  -1.02009  -0.13786 
 C                     2.01642  -1.05535   1.30865 
 C                     1.80282   0.31334   1.93054 
 C                     2.53551   1.39375   1.15272 
 O                     2.3192    1.28595  -0.22769 
 C                     2.40377   0.02625  -0.87022 
 C                     1.95062   0.29605  -2.29129 
 O                     0.70737   0.96057  -2.30907 
 O                     2.01985   2.62871   1.51064 
 C                     2.94017   3.7236    1.51259 
 C                     2.19922   5.01009   1.19157 
 C                     2.28829   5.46946  -0.26081 
 C                     1.76439   4.53016  -1.34285 
 C                     0.26732   4.25263  -1.29113 
 N                    -0.04747   2.97481  -0.60605 
 O                     2.14118   0.30712   3.29516 
 O                     1.29766  -2.02045   2.03922 
 O                     0.21921  -4.28799   0.75155 
 H                    -4.30038  -1.38619  -1.57433 
 H                    -3.582    -0.75968   1.31268 
 H                    -6.25766  -0.5834   -0.12629 
 H                    -6.09094   1.79339   0.15245 
 H                    -5.09963   1.085    -1.82897 
 H                    -4.6087    3.39938  -1.29582 
 H                    -3.31079   2.67417  -2.2522 
 H                    -3.1872    2.82203   0.54901 
 H                    -4.82112   1.49023   2.16552 
 H                    -6.16366  -1.11677   2.20653 
 H                    -3.95536  -3.01061   0.79368 
 H                    -3.16128  -3.13931  -1.98215 
 H                    -1.42769  -4.74563  -1.24358 
 H                    -2.02723  -4.61272   1.06483 
 H                    -0.5684   -2.40984   0.48202 
 H                     1.0161   -3.85215  -1.68384 
 H                    -1.10486  -3.46     -3.23919 
 H                    -0.99735  -1.52201  -4.55537 
 H                    -2.66858  -1.69058  -4.02504 
 H                    -2.16456   0.01912  -2.48229 
 H                     0.51176  -0.7269   -0.19353 
 H                     3.0893   -1.30587   1.32349 
 H                     0.73353   0.54268   1.89752 
 H                     3.61544   1.34513   1.37434 
 H                     3.443    -0.32999  -0.89801 
 H                     2.69227   0.94229  -2.76736 
 H                     1.90517  -0.64352  -2.84014 
 H                    -0.01253   0.39587  -2.65806 
 H                     3.72984   3.54028   0.77715 
 H                     3.39724   3.77327   2.50367 
 H                     2.60575   5.80806   1.81566 
 H                     1.16018   4.89506   1.51685 
 H                     3.33705   5.68346  -0.48517 
 H                     1.76673   6.4269   -0.35021 
 H                     2.30425   3.5797   -1.33302 
 H                     1.98534   4.98718  -2.30866 
 H                    -0.27062   5.04954  -0.77606 
 H                    -0.1494    4.1686   -2.29358 
 H                    -1.07038   2.89473  -0.45133 
 H                     0.4634    2.9016    0.27939 
 H                     0.27331   2.17036  -1.19489 
 H                     3.0938    0.23113   3.39396 
 H                     1.40333  -1.80891   2.97226 
 H                     0.80527  -3.82562   1.36298 
 
 NAtoms=     84 NQM=       84 NQMF=       0 NMMI=      0 NMMIF=      0
                NMic=       0 NMicF=      0.
                    Isotopes and Nuclear Properties:
 (Nuclear quadrupole moments (NQMom) in fm**2, nuclear magnetic moments (NMagM)
  in nuclear magnetons)

  Atom         1           2           3           4           5           6           7           8           9          10
 IAtWgt=          16          12          12          12          12          12          12          16          16          16
 AtmWgt=  15.9949146  12.0000000  12.0000000  12.0000000  12.0000000  12.0000000  12.0000000  15.9949146  15.9949146  15.9949146
 NucSpn=           0           0           0           0           0           0           0           0           0           0
 AtZEff=   0.0000000   0.0000000   0.0000000   0.0000000   0.0000000   0.0000000   0.0000000   0.0000000   0.0000000   0.0000000
 NQMom=    0.0000000   0.0000000   0.0000000   0.0000000   0.0000000   0.0000000   0.0000000   0.0000000   0.0000000   0.0000000
 NMagM=    0.0000000   0.0000000   0.0000000   0.0000000   0.0000000   0.0000000   0.0000000   0.0000000   0.0000000   0.0000000
 AtZNuc=   8.0000000   6.0000000   6.0000000   6.0000000   6.0000000   6.0000000   6.0000000   8.0000000   8.0000000   8.0000000

  Atom        11          12          13          14          15          16          17          18          19          20
 IAtWgt=          16          16          12          12          16          12          12          16          12          12
 AtmWgt=  15.9949146  15.9949146  12.0000000  12.0000000  15.9949146  12.0000000  12.0000000  15.9949146  12.0000000  12.0000000
 NucSpn=           0           0           0           0           0           0           0           0           0           0
 AtZEff=   0.0000000   0.0000000   0.0000000   0.0000000   0.0000000   0.0000000   0.0000000   0.0000000   0.0000000   0.0000000
 NQMom=    0.0000000   0.0000000   0.0000000   0.0000000   0.0000000   0.0000000   0.0000000   0.0000000   0.0000000   0.0000000
 NMagM=    0.0000000   0.0000000   0.0000000   0.0000000   0.0000000   0.0000000   0.0000000   0.0000000   0.0000000   0.0000000
 AtZNuc=   8.0000000   8.0000000   6.0000000   6.0000000   8.0000000   6.0000000   6.0000000   8.0000000   6.0000000   6.0000000

  Atom        21          22          23          24          25          26          27          28          29          30
 IAtWgt=          16          16          12          12          12          12          16          12          12          16
 AtmWgt=  15.9949146  15.9949146  12.0000000  12.0000000  12.0000000  12.0000000  15.9949146  12.0000000  12.0000000  15.9949146
 NucSpn=           0           0           0           0           0           0           0           0           0           0
 AtZEff=   0.0000000   0.0000000   0.0000000   0.0000000   0.0000000   0.0000000   0.0000000   0.0000000   0.0000000   0.0000000
 NQMom=    0.0000000   0.0000000   0.0000000   0.0000000   0.0000000   0.0000000   0.0000000   0.0000000   0.0000000   0.0000000
 NMagM=    0.0000000   0.0000000   0.0000000   0.0000000   0.0000000   0.0000000   0.0000000   0.0000000   0.0000000   0.0000000
 AtZNuc=   8.0000000   8.0000000   6.0000000   6.0000000   6.0000000   6.0000000   8.0000000   6.0000000   6.0000000   8.0000000

  Atom        31          32          33          34          35          36          37          38          39          40
 IAtWgt=          16          12          12          12          12          12          14          16          16          16
 AtmWgt=  15.9949146  12.0000000  12.0000000  12.0000000  12.0000000  12.0000000  14.0030740  15.9949146  15.9949146  15.9949146
 NucSpn=           0           0           0           0           0           0           2           0           0           0
 AtZEff=   0.0000000   0.0000000   0.0000000   0.0000000   0.0000000   0.0000000   0.0000000   0.0000000   0.0000000   0.0000000
 NQMom=    0.0000000   0.0000000   0.0000000   0.0000000   0.0000000   0.0000000   2.0440000   0.0000000   0.0000000   0.0000000
 NMagM=    0.0000000   0.0000000   0.0000000   0.0000000   0.0000000   0.0000000   0.4037610   0.0000000   0.0000000   0.0000000
 AtZNuc=   8.0000000   6.0000000   6.0000000   6.0000000   6.0000000   6.0000000   7.0000000   8.0000000   8.0000000   8.0000000

  Atom        41          42          43          44          45          46          47          48          49          50
 IAtWgt=           1           1           1           1           1           1           1           1           1           1
 AtmWgt=   1.0078250   1.0078250   1.0078250   1.0078250   1.0078250   1.0078250   1.0078250   1.0078250   1.0078250   1.0078250
 NucSpn=           1           1           1           1           1           1           1           1           1           1
 AtZEff=   0.0000000   0.0000000   0.0000000   0.0000000   0.0000000   0.0000000   0.0000000   0.0000000   0.0000000   0.0000000
 NQMom=    0.0000000   0.0000000   0.0000000   0.0000000   0.0000000   0.0000000   0.0000000   0.0000000   0.0000000   0.0000000
 NMagM=    2.7928460   2.7928460   2.7928460   2.7928460   2.7928460   2.7928460   2.7928460   2.7928460   2.7928460   2.7928460
 AtZNuc=   1.0000000   1.0000000   1.0000000   1.0000000   1.0000000   1.0000000   1.0000000   1.0000000   1.0000000   1.0000000

  Atom        51          52          53          54          55          56          57          58          59          60
 IAtWgt=           1           1           1           1           1           1           1           1           1           1
 AtmWgt=   1.0078250   1.0078250   1.0078250   1.0078250   1.0078250   1.0078250   1.0078250   1.0078250   1.0078250   1.0078250
 NucSpn=           1           1           1           1           1           1           1           1           1           1
 AtZEff=   0.0000000   0.0000000   0.0000000   0.0000000   0.0000000   0.0000000   0.0000000   0.0000000   0.0000000   0.0000000
 NQMom=    0.0000000   0.0000000   0.0000000   0.0000000   0.0000000   0.0000000   0.0000000   0.0000000   0.0000000   0.0000000
 NMagM=    2.7928460   2.7928460   2.7928460   2.7928460   2.7928460   2.7928460   2.7928460   2.7928460   2.7928460   2.7928460
 AtZNuc=   1.0000000   1.0000000   1.0000000   1.0000000   1.0000000   1.0000000   1.0000000   1.0000000   1.0000000   1.0000000

  Atom        61          62          63          64          65          66          67          68          69          70
 IAtWgt=           1           1           1           1           1           1           1           1           1           1
 AtmWgt=   1.0078250   1.0078250   1.0078250   1.0078250   1.0078250   1.0078250   1.0078250   1.0078250   1.0078250   1.0078250
 NucSpn=           1           1           1           1           1           1           1           1           1           1
 AtZEff=   0.0000000   0.0000000   0.0000000   0.0000000   0.0000000   0.0000000   0.0000000   0.0000000   0.0000000   0.0000000
 NQMom=    0.0000000   0.0000000   0.0000000   0.0000000   0.0000000   0.0000000   0.0000000   0.0000000   0.0000000   0.0000000
 NMagM=    2.7928460   2.7928460   2.7928460   2.7928460   2.7928460   2.7928460   2.7928460   2.7928460   2.7928460   2.7928460
 AtZNuc=   1.0000000   1.0000000   1.0000000   1.0000000   1.0000000   1.0000000   1.0000000   1.0000000   1.0000000   1.0000000

  Atom        71          72          73          74          75          76          77          78          79          80
 IAtWgt=           1           1           1           1           1           1           1           1           1           1
 AtmWgt=   1.0078250   1.0078250   1.0078250   1.0078250   1.0078250   1.0078250   1.0078250   1.0078250   1.0078250   1.0078250
 NucSpn=           1           1           1           1           1           1           1           1           1           1
 AtZEff=   0.0000000   0.0000000   0.0000000   0.0000000   0.0000000   0.0000000   0.0000000   0.0000000   0.0000000   0.0000000
 NQMom=    0.0000000   0.0000000   0.0000000   0.0000000   0.0000000   0.0000000   0.0000000   0.0000000   0.0000000   0.0000000
 NMagM=    2.7928460   2.7928460   2.7928460   2.7928460   2.7928460   2.7928460   2.7928460   2.7928460   2.7928460   2.7928460
 AtZNuc=   1.0000000   1.0000000   1.0000000   1.0000000   1.0000000   1.0000000   1.0000000   1.0000000   1.0000000   1.0000000

  Atom        81          82          83          84
 IAtWgt=           1           1           1           1
 AtmWgt=   1.0078250   1.0078250   1.0078250   1.0078250
 NucSpn=           1           1           1           1
 AtZEff=   0.0000000   0.0000000   0.0000000   0.0000000
 NQMom=    0.0000000   0.0000000   0.0000000   0.0000000
 NMagM=    2.7928460   2.7928460   2.7928460   2.7928460
 AtZNuc=   1.0000000   1.0000000   1.0000000   1.0000000
 Leave Link  101 at Thu Mar 24 20:25:17 2016, MaxMem= 10737418240 cpu:         4.4
 (Enter /share/apps//g09/l103.exe)

 GradGradGradGradGradGradGradGradGradGradGradGradGradGradGradGradGradGrad
 Berny optimization.
 Initialization pass.
                           ----------------------------
                           !    Initial Parameters    !
                           ! (Angstroms and Degrees)  !
 --------------------------                            --------------------------
 ! Name  Definition              Value          Derivative Info.                !
 --------------------------------------------------------------------------------
 ! R1    R(1,2)                  1.4118         estimate D2E/DX2                !
 ! R2    R(1,6)                  1.417          estimate D2E/DX2                !
 ! R3    R(2,3)                  1.5165         estimate D2E/DX2                !
 ! R4    R(2,12)                 1.3814         estimate D2E/DX2                !
 ! R5    R(2,41)                 1.1024         estimate D2E/DX2                !
 ! R6    R(3,4)                  1.5133         estimate D2E/DX2                !
 ! R7    R(3,11)                 1.3966         estimate D2E/DX2                !
 ! R8    R(3,42)                 1.0976         estimate D2E/DX2                !
 ! R9    R(4,5)                  1.5179         estimate D2E/DX2                !
 ! R10   R(4,10)                 1.4049         estimate D2E/DX2                !
 ! R11   R(4,43)                 1.099          estimate D2E/DX2                !
 ! R12   R(5,6)                  1.5239         estimate D2E/DX2                !
 ! R13   R(5,9)                  1.415          estimate D2E/DX2                !
 ! R14   R(5,44)                 1.0968         estimate D2E/DX2                !
 ! R15   R(6,7)                  1.5189         estimate D2E/DX2                !
 ! R16   R(6,45)                 1.0998         estimate D2E/DX2                !
 ! R17   R(7,8)                  1.4141         estimate D2E/DX2                !
 ! R18   R(7,46)                 1.0951         estimate D2E/DX2                !
 ! R19   R(7,47)                 1.091          estimate D2E/DX2                !
 ! R20   R(8,48)                 0.9705         estimate D2E/DX2                !
 ! R21   R(9,49)                 0.9636         estimate D2E/DX2                !
 ! R22   R(10,50)                0.9612         estimate D2E/DX2                !
 ! R23   R(11,51)                0.9715         estimate D2E/DX2                !
 ! R24   R(12,13)                1.4138         estimate D2E/DX2                !
 ! R25   R(13,14)                1.5147         estimate D2E/DX2                !
 ! R26   R(13,19)                1.525          estimate D2E/DX2                !
 ! R27   R(13,52)                1.0947         estimate D2E/DX2                !
 ! R28   R(14,15)                1.4083         estimate D2E/DX2                !
 ! R29   R(14,16)                1.513          estimate D2E/DX2                !
 ! R30   R(14,53)                1.0981         estimate D2E/DX2                !
 ! R31   R(15,54)                0.9629         estimate D2E/DX2                !
 ! R32   R(16,17)                1.5279         estimate D2E/DX2                !
 ! R33   R(16,40)                1.3998         estimate D2E/DX2                !
 ! R34   R(16,55)                1.0921         estimate D2E/DX2                !
 ! R35   R(17,18)                1.4101         estimate D2E/DX2                !
 ! R36   R(17,22)                1.3913         estimate D2E/DX2                !
 ! R37   R(17,56)                1.0966         estimate D2E/DX2                !
 ! R38   R(18,19)                1.4075         estimate D2E/DX2                !
 ! R39   R(19,20)                1.5225         estimate D2E/DX2                !
 ! R40   R(19,57)                1.1015         estimate D2E/DX2                !
 ! R41   R(20,21)                1.4081         estimate D2E/DX2                !
 ! R42   R(20,58)                1.0899         estimate D2E/DX2                !
 ! R43   R(20,59)                1.0958         estimate D2E/DX2                !
 ! R44   R(21,60)                0.9699         estimate D2E/DX2                !
 ! R45   R(22,23)                1.4129         estimate D2E/DX2                !
 ! R46   R(23,24)                1.5158         estimate D2E/DX2                !
 ! R47   R(23,28)                1.5282         estimate D2E/DX2                !
 ! R48   R(23,61)                1.0944         estimate D2E/DX2                !
 ! R49   R(24,25)                1.5184         estimate D2E/DX2                !
 ! R50   R(24,39)                1.4078         estimate D2E/DX2                !
 ! R51   R(24,62)                1.1018         estimate D2E/DX2                !
 ! R52   R(25,26)                1.5196         estimate D2E/DX2                !
 ! R53   R(25,38)                1.406          estimate D2E/DX2                !
 ! R54   R(25,63)                1.0941         estimate D2E/DX2                !
 ! R55   R(26,27)                1.4014         estimate D2E/DX2                !
 ! R56   R(26,31)                1.3853         estimate D2E/DX2                !
 ! R57   R(26,64)                1.1035         estimate D2E/DX2                !
 ! R58   R(27,28)                1.4166         estimate D2E/DX2                !
 ! R59   R(28,29)                1.5158         estimate D2E/DX2                !
 ! R60   R(28,65)                1.0989         estimate D2E/DX2                !
 ! R61   R(29,30)                1.4098         estimate D2E/DX2                !
 ! R62   R(29,66)                1.0928         estimate D2E/DX2                !
 ! R63   R(29,67)                1.0891         estimate D2E/DX2                !
 ! R64   R(30,68)                0.9793         estimate D2E/DX2                !
 ! R65   R(31,32)                1.4303         estimate D2E/DX2                !
 ! R66   R(32,33)                1.5189         estimate D2E/DX2                !
 ! R67   R(32,69)                1.0946         estimate D2E/DX2                !
 ! R68   R(32,70)                1.0925         estimate D2E/DX2                !
 ! R69   R(33,34)                1.5259         estimate D2E/DX2                !
 ! R70   R(33,71)                1.0916         estimate D2E/DX2                !
 ! R71   R(33,72)                1.0948         estimate D2E/DX2                !
 ! R72   R(34,35)                1.5256         estimate D2E/DX2                !
 ! R73   R(34,73)                1.0936         estimate D2E/DX2                !
 ! R74   R(34,74)                1.0939         estimate D2E/DX2                !
 ! R75   R(35,36)                1.5235         estimate D2E/DX2                !
 ! R76   R(35,75)                1.0931         estimate D2E/DX2                !
 ! R77   R(35,76)                1.0911         estimate D2E/DX2                !
 ! R78   R(36,37)                1.4837         estimate D2E/DX2                !
 ! R79   R(36,77)                1.0908         estimate D2E/DX2                !
 ! R80   R(36,78)                1.0889         estimate D2E/DX2                !
 ! R81   R(37,79)                1.0376         estimate D2E/DX2                !
 ! R82   R(37,80)                1.0249         estimate D2E/DX2                !
 ! R83   R(37,81)                1.0473         estimate D2E/DX2                !
 ! R84   R(38,82)                0.9607         estimate D2E/DX2                !
 ! R85   R(39,83)                0.9625         estimate D2E/DX2                !
 ! R86   R(40,84)                0.9649         estimate D2E/DX2                !
 ! A1    A(2,1,6)              116.0545         estimate D2E/DX2                !
 ! A2    A(1,2,3)              111.1657         estimate D2E/DX2                !
 ! A3    A(1,2,12)             104.1426         estimate D2E/DX2                !
 ! A4    A(1,2,41)             110.4915         estimate D2E/DX2                !
 ! A5    A(3,2,12)             109.922          estimate D2E/DX2                !
 ! A6    A(3,2,41)             109.8648         estimate D2E/DX2                !
 ! A7    A(12,2,41)            111.145          estimate D2E/DX2                !
 ! A8    A(2,3,4)              109.7802         estimate D2E/DX2                !
 ! A9    A(2,3,11)             111.262          estimate D2E/DX2                !
 ! A10   A(2,3,42)             107.0684         estimate D2E/DX2                !
 ! A11   A(4,3,11)             107.5059         estimate D2E/DX2                !
 ! A12   A(4,3,42)             109.1733         estimate D2E/DX2                !
 ! A13   A(11,3,42)            112.0382         estimate D2E/DX2                !
 ! A14   A(3,4,5)              110.4637         estimate D2E/DX2                !
 ! A15   A(3,4,10)             111.5214         estimate D2E/DX2                !
 ! A16   A(3,4,43)             108.4947         estimate D2E/DX2                !
 ! A17   A(5,4,10)             106.7368         estimate D2E/DX2                !
 ! A18   A(5,4,43)             108.9394         estimate D2E/DX2                !
 ! A19   A(10,4,43)            110.6575         estimate D2E/DX2                !
 ! A20   A(4,5,6)              110.9714         estimate D2E/DX2                !
 ! A21   A(4,5,9)              109.943          estimate D2E/DX2                !
 ! A22   A(4,5,44)             108.7935         estimate D2E/DX2                !
 ! A23   A(6,5,9)              110.0817         estimate D2E/DX2                !
 ! A24   A(6,5,44)             107.4457         estimate D2E/DX2                !
 ! A25   A(9,5,44)             109.5527         estimate D2E/DX2                !
 ! A26   A(1,6,5)              112.9194         estimate D2E/DX2                !
 ! A27   A(1,6,7)              106.8239         estimate D2E/DX2                !
 ! A28   A(1,6,45)             109.7015         estimate D2E/DX2                !
 ! A29   A(5,6,7)              112.9794         estimate D2E/DX2                !
 ! A30   A(5,6,45)             106.779          estimate D2E/DX2                !
 ! A31   A(7,6,45)             107.5058         estimate D2E/DX2                !
 ! A32   A(6,7,8)              113.2131         estimate D2E/DX2                !
 ! A33   A(6,7,46)             108.4957         estimate D2E/DX2                !
 ! A34   A(6,7,47)             109.1549         estimate D2E/DX2                !
 ! A35   A(8,7,46)             110.6225         estimate D2E/DX2                !
 ! A36   A(8,7,47)             107.2863         estimate D2E/DX2                !
 ! A37   A(46,7,47)            107.9303         estimate D2E/DX2                !
 ! A38   A(7,8,48)             106.3407         estimate D2E/DX2                !
 ! A39   A(5,9,49)             106.9218         estimate D2E/DX2                !
 ! A40   A(4,10,50)            107.9077         estimate D2E/DX2                !
 ! A41   A(3,11,51)            109.7577         estimate D2E/DX2                !
 ! A42   A(2,12,13)            120.5476         estimate D2E/DX2                !
 ! A43   A(12,13,14)           107.418          estimate D2E/DX2                !
 ! A44   A(12,13,19)           110.8188         estimate D2E/DX2                !
 ! A45   A(12,13,52)           110.6916         estimate D2E/DX2                !
 ! A46   A(14,13,19)           107.9809         estimate D2E/DX2                !
 ! A47   A(14,13,52)           110.0534         estimate D2E/DX2                !
 ! A48   A(19,13,52)           109.8106         estimate D2E/DX2                !
 ! A49   A(13,14,15)           110.0318         estimate D2E/DX2                !
 ! A50   A(13,14,16)           108.1362         estimate D2E/DX2                !
 ! A51   A(13,14,53)           108.6197         estimate D2E/DX2                !
 ! A52   A(15,14,16)           110.6295         estimate D2E/DX2                !
 ! A53   A(15,14,53)           109.7342         estimate D2E/DX2                !
 ! A54   A(16,14,53)           109.6478         estimate D2E/DX2                !
 ! A55   A(14,15,54)           106.7836         estimate D2E/DX2                !
 ! A56   A(14,16,17)           110.7743         estimate D2E/DX2                !
 ! A57   A(14,16,40)           108.09           estimate D2E/DX2                !
 ! A58   A(14,16,55)           107.0849         estimate D2E/DX2                !
 ! A59   A(17,16,40)           111.4827         estimate D2E/DX2                !
 ! A60   A(17,16,55)           108.8673         estimate D2E/DX2                !
 ! A61   A(40,16,55)           110.45           estimate D2E/DX2                !
 ! A62   A(16,17,18)           111.6555         estimate D2E/DX2                !
 ! A63   A(16,17,22)           112.8252         estimate D2E/DX2                !
 ! A64   A(16,17,56)           109.2681         estimate D2E/DX2                !
 ! A65   A(18,17,22)           107.1462         estimate D2E/DX2                !
 ! A66   A(18,17,56)           110.7751         estimate D2E/DX2                !
 ! A67   A(22,17,56)           104.9688         estimate D2E/DX2                !
 ! A68   A(17,18,19)           116.9684         estimate D2E/DX2                !
 ! A69   A(13,19,18)           111.2665         estimate D2E/DX2                !
 ! A70   A(13,19,20)           114.8463         estimate D2E/DX2                !
 ! A71   A(13,19,57)           106.8046         estimate D2E/DX2                !
 ! A72   A(18,19,20)           106.6681         estimate D2E/DX2                !
 ! A73   A(18,19,57)           110.4759         estimate D2E/DX2                !
 ! A74   A(20,19,57)           106.6922         estimate D2E/DX2                !
 ! A75   A(19,20,21)           114.5186         estimate D2E/DX2                !
 ! A76   A(19,20,58)           108.4487         estimate D2E/DX2                !
 ! A77   A(19,20,59)           108.9288         estimate D2E/DX2                !
 ! A78   A(21,20,58)           105.9553         estimate D2E/DX2                !
 ! A79   A(21,20,59)           111.2937         estimate D2E/DX2                !
 ! A80   A(58,20,59)           107.3932         estimate D2E/DX2                !
 ! A81   A(20,21,60)           111.0229         estimate D2E/DX2                !
 ! A82   A(17,22,23)           116.5049         estimate D2E/DX2                !
 ! A83   A(22,23,24)           110.5805         estimate D2E/DX2                !
 ! A84   A(22,23,28)           108.5434         estimate D2E/DX2                !
 ! A85   A(22,23,61)           110.9409         estimate D2E/DX2                !
 ! A86   A(24,23,28)           108.0347         estimate D2E/DX2                !
 ! A87   A(24,23,61)           109.9696         estimate D2E/DX2                !
 ! A88   A(28,23,61)           108.6918         estimate D2E/DX2                !
 ! A89   A(23,24,25)           109.1435         estimate D2E/DX2                !
 ! A90   A(23,24,39)           111.0391         estimate D2E/DX2                !
 ! A91   A(23,24,62)           107.9598         estimate D2E/DX2                !
 ! A92   A(25,24,39)           109.4862         estimate D2E/DX2                !
 ! A93   A(25,24,62)           109.6575         estimate D2E/DX2                !
 ! A94   A(39,24,62)           109.5294         estimate D2E/DX2                !
 ! A95   A(24,25,26)           111.3095         estimate D2E/DX2                !
 ! A96   A(24,25,38)           111.0801         estimate D2E/DX2                !
 ! A97   A(24,25,63)           108.3041         estimate D2E/DX2                !
 ! A98   A(26,25,38)           112.5768         estimate D2E/DX2                !
 ! A99   A(26,25,63)           107.8633         estimate D2E/DX2                !
 ! A100  A(38,25,63)           105.3921         estimate D2E/DX2                !
 ! A101  A(25,26,27)           112.0293         estimate D2E/DX2                !
 ! A102  A(25,26,31)           108.7896         estimate D2E/DX2                !
 ! A103  A(25,26,64)           109.7392         estimate D2E/DX2                !
 ! A104  A(27,26,31)           105.4033         estimate D2E/DX2                !
 ! A105  A(27,26,64)           110.2116         estimate D2E/DX2                !
 ! A106  A(31,26,64)           110.5892         estimate D2E/DX2                !
 ! A107  A(26,27,28)           120.3947         estimate D2E/DX2                !
 ! A108  A(23,28,27)           111.0207         estimate D2E/DX2                !
 ! A109  A(23,28,29)           114.0171         estimate D2E/DX2                !
 ! A110  A(23,28,65)           108.025          estimate D2E/DX2                !
 ! A111  A(27,28,29)           104.4242         estimate D2E/DX2                !
 ! A112  A(27,28,65)           110.8657         estimate D2E/DX2                !
 ! A113  A(29,28,65)           108.4637         estimate D2E/DX2                !
 ! A114  A(28,29,30)           111.0607         estimate D2E/DX2                !
 ! A115  A(28,29,66)           108.1061         estimate D2E/DX2                !
 ! A116  A(28,29,67)           109.353          estimate D2E/DX2                !
 ! A117  A(30,29,66)           108.3149         estimate D2E/DX2                !
 ! A118  A(30,29,67)           111.3146         estimate D2E/DX2                !
 ! A119  A(66,29,67)           108.599          estimate D2E/DX2                !
 ! A120  A(29,30,68)           112.3944         estimate D2E/DX2                !
 ! A121  A(26,31,32)           116.3113         estimate D2E/DX2                !
 ! A122  A(31,32,33)           109.5231         estimate D2E/DX2                !
 ! A123  A(31,32,69)           109.578          estimate D2E/DX2                !
 ! A124  A(31,32,70)           107.7719         estimate D2E/DX2                !
 ! A125  A(33,32,69)           110.5964         estimate D2E/DX2                !
 ! A126  A(33,32,70)           110.9343         estimate D2E/DX2                !
 ! A127  A(69,32,70)           108.3791         estimate D2E/DX2                !
 ! A128  A(32,33,34)           115.3199         estimate D2E/DX2                !
 ! A129  A(32,33,71)           108.4609         estimate D2E/DX2                !
 ! A130  A(32,33,72)           108.1301         estimate D2E/DX2                !
 ! A131  A(34,33,71)           107.6004         estimate D2E/DX2                !
 ! A132  A(34,33,72)           111.7045         estimate D2E/DX2                !
 ! A133  A(71,33,72)           105.0933         estimate D2E/DX2                !
 ! A134  A(33,34,35)           118.0131         estimate D2E/DX2                !
 ! A135  A(33,34,73)           108.0685         estimate D2E/DX2                !
 ! A136  A(33,34,74)           108.2666         estimate D2E/DX2                !
 ! A137  A(35,34,73)           107.7149         estimate D2E/DX2                !
 ! A138  A(35,34,74)           108.4919         estimate D2E/DX2                !
 ! A139  A(73,34,74)           105.6156         estimate D2E/DX2                !
 ! A140  A(34,35,36)           115.1843         estimate D2E/DX2                !
 ! A141  A(34,35,75)           111.0605         estimate D2E/DX2                !
 ! A142  A(34,35,76)           107.4803         estimate D2E/DX2                !
 ! A143  A(36,35,75)           109.0634         estimate D2E/DX2                !
 ! A144  A(36,35,76)           107.7794         estimate D2E/DX2                !
 ! A145  A(75,35,76)           105.7922         estimate D2E/DX2                !
 ! A146  A(35,36,37)           112.3999         estimate D2E/DX2                !
 ! A147  A(35,36,77)           111.5662         estimate D2E/DX2                !
 ! A148  A(35,36,78)           111.0318         estimate D2E/DX2                !
 ! A149  A(37,36,77)           107.8519         estimate D2E/DX2                !
 ! A150  A(37,36,78)           106.1074         estimate D2E/DX2                !
 ! A151  A(77,36,78)           107.6004         estimate D2E/DX2                !
 ! A152  A(36,37,79)           110.1499         estimate D2E/DX2                !
 ! A153  A(36,37,80)           110.7746         estimate D2E/DX2                !
 ! A154  A(36,37,81)           109.6916         estimate D2E/DX2                !
 ! A155  A(79,37,80)           110.9199         estimate D2E/DX2                !
 ! A156  A(79,37,81)           109.0571         estimate D2E/DX2                !
 ! A157  A(80,37,81)           106.1537         estimate D2E/DX2                !
 ! A158  A(25,38,82)           109.8033         estimate D2E/DX2                !
 ! A159  A(24,39,83)           107.2378         estimate D2E/DX2                !
 ! A160  A(16,40,84)           106.3509         estimate D2E/DX2                !
 ! D1    D(6,1,2,3)            -55.7133         estimate D2E/DX2                !
 ! D2    D(6,1,2,12)          -174.0318         estimate D2E/DX2                !
 ! D3    D(6,1,2,41)            66.5422         estimate D2E/DX2                !
 ! D4    D(2,1,6,5)             51.9627         estimate D2E/DX2                !
 ! D5    D(2,1,6,7)            176.7593         estimate D2E/DX2                !
 ! D6    D(2,1,6,45)           -67.0049         estimate D2E/DX2                !
 ! D7    D(1,2,3,4)             56.5095         estimate D2E/DX2                !
 ! D8    D(1,2,3,11)           175.388          estimate D2E/DX2                !
 ! D9    D(1,2,3,42)           -61.8837         estimate D2E/DX2                !
 ! D10   D(12,2,3,4)           171.2821         estimate D2E/DX2                !
 ! D11   D(12,2,3,11)          -69.8394         estimate D2E/DX2                !
 ! D12   D(12,2,3,42)           52.8889         estimate D2E/DX2                !
 ! D13   D(41,2,3,4)           -66.1083         estimate D2E/DX2                !
 ! D14   D(41,2,3,11)           52.7702         estimate D2E/DX2                !
 ! D15   D(41,2,3,42)          175.4985         estimate D2E/DX2                !
 ! D16   D(1,2,12,13)         -128.0126         estimate D2E/DX2                !
 ! D17   D(3,2,12,13)          112.819          estimate D2E/DX2                !
 ! D18   D(41,2,12,13)          -9.0312         estimate D2E/DX2                !
 ! D19   D(2,3,4,5)            -55.5951         estimate D2E/DX2                !
 ! D20   D(2,3,4,10)          -174.1214         estimate D2E/DX2                !
 ! D21   D(2,3,4,43)            63.7531         estimate D2E/DX2                !
 ! D22   D(11,3,4,5)          -176.7611         estimate D2E/DX2                !
 ! D23   D(11,3,4,10)           64.7126         estimate D2E/DX2                !
 ! D24   D(11,3,4,43)          -57.4129         estimate D2E/DX2                !
 ! D25   D(42,3,4,5)            61.4881         estimate D2E/DX2                !
 ! D26   D(42,3,4,10)          -57.0382         estimate D2E/DX2                !
 ! D27   D(42,3,4,43)         -179.1637         estimate D2E/DX2                !
 ! D28   D(2,3,11,51)           60.9535         estimate D2E/DX2                !
 ! D29   D(4,3,11,51)         -178.8147         estimate D2E/DX2                !
 ! D30   D(42,3,11,51)         -58.8675         estimate D2E/DX2                !
 ! D31   D(3,4,5,6)             51.7538         estimate D2E/DX2                !
 ! D32   D(3,4,5,9)            -70.2685         estimate D2E/DX2                !
 ! D33   D(3,4,5,44)           169.7612         estimate D2E/DX2                !
 ! D34   D(10,4,5,6)           173.1595         estimate D2E/DX2                !
 ! D35   D(10,4,5,9)            51.1372         estimate D2E/DX2                !
 ! D36   D(10,4,5,44)          -68.8331         estimate D2E/DX2                !
 ! D37   D(43,4,5,6)           -67.325          estimate D2E/DX2                !
 ! D38   D(43,4,5,9)           170.6527         estimate D2E/DX2                !
 ! D39   D(43,4,5,44)           50.6824         estimate D2E/DX2                !
 ! D40   D(3,4,10,50)          -46.8983         estimate D2E/DX2                !
 ! D41   D(5,4,10,50)         -167.6304         estimate D2E/DX2                !
 ! D42   D(43,4,10,50)          73.9719         estimate D2E/DX2                !
 ! D43   D(4,5,6,1)            -48.8235         estimate D2E/DX2                !
 ! D44   D(4,5,6,7)           -170.1974         estimate D2E/DX2                !
 ! D45   D(4,5,6,45)            71.8256         estimate D2E/DX2                !
 ! D46   D(9,5,6,1)             73.1179         estimate D2E/DX2                !
 ! D47   D(9,5,6,7)            -48.256          estimate D2E/DX2                !
 ! D48   D(9,5,6,45)          -166.233          estimate D2E/DX2                !
 ! D49   D(44,5,6,1)          -167.6461         estimate D2E/DX2                !
 ! D50   D(44,5,6,7)            70.98           estimate D2E/DX2                !
 ! D51   D(44,5,6,45)          -46.9971         estimate D2E/DX2                !
 ! D52   D(4,5,9,49)           -42.0961         estimate D2E/DX2                !
 ! D53   D(6,5,9,49)          -164.6456         estimate D2E/DX2                !
 ! D54   D(44,5,9,49)           77.4121         estimate D2E/DX2                !
 ! D55   D(1,6,7,8)            -60.174          estimate D2E/DX2                !
 ! D56   D(1,6,7,46)           176.6255         estimate D2E/DX2                !
 ! D57   D(1,6,7,47)            59.2482         estimate D2E/DX2                !
 ! D58   D(5,6,7,8)             64.5859         estimate D2E/DX2                !
 ! D59   D(5,6,7,46)           -58.6146         estimate D2E/DX2                !
 ! D60   D(5,6,7,47)          -175.9919         estimate D2E/DX2                !
 ! D61   D(45,6,7,8)          -177.8628         estimate D2E/DX2                !
 ! D62   D(45,6,7,46)           58.9367         estimate D2E/DX2                !
 ! D63   D(45,6,7,47)          -58.4407         estimate D2E/DX2                !
 ! D64   D(6,7,8,48)           -45.8763         estimate D2E/DX2                !
 ! D65   D(46,7,8,48)           76.143          estimate D2E/DX2                !
 ! D66   D(47,7,8,48)         -166.3659         estimate D2E/DX2                !
 ! D67   D(2,12,13,14)        -129.6842         estimate D2E/DX2                !
 ! D68   D(2,12,13,19)         112.578          estimate D2E/DX2                !
 ! D69   D(2,12,13,52)          -9.5087         estimate D2E/DX2                !
 ! D70   D(12,13,14,15)         61.6768         estimate D2E/DX2                !
 ! D71   D(12,13,14,16)        -59.2564         estimate D2E/DX2                !
 ! D72   D(12,13,14,53)       -178.1847         estimate D2E/DX2                !
 ! D73   D(19,13,14,15)       -178.7562         estimate D2E/DX2                !
 ! D74   D(19,13,14,16)         60.3106         estimate D2E/DX2                !
 ! D75   D(19,13,14,53)        -58.6177         estimate D2E/DX2                !
 ! D76   D(52,13,14,15)        -58.9029         estimate D2E/DX2                !
 ! D77   D(52,13,14,16)       -179.8362         estimate D2E/DX2                !
 ! D78   D(52,13,14,53)         61.2356         estimate D2E/DX2                !
 ! D79   D(12,13,19,18)         59.1835         estimate D2E/DX2                !
 ! D80   D(12,13,19,20)        -62.1088         estimate D2E/DX2                !
 ! D81   D(12,13,19,57)        179.825          estimate D2E/DX2                !
 ! D82   D(14,13,19,18)        -58.2102         estimate D2E/DX2                !
 ! D83   D(14,13,19,20)       -179.5025         estimate D2E/DX2                !
 ! D84   D(14,13,19,57)         62.4313         estimate D2E/DX2                !
 ! D85   D(52,13,19,18)       -178.2164         estimate D2E/DX2                !
 ! D86   D(52,13,19,20)         60.4913         estimate D2E/DX2                !
 ! D87   D(52,13,19,57)        -57.5749         estimate D2E/DX2                !
 ! D88   D(13,14,15,54)       -164.0172         estimate D2E/DX2                !
 ! D89   D(16,14,15,54)        -44.5925         estimate D2E/DX2                !
 ! D90   D(53,14,15,54)         76.5212         estimate D2E/DX2                !
 ! D91   D(13,14,16,17)        -57.5407         estimate D2E/DX2                !
 ! D92   D(13,14,16,40)       -179.9506         estimate D2E/DX2                !
 ! D93   D(13,14,16,55)         61.0418         estimate D2E/DX2                !
 ! D94   D(15,14,16,17)       -178.1017         estimate D2E/DX2                !
 ! D95   D(15,14,16,40)         59.4885         estimate D2E/DX2                !
 ! D96   D(15,14,16,55)        -59.5192         estimate D2E/DX2                !
 ! D97   D(53,14,16,17)         60.7334         estimate D2E/DX2                !
 ! D98   D(53,14,16,40)        -61.6765         estimate D2E/DX2                !
 ! D99   D(53,14,16,55)        179.3159         estimate D2E/DX2                !
 ! D100  D(14,16,17,18)         51.0784         estimate D2E/DX2                !
 ! D101  D(14,16,17,22)        171.826          estimate D2E/DX2                !
 ! D102  D(14,16,17,56)        -71.8151         estimate D2E/DX2                !
 ! D103  D(40,16,17,18)        171.4891         estimate D2E/DX2                !
 ! D104  D(40,16,17,22)        -67.7633         estimate D2E/DX2                !
 ! D105  D(40,16,17,56)         48.5956         estimate D2E/DX2                !
 ! D106  D(55,16,17,18)        -66.4182         estimate D2E/DX2                !
 ! D107  D(55,16,17,22)         54.3293         estimate D2E/DX2                !
 ! D108  D(55,16,17,56)        170.6883         estimate D2E/DX2                !
 ! D109  D(14,16,40,84)       -156.8406         estimate D2E/DX2                !
 ! D110  D(17,16,40,84)         81.1844         estimate D2E/DX2                !
 ! D111  D(55,16,40,84)        -39.9903         estimate D2E/DX2                !
 ! D112  D(16,17,18,19)        -50.33           estimate D2E/DX2                !
 ! D113  D(22,17,18,19)       -174.3367         estimate D2E/DX2                !
 ! D114  D(56,17,18,19)         71.7002         estimate D2E/DX2                !
 ! D115  D(16,17,22,23)        -63.3044         estimate D2E/DX2                !
 ! D116  D(18,17,22,23)         59.9838         estimate D2E/DX2                !
 ! D117  D(56,17,22,23)        177.8057         estimate D2E/DX2                !
 ! D118  D(17,18,19,13)         54.5535         estimate D2E/DX2                !
 ! D119  D(17,18,19,20)       -179.488          estimate D2E/DX2                !
 ! D120  D(17,18,19,57)        -63.903          estimate D2E/DX2                !
 ! D121  D(13,19,20,21)         75.4923         estimate D2E/DX2                !
 ! D122  D(13,19,20,58)       -166.4305         estimate D2E/DX2                !
 ! D123  D(13,19,20,59)        -49.8443         estimate D2E/DX2                !
 ! D124  D(18,19,20,21)        -48.2787         estimate D2E/DX2                !
 ! D125  D(18,19,20,58)         69.7985         estimate D2E/DX2                !
 ! D126  D(18,19,20,59)       -173.6153         estimate D2E/DX2                !
 ! D127  D(57,19,20,21)       -166.3781         estimate D2E/DX2                !
 ! D128  D(57,19,20,58)        -48.3009         estimate D2E/DX2                !
 ! D129  D(57,19,20,59)         68.2852         estimate D2E/DX2                !
 ! D130  D(19,20,21,60)        -64.8093         estimate D2E/DX2                !
 ! D131  D(58,20,21,60)        175.708          estimate D2E/DX2                !
 ! D132  D(59,20,21,60)         59.2772         estimate D2E/DX2                !
 ! D133  D(17,22,23,24)        117.7239         estimate D2E/DX2                !
 ! D134  D(17,22,23,28)       -123.9324         estimate D2E/DX2                !
 ! D135  D(17,22,23,61)         -4.5722         estimate D2E/DX2                !
 ! D136  D(22,23,24,25)        178.945          estimate D2E/DX2                !
 ! D137  D(22,23,24,39)        -60.2678         estimate D2E/DX2                !
 ! D138  D(22,23,24,62)         59.8113         estimate D2E/DX2                !
 ! D139  D(28,23,24,25)         60.2916         estimate D2E/DX2                !
 ! D140  D(28,23,24,39)       -178.9212         estimate D2E/DX2                !
 ! D141  D(28,23,24,62)        -58.8421         estimate D2E/DX2                !
 ! D142  D(61,23,24,25)        -58.192          estimate D2E/DX2                !
 ! D143  D(61,23,24,39)         62.5952         estimate D2E/DX2                !
 ! D144  D(61,23,24,62)       -177.3257         estimate D2E/DX2                !
 ! D145  D(22,23,28,27)       -175.2349         estimate D2E/DX2                !
 ! D146  D(22,23,28,29)         67.1596         estimate D2E/DX2                !
 ! D147  D(22,23,28,65)        -53.4783         estimate D2E/DX2                !
 ! D148  D(24,23,28,27)        -55.2914         estimate D2E/DX2                !
 ! D149  D(24,23,28,29)       -172.8969         estimate D2E/DX2                !
 ! D150  D(24,23,28,65)         66.4652         estimate D2E/DX2                !
 ! D151  D(61,23,28,27)         64.0045         estimate D2E/DX2                !
 ! D152  D(61,23,28,29)        -53.601          estimate D2E/DX2                !
 ! D153  D(61,23,28,65)       -174.2389         estimate D2E/DX2                !
 ! D154  D(23,24,25,26)        -56.913          estimate D2E/DX2                !
 ! D155  D(23,24,25,38)        176.7869         estimate D2E/DX2                !
 ! D156  D(23,24,25,63)         61.5012         estimate D2E/DX2                !
 ! D157  D(39,24,25,26)       -178.6446         estimate D2E/DX2                !
 ! D158  D(39,24,25,38)         55.0553         estimate D2E/DX2                !
 ! D159  D(39,24,25,63)        -60.2304         estimate D2E/DX2                !
 ! D160  D(62,24,25,26)         61.1602         estimate D2E/DX2                !
 ! D161  D(62,24,25,38)        -65.1399         estimate D2E/DX2                !
 ! D162  D(62,24,25,63)        179.5744         estimate D2E/DX2                !
 ! D163  D(23,24,39,83)       -161.6827         estimate D2E/DX2                !
 ! D164  D(25,24,39,83)        -41.098          estimate D2E/DX2                !
 ! D165  D(62,24,39,83)         79.1755         estimate D2E/DX2                !
 ! D166  D(24,25,26,27)         47.148          estimate D2E/DX2                !
 ! D167  D(24,25,26,31)        163.2725         estimate D2E/DX2                !
 ! D168  D(24,25,26,64)        -75.6142         estimate D2E/DX2                !
 ! D169  D(38,25,26,27)        172.6195         estimate D2E/DX2                !
 ! D170  D(38,25,26,31)        -71.256          estimate D2E/DX2                !
 ! D171  D(38,25,26,64)         49.8573         estimate D2E/DX2                !
 ! D172  D(63,25,26,27)        -71.5307         estimate D2E/DX2                !
 ! D173  D(63,25,26,31)         44.5938         estimate D2E/DX2                !
 ! D174  D(63,25,26,64)        165.7071         estimate D2E/DX2                !
 ! D175  D(24,25,38,82)         70.6755         estimate D2E/DX2                !
 ! D176  D(26,25,38,82)        -54.9206         estimate D2E/DX2                !
 ! D177  D(63,25,38,82)       -172.2451         estimate D2E/DX2                !
 ! D178  D(25,26,27,28)        -45.4378         estimate D2E/DX2                !
 ! D179  D(31,26,27,28)       -163.5944         estimate D2E/DX2                !
 ! D180  D(64,26,27,28)         77.0562         estimate D2E/DX2                !
 ! D181  D(25,26,31,32)        146.916          estimate D2E/DX2                !
 ! D182  D(27,26,31,32)        -92.7731         estimate D2E/DX2                !
 ! D183  D(64,26,31,32)         26.3252         estimate D2E/DX2                !
 ! D184  D(26,27,28,23)         50.1322         estimate D2E/DX2                !
 ! D185  D(26,27,28,29)        173.4346         estimate D2E/DX2                !
 ! D186  D(26,27,28,65)        -69.9497         estimate D2E/DX2                !
 ! D187  D(23,28,29,30)         69.2705         estimate D2E/DX2                !
 ! D188  D(23,28,29,66)       -172.0319         estimate D2E/DX2                !
 ! D189  D(23,28,29,67)        -53.9654         estimate D2E/DX2                !
 ! D190  D(27,28,29,30)        -52.068          estimate D2E/DX2                !
 ! D191  D(27,28,29,66)         66.6295         estimate D2E/DX2                !
 ! D192  D(27,28,29,67)       -175.3039         estimate D2E/DX2                !
 ! D193  D(65,28,29,30)       -170.3369         estimate D2E/DX2                !
 ! D194  D(65,28,29,66)        -51.6394         estimate D2E/DX2                !
 ! D195  D(65,28,29,67)         66.4272         estimate D2E/DX2                !
 ! D196  D(28,29,30,68)       -111.3658         estimate D2E/DX2                !
 ! D197  D(66,29,30,68)        130.0625         estimate D2E/DX2                !
 ! D198  D(67,29,30,68)         10.7364         estimate D2E/DX2                !
 ! D199  D(26,31,32,33)        150.302          estimate D2E/DX2                !
 ! D200  D(26,31,32,69)         28.8189         estimate D2E/DX2                !
 ! D201  D(26,31,32,70)        -88.9182         estimate D2E/DX2                !
 ! D202  D(31,32,33,34)        -98.3546         estimate D2E/DX2                !
 ! D203  D(31,32,33,71)        140.9412         estimate D2E/DX2                !
 ! D204  D(31,32,33,72)         27.4774         estimate D2E/DX2                !
 ! D205  D(69,32,33,34)         22.5129         estimate D2E/DX2                !
 ! D206  D(69,32,33,71)        -98.1912         estimate D2E/DX2                !
 ! D207  D(69,32,33,72)        148.345          estimate D2E/DX2                !
 ! D208  D(70,32,33,34)        142.8046         estimate D2E/DX2                !
 ! D209  D(70,32,33,71)         22.1004         estimate D2E/DX2                !
 ! D210  D(70,32,33,72)        -91.3633         estimate D2E/DX2                !
 ! D211  D(32,33,34,35)         59.5091         estimate D2E/DX2                !
 ! D212  D(32,33,34,73)        -62.9095         estimate D2E/DX2                !
 ! D213  D(32,33,34,74)       -176.8541         estimate D2E/DX2                !
 ! D214  D(71,33,34,35)       -179.3194         estimate D2E/DX2                !
 ! D215  D(71,33,34,73)         58.262          estimate D2E/DX2                !
 ! D216  D(71,33,34,74)        -55.6827         estimate D2E/DX2                !
 ! D217  D(72,33,34,35)        -64.4662         estimate D2E/DX2                !
 ! D218  D(72,33,34,73)        173.1151         estimate D2E/DX2                !
 ! D219  D(72,33,34,74)         59.1705         estimate D2E/DX2                !
 ! D220  D(33,34,35,36)         64.4655         estimate D2E/DX2                !
 ! D221  D(33,34,35,75)        -60.1336         estimate D2E/DX2                !
 ! D222  D(33,34,35,76)       -175.412          estimate D2E/DX2                !
 ! D223  D(73,34,35,36)       -172.9367         estimate D2E/DX2                !
 ! D224  D(73,34,35,75)         62.4642         estimate D2E/DX2                !
 ! D225  D(73,34,35,76)        -52.8143         estimate D2E/DX2                !
 ! D226  D(74,34,35,36)        -59.0585         estimate D2E/DX2                !
 ! D227  D(74,34,35,75)        176.3424         estimate D2E/DX2                !
 ! D228  D(74,34,35,76)         61.064          estimate D2E/DX2                !
 ! D229  D(34,35,36,37)        -97.7947         estimate D2E/DX2                !
 ! D230  D(34,35,36,77)         23.5004         estimate D2E/DX2                !
 ! D231  D(34,35,36,78)        143.5213         estimate D2E/DX2                !
 ! D232  D(75,35,36,37)         27.8416         estimate D2E/DX2                !
 ! D233  D(75,35,36,77)        149.1366         estimate D2E/DX2                !
 ! D234  D(75,35,36,78)        -90.8424         estimate D2E/DX2                !
 ! D235  D(76,35,36,37)        142.2473         estimate D2E/DX2                !
 ! D236  D(76,35,36,77)        -96.4577         estimate D2E/DX2                !
 ! D237  D(76,35,36,78)         23.5633         estimate D2E/DX2                !
 ! D238  D(35,36,37,79)        170.7131         estimate D2E/DX2                !
 ! D239  D(35,36,37,80)         47.6207         estimate D2E/DX2                !
 ! D240  D(35,36,37,81)        -69.2392         estimate D2E/DX2                !
 ! D241  D(77,36,37,79)         47.3165         estimate D2E/DX2                !
 ! D242  D(77,36,37,80)        -75.7759         estimate D2E/DX2                !
 ! D243  D(77,36,37,81)        167.3642         estimate D2E/DX2                !
 ! D244  D(78,36,37,79)        -67.7491         estimate D2E/DX2                !
 ! D245  D(78,36,37,80)        169.1585         estimate D2E/DX2                !
 ! D246  D(78,36,37,81)         52.2986         estimate D2E/DX2                !
 --------------------------------------------------------------------------------
 Trust Radius=3.00D-01 FncErr=1.00D-07 GrdErr=1.00D-06
 Number of steps in this run=    504 maximum allowed number of steps=    504.
 GradGradGradGradGradGradGradGradGradGradGradGradGradGradGradGradGradGrad

 Leave Link  103 at Thu Mar 24 20:25:18 2016, MaxMem= 10737418240 cpu:         0.4
 (Enter /share/apps//g09/l202.exe)
 Stoichiometry    C23H44NO16(1+)
 Framework group  C1[X(C23H44NO16)]
 Deg. of freedom   246
 Full point group                 C1      NOp   1
 Largest Abelian subgroup         C1      NOp   1
 Largest concise Abelian subgroup C1      NOp   1
                         Standard orientation:                         
 ---------------------------------------------------------------------
 Center     Atomic      Atomic             Coordinates (Angstroms)
 Number     Number       Type             X           Y           Z
 ---------------------------------------------------------------------
      1          8           0        1.906879    1.818492    0.704653
      2          6           0        2.979926    0.983814    0.323912
      3          6           0        3.465704    1.319364   -1.072972
      4          6           0        3.856272    2.779715   -1.142327
      5          6           0        2.698586    3.659880   -0.707578
      6          6           0        2.150628    3.212942    0.642340
      7          6           0        0.849448    3.903619    1.012227
      8          8           0       -0.217530    3.586351    0.140046
      9          8           0        1.674077    3.626434   -1.682984
     10          8           0        4.186180    3.163313   -2.453010
     11          8           0        4.592275    0.566630   -1.411864
     12          8           0        2.441122   -0.288002    0.342033
     13          6           0        3.075611   -1.327046    1.060900
     14          6           0        3.208813   -2.510363    0.124744
     15          8           0        4.012624   -2.164420   -0.978717
     16          6           0        1.822072   -2.909437   -0.330174
     17          6           0        0.933113   -3.240356    0.867587
     18          8           0        0.959237   -2.214100    1.834290
     19          6           0        2.225305   -1.761008    2.250175
     20          6           0        1.980979   -0.677293    3.291277
     21          8           0        1.035917    0.295124    2.911815
     22          8           0       -0.398049   -3.436812    0.513810
     23          6           0       -1.074639   -2.325569   -0.037153
     24          6           0       -1.519946   -2.622379   -1.455371
     25          6           0       -2.264582   -1.418890   -2.005658
     26          6           0       -3.446762   -1.050788   -1.124706
     27          8           0       -3.099279   -1.012778    0.232406
     28          6           0       -2.321518   -2.050542    0.802472
     29          6           0       -2.024480   -1.570584    2.209236
     30          8           0       -1.477920   -0.271092    2.196357
     31          8           0       -3.852136    0.236582   -1.436939
     32          6           0       -5.252116    0.505927   -1.321668
     33          6           0       -5.460193    1.968104   -0.966902
     34          6           0       -5.699339    2.252919    0.512980
     35          6           0       -4.615981    1.842805    1.505809
     36          6           0       -3.287127    2.572031    1.353192
     37          7           0       -2.296928    1.786215    0.576500
     38          8           0       -2.633664   -1.622517   -3.346937
     39          8           0       -0.417101   -2.910285   -2.281574
     40          8           0        1.946201   -4.003661   -1.194277
     41          1           0        3.811991    1.073451    1.041483
     42          1           0        2.627563    1.137461   -1.757883
     43          1           0        4.705118    2.946160   -0.464346
     44          1           0        3.061075    4.688481   -0.591089
     45          1           0        2.899806    3.492472    1.397401
     46          1           0        1.023283    4.984630    1.031694
     47          1           0        0.551813    3.593172    2.014914
     48          1           0        0.135297    3.659888   -0.761050
     49          1           0        2.104648    3.673965   -2.543730
     50          1           0        4.777353    2.497875   -2.815769
     51          1           0        4.372091   -0.379446   -1.395858
     52          1           0        4.064185   -1.009702    1.407770
     53          1           0        3.670728   -3.341577    0.673854
     54          1           0        3.863453   -2.835720   -1.652696
     55          1           0        1.398568   -2.052360   -0.858203
     56          1           0        1.253954   -4.193950    1.303862
     57          1           0        2.776077   -2.568762    2.757572
     58          1           0        1.583197   -1.146657    4.190872
     59          1           0        2.939490   -0.217939    3.557920
     60          1           0        1.350312    0.807489    2.150725
     61          1           0       -0.439205   -1.434694   -0.023649
     62          1           0       -2.194328   -3.493188   -1.424511
     63          1           0       -1.578201   -0.566975   -2.019459
     64          1           0       -4.270199   -1.767153   -1.287497
     65          1           0       -2.900005   -2.982629    0.867619
     66          1           0       -2.965558   -1.541842    2.764089
     67          1           0       -1.354701   -2.276924    2.697675
     68          1           0       -0.537716   -0.259079    2.469868
     69          1           0       -5.688399   -0.142152   -0.555046
     70          1           0       -5.717771    0.266827   -2.280634
     71          1           0       -6.326687    2.337665   -1.518377
     72          1           0       -4.610174    2.537525   -1.356609
     73          1           0       -6.627236    1.755251    0.808554
     74          1           0       -5.889490    3.323868    0.629686
     75          1           0       -4.437901    0.764883    1.469854
     76          1           0       -4.995340    2.047828    2.508070
     77          1           0       -3.413011    3.535185    0.856977
     78          1           0       -2.830206    2.758900    2.323721
     79          1           0       -1.467455    2.370766    0.359772
     80          1           0       -2.718477    1.416702   -0.281468
     81          1           0       -1.992212    0.953362    1.133525
     82          1           0       -3.331374   -2.281152   -3.396142
     83          1           0       -0.707662   -2.802796   -3.192891
     84          1           0        1.152484   -4.007884   -1.742996
 ---------------------------------------------------------------------
 Rotational constants (GHZ):      0.1078594      0.0769630      0.0606970
 Leave Link  202 at Thu Mar 24 20:25:18 2016, MaxMem= 10737418240 cpu:         0.8
 (Enter /share/apps//g09/l301.exe)
 Standard basis: 6-311+G(d,p) (5D, 7F)
 Ernie: Thresh=  0.10000D-02 Tol=  0.10000D-05 Strict=F.
 There are  1184 symmetry adapted cartesian basis functions of A   symmetry.
 There are  1144 symmetry adapted basis functions of A   symmetry.
  1144 basis functions,  1792 primitive gaussians,  1184 cartesian basis functions
   158 alpha electrons      158 beta electrons
       nuclear repulsion energy      5966.8945476773 Hartrees.
 IExCor= 1009 DFT=T Ex+Corr=PBE1PBE ExCW=0 ScaHFX=  0.250000
 ScaDFX=  0.750000  0.750000  1.000000  1.000000 ScalE2=  1.000000  1.000000
 IRadAn=      0 IRanWt=     -1 IRanGd=            0 ICorTp=0 IEmpDi=131
 NAtoms=   84 NActive=   84 NUniq=   84 SFac= 1.00D+00 NAtFMM=   60 NAOKFM=T Big=T
 Integral buffers will be    131072 words long.
 Raffenetti 2 integral format.
 Two-electron integral symmetry is turned on.
 R6Disp:  Grimme-D3 Dispersion energy=       -0.0836604805 Hartrees.
 Nuclear repulsion after empirical dispersion term =     5966.8108871968 Hartrees.
 Leave Link  301 at Thu Mar 24 20:25:18 2016, MaxMem= 10737418240 cpu:         1.6
 (Enter /share/apps//g09/l302.exe)
 NPDir=0 NMtPBC=     1 NCelOv=     1 NCel=       1 NClECP=     1 NCelD=      1
         NCelK=      1 NCelE2=     1 NClLst=     1 CellRange=     0.0.
 One-electron integrals computed using PRISM.
 NBasis=  1144 RedAO= T EigKep=  1.50D-06  NBF=  1144
 NBsUse=  1144 1.00D-06 EigRej= -1.00D+00 NBFU=  1144
 Precomputing XC quadrature grid using
 IXCGrd= 4 IRadAn=           0 IRanWt=          -1 IRanGd=           0 AccXCQ= 0.00D+00.
 Generated NRdTot=       0 NPtTot=           0 NUsed=           0 NTot=          32
 NSgBfM=  1071  1071  1079  1088  1096 MxSgAt=    84 MxSgA2=    84.
 Leave Link  302 at Thu Mar 24 20:25:22 2016, MaxMem= 10737418240 cpu:        52.6
 (Enter /share/apps//g09/l303.exe)
 DipDrv:  MaxL=1.
 Leave Link  303 at Thu Mar 24 20:25:25 2016, MaxMem= 10737418240 cpu:        34.3
 (Enter /share/apps//g09/l401.exe)
 ExpMin= 4.38D-02 ExpMax= 8.59D+03 ExpMxC= 1.30D+03 IAcc=2 IRadAn=         4 AccDes= 0.00D+00
 Harris functional with IExCor= 1009 and IRadAn=       4 diagonalized for initial guess.
 HarFok:  IExCor= 1009 AccDes= 0.00D+00 IRadAn=         4 IDoV= 1 UseB2=F ITyADJ=14
 ICtDFT=  3500011 ScaDFX=  1.000000  1.000000  1.000000  1.000000
 FoFCou: FMM=F IPFlag=           0 FMFlag=      100000 FMFlg1=        2001
         NFxFlg=           0 DoJE=T BraDBF=F KetDBF=T FulRan=T
         wScrn=  0.000000 ICntrl=     500 IOpCl=  0 I1Cent=   200000004 NGrid=           0
         NMat0=    1 NMatS0=      1 NMatT0=    0 NMatD0=    1 NMtDS0=    0 NMtDT0=    0
 Petite list used in FoFCou.
 Harris En= -2159.74563086137    
 JPrj=0 DoOrth=F DoCkMO=F.
 Leave Link  401 at Thu Mar 24 20:25:31 2016, MaxMem= 10737418240 cpu:       115.0
 (Enter /share/apps//g09/l502.exe)
 Closed shell SCF:
 Using DIIS extrapolation, IDIIS=  1040.
 Integral symmetry usage will be decided dynamically.
 IVT=     4256630 IEndB=     4256630 NGot= 10737418240 MDV= 10734581291
 LenX= 10734581291 LenY= 10733178251
 Requested convergence on RMS density matrix=1.00D-08 within 128 cycles.
 Requested convergence on MAX density matrix=1.00D-06.
 Requested convergence on             energy=1.00D-06.
 No special actions if energy rises.
 Fock matrices will be formed incrementally for  20 cycles.

 Cycle   1  Pass 1  IDiag  1:
 FoFJK:  IHMeth= 1 ICntrl=       0 DoSepK=F KAlg= 0 I1Cent=   0 FoldK=F
 IRaf= 790000000 NMat=   1 IRICut=       1 DoRegI=T DoRafI=F ISym2E= 0.
 FoFCou: FMM=T IPFlag=           0 FMFlag=      100000 FMFlg1=        2001
         NFxFlg=           0 DoJE=F BraDBF=F KetDBF=F FulRan=T
         wScrn=  0.000000 ICntrl=       0 IOpCl=  0 I1Cent=           0 NGrid=           0
         NMat0=    1 NMatS0=      1 NMatT0=    0 NMatD0=    1 NMtDS0=    0 NMtDT0=    0
 Symmetry not used in FoFCou.
 FMM levels:  10  Number of levels for PrismC:   9
 E= -2158.68625676285    
 DIIS: error= 1.19D-02 at cycle   1 NSaved=   1.
 NSaved= 1 IEnMin= 1 EnMin= -2158.68625676285     IErMin= 1 ErrMin= 1.19D-02
 ErrMax= 1.19D-02  0.00D+00 EMaxC= 1.00D-01 BMatC= 1.06D+00 BMatP= 1.06D+00
 IDIUse=3 WtCom= 8.81D-01 WtEn= 1.19D-01
 Coeff-Com:  0.100D+01
 Coeff-En:   0.100D+01
 Coeff:      0.100D+01
 Gap=     0.266 Goal=   None    Shift=    0.000
 GapD=    0.266 DampG=1.000 DampE=0.500 DampFc=0.5000 IDamp=-1.
 Damping current iteration by 5.00D-01
 RMSDP=9.49D-03 MaxDP=2.65D+00              OVMax= 1.41D-01

 Cycle   2  Pass 1  IDiag  1:
 RMSU=  4.70D-03    CP:  1.02D+00
 E= -2158.98682898789     Delta-E=       -0.300572225048 Rises=F Damp=T
 DIIS: error= 3.08D-03 at cycle   2 NSaved=   2.
 NSaved= 2 IEnMin= 2 EnMin= -2158.98682898789     IErMin= 2 ErrMin= 3.08D-03
 ErrMax= 3.08D-03  0.00D+00 EMaxC= 1.00D-01 BMatC= 7.97D-02 BMatP= 1.06D+00
 IDIUse=3 WtCom= 9.69D-01 WtEn= 3.08D-02
 Coeff-Com:  0.490D-01 0.951D+00
 Coeff-En:   0.139D+00 0.861D+00
 Coeff:      0.517D-01 0.948D+00
 Gap=     0.288 Goal=   None    Shift=    0.000
 RMSDP=4.26D-03 MaxDP=1.14D+00 DE=-3.01D-01 OVMax= 8.18D-02

 Cycle   3  Pass 1  IDiag  1:
 RMSU=  2.48D-03    CP:  9.28D-01  8.94D-01
 E= -2159.36778805050     Delta-E=       -0.380959062610 Rises=F Damp=F
 DIIS: error= 3.17D-03 at cycle   3 NSaved=   3.
 NSaved= 3 IEnMin= 3 EnMin= -2159.36778805050     IErMin= 2 ErrMin= 3.08D-03
 ErrMax= 3.17D-03  0.00D+00 EMaxC= 1.00D-01 BMatC= 4.35D-02 BMatP= 7.97D-02
 IDIUse=3 WtCom= 9.68D-01 WtEn= 3.17D-02
 Coeff-Com: -0.694D-01 0.407D+00 0.662D+00
 Coeff-En:   0.000D+00 0.000D+00 0.100D+01
 Coeff:     -0.672D-01 0.395D+00 0.673D+00
 Gap=     0.276 Goal=   None    Shift=    0.000
 RMSDP=1.66D-03 MaxDP=5.88D-01 DE=-3.81D-01 OVMax= 1.56D-02

 Cycle   4  Pass 1  IDiag  1:
 RMSU=  1.21D-03    CP:  9.51D-01  1.04D+00  9.40D-01
 E= -2159.39530748499     Delta-E=       -0.027519434482 Rises=F Damp=F
 DIIS: error= 1.03D-03 at cycle   4 NSaved=   4.
 NSaved= 4 IEnMin= 4 EnMin= -2159.39530748499     IErMin= 4 ErrMin= 1.03D-03
 ErrMax= 1.03D-03  0.00D+00 EMaxC= 1.00D-01 BMatC= 5.36D-03 BMatP= 4.35D-02
 IDIUse=3 WtCom= 9.90D-01 WtEn= 1.03D-02
 Coeff-Com: -0.355D-01 0.122D+00 0.334D+00 0.579D+00
 Coeff-En:   0.000D+00 0.000D+00 0.529D-01 0.947D+00
 Coeff:     -0.352D-01 0.121D+00 0.332D+00 0.583D+00
 Gap=     0.268 Goal=   None    Shift=    0.000
 RMSDP=1.17D-03 MaxDP=4.86D-01 DE=-2.75D-02 OVMax= 5.37D-03

 Cycle   5  Pass 1  IDiag  1:
 RMSU=  2.89D-04    CP:  9.26D-01  9.83D-01  9.07D-01  5.79D-01
 E= -2159.39979156188     Delta-E=       -0.004484076893 Rises=F Damp=F
 DIIS: error= 2.54D-04 at cycle   5 NSaved=   5.
 NSaved= 5 IEnMin= 5 EnMin= -2159.39979156188     IErMin= 5 ErrMin= 2.54D-04
 ErrMax= 2.54D-04  0.00D+00 EMaxC= 1.00D-01 BMatC= 2.77D-04 BMatP= 5.36D-03
 IDIUse=3 WtCom= 9.97D-01 WtEn= 2.54D-03
 Coeff-Com: -0.116D-01 0.264D-01 0.102D+00 0.260D+00 0.623D+00
 Coeff-En:   0.000D+00 0.000D+00 0.000D+00 0.000D+00 0.100D+01
 Coeff:     -0.116D-01 0.263D-01 0.102D+00 0.259D+00 0.624D+00
 Gap=     0.268 Goal=   None    Shift=    0.000
 RMSDP=1.40D-04 MaxDP=5.66D-02 DE=-4.48D-03 OVMax= 1.50D-03

 Cycle   6  Pass 1  IDiag  1:
 RMSU=  6.41D-05    CP:  9.28D-01  9.90D-01  9.28D-01  5.92D-01  7.75D-01
 E= -2159.39999694278     Delta-E=       -0.000205380904 Rises=F Damp=F
 DIIS: error= 5.36D-05 at cycle   6 NSaved=   6.
 NSaved= 6 IEnMin= 6 EnMin= -2159.39999694278     IErMin= 6 ErrMin= 5.36D-05
 ErrMax= 5.36D-05  0.00D+00 EMaxC= 1.00D-01 BMatC= 1.71D-05 BMatP= 2.77D-04
 IDIUse=1 WtCom= 1.00D+00 WtEn= 0.00D+00
 Coeff-Com: -0.362D-02 0.647D-02 0.314D-01 0.940D-01 0.295D+00 0.577D+00
 Coeff:     -0.362D-02 0.647D-02 0.314D-01 0.940D-01 0.295D+00 0.577D+00
 Gap=     0.268 Goal=   None    Shift=    0.000
 RMSDP=3.63D-05 MaxDP=9.82D-03 DE=-2.05D-04 OVMax= 3.88D-04

 Cycle   7  Pass 1  IDiag  1:
 RMSU=  1.71D-05    CP:  9.29D-01  9.92D-01  9.28D-01  6.06D-01  7.70D-01
                    CP:  7.62D-01
 E= -2159.40000919467     Delta-E=       -0.000012251884 Rises=F Damp=F
 DIIS: error= 1.67D-05 at cycle   7 NSaved=   7.
 NSaved= 7 IEnMin= 7 EnMin= -2159.40000919467     IErMin= 7 ErrMin= 1.67D-05
 ErrMax= 1.67D-05  0.00D+00 EMaxC= 1.00D-01 BMatC= 1.47D-06 BMatP= 1.71D-05
 IDIUse=1 WtCom= 1.00D+00 WtEn= 0.00D+00
 Coeff-Com: -0.970D-03 0.135D-02 0.861D-02 0.295D-01 0.104D+00 0.288D+00
 Coeff-Com:  0.569D+00
 Coeff:     -0.970D-03 0.135D-02 0.861D-02 0.295D-01 0.104D+00 0.288D+00
 Coeff:      0.569D+00
 Gap=     0.268 Goal=   None    Shift=    0.000
 RMSDP=9.36D-06 MaxDP=1.64D-03 DE=-1.23D-05 OVMax= 1.21D-04

 Cycle   8  Pass 1  IDiag  1:
 RMSU=  7.03D-06    CP:  9.29D-01  9.92D-01  9.28D-01  6.08D-01  7.77D-01
                    CP:  7.63D-01  7.19D-01
 E= -2159.40001018379     Delta-E=       -0.000000989119 Rises=F Damp=F
 DIIS: error= 5.15D-06 at cycle   8 NSaved=   8.
 NSaved= 8 IEnMin= 8 EnMin= -2159.40001018379     IErMin= 8 ErrMin= 5.15D-06
 ErrMax= 5.15D-06  0.00D+00 EMaxC= 1.00D-01 BMatC= 1.38D-07 BMatP= 1.47D-06
 IDIUse=1 WtCom= 1.00D+00 WtEn= 0.00D+00
 Coeff-Com:  0.765D-05-0.186D-03 0.101D-03 0.215D-02 0.107D-01 0.572D-01
 Coeff-Com:  0.269D+00 0.661D+00
 Coeff:      0.765D-05-0.186D-03 0.101D-03 0.215D-02 0.107D-01 0.572D-01
 Coeff:      0.269D+00 0.661D+00
 Gap=     0.268 Goal=   None    Shift=    0.000
 RMSDP=3.55D-06 MaxDP=6.95D-04 DE=-9.89D-07 OVMax= 3.14D-05

 Cycle   9  Pass 1  IDiag  1:
 RMSU=  2.06D-06    CP:  9.29D-01  9.92D-01  9.28D-01  6.08D-01  7.76D-01
                    CP:  7.77D-01  7.77D-01  8.88D-01
 E= -2159.40001028621     Delta-E=       -0.000000102425 Rises=F Damp=F
 DIIS: error= 1.29D-06 at cycle   9 NSaved=   9.
 NSaved= 9 IEnMin= 9 EnMin= -2159.40001028621     IErMin= 9 ErrMin= 1.29D-06
 ErrMax= 1.29D-06  0.00D+00 EMaxC= 1.00D-01 BMatC= 9.51D-09 BMatP= 1.38D-07
 IDIUse=1 WtCom= 1.00D+00 WtEn= 0.00D+00
 Coeff-Com:  0.639D-04-0.167D-03-0.533D-03-0.976D-03-0.241D-02 0.526D-02
 Coeff-Com:  0.803D-01 0.297D+00 0.622D+00
 Coeff:      0.639D-04-0.167D-03-0.533D-03-0.976D-03-0.241D-02 0.526D-02
 Coeff:      0.803D-01 0.297D+00 0.622D+00
 Gap=     0.268 Goal=   None    Shift=    0.000
 RMSDP=7.80D-07 MaxDP=2.69D-04 DE=-1.02D-07 OVMax= 8.20D-06

 Cycle  10  Pass 1  IDiag  1:
 RMSU=  4.54D-07    CP:  9.29D-01  9.92D-01  9.28D-01  6.08D-01  7.77D-01
                    CP:  7.77D-01  7.89D-01  8.71D-01  7.64D-01
 E= -2159.40001029382     Delta-E=       -0.000000007614 Rises=F Damp=F
 DIIS: error= 3.89D-07 at cycle  10 NSaved=  10.
 NSaved=10 IEnMin=10 EnMin= -2159.40001029382     IErMin=10 ErrMin= 3.89D-07
 ErrMax= 3.89D-07  0.00D+00 EMaxC= 1.00D-01 BMatC= 8.38D-10 BMatP= 9.51D-09
 IDIUse=1 WtCom= 1.00D+00 WtEn= 0.00D+00
 Coeff-Com:  0.259D-04-0.591D-04-0.248D-03-0.559D-03-0.177D-02-0.132D-02
 Coeff-Com:  0.182D-01 0.922D-01 0.295D+00 0.599D+00
 Coeff:      0.259D-04-0.591D-04-0.248D-03-0.559D-03-0.177D-02-0.132D-02
 Coeff:      0.182D-01 0.922D-01 0.295D+00 0.599D+00
 Gap=     0.268 Goal=   None    Shift=    0.000
 RMSDP=2.59D-07 MaxDP=1.04D-04 DE=-7.61D-09 OVMax= 2.50D-06

 Cycle  11  Pass 1  IDiag  1:
 RMSU=  1.21D-07    CP:  9.29D-01  9.92D-01  9.28D-01  6.08D-01  7.77D-01
                    CP:  7.78D-01  7.88D-01  8.89D-01  7.73D-01  7.27D-01
 E= -2159.40001029438     Delta-E=       -0.000000000560 Rises=F Damp=F
 DIIS: error= 1.79D-07 at cycle  11 NSaved=  11.
 NSaved=11 IEnMin=11 EnMin= -2159.40001029438     IErMin=11 ErrMin= 1.79D-07
 ErrMax= 1.79D-07  0.00D+00 EMaxC= 1.00D-01 BMatC= 7.98D-11 BMatP= 8.38D-10
 IDIUse=1 WtCom= 1.00D+00 WtEn= 0.00D+00
 Coeff-Com:  0.685D-05-0.146D-04-0.794D-04-0.189D-03-0.648D-03-0.940D-03
 Coeff-Com:  0.264D-02 0.211D-01 0.936D-01 0.296D+00 0.589D+00
 Coeff:      0.685D-05-0.146D-04-0.794D-04-0.189D-03-0.648D-03-0.940D-03
 Coeff:      0.264D-02 0.211D-01 0.936D-01 0.296D+00 0.589D+00
 Gap=     0.268 Goal=   None    Shift=    0.000
 RMSDP=5.43D-08 MaxDP=8.78D-06 DE=-5.60D-10 OVMax= 9.29D-07

 Cycle  12  Pass 1  IDiag  1:
 RMSU=  3.71D-08    CP:  9.29D-01  9.92D-01  9.28D-01  6.08D-01  7.77D-01
                    CP:  7.78D-01  7.88D-01  8.90D-01  7.76D-01  7.58D-01
                    CP:  7.44D-01
 E= -2159.40001029453     Delta-E=       -0.000000000142 Rises=F Damp=F
 DIIS: error= 4.63D-08 at cycle  12 NSaved=  12.
 NSaved=12 IEnMin=12 EnMin= -2159.40001029453     IErMin=12 ErrMin= 4.63D-08
 ErrMax= 4.63D-08  0.00D+00 EMaxC= 1.00D-01 BMatC= 6.68D-12 BMatP= 7.98D-11
 IDIUse=1 WtCom= 1.00D+00 WtEn= 0.00D+00
 Coeff-Com:  0.242D-06-0.247D-06-0.108D-04-0.281D-04-0.111D-03-0.299D-03
 Coeff-Com: -0.827D-03-0.640D-03 0.114D-01 0.730D-01 0.272D+00 0.645D+00
 Coeff:      0.242D-06-0.247D-06-0.108D-04-0.281D-04-0.111D-03-0.299D-03
 Coeff:     -0.827D-03-0.640D-03 0.114D-01 0.730D-01 0.272D+00 0.645D+00
 Gap=     0.268 Goal=   None    Shift=    0.000
 RMSDP=2.47D-08 MaxDP=9.68D-06 DE=-1.42D-10 OVMax= 2.54D-07

 Cycle  13  Pass 1  IDiag  1:
 RMSU=  1.26D-08    CP:  9.29D-01  9.92D-01  9.28D-01  6.08D-01  7.77D-01
                    CP:  7.78D-01  7.88D-01  8.91D-01  7.83D-01  7.47D-01
                    CP:  7.67D-01  8.22D-01
 E= -2159.40001029431     Delta-E=        0.000000000215 Rises=F Damp=F
 DIIS: error= 1.20D-08 at cycle  13 NSaved=  13.
 NSaved=13 IEnMin=12 EnMin= -2159.40001029453     IErMin=13 ErrMin= 1.20D-08
 ErrMax= 1.20D-08  0.00D+00 EMaxC= 1.00D-01 BMatC= 4.47D-13 BMatP= 6.68D-12
 IDIUse=1 WtCom= 1.00D+00 WtEn= 0.00D+00
 Coeff-Com: -0.375D-06 0.908D-06 0.879D-06 0.124D-05-0.169D-05-0.564D-04
 Coeff-Com: -0.525D-03-0.181D-02-0.198D-02 0.990D-02 0.731D-01 0.279D+00
 Coeff-Com:  0.642D+00
 Coeff:     -0.375D-06 0.908D-06 0.879D-06 0.124D-05-0.169D-05-0.564D-04
 Coeff:     -0.525D-03-0.181D-02-0.198D-02 0.990D-02 0.731D-01 0.279D+00
 Coeff:      0.642D+00
 Gap=     0.268 Goal=   None    Shift=    0.000
 RMSDP=6.61D-09 MaxDP=2.30D-06 DE= 2.15D-10 OVMax= 7.60D-08

 Cycle  14  Pass 1  IDiag  1:
 RMSU=  3.72D-09    CP:  9.29D-01  9.92D-01  9.28D-01  6.08D-01  7.77D-01
[...]
 879,0.00000969,0.00006149,-0.00006482,-0.00006314,0.00004590,-0.000033
 74,-0.00005523,-0.00000030,-0.00002687,0.00001068,-0.00006982,-0.00012
 948,-0.00001630,0.00002278,-0.00000322,-0.00011920,-0.00001637,-0.0000
 0608,0.00004663,-0.00011136,-0.00016659,0.00043286,-0.00020423,-0.0002
 1788,0.00001541,0.00000756,-0.00000848,-0.00001839,-0.00000783,0.00000
 488,-0.00000072,-0.00000180,0.00000850,-0.00000731,0.00000527,-0.00000
 706,0.00006046,-0.00001821,-0.00006115,0.00007842,-0.00007320,-0.00003
 721,-0.00120110,-0.00049167,0.00120100,-0.00037993,0.00058628,-0.00043
 171,-0.00021999,-0.00014477,0.00008249,0.00003813,0.00006539,-0.000022
 18,0.00000352,-0.00001189,0.00007639,-0.00000324,0.00000639,-0.0000131
 9,0.00005002,0.00000367,0.00001338,-0.00000030,-0.00000084,0.00000784,
 -0.00000493,-0.00001556,-0.00001143,-0.00000077,0.00000236,-0.00000239
 ,-0.00000912,0.00000160,-0.00000052,-0.00000480,-0.00000543,0.00000023
 ,-0.00000190,0.00000714,-0.00000860,-0.00000102,-0.00000177,0.00000775
 ,-0.00000648,-0.00000097,-0.00000323,0.00000269,0.00000368,0.00000321,
 -0.00000059,-0.00000430,-0.00000338,0.00008880,0.00002266,-0.00004073,
 0.00009162,0.00001354,0.00002101,0.00003629,-0.00002482,-0.00001198,-0
 .00090041,-0.00211515,0.00008567,0.02720358,-0.00001395,-0.00011770,-0
 .00001792,-0.00003994,0.00013543,0.00000591,0.00004664,0.00011589,0.00
 002152,0.00000872,0.00001231,-0.00001980,0.00005733,0.00003707,0.00006
 767,-0.00002331,0.00002330,-0.00000205,0.00008280,0.00003763,0.0000937
 7,-0.00015042,-0.00002596,-0.00009166,-0.00009199,-0.00005233,-0.00006
 746,-0.00002362,-0.00004175,0.00001441,0.00001063,-0.00015451,0.000025
 02,0.00007145,-0.00012119,-0.00003781,-0.00003596,0.00010323,0.0000455
 3,0.00012127,-0.00002949,-0.00004567,-0.00003215,-0.00006333,0.0001347
 6,0.00018751,0.00024966,0.00026365,0.00016349,0.00002052,0.00020711,0.
 00000480,-0.00005793,0.00004802,-0.00001512,-0.00000847,-0.00000665,-0
 .00000905,0.00006234,0.00001545,0.00000718,-0.00007763,-0.00003359,0.0
 0001830,0.00030809,-0.00110656,-0.00405314,-0.00583907,0.00230004,0.00
 228516,0.00417106,0.03236419,0.00040524,-0.00224209,0.00653101,-0.0002
 0912,-0.00029049,0.00138978,0.00006559,-0.00016634,-0.00186406,0.00082
 299,0.00151089,0.00242241,-0.00070126,-0.00045293,0.00000167,0.0001784
 5,-0.00016670,-0.00012703,0.00026080,0.00061473,-0.00054645,-0.0002965
 0,-0.00030793,0.00004893,0.00003539,0.00000010,0.00001266,-0.00000803,
 0.00000584,0.00005446,0.00001219,0.00001128,-0.00001478,-0.00000426,-0
 .00005924,0.00002116,-0.00006928,-0.00002920,-0.00014853,0.00210269,0.
 00357310,-0.00175665,-0.02945569,-0.05852026,-0.12719734,-0.00096283,-
 0.00163386,-0.00010188,-0.00000153,-0.00001220,-0.00000993,-0.00000300
 ,0.00000878,-0.00001802,-0.00000699,-0.00000351,-0.00000159,-0.0000094
 1,-0.00000564,-0.00001295,-0.00000301,-0.00000969,-0.00000656,-0.00001
 870,-0.00000303,-0.00001000,-0.00000087,0.00000020,-0.00000613,0.00006
 549,0.00000773,0.00001981,0.00004220,0.00002242,0.00000639,-0.00000038
 ,0.00002410,-0.00001028,-0.00006219,0.00007243,-0.00002387,0.00000346,
 -0.00000912,-0.00000659,-0.00004076,0.00000181,-0.00000273,-0.00003395
 ,-0.00000367,-0.00015210,0.00011300,-0.00007020,0.00000384,-0.00000012
 ,-0.00000985,-0.00002846,0.00001038,-0.00000238,-0.00000515,0.00000162
 ,-0.00000400,-0.00000068,-0.00000197,-0.00000561,-0.00000053,-0.000015
 39,0.00003490,0.00002922,0.00007628,0.00004597,-0.00023045,-0.00075407
 ,0.00003561,-0.00018262,0.00019223,-0.00046331,-0.00011681,-0.00001281
 ,0.00013520,-0.00010980,0.00002995,-0.00008540,-0.00004247,0.00008090,
 -0.00006397,0.00026432,-0.00002615,0.00001501,-0.00008070,0.00002402,0
 .00001412,-0.00000127,0.00005048,0.00002993,-0.00000915,-0.00000201,-0
 .00002073,0.00000058,-0.00000695,0.00003690,-0.00001544,0.00000833,-0.
 00001567,-0.00000374,0.00000707,-0.00000847,-0.00000948,-0.00001551,0.
 00001691,-0.00003057,-0.00000403,-0.00000258,0.00004410,-0.00001007,0.
 00001434,-0.00002131,0.00001018,-0.00000002,0.00000752,-0.00000459,0.0
 0001628,-0.00001881,0.00012508,0.00000101,0.00002860,0.00014171,-0.000
 10069,0.00021851,-0.00002194,0.00018107,0.00019407,-0.00075973,0.00034
 836,-0.00067195,0.02957072,0.05700633,0.00010379,-0.00012540,-0.000021
 50,-0.00021630,0.00015440,0.00002923,-0.00000094,-0.00003535,-0.000004
 35,-0.00005941,0.00001427,0.00006463,0.00001576,0.00001895,0.00003067,
 -0.00008910,0.00007530,0.00001520,-0.00000679,0.00000342,-0.00000882,0
 .00005408,-0.00003345,-0.00001761,0.00001100,-0.00002722,-0.00007160,0
 .00005485,-0.00000157,-0.00009812,0.00007664,-0.00001973,-0.00006051,0
 .00022368,-0.00012924,-0.00000429,-0.00000749,0.00010009,-0.00000534,-
 0.00022896,-0.00006493,0.00010822,0.00024032,0.00007184,-0.00007773,0.
 00000967,0.00005073,-0.00009711,-0.00035454,-0.00007435,-0.00040301,0.
 00025830,-0.00006038,0.00030913,-0.00017150,-0.00007914,-0.00009866,-0
 .00000691,0.00005033,-0.00002837,0.00006019,-0.00005705,0.00002960,0.0
 0008548,0.00017145,0.00104421,0.00323565,0.00200936,-0.00092196,-0.000
 32135,-0.00012905,-0.02367793,-0.00072673,-0.00167965,0.00330107,0.000
 03095,0.00022227,-0.00156601,0.00008237,-0.00000142,-0.00030178,-0.000
 62981,0.00002256,-0.00064306,0.00026614,0.00018332,-0.00009767,0.00000
 845,-0.00009885,0.00011212,-0.00021938,-0.00098838,0.00003430,0.000269
 34,0.00010577,0.00017024,-0.00005950,-0.00004842,-0.00003902,0.0000106
 5,0.00000196,-0.00000374,-0.00000402,0.00000958,0.00000579,0.00000872,
 0.00005468,-0.00002546,0.00003834,-0.00007469,0.00000677,0.00021786,0.
 00128128,-0.00134495,-0.03048009,-0.08913644,-0.48108340,0.00067737,0.
 00064292,0.00054898,0.00002217,-0.00000578,0.00000627,-0.00001668,0.00
 000960,0.00002556,0.00000235,-0.00000625,-0.00000810,0.00000243,-0.000
 00872,-0.00000595,0.00001411,-0.00000340,0.00000194,0.00000715,-0.0000
 0897,0.00000102,-0.00000201,0.00000755,-0.00000560,-0.00002551,0.00001
 458,0.00003828,0.00000514,0.00001001,0.00004545,-0.00001539,0.00000028
 ,0.00003932,-0.00010287,0.00004376,0.00005256,0.00003448,-0.00002075,0
 .00001509,0.00004776,0.00003282,0.00002036,-0.00012467,-0.00008027,0.0
 0006342,-0.00029034,-0.00009233,-0.00031126,0.00000596,0.00001985,0.00
 004431,0.00001775,0.00002237,0.00001023,-0.00000693,-0.00000488,-0.000
 00131,0.00001761,-0.00000947,0.00000731,-0.00005513,0.00003565,0.00000
 511,0.00000217,-0.00003907,0.00023252,-0.00095713,-0.00085425,0.000363
 88,-0.00014868,0.00051992,-0.00006303,-0.00012929,-0.00010968,0.000105
 40,0.00005424,-0.00003577,-0.00001956,-0.00004959,-0.00002649,-0.00005
 532,0.00001017,0.00000584,-0.00000964,-0.00003119,0.00002552,-0.000051
 30,-0.00001442,-0.00000684,-0.00001114,-0.00004082,-0.00002978,-0.0000
 1927,-0.00000011,-0.00003798,0.00001051,0.00000490,0.00001163,0.000014
 00,-0.00000470,0.00000386,-0.00000268,0.00000655,-0.00000904,0.0000043
 9,0.00000775,0.00000468,-0.00001244,-0.00000070,-0.00000546,0.00000318
 ,-0.00000046,-0.00001170,-0.00000027,-0.00000540,-0.00000253,0.0000044
 5,-0.00006374,0.00002331,0.00001095,-0.00004264,0.00005705,-0.00002087
 ,-0.00003038,0.00009054,0.00000900,-0.00047599,-0.00029229,0.00026007,
 0.03079532,0.09000356,0.50493901,0.00004416,-0.00031199,0.00006809,-0.
 00025136,0.00043768,-0.00000002,0.00001152,0.00010946,-0.00006341,-0.0
 0006175,0.00004885,0.00003261,0.00004274,0.00004685,0.00002057,-0.0001
 1343,0.00009636,-0.00001185,0.00007217,0.00005162,0.00004999,-0.000136
 22,-0.00007552,-0.00002775,-0.00003214,-0.00010787,-0.00002309,0.00007
 333,-0.00006561,-0.00003182,0.00016891,-0.00025414,0.00005921,0.000609
 76,-0.00044527,0.00036548,-0.00096188,-0.00065629,-0.00063220,-0.00203
 842,0.00310532,-0.00260071,0.00070342,0.00048511,-0.00012116,-0.014013
 21,-0.00544352,-0.01436880,0.00412248,0.00085913,0.00161954,-0.0008211
 0,-0.00088855,0.00092871,-0.00019105,-0.00010623,-0.00018392,-0.000071
 76,0.00013112,-0.00003246,-0.00009254,-0.00017238,0.00000974,-0.001238
 18,-0.00004813,-0.00145798,0.00056130,-0.00065670,0.00025758,-0.001265
 67,-0.00181393,0.00112860,0.00029764,0.00009896,-0.00036296,0.00002154
 ,-0.00021814,0.00036259,-0.00006470,0.00008732,-0.00016932,-0.00015402
 ,-0.00002114,-0.00013807,0.00023848,-0.00001140,0.00008781,-0.00033350
 ,-0.00001216,-0.00010984,0.00000754,0.00037093,-0.00007726,-0.00009622
 ,-0.00009498,-0.00001110,0.00002330,0.00000326,0.00000696,-0.00000823,
 0.00000544,0.00001799,0.00001420,-0.00000596,-0.00000486,0.00000792,-0
 .00000021,0.00000230,-0.00009800,0.00000331,-0.00002275,0.00001675,0.0
 0029843,0.00001416,-0.00265107,0.00148353,0.00087515,-0.17597365,-0.12
 245279,-0.18535141,0.00007872,-0.00003483,0.00003108,-0.00001489,0.000
 04411,0.00002342,0.00000959,-0.00000818,0.00000159,0.00000467,-0.00002
 131,-0.00000711,0.00001445,-0.00000896,0.00000076,-0.00001056,-0.00001
 357,-0.00000978,-0.00000565,0.00000322,0.00000106,0.00004216,0.0000570
 4,-0.00001868,-0.00000380,0.00005191,0.00001445,-0.00006062,0.00002740
 ,0.00001556,-0.00030336,0.00017986,-0.00004658,-0.00003968,0.00024514,
 -0.00016035,0.00014634,0.00009327,0.00008977,-0.00020659,-0.00069306,-
 0.00052486,0.00067962,-0.00181663,0.00069889,-0.00003891,0.00003544,0.
 00003922,0.00000390,-0.00000972,-0.00002954,0.00000042,-0.00001594,0.0
 0001768,0.00001036,-0.00001480,-0.00001116,0.00003073,0.00005297,-0.00
 006241,-0.00005858,0.00030808,-0.00007456,-0.00014305,-0.00021996,-0.0
 0006017,-0.00003230,0.00005978,0.00000532,-0.00003004,0.00001935,-0.00
 002948,-0.00009343,-0.00004727,0.00003730,-0.00003360,0.00000690,-0.00
 003524,0.00003498,0.00001647,0.00000868,0.00023502,0.00017020,0.000067
 65,0.00000909,0.00000314,0.00000690,0.00000899,0.00000251,-0.00000251,
 -0.00000237,0.00001494,-0.00000689,-0.00000512,-0.00000313,-0.00000102
 ,-0.00000297,-0.00000744,-0.00000259,-0.00000489,0.00001051,-0.0000094
 1,-0.00000453,-0.00000501,0.00001405,-0.00000583,0.00000258,-0.0000061
 7,0.00000413,0.00000559,0.00000567,0.00000223,0.00000229,-0.00001084,0
 .00015047,0.00002193,-0.00000973,0.00009319,-0.00003911,0.00006911,0.0
 0005526,-0.00000931,0.00002805,-0.00003729,-0.00013477,-0.00004549,0.0
 0034540,0.00051009,-0.00088000,0.19280929,0.00000557,-0.00037061,-0.00
 003180,-0.00027041,0.00046424,0.00005130,0.00010665,0.00018564,0.00007
 440,-0.00003071,0.00002382,-0.00000390,0.00008456,0.00005252,0.0000843
 8,-0.00008939,0.00007098,0.00001088,0.00013342,0.00005947,0.00011815,-
 0.00023366,-0.00005126,-0.00009927,-0.00010774,-0.00008560,-0.00008381
 ,0.00001086,-0.00006485,-0.00004386,0.00009647,-0.00030937,-0.00006832
 ,0.00020619,-0.00052487,-0.00026507,0.00146327,0.00168026,0.00069492,0
 .00173674,-0.00513115,0.00411749,0.00010696,0.00000414,-0.00006891,0.0
 2115716,0.01317963,0.02416218,0.00343620,0.00121049,0.00166813,-0.0008
 9348,-0.00114458,0.00073914,0.00017190,0.00007909,-0.00037218,-0.00011
 678,0.00030832,0.00007012,-0.00015998,-0.00034841,-0.00012952,-0.00140
 670,-0.00142431,-0.00174099,0.00039948,0.00030066,0.00127953,-0.003572
 58,-0.00294161,0.00490912,0.00110095,0.00049996,-0.00106801,-0.0002886
 4,-0.00053365,0.00104424,-0.00000987,0.00003911,-0.00045843,-0.0003481
 7,-0.00025152,-0.00022579,0.00042477,0.00007265,0.00020529,-0.00046257
 ,-0.00001739,-0.00029395,0.00019079,0.00104287,-0.00020478,-0.00033167
 ,-0.00029248,-0.00005411,0.00005658,0.00002192,0.00002785,-0.00002090,
 0.00000341,0.00003726,0.00002327,-0.00001047,-0.00001400,-0.00000320,-
 0.00007127,0.00004276,-0.00014112,0.00006444,-0.00007974,0.00027744,0.
 00089468,0.00011020,0.00170606,0.00159996,-0.00025332,-0.15505986,-0.1
 6162327,-0.16345559,-0.00002483,-0.00002050,-0.00003640,-0.00000702,-0
 .00001891,-0.00002997,-0.00001828,-0.00000139,-0.00000653,-0.00000769,
 -0.00001341,-0.00001766,0.00000190,-0.00001175,-0.00000784,-0.00002736
 ,-0.00001228,-0.00001425,0.00000037,0.00000300,-0.00000327,0.00007465,
 0.00002481,-0.00000049,0.00003905,0.00002729,0.00001661,-0.00000902,0.
 00003252,0.00001971,-0.00022256,0.00022971,0.00010022,0.00029292,-0.00
 052911,0.00036527,-0.00028508,0.00002058,0.00005370,-0.00036080,-0.000
 24379,-0.00039932,0.00167807,-0.00062708,0.00056408,-0.00005262,-0.000
 10228,-0.00032716,-0.00001416,-0.00003193,-0.00002421,0.00000080,-0.00
 004528,0.00003244,-0.00002848,-0.00002136,-0.00003880,0.00003116,0.000
 08255,0.00001989,0.00010179,-0.00004729,0.00006226,0.00076708,0.000539
 23,-0.00038762,-0.00002317,-0.00012478,-0.00001677,0.00000236,0.000074
 08,-0.00006877,0.00001322,0.00002979,0.00001116,-0.00005715,0.00004290
 ,-0.00011052,0.00001661,0.00001363,-0.00001779,0.00037979,0.00025286,0
 .00018217,0.00003202,0.00001194,0.00000238,0.00002517,0.00001699,0.000
 00995,-0.00000438,0.00004445,-0.00001451,0.00000061,-0.00001542,-0.000
 01021,0.00000615,-0.00001153,-0.00000513,-0.00001526,0.00002367,-0.000
 02002,-0.00001515,-0.00001377,0.00003791,-0.00000803,0.00001360,-0.000
 01795,0.00000778,0.00001476,0.00000816,0.00000492,0.00000969,-0.000020
 86,0.00022912,0.00000072,0.00000421,0.00015656,-0.00011595,0.00014626,
 0.00007806,-0.00004008,0.00008285,-0.00015670,-0.00018807,-0.00018471,
 0.00075118,0.00229629,-0.00162045,0.12729854,0.15176929,0.00012772,-0.
 00032194,-0.00006238,-0.00039408,0.00045061,0.00010724,0.00010344,0.00
 010428,0.00007313,-0.00008456,0.00001158,0.00005256,0.00006620,0.00004
 172,0.00008008,-0.00014174,0.00012131,0.00002449,0.00006775,0.00003766
 ,0.00006506,-0.00008062,-0.00005605,-0.00007989,-0.00005093,-0.0000594
 6,-0.00011349,0.00006231,-0.00003050,-0.00012813,0.00018443,-0.0002654
 3,-0.00015562,0.00057186,-0.00050910,-0.00007893,-0.00058103,-0.000106
 54,0.00013755,0.00032129,0.00280583,-0.00155682,0.00158556,-0.00079460
 ,0.00065289,-0.01911491,-0.00885865,-0.02128065,-0.00136742,0.00097107
 ,-0.00371765,0.00060740,-0.00065111,0.00137320,-0.00045651,-0.00024230
 ,-0.00025566,0.00000925,0.00028591,-0.00000440,0.00003376,-0.00029252,
 -0.00003665,-0.00011888,-0.00257190,0.00073483,0.00032233,0.00259846,0
 .00125568,-0.00229324,-0.00054504,0.00385868,0.00088375,0.00065166,-0.
 00070861,-0.00011263,-0.00007367,0.00108011,-0.00015874,-0.00048148,-0
 .00059805,-0.00005753,0.00019521,-0.00018115,0.00014631,0.00011990,0.0
 0005235,-0.00013791,-0.00020599,-0.00011614,0.00010253,0.00039191,-0.0
 0023199,-0.00012247,-0.00006909,-0.00000795,0.00002652,0.00000658,0.00
 001062,0.00000075,0.00000646,0.00002830,0.00000697,0.00000613,-0.00000
 597,0.00000679,0.00000570,-0.00000113,-0.00003923,-0.00005915,-0.00008
 519,0.00001851,0.00033138,-0.00035231,0.00183019,0.00290873,-0.0064884
 6,-0.18217491,-0.12508835,-0.21450589,0.00003825,-0.00002910,-0.000014
 66,-0.00001681,-0.00002231,0.00000115,-0.00001412,-0.00000334,-0.00001
 189,-0.00000180,-0.00001620,-0.00001724,0.00001332,-0.00000995,-0.0000
 0167,-0.00000881,-0.00001670,-0.00000944,-0.00000113,0.00001233,-0.000
 00926,0.00001976,0.00001886,0.00003679,0.00002298,0.00001511,0.0000443
 2,-0.00001709,0.00001228,0.00005592,-0.00034312,0.00029180,0.00020731,
 0.00010166,0.00001927,-0.00004907,0.00019441,0.00005675,0.00007487,-0.
 00177357,0.00027111,0.00065603,0.00089575,-0.00103840,0.00250518,-0.00
 012552,-0.00010058,-0.00017362,0.00005305,0.00003513,0.00000007,-0.000
 00475,-0.00001332,-0.00000440,0.00002573,-0.00006296,0.00002148,-0.000
 09053,0.00010313,0.00004703,0.00008194,-0.00008127,-0.00011316,0.00049
 987,0.00030987,-0.00017547,-0.00003816,-0.00009256,-0.00001455,-0.0000
 2281,0.00003944,-0.00008085,0.00000265,-0.00000624,0.00002933,-0.00002
 766,-0.00003556,-0.00003772,0.00003346,0.00003372,-0.00010998,0.000142
 39,0.00019500,0.00002603,0.00002121,0.00000868,0.00000250,0.00000169,-
 0.00000115,-0.00000593,-0.00000793,0.00001520,-0.00001055,0.00000166,-
 0.00000328,0.00000296,-0.00000196,-0.00000434,-0.00000519,-0.00000447,
 0.00000458,-0.00001426,0.00000264,-0.00000042,0.00001865,-0.00000591,0
 .00000586,-0.00000853,0.00000482,-0.00000510,0.00000384,-0.00000517,0.
 00000946,-0.00001015,0.00006785,0.00001587,0.00002051,0.00007714,-0.00
 003671,0.00010676,-0.00001537,0.00014382,0.00013679,-0.00006466,-0.000
 17339,-0.00002915,-0.00007320,-0.00188361,-0.00084406,0.20076405,0.131
 25000,0.23891962\\-0.00001299,0.00001275,0.00001048,-0.00001838,0.0000
 0102,-0.00001724,0.00001276,0.00003019,0.00001269,-0.00001435,-0.00000
 892,-0.00000987,-0.00000728,0.00000457,0.00000921,0.00000948,-0.000000
 04,-0.00002127,-0.00000838,0.00001438,-0.00000352,0.00001597,0.0000230
 9,-0.00001355,-0.00000788,-0.00000272,0.,0.00000083,0.00001524,0.00001
 100,-0.00001739,-0.00000981,-0.00000071,0.00001244,-0.00001595,0.00000
 700,-0.00002249,0.00000708,-0.00000789,0.00001978,-0.00002523,-0.00000
 585,-0.00002203,0.00000799,0.00000454,-0.00000506,0.00001667,0.0000224
 4,-0.00000970,-0.00001000,-0.00001012,0.00000652,-0.00000525,-0.000008
 66,0.00000800,-0.00000405,-0.00000407,-0.00001081,-0.00001348,0.000003
 56,0.00000504,0.00001360,-0.00002701,0.00000341,0.00001879,0.00001089,
 -0.00001024,-0.00001897,-0.00001774,0.00000521,0.00000605,0.00000150,-
 0.00001254,-0.00000111,0.00000280,0.00003275,-0.00003441,0.00001113,-0
 .00000609,0.00000175,-0.00002055,0.00003195,0.00001044,0.00001350,0.00
 000307,-0.00000898,-0.00001139,0.00002240,0.00000085,0.00000401,-0.000
 00366,0.00002432,-0.00000044,-0.00000432,-0.00000570,0.00000159,-0.000
 00334,0.00000956,-0.00000283,0.00000378,0.00000923,-0.00000251,0.00001
 358,-0.00000218,-0.00000364,0.00000581,0.00000800,0.00000120,-0.000040
 92,0.00001738,-0.00001696,-0.00000689,0.00000170,0.00000083,0.00001243
 ,0.00000272,-0.00000238,-0.00002094,-0.00001468,-0.00000648,0.00000264
 ,0.00000061,0.00001203,-0.00000320,-0.00000288,-0.00000660,0.00000672,
 0.00000416,0.00000402,0.00001218,0.00000397,0.00000210,0.00000729,-0.0
 0000482,-0.00000016,0.00000875,0.00000210,0.00000360,0.00000044,-0.000
 00776,-0.00000387,-0.00000014,-0.00000582,0.00001388,-0.00000360,-0.00
 000375,0.00001447,-0.00000040,-0.00001194,0.00000538,0.00001694,-0.000
 00853,0.00000217,0.00000402,0.00000678,0.00000008,-0.00000545,0.000007
 03,0.00000517,0.00000663,-0.00000462,0.00001213,-0.00000185,-0.0000086
 4,-0.00000772,-0.00000354,0.00000562,0.00000074,0.00000417,0.00000080,
 0.00000803,0.00000307,-0.00000480,-0.00000010,0.00000190,0.00001272,0.
 00000445,-0.00002232,-0.00000840,0.00001391,0.00000271,-0.00000283,0.0
 0000025,-0.00000991,-0.00000050,0.00000356,0.00000781,-0.00000327,-0.0
 0000123,-0.00000889,-0.00000369,-0.00000938,-0.00000984,-0.00000215,0.
 00000025,-0.00000630,0.00000063,0.00000018,-0.00000427,-0.00000433,0.0
 0000283,-0.00001857,-0.00000826,-0.00000293,0.00000379,0.00000552,-0.0
 0000534,-0.00000186,-0.00000389,-0.00000368,0.00000175,-0.00000143,-0.
 00000455,0.00000264,-0.00000380,-0.00000251,0.00000003,-0.00000659,-0.
 00000347,0.00000227,-0.00000742,-0.00000469,-0.00000332,0.00000853,0.0
 0000443,0.00000143,-0.00000416,-0.00000314,0.00000277,-0.00000589,-0.0
 0000034,0.00000020,0.00000313,-0.00000424,-0.00000048,-0.00002468,0.00
 000988,0.00000932,0.00001018,0.00001324,0.00001370,-0.00000143,-0.0000
 0036,0.00000873,-0.00000030,-0.00000061,-0.00000182,0.00000007,0.00000
 637,0.00001435,0.00000884,0.00000806\\\@


 10 WHATSOEVER THY HAND FINDETH TO DO, DO IT WITH THY  
 MIGHT. FOR THERE IS NO WORK, NOR DEVICE, NOR KNOWLEDGE, NOR  
 WISDOM, IN THE GRAVE, WHITHER THOU GOEST.                    
 11 I RETURNED AND SAW UNDER THE SUN, THAT THE RACE IS NOT TO 
 THE SWIFT, NOR THE BATTLE TO THE STRONG, NEITHER YET BREAD TO
 THE WISE, NOR YET RICHES TO MEN OF UNDERSTANDING, NOR YET    
 FAVOR TO MEN OF SKILL. BUT TIME AND CHANCE HAPPEN TO THEM ALL.
 12 FOR MAN ALSO KNOWETH NOT HIS TIME. AS THE FISHES   
 THAT ARE TAKEN IN AN EVIL NET, AND AS THE BIRDS THAT ARE     
 CAUGHT IN THE SNARE. SO ARE THE SONS OF MEN SNARED IN AN EVIL
 TIME, WHEN IT FALLETH SUDDENLY UPON THEM.
                                         ECCLESIASTES 9
 Job cpu time:      19 days  8 hours 53 minutes 51.0 seconds.
 File lengths (MBytes):  RWF=  23870 Int=      0 D2E=      0 Chk=     97 Scr=      1
 Normal termination of Gaussian 09 at Sat Mar 26 22:39:01 2016.
