 Entering Gaussian System, Link 0=g09
 Initial command:
 /share/apps//g09/l1.exe "/scratch/Gau-19311.inp" -scrdir="/scratch/"
 Entering Link 1 = /share/apps//g09/l1.exe PID=     19312.
  
 Copyright (c) 1988,1990,1992,1993,1995,1998,2003,2009,2013,
            Gaussian, Inc.  All Rights Reserved.
  
 This is part of the Gaussian(R) 09 program.  It is based on
 the Gaussian(R) 03 system (copyright 2003, Gaussian, Inc.),
 the Gaussian(R) 98 system (copyright 1998, Gaussian, Inc.),
 the Gaussian(R) 94 system (copyright 1995, Gaussian, Inc.),
 the Gaussian 92(TM) system (copyright 1992, Gaussian, Inc.),
 the Gaussian 90(TM) system (copyright 1990, Gaussian, Inc.),
 the Gaussian 88(TM) system (copyright 1988, Gaussian, Inc.),
 the Gaussian 86(TM) system (copyright 1986, Carnegie Mellon
 University), and the Gaussian 82(TM) system (copyright 1983,
 Carnegie Mellon University). Gaussian is a federally registered
 trademark of Gaussian, Inc.
  
 This software contains proprietary and confidential information,
 including trade secrets, belonging to Gaussian, Inc.
  
 This software is provided under written license and may be
 used, copied, transmitted, or stored only in accord with that
 written license.
  
 The following legend is applicable only to US Government
 contracts under FAR:
  
                    RESTRICTED RIGHTS LEGEND
  
 Use, reproduction and disclosure by the US Government is
 subject to restrictions as set forth in subparagraphs (a)
 and (c) of the Commercial Computer Software - Restricted
 Rights clause in FAR 52.227-19.
  
 Gaussian, Inc.
 340 Quinnipiac St., Bldg. 40, Wallingford CT 06492
  
  
 ---------------------------------------------------------------
 Warning -- This program may not be used in any manner that
 competes with the business of Gaussian, Inc. or will provide
 assistance to any competitor of Gaussian, Inc.  The licensee
 of this program is prohibited from giving any competitor of
 Gaussian, Inc. access to this program.  By using this program,
 the user acknowledges that Gaussian, Inc. is engaged in the
 business of creating and licensing software in the field of
 computational chemistry and represents and warrants to the
 licensee that it is not a competitor of Gaussian, Inc. and that
 it will not use this program in any manner prohibited above.
 ---------------------------------------------------------------
  

 Cite this work as:
 Gaussian 09, Revision D.01,
 M. J. Frisch, G. W. Trucks, H. B. Schlegel, G. E. Scuseria, 
 M. A. Robb, J. R. Cheeseman, G. Scalmani, V. Barone, B. Mennucci, 
 G. A. Petersson, H. Nakatsuji, M. Caricato, X. Li, H. P. Hratchian, 
 A. F. Izmaylov, J. Bloino, G. Zheng, J. L. Sonnenberg, M. Hada, 
 M. Ehara, K. Toyota, R. Fukuda, J. Hasegawa, M. Ishida, T. Nakajima, 
 Y. Honda, O. Kitao, H. Nakai, T. Vreven, J. A. Montgomery, Jr., 
 J. E. Peralta, F. Ogliaro, M. Bearpark, J. J. Heyd, E. Brothers, 
 K. N. Kudin, V. N. Staroverov, T. Keith, R. Kobayashi, J. Normand, 
 K. Raghavachari, A. Rendell, J. C. Burant, S. S. Iyengar, J. Tomasi, 
 M. Cossi, N. Rega, J. M. Millam, M. Klene, J. E. Knox, J. B. Cross, 
 V. Bakken, C. Adamo, J. Jaramillo, R. Gomperts, R. E. Stratmann, 
 O. Yazyev, A. J. Austin, R. Cammi, C. Pomelli, J. W. Ochterski, 
 R. L. Martin, K. Morokuma, V. G. Zakrzewski, G. A. Voth, 
 P. Salvador, J. J. Dannenberg, S. Dapprich, A. D. Daniels, 
 O. Farkas, J. B. Foresman, J. V. Ortiz, J. Cioslowski, 
 and D. J. Fox, Gaussian, Inc., Wallingford CT, 2013.
 
 ******************************************
 Gaussian 09:  EM64L-G09RevD.01 24-Apr-2013
                27-Apr-2016 
 ******************************************
 %nproc=20
 Will use up to   20 processors via shared memory.
 %mem=80GB
 %chk=Tri_A131_of.chk
 ----------------------------------------------------------------------
 #P PBE1PBE/6-311+G(d,p) opt=ModRedundant freq optcyc=999 EmpiricalDisp
 ersion=GD3
 ----------------------------------------------------------------------
 1/6=999,14=-1,18=120,19=15,26=3,38=1/1,3;
 2/9=110,12=2,17=6,18=5,40=1/2;
 3/5=4,6=6,7=111,11=2,16=1,25=1,30=1,71=1,74=-13,124=31/1,2,3;
 4//1;
 5/5=2,38=5/2;
 6/7=2,8=2,9=2,10=2,28=1/1;
 7//1,2,3,16;
 1/6=999,14=-1,18=20,19=15,26=3/3(2);
 2/9=110/2;
 99//99;
 2/9=110/2;
 3/5=4,6=6,7=111,11=2,16=1,25=1,30=1,71=1,74=-13,124=31/1,2,3;
 4/5=5,16=3,69=1/1;
 5/5=2,38=5/2;
 7//1,2,3,16;
 1/6=999,14=-1,18=20,19=15,26=3/3(-5);
 2/9=110/2;
 6/7=2,8=2,9=2,10=2,19=2,28=1/1;
 99/9=1/99;
 Leave Link    1 at Wed Apr 27 21:27:03 2016, MaxMem= 10737418240 cpu:         2.2
 (Enter /share/apps//g09/l101.exe)
 -----
 trich
 -----
 Symbolic Z-matrix:
 Charge =  1 Multiplicity = 1
 O                    -0.57019  -0.31983   7.45526 
 C                    -1.20912  -0.89326   6.34066 
 C                    -0.27566  -1.03797   5.12844 
 C                     0.97411  -1.82981   5.53237 
 C                     1.63583  -1.19703   6.76048 
 C                     0.60361  -1.03926   7.88974 
 H                    -2.03982  -0.21199   6.10618 
 H                     0.03488  -0.02008   4.83762 
 H                     0.69717  -2.87374   5.74178 
 H                     2.42759  -1.88363   7.12605 
 H                     0.30937  -2.05577   8.21246 
 O                     2.2208    0.01665   6.28902 
 O                     1.93222  -1.89293   4.45767 
 O                    -0.94098  -1.67051   4.02871 
 O                    -1.71529  -2.20952   6.60936 
 C                     1.13955  -0.34169   9.12989 
 H                     0.30836  -0.20592   9.84151 
 H                     1.89919  -0.99657   9.59233 
 O                     1.70843   0.92846   8.76691 
 H                     2.05613   1.36319   9.5626 
 H                     2.28444   0.62834   7.05548 
 H                     2.39389  -1.02871   4.45415 
 H                    -1.89418  -1.74206   4.26949 
 O                    -3.32464  -4.67351   6.02861 
 C                    -3.0824   -4.83362   7.44815 
 C                    -3.04707  -3.44996   8.17127 
 C                    -3.01742  -2.25137   7.20027 
 C                    -4.12672  -2.35236   6.11112 
 C                    -4.47227  -3.82835   5.82005 
 H                    -3.92716  -5.39471   7.88286 
 H                    -2.14396  -3.41594   8.79859 
 H                    -3.17131  -1.3336    7.7918 
 H                    -5.03304  -1.85978   6.49682 
 H                    -5.26948  -4.13278   6.52215 
 O                    -3.66696  -1.64681   4.94455 
 O                    -4.24264  -3.4148    8.96475 
 O                    -1.97999  -5.67078   7.62863 
 C                    -4.93917  -4.08954   4.38665 
 H                    -4.06281  -4.10716   3.71434 
 H                    -5.43318  -5.0717    4.33734 
 O                    -5.84214  -3.02897   4.03048 
 H                    -6.34845  -3.29394   3.24512 
 H                    -4.43175  -1.64353   4.33078 
 H                    -4.11465  -2.78382   9.6932 
 O                     1.0992   -5.81274   5.6202 
 C                     2.07609  -6.02054   6.65726 
 C                     1.75256  -5.09935   7.8332 
 C                     0.3065   -5.2718    8.312 
 C                    -0.69072  -5.23454   7.1505 
 C                    -0.21284  -6.20447   6.0454 
 H                     2.04855  -7.08871   6.96651 
 H                     1.88602  -4.06542   7.46484 
 H                     0.21566  -6.25856   8.80549 
 H                    -0.18722  -7.23014   6.46913 
 H                    -0.7551   -4.21219   6.74813 
 O                    -0.02557  -4.23621   9.2444 
 O                     2.58223  -5.34355   8.96682 
 O                     3.32444  -5.65876   6.16789 
 C                    -1.09359  -6.26206   4.80489 
 H                    -0.61931  -6.92914   4.07161 
 H                    -2.07658  -6.67561   5.07043 
 O                    -1.25385  -4.98639   4.16477 
 H                    -1.89468  -4.48951   4.72255 
 H                     0.5712   -4.35235   10.00569 
 H                     3.50593  -5.20377   8.69038 
 C                     3.86762  -6.56186   5.16742 
 H                     4.63069  -7.19309   5.65102 
 H                     3.06417  -7.2159    4.79592 
 C                     4.48762  -5.74955   4.03617 
 H                     4.92936  -6.46166   3.3186 
 H                     5.3267   -5.16561   4.44531 
 C                     3.5246   -4.78814   3.32223 
 H                     3.11731  -4.09672   4.07495 
 H                     4.11117  -4.17229   2.62008 
 C                     2.38794  -5.47835   2.55486 
 H                     2.80803  -6.17151   1.80758 
 H                     1.78038  -6.08689   3.24211 
 C                     1.46667  -4.52454   1.79681 
 H                     0.73718  -5.08216   1.19418 
 H                     2.03714  -3.87154   1.1204 
 N                     0.68563  -3.63446   2.71938 
 H                     0.06294  -2.98829   2.21867 
 H                     1.29705  -3.00888   3.30177 
 H                     0.0503   -4.17646   3.36819 
 
 The following ModRedundant input section has been read:
 B      45      84 B                                                           
 B      58      84 B                                                           
 B      56      84 B                                                           
 B      41      82 B                                                           
 B      62      82 B                                                           
 B      35      82 B                                                           
 B      13      83 B                                                           
 B      19      83 B                                                           
 B      14      83 B                                                           
 
 NAtoms=     84 NQM=       84 NQMF=       0 NMMI=      0 NMMIF=      0
                NMic=       0 NMicF=      0.
                    Isotopes and Nuclear Properties:
 (Nuclear quadrupole moments (NQMom) in fm**2, nuclear magnetic moments (NMagM)
  in nuclear magnetons)

  Atom         1           2           3           4           5           6           7           8           9          10
 IAtWgt=          16          12          12          12          12          12           1           1           1           1
 AtmWgt=  15.9949146  12.0000000  12.0000000  12.0000000  12.0000000  12.0000000   1.0078250   1.0078250   1.0078250   1.0078250
 NucSpn=           0           0           0           0           0           0           1           1           1           1
 AtZEff=   0.0000000   0.0000000   0.0000000   0.0000000   0.0000000   0.0000000   0.0000000   0.0000000   0.0000000   0.0000000
 NQMom=    0.0000000   0.0000000   0.0000000   0.0000000   0.0000000   0.0000000   0.0000000   0.0000000   0.0000000   0.0000000
 NMagM=    0.0000000   0.0000000   0.0000000   0.0000000   0.0000000   0.0000000   2.7928460   2.7928460   2.7928460   2.7928460
 AtZNuc=   8.0000000   6.0000000   6.0000000   6.0000000   6.0000000   6.0000000   1.0000000   1.0000000   1.0000000   1.0000000

  Atom        11          12          13          14          15          16          17          18          19          20
 IAtWgt=           1          16          16          16          16          12           1           1          16           1
 AtmWgt=   1.0078250  15.9949146  15.9949146  15.9949146  15.9949146  12.0000000   1.0078250   1.0078250  15.9949146   1.0078250
 NucSpn=           1           0           0           0           0           0           1           1           0           1
 AtZEff=   0.0000000   0.0000000   0.0000000   0.0000000   0.0000000   0.0000000   0.0000000   0.0000000   0.0000000   0.0000000
 NQMom=    0.0000000   0.0000000   0.0000000   0.0000000   0.0000000   0.0000000   0.0000000   0.0000000   0.0000000   0.0000000
 NMagM=    2.7928460   0.0000000   0.0000000   0.0000000   0.0000000   0.0000000   2.7928460   2.7928460   0.0000000   2.7928460
 AtZNuc=   1.0000000   8.0000000   8.0000000   8.0000000   8.0000000   6.0000000   1.0000000   1.0000000   8.0000000   1.0000000

  Atom        21          22          23          24          25          26          27          28          29          30
 IAtWgt=           1           1           1          16          12          12          12          12          12           1
 AtmWgt=   1.0078250   1.0078250   1.0078250  15.9949146  12.0000000  12.0000000  12.0000000  12.0000000  12.0000000   1.0078250
 NucSpn=           1           1           1           0           0           0           0           0           0           1
 AtZEff=   0.0000000   0.0000000   0.0000000   0.0000000   0.0000000   0.0000000   0.0000000   0.0000000   0.0000000   0.0000000
 NQMom=    0.0000000   0.0000000   0.0000000   0.0000000   0.0000000   0.0000000   0.0000000   0.0000000   0.0000000   0.0000000
 NMagM=    2.7928460   2.7928460   2.7928460   0.0000000   0.0000000   0.0000000   0.0000000   0.0000000   0.0000000   2.7928460
 AtZNuc=   1.0000000   1.0000000   1.0000000   8.0000000   6.0000000   6.0000000   6.0000000   6.0000000   6.0000000   1.0000000

  Atom        31          32          33          34          35          36          37          38          39          40
 IAtWgt=           1           1           1           1          16          16          16          12           1           1
 AtmWgt=   1.0078250   1.0078250   1.0078250   1.0078250  15.9949146  15.9949146  15.9949146  12.0000000   1.0078250   1.0078250
 NucSpn=           1           1           1           1           0           0           0           0           1           1
 AtZEff=   0.0000000   0.0000000   0.0000000   0.0000000   0.0000000   0.0000000   0.0000000   0.0000000   0.0000000   0.0000000
 NQMom=    0.0000000   0.0000000   0.0000000   0.0000000   0.0000000   0.0000000   0.0000000   0.0000000   0.0000000   0.0000000
 NMagM=    2.7928460   2.7928460   2.7928460   2.7928460   0.0000000   0.0000000   0.0000000   0.0000000   2.7928460   2.7928460
 AtZNuc=   1.0000000   1.0000000   1.0000000   1.0000000   8.0000000   8.0000000   8.0000000   6.0000000   1.0000000   1.0000000

  Atom        41          42          43          44          45          46          47          48          49          50
 IAtWgt=          16           1           1           1          16          12          12          12          12          12
 AtmWgt=  15.9949146   1.0078250   1.0078250   1.0078250  15.9949146  12.0000000  12.0000000  12.0000000  12.0000000  12.0000000
 NucSpn=           0           1           1           1           0           0           0           0           0           0
 AtZEff=   0.0000000   0.0000000   0.0000000   0.0000000   0.0000000   0.0000000   0.0000000   0.0000000   0.0000000   0.0000000
 NQMom=    0.0000000   0.0000000   0.0000000   0.0000000   0.0000000   0.0000000   0.0000000   0.0000000   0.0000000   0.0000000
 NMagM=    0.0000000   2.7928460   2.7928460   2.7928460   0.0000000   0.0000000   0.0000000   0.0000000   0.0000000   0.0000000
 AtZNuc=   8.0000000   1.0000000   1.0000000   1.0000000   8.0000000   6.0000000   6.0000000   6.0000000   6.0000000   6.0000000

  Atom        51          52          53          54          55          56          57          58          59          60
 IAtWgt=           1           1           1           1           1          16          16          16          12           1
 AtmWgt=   1.0078250   1.0078250   1.0078250   1.0078250   1.0078250  15.9949146  15.9949146  15.9949146  12.0000000   1.0078250
 NucSpn=           1           1           1           1           1           0           0           0           0           1
 AtZEff=   0.0000000   0.0000000   0.0000000   0.0000000   0.0000000   0.0000000   0.0000000   0.0000000   0.0000000   0.0000000
 NQMom=    0.0000000   0.0000000   0.0000000   0.0000000   0.0000000   0.0000000   0.0000000   0.0000000   0.0000000   0.0000000
 NMagM=    2.7928460   2.7928460   2.7928460   2.7928460   2.7928460   0.0000000   0.0000000   0.0000000   0.0000000   2.7928460
 AtZNuc=   1.0000000   1.0000000   1.0000000   1.0000000   1.0000000   8.0000000   8.0000000   8.0000000   6.0000000   1.0000000

  Atom        61          62          63          64          65          66          67          68          69          70
 IAtWgt=           1          16           1           1           1          12           1           1          12           1
 AtmWgt=   1.0078250  15.9949146   1.0078250   1.0078250   1.0078250  12.0000000   1.0078250   1.0078250  12.0000000   1.0078250
 NucSpn=           1           0           1           1           1           0           1           1           0           1
 AtZEff=   0.0000000   0.0000000   0.0000000   0.0000000   0.0000000   0.0000000   0.0000000   0.0000000   0.0000000   0.0000000
 NQMom=    0.0000000   0.0000000   0.0000000   0.0000000   0.0000000   0.0000000   0.0000000   0.0000000   0.0000000   0.0000000
 NMagM=    2.7928460   0.0000000   2.7928460   2.7928460   2.7928460   0.0000000   2.7928460   2.7928460   0.0000000   2.7928460
 AtZNuc=   1.0000000   8.0000000   1.0000000   1.0000000   1.0000000   6.0000000   1.0000000   1.0000000   6.0000000   1.0000000

  Atom        71          72          73          74          75          76          77          78          79          80
 IAtWgt=           1          12           1           1          12           1           1          12           1           1
 AtmWgt=   1.0078250  12.0000000   1.0078250   1.0078250  12.0000000   1.0078250   1.0078250  12.0000000   1.0078250   1.0078250
 NucSpn=           1           0           1           1           0           1           1           0           1           1
 AtZEff=   0.0000000   0.0000000   0.0000000   0.0000000   0.0000000   0.0000000   0.0000000   0.0000000   0.0000000   0.0000000
 NQMom=    0.0000000   0.0000000   0.0000000   0.0000000   0.0000000   0.0000000   0.0000000   0.0000000   0.0000000   0.0000000
 NMagM=    2.7928460   0.0000000   2.7928460   2.7928460   0.0000000   2.7928460   2.7928460   0.0000000   2.7928460   2.7928460
 AtZNuc=   1.0000000   6.0000000   1.0000000   1.0000000   6.0000000   1.0000000   1.0000000   6.0000000   1.0000000   1.0000000

  Atom        81          82          83          84
 IAtWgt=          14           1           1           1
 AtmWgt=  14.0030740   1.0078250   1.0078250   1.0078250
 NucSpn=           2           1           1           1
 AtZEff=   0.0000000   0.0000000   0.0000000   0.0000000
 NQMom=    2.0440000   0.0000000   0.0000000   0.0000000
 NMagM=    0.4037610   2.7928460   2.7928460   2.7928460
 AtZNuc=   7.0000000   1.0000000   1.0000000   1.0000000
 Leave Link  101 at Wed Apr 27 21:27:04 2016, MaxMem= 10737418240 cpu:         4.6
 (Enter /share/apps//g09/l103.exe)

 GradGradGradGradGradGradGradGradGradGradGradGradGradGradGradGradGradGrad
 Berny optimization.
 Initialization pass.
                           ----------------------------
                           !    Initial Parameters    !
                           ! (Angstroms and Degrees)  !
 --------------------------                            --------------------------
 ! Name  Definition              Value          Derivative Info.                !
 --------------------------------------------------------------------------------
 ! R1    R(1,2)                  1.4069         estimate D2E/DX2                !
 ! R2    R(1,6)                  1.4437         estimate D2E/DX2                !
 ! R3    R(2,3)                  1.5368         estimate D2E/DX2                !
 ! R4    R(2,7)                  1.0996         estimate D2E/DX2                !
 ! R5    R(2,15)                 1.4356         estimate D2E/DX2                !
 ! R6    R(3,4)                  1.5337         estimate D2E/DX2                !
 ! R7    R(3,8)                  1.1032         estimate D2E/DX2                !
 ! R8    R(3,14)                 1.4325         estimate D2E/DX2                !
 ! R9    R(4,5)                  1.5318         estimate D2E/DX2                !
 ! R10   R(4,9)                  1.1002         estimate D2E/DX2                !
 ! R11   R(4,13)                 1.4412         estimate D2E/DX2                !
 ! R12   R(5,6)                  1.538          estimate D2E/DX2                !
 ! R13   R(5,10)                 1.1099         estimate D2E/DX2                !
 ! R14   R(5,12)                 1.4274         estimate D2E/DX2                !
 ! R15   R(6,11)                 1.1064         estimate D2E/DX2                !
 ! R16   R(6,16)                 1.5205         estimate D2E/DX2                !
 ! R17   R(12,21)                0.9827         estimate D2E/DX2                !
 ! R18   R(13,22)                0.9798         estimate D2E/DX2                !
 ! R19   R(13,83)                1.7277         estimate D2E/DX2                !
 ! R20   R(14,23)                0.9857         estimate D2E/DX2                !
 ! R21   R(14,83)                2.7071         estimate D2E/DX2                !
 ! R22   R(15,27)                1.4305         estimate D2E/DX2                !
 ! R23   R(16,17)                1.1026         estimate D2E/DX2                !
 ! R24   R(16,18)                1.1044         estimate D2E/DX2                !
 ! R25   R(16,19)                1.4383         estimate D2E/DX2                !
 ! R26   R(19,20)                0.9711         estimate D2E/DX2                !
 ! R27   R(19,83)                6.7483         estimate D2E/DX2                !
 ! R28   R(24,25)                1.4489         estimate D2E/DX2                !
 ! R29   R(24,29)                1.4404         estimate D2E/DX2                !
 ! R30   R(25,26)                1.5616         estimate D2E/DX2                !
 ! R31   R(25,30)                1.1034         estimate D2E/DX2                !
 ! R32   R(25,37)                1.396          estimate D2E/DX2                !
 ! R33   R(26,27)                1.5428         estimate D2E/DX2                !
 ! R34   R(26,31)                1.1001         estimate D2E/DX2                !
 ! R35   R(26,36)                1.4354         estimate D2E/DX2                !
 ! R36   R(27,28)                1.5579         estimate D2E/DX2                !
 ! R37   R(27,32)                1.1027         estimate D2E/DX2                !
 ! R38   R(28,29)                1.5436         estimate D2E/DX2                !
 ! R39   R(28,33)                1.1013         estimate D2E/DX2                !
 ! R40   R(28,35)                1.4388         estimate D2E/DX2                !
 ! R41   R(29,34)                1.1051         estimate D2E/DX2                !
 ! R42   R(29,38)                1.53           estimate D2E/DX2                !
 ! R43   R(35,43)                0.9806         estimate D2E/DX2                !
 ! R44   R(35,82)                4.8106         estimate D2E/DX2                !
 ! R45   R(36,44)                0.9722         estimate D2E/DX2                !
 ! R46   R(37,49)                1.4426         estimate D2E/DX2                !
 ! R47   R(38,39)                1.1047         estimate D2E/DX2                !
 ! R48   R(38,40)                1.1005         estimate D2E/DX2                !
 ! R49   R(38,41)                1.4377         estimate D2E/DX2                !
 ! R50   R(41,42)                0.9713         estimate D2E/DX2                !
 ! R51   R(41,82)                6.1769         estimate D2E/DX2                !
 ! R52   R(45,46)                1.4398         estimate D2E/DX2                !
 ! R53   R(45,50)                1.4338         estimate D2E/DX2                !
 ! R54   R(45,84)                2.9748         estimate D2E/DX2                !
 ! R55   R(46,47)                1.5284         estimate D2E/DX2                !
 ! R56   R(46,51)                1.1124         estimate D2E/DX2                !
 ! R57   R(46,58)                1.3888         estimate D2E/DX2                !
 ! R58   R(47,48)                1.533          estimate D2E/DX2                !
 ! R59   R(47,52)                1.1057         estimate D2E/DX2                !
 ! R60   R(47,57)                1.4259         estimate D2E/DX2                !
 ! R61   R(48,49)                1.5313         estimate D2E/DX2                !
 ! R62   R(48,53)                1.107          estimate D2E/DX2                !
 ! R63   R(48,56)                1.4325         estimate D2E/DX2                !
 ! R64   R(49,50)                1.5461         estimate D2E/DX2                !
 ! R65   R(49,55)                1.1006         estimate D2E/DX2                !
 ! R66   R(50,54)                1.11           estimate D2E/DX2                !
 ! R67   R(50,59)                1.5225         estimate D2E/DX2                !
 ! R68   R(56,64)                0.9743         estimate D2E/DX2                !
 ! R69   R(56,84)                5.877          estimate D2E/DX2                !
 ! R70   R(57,65)                0.9743         estimate D2E/DX2                !
 ! R71   R(58,66)                1.4531         estimate D2E/DX2                !
 ! R72   R(58,84)                4.5558         estimate D2E/DX2                !
 ! R73   R(59,60)                1.0989         estimate D2E/DX2                !
 ! R74   R(59,61)                1.099          estimate D2E/DX2                !
 ! R75   R(59,62)                1.4362         estimate D2E/DX2                !
 ! R76   R(62,63)                0.9842         estimate D2E/DX2                !
 ! R77   R(62,82)                3.0844         estimate D2E/DX2                !
 ! R78   R(66,67)                1.1021         estimate D2E/DX2                !
 ! R79   R(66,68)                1.1006         estimate D2E/DX2                !
 ! R80   R(66,69)                1.5245         estimate D2E/DX2                !
 ! R81   R(69,70)                1.1032         estimate D2E/DX2                !
 ! R82   R(69,71)                1.1011         estimate D2E/DX2                !
 ! R83   R(69,72)                1.5367         estimate D2E/DX2                !
 ! R84   R(72,73)                1.1002         estimate D2E/DX2                !
 ! R85   R(72,74)                1.1029         estimate D2E/DX2                !
 ! R86   R(72,75)                1.5353         estimate D2E/DX2                !
 ! R87   R(75,76)                1.1024         estimate D2E/DX2                !
 ! R88   R(75,77)                1.1008         estimate D2E/DX2                !
 ! R89   R(75,78)                1.5275         estimate D2E/DX2                !
 ! R90   R(78,79)                1.0983         estimate D2E/DX2                !
 ! R91   R(78,80)                1.0997         estimate D2E/DX2                !
 ! R92   R(78,81)                1.5011         estimate D2E/DX2                !
 ! R93   R(81,82)                1.0276         estimate D2E/DX2                !
 ! R94   R(81,83)                1.0509         estimate D2E/DX2                !
 ! R95   R(81,84)                1.0575         estimate D2E/DX2                !
 ! A1    A(2,1,6)              113.8637         estimate D2E/DX2                !
 ! A2    A(1,2,3)              112.7955         estimate D2E/DX2                !
 ! A3    A(1,2,7)              105.0399         estimate D2E/DX2                !
 ! A4    A(1,2,15)             112.6773         estimate D2E/DX2                !
 ! A5    A(3,2,7)              110.4259         estimate D2E/DX2                !
 ! A6    A(3,2,15)             105.9896         estimate D2E/DX2                !
 ! A7    A(7,2,15)             109.9744         estimate D2E/DX2                !
 ! A8    A(2,3,4)              109.6235         estimate D2E/DX2                !
 ! A9    A(2,3,8)              106.9794         estimate D2E/DX2                !
 ! A10   A(2,3,14)             111.4088         estimate D2E/DX2                !
 ! A11   A(4,3,8)              108.4466         estimate D2E/DX2                !
 ! A12   A(4,3,14)             110.6512         estimate D2E/DX2                !
 ! A13   A(8,3,14)             109.6188         estimate D2E/DX2                !
 ! A14   A(3,4,5)              110.4807         estimate D2E/DX2                !
 ! A15   A(3,4,9)              109.5679         estimate D2E/DX2                !
 ! A16   A(3,4,13)             111.5903         estimate D2E/DX2                !
 ! A17   A(5,4,9)              110.3718         estimate D2E/DX2                !
 ! A18   A(5,4,13)             109.1938         estimate D2E/DX2                !
 ! A19   A(9,4,13)             105.5298         estimate D2E/DX2                !
 ! A20   A(4,5,6)              109.9439         estimate D2E/DX2                !
 ! A21   A(4,5,10)             108.4618         estimate D2E/DX2                !
 ! A22   A(4,5,12)             105.2756         estimate D2E/DX2                !
 ! A23   A(6,5,10)             107.4799         estimate D2E/DX2                !
 ! A24   A(6,5,12)             115.488          estimate D2E/DX2                !
 ! A25   A(10,5,12)            110.0246         estimate D2E/DX2                !
 ! A26   A(1,6,5)              112.0751         estimate D2E/DX2                !
 ! A27   A(1,6,11)             109.2334         estimate D2E/DX2                !
 ! A28   A(1,6,16)             107.6641         estimate D2E/DX2                !
 ! A29   A(5,6,11)             107.3621         estimate D2E/DX2                !
 ! A30   A(5,6,16)             114.1644         estimate D2E/DX2                !
 ! A31   A(11,6,16)            106.1025         estimate D2E/DX2                !
 ! A32   A(5,12,21)            107.3489         estimate D2E/DX2                !
 ! A33   A(4,13,22)            106.0991         estimate D2E/DX2                !
 ! A34   A(4,13,83)            106.4271         estimate D2E/DX2                !
 ! A35   A(22,13,83)           137.7779         estimate D2E/DX2                !
 ! A36   A(3,14,23)            107.0758         estimate D2E/DX2                !
 ! A37   A(3,14,83)             92.3203         estimate D2E/DX2                !
 ! A38   A(23,14,83)           146.0103         estimate D2E/DX2                !
 ! A39   A(2,15,27)            115.155          estimate D2E/DX2                !
 ! A40   A(6,16,17)            108.4932         estimate D2E/DX2                !
 ! A41   A(6,16,18)            108.175          estimate D2E/DX2                !
 ! A42   A(6,16,19)            109.7995         estimate D2E/DX2                !
 ! A43   A(17,16,18)           108.7404         estimate D2E/DX2                !
 ! A44   A(17,16,19)           110.6285         estimate D2E/DX2                !
 ! A45   A(18,16,19)           110.9322         estimate D2E/DX2                !
 ! A46   A(16,19,20)           109.2793         estimate D2E/DX2                !
 ! A47   A(16,19,83)            70.4287         estimate D2E/DX2                !
 ! A48   A(20,19,83)           161.192          estimate D2E/DX2                !
 ! A49   A(25,24,29)           109.8701         estimate D2E/DX2                !
 ! A50   A(24,25,26)           111.0717         estimate D2E/DX2                !
 ! A51   A(24,25,30)           108.3117         estimate D2E/DX2                !
 ! A52   A(24,25,37)           108.9632         estimate D2E/DX2                !
 ! A53   A(26,25,30)           106.5862         estimate D2E/DX2                !
 ! A54   A(26,25,37)           116.9765         estimate D2E/DX2                !
 ! A55   A(30,25,37)           104.4018         estimate D2E/DX2                !
 ! A56   A(25,26,27)           113.4125         estimate D2E/DX2                !
 ! A57   A(25,26,31)           108.0602         estimate D2E/DX2                !
 ! A58   A(25,26,36)           105.0014         estimate D2E/DX2                !
 ! A59   A(27,26,31)           108.607          estimate D2E/DX2                !
 ! A60   A(27,26,36)           110.1754         estimate D2E/DX2                !
 ! A61   A(31,26,36)           111.5794         estimate D2E/DX2                !
 ! A62   A(15,27,26)           107.4688         estimate D2E/DX2                !
 ! A63   A(15,27,28)           111.177          estimate D2E/DX2                !
 ! A64   A(15,27,32)           108.9215         estimate D2E/DX2                !
 ! A65   A(26,27,28)           112.0834         estimate D2E/DX2                !
 ! A66   A(26,27,32)           107.8364         estimate D2E/DX2                !
 ! A67   A(28,27,32)           109.246          estimate D2E/DX2                !
 ! A68   A(27,28,29)           110.6844         estimate D2E/DX2                !
 ! A69   A(27,28,33)           108.1891         estimate D2E/DX2                !
 ! A70   A(27,28,35)           107.9103         estimate D2E/DX2                !
 ! A71   A(29,28,33)           108.0292         estimate D2E/DX2                !
 ! A72   A(29,28,35)           112.8022         estimate D2E/DX2                !
 ! A73   A(33,28,35)           109.1238         estimate D2E/DX2                !
 ! A74   A(24,29,28)           110.8171         estimate D2E/DX2                !
 ! A75   A(24,29,34)           108.7318         estimate D2E/DX2                !
 ! A76   A(24,29,38)           106.1778         estimate D2E/DX2                !
 ! A77   A(28,29,34)           107.765          estimate D2E/DX2                !
 ! A78   A(28,29,38)           114.0928         estimate D2E/DX2                !
 ! A79   A(34,29,38)           109.151          estimate D2E/DX2                !
 ! A80   A(28,35,43)           105.0644         estimate D2E/DX2                !
 ! A81   A(28,35,82)           124.7816         estimate D2E/DX2                !
 ! A82   A(43,35,82)           104.5348         estimate D2E/DX2                !
 ! A83   A(26,36,44)           108.6904         estimate D2E/DX2                !
 ! A84   A(25,37,49)           118.7882         estimate D2E/DX2                !
 ! A85   A(29,38,39)           109.318          estimate D2E/DX2                !
 ! A86   A(29,38,40)           109.349          estimate D2E/DX2                !
 ! A87   A(29,38,41)           107.327          estimate D2E/DX2                !
 ! A88   A(39,38,40)           108.3372         estimate D2E/DX2                !
 ! A89   A(39,38,41)           111.0538         estimate D2E/DX2                !
 ! A90   A(40,38,41)           111.4271         estimate D2E/DX2                !
 ! A91   A(38,41,42)           109.0548         estimate D2E/DX2                !
 ! A92   A(38,41,82)            58.4733         estimate D2E/DX2                !
 ! A93   A(42,41,82)           105.2463         estimate D2E/DX2                !
 ! A94   A(46,45,50)           111.583          estimate D2E/DX2                !
 ! A95   A(46,45,84)           149.7588         estimate D2E/DX2                !
 ! A96   A(50,45,84)            92.9881         estimate D2E/DX2                !
 ! A97   A(45,46,47)           108.8787         estimate D2E/DX2                !
 ! A98   A(45,46,51)           108.7863         estimate D2E/DX2                !
 ! A99   A(45,46,58)           108.5709         estimate D2E/DX2                !
 ! A100  A(47,46,51)           111.0767         estimate D2E/DX2                !
 ! A101  A(47,46,58)           107.7203         estimate D2E/DX2                !
 ! A102  A(51,46,58)           111.738          estimate D2E/DX2                !
 ! A103  A(46,47,48)           111.8496         estimate D2E/DX2                !
 ! A104  A(46,47,52)           106.3632         estimate D2E/DX2                !
 ! A105  A(46,47,57)           112.6623         estimate D2E/DX2                !
 ! A106  A(48,47,52)           108.8509         estimate D2E/DX2                !
 ! A107  A(48,47,57)           106.3374         estimate D2E/DX2                !
 ! A108  A(52,47,57)           110.7805         estimate D2E/DX2                !
 ! A109  A(47,48,49)           112.0026         estimate D2E/DX2                !
 ! A110  A(47,48,53)           108.4761         estimate D2E/DX2                !
 ! A111  A(47,48,56)           109.9154         estimate D2E/DX2                !
 ! A112  A(49,48,53)           107.8411         estimate D2E/DX2                !
 ! A113  A(49,48,56)           108.9745         estimate D2E/DX2                !
 ! A114  A(53,48,56)           109.5855         estimate D2E/DX2                !
 ! A115  A(37,49,48)           108.8594         estimate D2E/DX2                !
 ! A116  A(37,49,50)           108.8704         estimate D2E/DX2                !
 ! A117  A(37,49,55)           110.475          estimate D2E/DX2                !
 ! A118  A(48,49,50)           109.0022         estimate D2E/DX2                !
 ! A119  A(48,49,55)           109.7555         estimate D2E/DX2                !
 ! A120  A(50,49,55)           109.8476         estimate D2E/DX2                !
 ! A121  A(45,50,49)           108.8699         estimate D2E/DX2                !
 ! A122  A(45,50,54)           110.1533         estimate D2E/DX2                !
 ! A123  A(45,50,59)           107.3425         estimate D2E/DX2                !
 ! A124  A(49,50,54)           108.2974         estimate D2E/DX2                !
 ! A125  A(49,50,59)           115.2976         estimate D2E/DX2                !
 ! A126  A(54,50,59)           106.8238         estimate D2E/DX2                !
 ! A127  A(48,56,64)           106.2861         estimate D2E/DX2                !
 ! A128  A(48,56,84)            49.7263         estimate D2E/DX2                !
 ! A129  A(64,56,84)           140.7689         estimate D2E/DX2                !
 ! A130  A(47,57,65)           107.5487         estimate D2E/DX2                !
 ! A131  A(46,58,66)           114.6269         estimate D2E/DX2                !
 ! A132  A(46,58,84)            69.8368         estimate D2E/DX2                !
 ! A133  A(66,58,84)            92.7368         estimate D2E/DX2                !
 ! A134  A(50,59,60)           108.4805         estimate D2E/DX2                !
 ! A135  A(50,59,61)           109.5602         estimate D2E/DX2                !
 ! A136  A(50,59,62)           113.2102         estimate D2E/DX2                !
 ! A137  A(60,59,61)           108.5921         estimate D2E/DX2                !
 ! A138  A(60,59,62)           106.8535         estimate D2E/DX2                !
 ! A139  A(61,59,62)           110.0056         estimate D2E/DX2                !
 ! A140  A(59,62,63)           105.5737         estimate D2E/DX2                !
 ! A141  A(59,62,82)           143.9938         estimate D2E/DX2                !
 ! A142  A(63,62,82)           107.9688         estimate D2E/DX2                !
 ! A143  A(58,66,67)           108.2198         estimate D2E/DX2                !
 ! A144  A(58,66,68)           109.1986         estimate D2E/DX2                !
 ! A145  A(58,66,69)           109.3765         estimate D2E/DX2                !
 ! A146  A(67,66,68)           108.2522         estimate D2E/DX2                !
 ! A147  A(67,66,69)           110.4398         estimate D2E/DX2                !
 ! A148  A(68,66,69)           111.2888         estimate D2E/DX2                !
 ! A149  A(66,69,70)           107.5513         estimate D2E/DX2                !
 ! A150  A(66,69,71)           108.4678         estimate D2E/DX2                !
 ! A151  A(66,69,72)           115.0405         estimate D2E/DX2                !
 ! A152  A(70,69,71)           106.1924         estimate D2E/DX2                !
 ! A153  A(70,69,72)           110.6448         estimate D2E/DX2                !
 ! A154  A(71,69,72)           108.566          estimate D2E/DX2                !
 ! A155  A(69,72,73)           107.8968         estimate D2E/DX2                !
 ! A156  A(69,72,74)           108.17           estimate D2E/DX2                !
 ! A157  A(69,72,75)           114.5136         estimate D2E/DX2                !
 ! A158  A(73,72,74)           106.3513         estimate D2E/DX2                !
 ! A159  A(73,72,75)           110.5111         estimate D2E/DX2                !
 ! A160  A(74,72,75)           109.0611         estimate D2E/DX2                !
 ! A161  A(72,75,76)           109.8365         estimate D2E/DX2                !
 ! A162  A(72,75,77)           110.1873         estimate D2E/DX2                !
 ! A163  A(72,75,78)           114.447          estimate D2E/DX2                !
 ! A164  A(76,75,77)           106.6138         estimate D2E/DX2                !
 ! A165  A(76,75,78)           106.6214         estimate D2E/DX2                !
 ! A166  A(77,75,78)           108.7931         estimate D2E/DX2                !
 ! A167  A(75,78,79)           110.8471         estimate D2E/DX2                !
 ! A168  A(75,78,80)           111.2947         estimate D2E/DX2                !
 ! A169  A(75,78,81)           112.2757         estimate D2E/DX2                !
 ! A170  A(79,78,80)           107.9709         estimate D2E/DX2                !
 ! A171  A(79,78,81)           107.0183         estimate D2E/DX2                !
 ! A172  A(80,78,81)           107.2077         estimate D2E/DX2                !
 ! A173  A(78,81,82)           112.8715         estimate D2E/DX2                !
 ! A174  A(78,81,83)           113.0072         estimate D2E/DX2                !
 ! A175  A(78,81,84)           112.6901         estimate D2E/DX2                !
 ! A176  A(82,81,83)           104.3749         estimate D2E/DX2                !
 ! A177  A(82,81,84)           104.9023         estimate D2E/DX2                !
 ! A178  A(83,81,84)           108.3383         estimate D2E/DX2                !
 ! A179  A(35,82,41)            25.0967         estimate D2E/DX2                !
 ! A180  A(35,82,62)            59.4773         estimate D2E/DX2                !
 ! A181  A(35,82,81)           111.6587         estimate D2E/DX2                !
 ! A182  A(41,82,62)            53.3115         estimate D2E/DX2                !
 ! A183  A(41,82,81)           115.609          estimate D2E/DX2                !
 ! A184  A(62,82,81)            62.8654         estimate D2E/DX2                !
 ! A185  A(13,83,14)            78.7519         estimate D2E/DX2                !
 ! A186  A(13,83,19)            19.7614         estimate D2E/DX2                !
 ! A187  A(14,83,19)            62.9011         estimate D2E/DX2                !
 ! A188  A(14,83,81)            87.8293         estimate D2E/DX2                !
 ! A189  A(19,83,81)           146.2639         estimate D2E/DX2                !
 ! A190  A(45,84,56)            40.7136         estimate D2E/DX2                !
 ! A191  A(45,84,58)            26.1558         estimate D2E/DX2                !
 ! A192  A(45,84,81)           122.3126         estimate D2E/DX2                !
 ! A193  A(56,84,58)            52.5204         estimate D2E/DX2                !
 ! A194  A(56,84,81)           128.785          estimate D2E/DX2                !
 ! A195  A(58,84,81)            96.432          estimate D2E/DX2                !
 ! A196  L(13,83,81,14,-1)     166.5811         estimate D2E/DX2                !
 ! A197  L(13,83,81,14,-2)     184.852          estimate D2E/DX2                !
 ! D1    D(6,1,2,3)            -56.9218         estimate D2E/DX2                !
 ! D2    D(6,1,2,7)           -177.2476         estimate D2E/DX2                !
 ! D3    D(6,1,2,15)            63.0414         estimate D2E/DX2                !
 ! D4    D(2,1,6,5)             56.2572         estimate D2E/DX2                !
 ! D5    D(2,1,6,11)           -62.5945         estimate D2E/DX2                !
 ! D6    D(2,1,6,16)          -177.3907         estimate D2E/DX2                !
 ! D7    D(1,2,3,4)             54.972          estimate D2E/DX2                !
 ! D8    D(1,2,3,8)            -62.4221         estimate D2E/DX2                !
 ! D9    D(1,2,3,14)           177.7897         estimate D2E/DX2                !
 ! D10   D(7,2,3,4)            172.1576         estimate D2E/DX2                !
 ! D11   D(7,2,3,8)             54.7635         estimate D2E/DX2                !
 ! D12   D(7,2,3,14)           -65.0247         estimate D2E/DX2                !
 ! D13   D(15,2,3,4)           -68.7706         estimate D2E/DX2                !
 ! D14   D(15,2,3,8)           173.8353         estimate D2E/DX2                !
 ! D15   D(15,2,3,14)           54.047          estimate D2E/DX2                !
 ! D16   D(1,2,15,27)           85.4791         estimate D2E/DX2                !
 ! D17   D(3,2,15,27)         -150.7042         estimate D2E/DX2                !
 ! D18   D(7,2,15,27)          -31.3355         estimate D2E/DX2                !
 ! D19   D(2,3,4,5)            -53.3745         estimate D2E/DX2                !
 ! D20   D(2,3,4,9)             68.4378         estimate D2E/DX2                !
 ! D21   D(2,3,4,13)          -175.0586         estimate D2E/DX2                !
 ! D22   D(8,3,4,5)             63.0972         estimate D2E/DX2                !
 ! D23   D(8,3,4,9)           -175.0905         estimate D2E/DX2                !
 ! D24   D(8,3,4,13)           -58.5869         estimate D2E/DX2                !
 ! D25   D(14,3,4,5)          -176.6399         estimate D2E/DX2                !
 ! D26   D(14,3,4,9)           -54.8276         estimate D2E/DX2                !
 ! D27   D(14,3,4,13)           61.676          estimate D2E/DX2                !
 ! D28   D(2,3,14,23)            8.4167         estimate D2E/DX2                !
 ! D29   D(2,3,14,83)         -143.29           estimate D2E/DX2                !
 ! D30   D(4,3,14,23)          130.6433         estimate D2E/DX2                !
 ! D31   D(4,3,14,83)          -21.0634         estimate D2E/DX2                !
 ! D32   D(8,3,14,23)         -109.7967         estimate D2E/DX2                !
 ! D33   D(8,3,14,83)           98.4966         estimate D2E/DX2                !
 ! D34   D(3,4,5,6)             53.3359         estimate D2E/DX2                !
 ! D35   D(3,4,5,10)           170.595          estimate D2E/DX2                !
 ! D36   D(3,4,5,12)           -71.6687         estimate D2E/DX2                !
 ! D37   D(9,4,5,6)            -68.001          estimate D2E/DX2                !
 ! D38   D(9,4,5,10)            49.258          estimate D2E/DX2                !
 ! D39   D(9,4,5,12)           166.9943         estimate D2E/DX2                !
 ! D40   D(13,4,5,6)           176.4247         estimate D2E/DX2                !
 ! D41   D(13,4,5,10)          -66.3163         estimate D2E/DX2                !
 ! D42   D(13,4,5,12)           51.42           estimate D2E/DX2                !
 ! D43   D(3,4,13,22)           78.7416         estimate D2E/DX2                !
 ! D44   D(3,4,13,83)          -73.9646         estimate D2E/DX2                !
 ! D45   D(5,4,13,22)          -43.6839         estimate D2E/DX2                !
 ! D46   D(5,4,13,83)          163.6098         estimate D2E/DX2                !
 ! D47   D(9,4,13,22)         -162.3238         estimate D2E/DX2                !
 ! D48   D(9,4,13,83)           44.97           estimate D2E/DX2                !
 ! D49   D(4,5,6,1)            -53.7704         estimate D2E/DX2                !
 ! D50   D(4,5,6,11)            66.1795         estimate D2E/DX2                !
 ! D51   D(4,5,6,16)          -176.5118         estimate D2E/DX2                !
 ! D52   D(10,5,6,1)          -171.6395         estimate D2E/DX2                !
 ! D53   D(10,5,6,11)          -51.6896         estimate D2E/DX2                !
 ! D54   D(10,5,6,16)           65.6191         estimate D2E/DX2                !
 ! D55   D(12,5,6,1)            65.142          estimate D2E/DX2                !
 ! D56   D(12,5,6,11)         -174.9081         estimate D2E/DX2                !
 ! D57   D(12,5,6,16)          -57.5994         estimate D2E/DX2                !
 ! D58   D(4,5,12,21)          154.6118         estimate D2E/DX2                !
 ! D59   D(6,5,12,21)           33.1511         estimate D2E/DX2                !
 ! D60   D(10,5,12,21)         -88.7132         estimate D2E/DX2                !
 ! D61   D(1,6,16,17)           50.3754         estimate D2E/DX2                !
 ! D62   D(1,6,16,18)          168.1742         estimate D2E/DX2                !
 ! D63   D(1,6,16,19)          -70.6382         estimate D2E/DX2                !
 ! D64   D(5,6,16,17)          175.4875         estimate D2E/DX2                !
 ! D65   D(5,6,16,18)          -66.7137         estimate D2E/DX2                !
 ! D66   D(5,6,16,19)           54.4739         estimate D2E/DX2                !
 ! D67   D(11,6,16,17)         -66.4816         estimate D2E/DX2                !
 ! D68   D(11,6,16,18)          51.3172         estimate D2E/DX2                !
 ! D69   D(11,6,16,19)         172.5048         estimate D2E/DX2                !
 ! D70   D(4,13,83,14)          40.4058         estimate D2E/DX2                !
 ! D71   D(4,13,83,19)           5.5015         estimate D2E/DX2                !
 ! D72   D(22,13,83,14)        -98.6288         estimate D2E/DX2                !
 ! D73   D(22,13,83,19)       -133.5331         estimate D2E/DX2                !
 ! D74   D(3,14,83,13)         -11.0951         estimate D2E/DX2                !
 ! D75   D(3,14,83,19)           1.4567         estimate D2E/DX2                !
 ! D76   D(3,14,83,81)         164.0529         estimate D2E/DX2                !
 ! D77   D(23,14,83,13)       -136.9528         estimate D2E/DX2                !
 ! D78   D(23,14,83,19)       -124.401          estimate D2E/DX2                !
 ! D79   D(23,14,83,81)         38.1952         estimate D2E/DX2                !
 ! D80   D(2,15,27,26)        -145.2319         estimate D2E/DX2                !
 ! D81   D(2,15,27,28)          91.7711         estimate D2E/DX2                !
 ! D82   D(2,15,27,32)         -28.6593         estimate D2E/DX2                !
 ! D83   D(6,16,19,20)        -179.4359         estimate D2E/DX2                !
 ! D84   D(6,16,19,83)         -19.388          estimate D2E/DX2                !
 ! D85   D(17,16,19,20)         60.8455         estimate D2E/DX2                !
 ! D86   D(17,16,19,83)       -139.1066         estimate D2E/DX2                !
 ! D87   D(18,16,19,20)        -59.9209         estimate D2E/DX2                !
 ! D88   D(18,16,19,83)        100.1269         estimate D2E/DX2                !
 ! D89   D(16,19,83,13)       -136.6689         estimate D2E/DX2                !
 ! D90   D(16,19,83,14)         82.4124         estimate D2E/DX2                !
 ! D91   D(16,19,83,81)         49.8524         estimate D2E/DX2                !
 ! D92   D(20,19,83,13)        -44.201          estimate D2E/DX2                !
 ! D93   D(20,19,83,14)        174.8804         estimate D2E/DX2                !
 ! D94   D(20,19,83,81)        142.3204         estimate D2E/DX2                !
 ! D95   D(29,24,25,26)        -50.6016         estimate D2E/DX2                !
 ! D96   D(29,24,25,30)         66.1257         estimate D2E/DX2                !
 ! D97   D(29,24,25,37)        179.1261         estimate D2E/DX2                !
 ! D98   D(25,24,29,28)         74.3393         estimate D2E/DX2                !
 ! D99   D(25,24,29,34)        -43.9294         estimate D2E/DX2                !
 ! D100  D(25,24,29,38)       -161.2562         estimate D2E/DX2                !
 ! D101  D(24,25,26,27)        -10.4552         estimate D2E/DX2                !
 ! D102  D(24,25,26,31)       -130.9137         estimate D2E/DX2                !
 ! D103  D(24,25,26,36)        109.8849         estimate D2E/DX2                !
 ! D104  D(30,25,26,27)       -128.2354         estimate D2E/DX2                !
 ! D105  D(30,25,26,31)        111.3061         estimate D2E/DX2                !
 ! D106  D(30,25,26,36)         -7.8953         estimate D2E/DX2                !
 ! D107  D(37,25,26,27)        115.4811         estimate D2E/DX2                !
 ! D108  D(37,25,26,31)         -4.9773         estimate D2E/DX2                !
 ! D109  D(37,25,26,36)       -124.1787         estimate D2E/DX2                !
 ! D110  D(24,25,37,49)         63.8566         estimate D2E/DX2                !
 ! D111  D(26,25,37,49)        -63.1196         estimate D2E/DX2                !
 ! D112  D(30,25,37,49)        179.4023         estimate D2E/DX2                !
 ! D113  D(25,26,27,15)        -72.444          estimate D2E/DX2                !
 ! D114  D(25,26,27,28)         49.9935         estimate D2E/DX2                !
 ! D115  D(25,26,27,32)        170.2737         estimate D2E/DX2                !
 ! D116  D(31,26,27,15)         47.7044         estimate D2E/DX2                !
 ! D117  D(31,26,27,28)        170.1419         estimate D2E/DX2                !
 ! D118  D(31,26,27,32)        -69.5779         estimate D2E/DX2                !
 ! D119  D(36,26,27,15)        170.1943         estimate D2E/DX2                !
 ! D120  D(36,26,27,28)        -67.3682         estimate D2E/DX2                !
 ! D121  D(36,26,27,32)         52.912          estimate D2E/DX2                !
 ! D122  D(25,26,36,44)        156.9702         estimate D2E/DX2                !
 ! D123  D(27,26,36,44)        -80.5689         estimate D2E/DX2                !
 ! D124  D(31,26,36,44)         40.1538         estimate D2E/DX2                !
 ! D125  D(15,27,28,29)         91.7242         estimate D2E/DX2                !
 ! D126  D(15,27,28,33)       -150.0933         estimate D2E/DX2                !
 ! D127  D(15,27,28,35)        -32.1501         estimate D2E/DX2                !
 ! D128  D(26,27,28,29)        -28.5803         estimate D2E/DX2                !
 ! D129  D(26,27,28,33)         89.6022         estimate D2E/DX2                !
 ! D130  D(26,27,28,35)       -152.4546         estimate D2E/DX2                !
 ! D131  D(32,27,28,29)       -148.0372         estimate D2E/DX2                !
 ! D132  D(32,27,28,33)        -29.8547         estimate D2E/DX2                !
 ! D133  D(32,27,28,35)         88.0885         estimate D2E/DX2                !
 ! D134  D(27,28,29,24)        -30.1671         estimate D2E/DX2                !
 ! D135  D(27,28,29,34)         88.6873         estimate D2E/DX2                !
 ! D136  D(27,28,29,38)       -149.9384         estimate D2E/DX2                !
 ! D137  D(33,28,29,24)       -148.4469         estimate D2E/DX2                !
 ! D138  D(33,28,29,34)        -29.5926         estimate D2E/DX2                !
 ! D139  D(33,28,29,38)         91.7818         estimate D2E/DX2                !
 ! D140  D(35,28,29,24)         90.8512         estimate D2E/DX2                !
 ! D141  D(35,28,29,34)       -150.2944         estimate D2E/DX2                !
 ! D142  D(35,28,29,38)        -28.9201         estimate D2E/DX2                !
 ! D143  D(27,28,35,43)       -173.4091         estimate D2E/DX2                !
 ! D144  D(27,28,35,82)         66.3673         estimate D2E/DX2                !
 ! D145  D(29,28,35,43)         64.006          estimate D2E/DX2                !
 ! D146  D(29,28,35,82)        -56.2177         estimate D2E/DX2                !
 ! D147  D(33,28,35,43)        -56.0685         estimate D2E/DX2                !
 ! D148  D(33,28,35,82)       -176.2922         estimate D2E/DX2                !
 ! D149  D(24,29,38,39)        -44.5878         estimate D2E/DX2                !
 ! D150  D(24,29,38,40)         73.8649         estimate D2E/DX2                !
 ! D151  D(24,29,38,41)       -165.1278         estimate D2E/DX2                !
 ! D152  D(28,29,38,39)         77.7614         estimate D2E/DX2                !
 ! D153  D(28,29,38,40)       -163.7859         estimate D2E/DX2                !
 ! D154  D(28,29,38,41)        -42.7786         estimate D2E/DX2                !
 ! D155  D(34,29,38,39)       -161.6346         estimate D2E/DX2                !
 ! D156  D(34,29,38,40)        -43.1818         estimate D2E/DX2                !
 ! D157  D(34,29,38,41)         77.8255         estimate D2E/DX2                !
 ! D158  D(28,35,82,41)         85.0684         estimate D2E/DX2                !
 ! D159  D(28,35,82,62)         17.1801         estimate D2E/DX2                !
 ! D160  D(28,35,82,81)        -19.3256         estimate D2E/DX2                !
 ! D161  D(43,35,82,41)        -35.3943         estimate D2E/DX2                !
 ! D162  D(43,35,82,62)       -103.2826         estimate D2E/DX2                !
 ! D163  D(43,35,82,81)       -139.7883         estimate D2E/DX2                !
 ! D164  D(25,37,49,48)        124.6268         estimate D2E/DX2                !
 ! D165  D(25,37,49,50)       -116.6633         estimate D2E/DX2                !
 ! D166  D(25,37,49,55)          4.042          estimate D2E/DX2                !
 ! D167  D(29,38,41,42)       -163.6839         estimate D2E/DX2                !
 ! D168  D(29,38,41,82)         99.7408         estimate D2E/DX2                !
 ! D169  D(39,38,41,42)         76.882          estimate D2E/DX2                !
 ! D170  D(39,38,41,82)        -19.6932         estimate D2E/DX2                !
 ! D171  D(40,38,41,42)        -43.996          estimate D2E/DX2                !
 ! D172  D(40,38,41,82)       -140.5712         estimate D2E/DX2                !
 ! D173  D(38,41,82,35)       -102.5831         estimate D2E/DX2                !
 ! D174  D(38,41,82,62)         -6.9849         estimate D2E/DX2                !
 ! D175  D(38,41,82,81)        -15.9324         estimate D2E/DX2                !
 ! D176  D(42,41,82,35)        154.133          estimate D2E/DX2                !
 ! D177  D(42,41,82,62)       -110.2688         estimate D2E/DX2                !
 ! D178  D(42,41,82,81)       -119.2163         estimate D2E/DX2                !
 ! D179  D(50,45,46,47)        -64.685          estimate D2E/DX2                !
 ! D180  D(50,45,46,51)         56.4979         estimate D2E/DX2                !
 ! D181  D(50,45,46,58)        178.2994         estimate D2E/DX2                !
 ! D182  D(84,45,46,47)         77.4883         estimate D2E/DX2                !
 ! D183  D(84,45,46,51)       -161.3289         estimate D2E/DX2                !
 ! D184  D(84,45,46,58)        -39.5274         estimate D2E/DX2                !
 ! D185  D(46,45,50,49)         67.7236         estimate D2E/DX2                !
 ! D186  D(46,45,50,54)        -50.8872         estimate D2E/DX2                !
 ! D187  D(46,45,50,59)       -166.8377         estimate D2E/DX2                !
 ! D188  D(84,45,50,49)        -94.2599         estimate D2E/DX2                !
 ! D189  D(84,45,50,54)        147.1294         estimate D2E/DX2                !
 ! D190  D(84,45,50,59)         31.1788         estimate D2E/DX2                !
 ! D191  D(46,45,84,56)        -79.8186         estimate D2E/DX2                !
 ! D192  D(46,45,84,58)         24.6585         estimate D2E/DX2                !
 ! D193  D(46,45,84,81)         33.8416         estimate D2E/DX2                !
 ! D194  D(50,45,84,56)         65.3577         estimate D2E/DX2                !
 ! D195  D(50,45,84,58)        169.8348         estimate D2E/DX2                !
 ! D196  D(50,45,84,81)        179.0179         estimate D2E/DX2                !
 ! D197  D(45,46,47,48)         53.7557         estimate D2E/DX2                !
 ! D198  D(45,46,47,52)        -64.9651         estimate D2E/DX2                !
 ! D199  D(45,46,47,57)        173.481          estimate D2E/DX2                !
 ! D200  D(51,46,47,48)        -66.0158         estimate D2E/DX2                !
 ! D201  D(51,46,47,52)        175.2634         estimate D2E/DX2                !
 ! D202  D(51,46,47,57)         53.7096         estimate D2E/DX2                !
 ! D203  D(58,46,47,48)        171.3118         estimate D2E/DX2                !
 ! D204  D(58,46,47,52)         52.591          estimate D2E/DX2                !
 ! D205  D(58,46,47,57)        -68.9629         estimate D2E/DX2                !
 ! D206  D(45,46,58,66)        -70.6648         estimate D2E/DX2                !
 ! D207  D(45,46,58,84)         12.8832         estimate D2E/DX2                !
 ! D208  D(47,46,58,66)        171.58           estimate D2E/DX2                !
 ! D209  D(47,46,58,84)       -104.872          estimate D2E/DX2                !
 ! D210  D(51,46,58,66)         49.315          estimate D2E/DX2                !
 ! D211  D(51,46,58,84)        132.863          estimate D2E/DX2                !
 ! D212  D(46,47,48,49)        -48.4761         estimate D2E/DX2                !
 ! D213  D(46,47,48,53)         70.4329         estimate D2E/DX2                !
 ! D214  D(46,47,48,56)       -169.7677         estimate D2E/DX2                !
 ! D215  D(52,47,48,49)         68.7583         estimate D2E/DX2                !
 ! D216  D(52,47,48,53)       -172.3327         estimate D2E/DX2                !
 ! D217  D(52,47,48,56)        -52.5332         estimate D2E/DX2                !
 ! D218  D(57,47,48,49)       -171.8516         estimate D2E/DX2                !
 ! D219  D(57,47,48,53)        -52.9426         estimate D2E/DX2                !
 ! D220  D(57,47,48,56)         66.8569         estimate D2E/DX2                !
 ! D221  D(46,47,57,65)         59.3379         estimate D2E/DX2                !
 ! D222  D(48,47,57,65)       -177.7964         estimate D2E/DX2                !
 ! D223  D(52,47,57,65)        -59.6734         estimate D2E/DX2                !
 ! D224  D(47,48,49,37)        168.3939         estimate D2E/DX2                !
 ! D225  D(47,48,49,50)         49.7668         estimate D2E/DX2                !
 ! D226  D(47,48,49,55)        -70.5793         estimate D2E/DX2                !
 ! D227  D(53,48,49,37)         49.1107         estimate D2E/DX2                !
 ! D228  D(53,48,49,50)        -69.5164         estimate D2E/DX2                !
 ! D229  D(53,48,49,55)        170.1375         estimate D2E/DX2                !
 ! D230  D(56,48,49,37)        -69.7738         estimate D2E/DX2                !
 ! D231  D(56,48,49,50)        171.5991         estimate D2E/DX2                !
 ! D232  D(56,48,49,55)         51.253          estimate D2E/DX2                !
 ! D233  D(47,48,56,64)        -62.5612         estimate D2E/DX2                !
 ! D234  D(47,48,56,84)         81.55           estimate D2E/DX2                !
 ! D235  D(49,48,56,64)        174.3495         estimate D2E/DX2                !
 ! D236  D(49,48,56,84)        -41.5393         estimate D2E/DX2                !
 ! D237  D(53,48,56,64)         56.5608         estimate D2E/DX2                !
 ! D238  D(53,48,56,84)       -159.328          estimate D2E/DX2                !
 ! D239  D(37,49,50,45)       -176.9569         estimate D2E/DX2                !
 ! D240  D(37,49,50,54)        -57.1876         estimate D2E/DX2                !
 ! D241  D(37,49,50,59)         62.3811         estimate D2E/DX2                !
 ! D242  D(48,49,50,45)        -58.3366         estimate D2E/DX2                !
 ! D243  D(48,49,50,54)         61.4327         estimate D2E/DX2                !
 ! D244  D(48,49,50,59)       -178.9987         estimate D2E/DX2                !
 ! D245  D(55,49,50,45)         61.9528         estimate D2E/DX2                !
 ! D246  D(55,49,50,54)       -178.2779         estimate D2E/DX2                !
 ! D247  D(55,49,50,59)        -58.7092         estimate D2E/DX2                !
 ! D248  D(45,50,59,60)         54.83           estimate D2E/DX2                !
 ! D249  D(45,50,59,61)        173.222          estimate D2E/DX2                !
 ! D250  D(45,50,59,62)        -63.5896         estimate D2E/DX2                !
 ! D251  D(49,50,59,60)        176.3207         estimate D2E/DX2                !
 ! D252  D(49,50,59,61)        -65.2873         estimate D2E/DX2                !
 ! D253  D(49,50,59,62)         57.9011         estimate D2E/DX2                !
 ! D254  D(54,50,59,60)        -63.302          estimate D2E/DX2                !
 ! D255  D(54,50,59,61)         55.09           estimate D2E/DX2                !
 ! D256  D(54,50,59,62)        178.2784         estimate D2E/DX2                !
 ! D257  D(48,56,84,45)        -16.7206         estimate D2E/DX2                !
 ! D258  D(48,56,84,58)        -49.2576         estimate D2E/DX2                !
 ! D259  D(48,56,84,81)       -113.4681         estimate D2E/DX2                !
 ! D260  D(64,56,84,45)         46.115          estimate D2E/DX2                !
 ! D261  D(64,56,84,58)         13.578          estimate D2E/DX2                !
 ! D262  D(64,56,84,81)        -50.6325         estimate D2E/DX2                !
 ! D263  D(46,58,66,67)       -102.5928         estimate D2E/DX2                !
 ! D264  D(46,58,66,68)         15.0376         estimate D2E/DX2                !
 ! D265  D(46,58,66,69)        137.0429         estimate D2E/DX2                !
 ! D266  D(84,58,66,67)       -171.6335         estimate D2E/DX2                !
 ! D267  D(84,58,66,68)        -54.003          estimate D2E/DX2                !
 ! D268  D(84,58,66,69)         68.0023         estimate D2E/DX2                !
 ! D269  D(46,58,84,45)        -13.4185         estimate D2E/DX2                !
 ! D270  D(46,58,84,56)         39.3177         estimate D2E/DX2                !
 ! D271  D(46,58,84,81)        174.3824         estimate D2E/DX2                !
 ! D272  D(66,58,84,45)        101.8505         estimate D2E/DX2                !
 ! D273  D(66,58,84,56)        154.5866         estimate D2E/DX2                !
 ! D274  D(66,58,84,81)        -70.3487         estimate D2E/DX2                !
 ! D275  D(50,59,62,63)        -76.278          estimate D2E/DX2                !
 ! D276  D(50,59,62,82)         81.893          estimate D2E/DX2                !
 ! D277  D(60,59,62,63)        164.3631         estimate D2E/DX2                !
 ! D278  D(60,59,62,82)        -37.4659         estimate D2E/DX2                !
 ! D279  D(61,59,62,63)         46.6643         estimate D2E/DX2                !
 ! D280  D(61,59,62,82)       -155.1647         estimate D2E/DX2                !
 ! D281  D(59,62,82,35)       -166.5415         estimate D2E/DX2                !
 ! D282  D(59,62,82,41)        164.1161         estimate D2E/DX2                !
 ! D283  D(59,62,82,81)        -24.9513         estimate D2E/DX2                !
 ! D284  D(63,62,82,35)         -8.6618         estimate D2E/DX2                !
 ! D285  D(63,62,82,41)        -38.0043         estimate D2E/DX2                !
 ! D286  D(63,62,82,81)        132.9284         estimate D2E/DX2                !
 ! D287  D(58,66,69,70)        177.4959         estimate D2E/DX2                !
 ! D288  D(58,66,69,71)         63.0402         estimate D2E/DX2                !
 ! D289  D(58,66,69,72)        -58.7309         estimate D2E/DX2                !
 ! D290  D(67,66,69,70)         58.498          estimate D2E/DX2                !
 ! D291  D(67,66,69,71)        -55.9577         estimate D2E/DX2                !
 ! D292  D(67,66,69,72)       -177.7288         estimate D2E/DX2                !
 ! D293  D(68,66,69,70)        -61.7632         estimate D2E/DX2                !
 ! D294  D(68,66,69,71)       -176.2189         estimate D2E/DX2                !
 ! D295  D(68,66,69,72)         62.01           estimate D2E/DX2                !
 ! D296  D(66,69,72,73)         58.2689         estimate D2E/DX2                !
 ! D297  D(66,69,72,74)        172.9366         estimate D2E/DX2                !
 ! D298  D(66,69,72,75)        -65.2314         estimate D2E/DX2                !
 ! D299  D(70,69,72,73)       -179.6109         estimate D2E/DX2                !
 ! D300  D(70,69,72,74)        -64.9432         estimate D2E/DX2                !
 ! D301  D(70,69,72,75)         56.8888         estimate D2E/DX2                !
 ! D302  D(71,69,72,73)        -63.4491         estimate D2E/DX2                !
 ! D303  D(71,69,72,74)         51.2186         estimate D2E/DX2                !
 ! D304  D(71,69,72,75)        173.0506         estimate D2E/DX2                !
 ! D305  D(69,72,75,76)        -57.6444         estimate D2E/DX2                !
 ! D306  D(69,72,75,77)         59.5162         estimate D2E/DX2                !
 ! D307  D(69,72,75,78)       -177.5145         estimate D2E/DX2                !
 ! D308  D(73,72,75,76)       -179.7313         estimate D2E/DX2                !
 ! D309  D(73,72,75,77)        -62.5707         estimate D2E/DX2                !
 ! D310  D(73,72,75,78)         60.3986         estimate D2E/DX2                !
 ! D311  D(74,72,75,76)         63.6994         estimate D2E/DX2                !
 ! D312  D(74,72,75,77)       -179.14           estimate D2E/DX2                !
 ! D313  D(74,72,75,78)        -56.1707         estimate D2E/DX2                !
 ! D314  D(72,75,78,79)        174.5745         estimate D2E/DX2                !
 ! D315  D(72,75,78,80)         54.3911         estimate D2E/DX2                !
 ! D316  D(72,75,78,81)        -65.7935         estimate D2E/DX2                !
 ! D317  D(76,75,78,79)         52.9249         estimate D2E/DX2                !
 ! D318  D(76,75,78,80)        -67.2585         estimate D2E/DX2                !
 ! D319  D(76,75,78,81)        172.5569         estimate D2E/DX2                !
 ! D320  D(77,75,78,79)        -61.7063         estimate D2E/DX2                !
 ! D321  D(77,75,78,80)        178.1103         estimate D2E/DX2                !
 ! D322  D(77,75,78,81)         57.9257         estimate D2E/DX2                !
 ! D323  D(75,78,81,82)        179.9638         estimate D2E/DX2                !
 ! D324  D(75,78,81,83)         61.8092         estimate D2E/DX2                !
 ! D325  D(75,78,81,84)        -61.4226         estimate D2E/DX2                !
 ! D326  D(79,78,81,82)        -58.1949         estimate D2E/DX2                !
 ! D327  D(79,78,81,83)       -176.3496         estimate D2E/DX2                !
 ! D328  D(79,78,81,84)         60.4186         estimate D2E/DX2                !
 ! D329  D(80,78,81,82)         57.4362         estimate D2E/DX2                !
 ! D330  D(80,78,81,83)        -60.7184         estimate D2E/DX2                !
 ! D331  D(80,78,81,84)        176.0498         estimate D2E/DX2                !
 ! D332  D(78,81,82,35)        154.6006         estimate D2E/DX2                !
 ! D333  D(78,81,82,41)        127.4978         estimate D2E/DX2                !
 ! D334  D(78,81,82,62)        119.4418         estimate D2E/DX2                !
 ! D335  D(83,81,82,35)        -82.3052         estimate D2E/DX2                !
 ! D336  D(83,81,82,41)       -109.408          estimate D2E/DX2                !
 ! D337  D(83,81,82,62)       -117.464          estimate D2E/DX2                !
 ! D338  D(84,81,82,35)         31.5423         estimate D2E/DX2                !
 ! D339  D(84,81,82,41)          4.4396         estimate D2E/DX2                !
 ! D340  D(84,81,82,62)         -3.6165         estimate D2E/DX2                !
 ! D341  D(78,81,83,14)        169.0749         estimate D2E/DX2                !
 ! D342  D(78,81,83,19)       -162.2759         estimate D2E/DX2                !
 ! D343  D(82,81,83,14)         46.069          estimate D2E/DX2                !
 ! D344  D(82,81,83,19)         74.7182         estimate D2E/DX2                !
 ! D345  D(84,81,83,14)        -65.3163         estimate D2E/DX2                !
 ! D346  D(84,81,83,19)        -36.6671         estimate D2E/DX2                !
 ! D347  D(78,81,84,45)         71.2576         estimate D2E/DX2                !
 ! D348  D(78,81,84,56)        121.2937         estimate D2E/DX2                !
 ! D349  D(78,81,84,58)         75.3172         estimate D2E/DX2                !
 ! D350  D(82,81,84,45)       -165.5673         estimate D2E/DX2                !
 ! D351  D(82,81,84,56)       -115.5312         estimate D2E/DX2                !
 ! D352  D(82,81,84,58)       -161.5077         estimate D2E/DX2                !
 ! D353  D(83,81,84,45)        -54.5372         estimate D2E/DX2                !
 ! D354  D(83,81,84,56)         -4.501          estimate D2E/DX2                !
 ! D355  D(83,81,84,58)        -50.4775         estimate D2E/DX2                !
 --------------------------------------------------------------------------------
 Trust Radius=3.00D-01 FncErr=1.00D-07 GrdErr=1.00D-06
 Number of steps in this run=    504 maximum allowed number of steps=    504.
 GradGradGradGradGradGradGradGradGradGradGradGradGradGradGradGradGradGrad

 Leave Link  103 at Wed Apr 27 21:27:04 2016, MaxMem= 10737418240 cpu:         0.5
 (Enter /share/apps//g09/l202.exe)
 Stoichiometry    C23H44NO16(1+)
 Framework group  C1[X(C23H44NO16)]
 Deg. of freedom   246
 Full point group                 C1      NOp   1
 Largest Abelian subgroup         C1      NOp   1
 Largest concise Abelian subgroup C1      NOp   1
                         Standard orientation:                         
 ---------------------------------------------------------------------
 Center     Atomic      Atomic             Coordinates (Angstroms)
 Number     Number       Type             X           Y           Z
 ---------------------------------------------------------------------
      1          8           0       -1.451340    3.047776   -0.941582
      2          6           0       -1.678299    1.741239   -1.411516
      3          6           0       -0.534805    1.219497   -2.295808
      4          6           0        0.792967    1.323557   -1.535355
      5          6           0        1.003066    2.749405   -1.016361
      6          6           0       -0.221540    3.196401   -0.200191
      7          1           0       -2.612022    1.803860   -1.988935
      8          1           0       -0.483917    1.878796   -3.178897
      9          1           0        0.796285    0.607586   -0.700063
     10          1           0        1.877426    2.749321   -0.332665
     11          1           0       -0.263445    2.563038    0.705961
     12          8           0        1.288496    3.533025   -2.174788
     13          8           0        1.910450    0.952300   -2.366222
     14          8           0       -0.772192   -0.129404   -2.715660
     15          8           0       -1.822388    0.787748   -0.348011
     16          6           0       -0.150541    4.633104    0.292408
     17          1           0       -1.102463    4.879176    0.791412
     18          1           0        0.666488    4.703665    1.032176
     19          8           0        0.083288    5.517644   -0.817355
     20          1           0        0.136161    6.431546   -0.493327
     21          1           0        1.028833    4.459135   -1.973364
     22          1           0        2.094391    1.727528   -2.936497
     23          1           0       -1.691227   -0.359738   -2.443622
     24          8           0       -2.512320   -1.881499    0.834207
     25          6           0       -2.502091   -1.051151    2.021569
     26          6           0       -3.003795    0.392609    1.701388
     27          6           0       -3.142677    0.672366    0.190498
     28          6           0       -3.952817   -0.440412   -0.539153
     29          6           0       -3.795899   -1.793754    0.186462
     30          1           0       -3.213578   -1.477736    2.749048
     31          1           0       -2.282120    1.106382    2.125661
     32          1           0       -3.662734    1.637465    0.072110
     33          1           0       -5.018073   -0.162109   -0.514804
     34          1           0       -4.586697   -1.857573    0.955703
     35          8           0       -3.508770   -0.486292   -1.906918
     36          8           0       -4.283936    0.491904    2.342959
     37          8           0       -1.258075   -1.165653    2.644492
     38          6           0       -3.892530   -3.011346   -0.734941
     39          1           0       -2.939701   -3.133383   -1.280414
     40          1           0       -4.062882   -3.914296   -0.129320
     41          8           0       -4.981335   -2.775300   -1.643681
     42          1           0       -5.234208   -3.615308   -2.060562
     43          1           0       -4.113879   -1.117875   -2.350284
     44          1           0       -4.481702    1.430716    2.500051
     45          8           0        2.047278   -1.436883    1.051876
     46          6           0        2.832162   -0.622404    1.942701
     47          6           0        2.043310    0.642336    2.280700
     48          6           0        0.646502    0.316050    2.821572
     49          6           0       -0.084990   -0.703285    1.943623
     50          6           0        0.849753   -1.907260    1.684628
     51          1           0        3.058143   -1.209980    2.859798
     52          1           0        1.937676    1.205590    1.335132
     53          1           0        0.755263   -0.122801    3.832048
     54          1           0        1.092088   -2.376656    2.660919
     55          1           0       -0.366725   -0.236520    0.987589
     56          8           0       -0.138270    1.511948    2.899348
     57          8           0        2.682565    1.439134    3.275458
     58          8           0        3.990470   -0.234232    1.282101
     59          6           0        0.269758   -3.002877    0.800811
     60          1           0        1.044397   -3.764966    0.637129
     61          1           0       -0.582829   -3.473610    1.310035
     62          8           0       -0.131203   -2.531612   -0.495303
     63          1           0       -0.980365   -2.055062   -0.352141
     64          1           0        0.314355    2.094878    3.535358
     65          1           0        3.560768    1.686667    2.933893
     66          6           0        4.947752   -1.304419    1.058751
     67          1           0        5.757225   -1.202870    1.799722
     68          1           0        4.451666   -2.273415    1.220798
     69          6           0        5.504794   -1.197584   -0.356263
     70          1           0        6.258998   -1.993528   -0.477878
     71          1           0        6.047642   -0.243833   -0.446330
     72          6           0        4.454746   -1.270527   -1.475863
     73          1           0        3.732353   -0.456307   -1.315461
     74          1           0        4.957601   -1.055281   -2.433545
     75          6           0        3.729760   -2.619711   -1.582351
     76          1           0        4.463665   -3.427505   -1.737996
     77          1           0        3.207846   -2.845931   -0.639911
     78          6           0        2.729305   -2.710657   -2.732981
     79          1           0        2.317668   -3.725692   -2.813703
     80          1           0        3.201507   -2.458622   -3.693648
     81          7           0        1.566910   -1.778317   -2.551368
     82          1           0        0.888104   -1.831638   -3.321023
     83          1           0        1.851763   -0.767135   -2.524310
     84          1           0        1.006793   -1.989649   -1.679606
 ---------------------------------------------------------------------
 Rotational constants (GHZ):      0.1087688      0.0809636      0.0717561
 Leave Link  202 at Wed Apr 27 21:27:04 2016, MaxMem= 10737418240 cpu:         0.9
 (Enter /share/apps//g09/l301.exe)
 Standard basis: 6-311+G(d,p) (5D, 7F)
 Ernie: Thresh=  0.10000D-02 Tol=  0.10000D-05 Strict=F.
 There are  1184 symmetry adapted cartesian basis functions of A   symmetry.
 There are  1144 symmetry adapted basis functions of A   symmetry.
  1144 basis functions,  1792 primitive gaussians,  1184 cartesian basis functions
[...]
 01836,-0.00000567,0.00000192,-0.00002651,0.00001582,0.00000709,-0.0000
 1758,0.00001637,-0.00001172,-0.00001856,0.00001785,0.00001352,-0.00004
 665,0.00001844,0.00000320,-0.00000955,0.00023253,-0.00002711,-0.000306
 19,-0.00002724,-0.00002582,-0.00003709,-0.00012621,-0.00004027,-0.0000
 9964,-0.00011951,0.00002551,0.00007036,0.00001802,0.00000084,-0.000032
 40,0.00000322,-0.00000208,-0.00001255,0.00009608,-0.00004117,-0.000030
 06,-0.00003984,0.00000248,0.00000926,-0.00002744,0.00002761,0.00001117
 ,0.00001187,0.00000052,0.00001446,-0.00066112,-0.00000349,-0.00049867,
 0.00089214,0.00022261,0.00014624,-0.00000339,0.00022777,-0.00006234,0.
 00012916,0.00006242,0.00008357,-0.00000295,0.00005698,0.00006319,0.000
 15806,0.00001578,0.00008534,-0.00007896,-0.00005049,-0.00005853,0.0000
 1523,-0.00004755,-0.00001186,-0.00002799,-0.00002561,-0.00000037,-0.00
 003123,0.00001097,-0.00004271,0.00003595,0.00004929,0.00007150,-0.0001
 2236,-0.00013931,-0.00006017,-0.00008810,-0.00013458,-0.00002864,-0.00
 041045,-0.00027586,0.00027558,0.00020461,-0.00065509,0.00048597,-0.000
 01269,-0.00000035,-0.00002080,-0.00000702,0.00014012,-0.00008798,0.000
 71979,0.00075987,-0.00039536,-0.00028997,0.00005897,0.00028725,0.00003
 514,0.00003009,-0.00002704,0.00000721,0.00006424,-0.00003304,0.0002583
 7,0.00010705,-0.00005477,-0.00005759,-0.00005859,0.00006973,-0.0000546
 9,-0.00009283,0.00002409,-0.00027125,-0.00054458,-0.00092699,0.0002921
 9,-0.00031299,0.00018787,-0.00010635,0.00008239,-0.00006313,0.00026925
 ,0.00069551,0.00159105,-0.00183545,0.00102996,-0.00198075,-0.00037842,
 0.00003768,0.00023813,0.00096536,0.00026143,0.00065877,-0.00039424,-0.
 00019661,-0.00036554,-0.00016763,-0.00024966,-0.00009465,0.02111215,0.
 01077721,0.01053634,-0.00307360,0.00393210,0.00387697,0.00024625,-0.00
 017402,0.00045262,-0.17277461,-0.09940376,-0.09501152,-0.01480063,-0.0
 1251258,-0.01109551,0.18461005,-0.00059358,-0.00018319,0.00004877,0.00
 044608,0.00099868,-0.00106129,0.00081687,-0.00005213,0.00120768,0.0076
 1564,0.00235487,-0.00704669,-0.00177721,0.00021770,0.00108167,0.001205
 79,0.00051367,0.00024701,-0.00022067,-0.00003521,0.00028749,0.00010304
 ,-0.00035726,-0.00004870,-0.00069336,-0.00026637,0.00089307,0.00010025
 ,-0.00012572,-0.00009405,-0.00001150,0.00009029,-0.00002127,-0.0001094
 7,0.00057830,0.00104631,-0.00004733,0.00179750,0.00508860,-0.00154388,
 -0.00194343,-0.00126025,-0.00105391,-0.00092234,0.00047724,-0.00044420
 ,0.00002188,0.00000835,0.00000082,0.00012551,0.00019573,0.00003889,-0.
 00002520,-0.00002658,-0.00003125,0.00016315,0.00037116,-0.00005114,-0.
 00009152,-0.00001868,-0.00015128,-0.00050747,-0.00031234,-0.00116068,-
 0.00246584,0.00252268,0.00050451,0.00048170,0.00029200,0.00023362,-0.0
 0028676,-0.00033490,-0.00012357,0.00034087,0.00026731,0.00000002,0.000
 11638,-0.00009599,0.00066947,0.00001695,-0.00012059,0.00001128,0.00017
 800,-0.00003812,-0.00009205,0.00025173,-0.00002884,0.00000601,-0.00002
 553,-0.00003475,-0.00000476,0.00002936,-0.00003078,-0.00002574,-0.0000
 1751,-0.00000631,-0.00003533,-0.00003387,-0.00000774,0.00002587,-0.000
 04240,-0.00001570,-0.00035373,-0.00027188,-0.00003788,-0.00011351,-0.0
 0016233,0.00008986,0.00026203,-0.00031711,-0.00021672,-0.00019036,0.00
 007425,0.00010889,0.00003585,0.00004542,-0.00003013,-0.00002373,-0.000
 02557,-0.00002486,0.00006572,-0.00017068,-0.00005476,-0.00002816,0.000
 00001,0.00002411,0.00004830,0.00010852,0.00014232,0.00002860,0.0000220
 0,-0.00003671,-0.00000046,0.00013923,-0.00111599,0.00031600,0.00001785
 ,0.00087965,0.00004757,0.00053539,-0.00006357,0.00001009,0.00020486,0.
 00026264,-0.00020757,0.00027429,0.00012589,-0.00050899,0.00004256,0.00
 026900,-0.00002276,0.00000799,-0.00014876,-0.00003049,-0.00005839,0.00
 001930,-0.00002117,-0.00007534,0.00001796,0.00003754,0.00002314,-0.000
 11959,0.00006682,0.00017163,0.00004970,-0.00002197,-0.00047739,-0.0002
 3730,0.00000967,-0.00038392,-0.00019941,0.00014942,-0.00017263,-0.0006
 8939,0.00023527,-0.00075933,0.00037031,-0.00005162,-0.00006901,-0.0000
 6079,0.00002589,0.00018087,-0.00007366,0.00122665,0.00084008,-0.001014
 58,-0.00032398,0.00054360,0.00043394,0.00002583,0.00008545,-0.00002238
 ,-0.00001842,0.00020399,0.00010192,-0.00016205,0.00012893,0.00045084,-
 0.00000583,0.00000647,-0.00013801,-0.00000356,-0.00015060,0.00004173,-
 0.00014050,-0.00011187,0.00051104,-0.00007362,0.00014463,-0.00012850,-
 0.00022013,0.00010354,-0.00016405,0.00051323,0.00004900,-0.00074860,0.
 00120582,0.00090296,0.00115209,-0.00024256,0.00008110,0.00030261,-0.00
 031219,-0.00130504,0.00026000,-0.00041323,0.00046288,-0.00005946,0.000
 02308,-0.00032231,0.00002536,-0.00647691,-0.01092644,-0.01019006,0.001
 18104,0.00013651,-0.00064075,-0.00042232,0.00116921,0.00101399,-0.1046
 7954,-0.15443892,-0.09033315,0.01614719,0.01727214,0.01511128,0.101505
 41,0.15600234,-0.00060846,-0.00008885,-0.00012181,0.00030229,0.0007684
 8,-0.00076418,0.00131986,0.00004846,0.00188218,0.00500061,-0.00190760,
 -0.00774105,-0.00086597,0.00028124,-0.00012655,0.00098342,0.00017994,0
 .00008595,-0.00020877,-0.00000371,0.00027605,-0.00005577,-0.00013119,-
 0.00007887,-0.00002914,0.00017533,-0.00058722,0.00002871,-0.00007613,-
 0.00004996,0.00000439,0.00009176,-0.00004332,0.00004221,0.00114367,0.0
 0129977,0.00291694,0.00607732,-0.00631909,-0.00086243,-0.00120882,-0.0
 0192113,-0.00094890,-0.00069206,0.00028623,-0.00032345,-0.00000414,-0.
 00004223,-0.00000795,0.00009991,0.00015288,0.00001825,-0.00001615,-0.0
 0003677,-0.00002717,0.00020877,0.00036074,-0.00004256,-0.00009521,-0.0
 0001091,-0.00009100,-0.00046053,-0.00032544,-0.00152779,-0.00088856,0.
 00536226,0.00021765,0.00026964,-0.00010077,0.00016190,-0.00016438,-0.0
 0049656,0.00016187,0.00011801,0.00041019,0.00002369,0.00008572,-0.0001
 0291,0.00060058,0.00005020,-0.00008322,-0.00000410,0.00009761,0.000069
 19,-0.00002626,0.00018213,-0.00003479,-0.00001759,-0.00000957,-0.00004
 874,0.00000843,0.00001156,-0.00003785,-0.00003246,-0.00000886,-0.00000
 222,-0.00002357,-0.00001897,-0.00002525,0.00002773,-0.00002948,-0.0000
 1195,-0.00019260,-0.00017948,-0.00017340,-0.00013696,-0.00010803,0.000
 07349,-0.00015706,-0.00022648,-0.00010225,-0.00016740,0.00004981,0.000
 13016,0.00002985,0.00004070,-0.00003955,-0.00001549,-0.00001796,-0.000
 02452,0.00005739,-0.00012008,-0.00007882,-0.00003177,-0.00000491,0.000
 02788,0.00003336,0.00006881,0.00012131,0.00003449,0.00000839,-0.000027
 16,-0.00044704,-0.00059843,-0.00045424,0.00008799,0.00024770,0.0002629
 0,-0.00000308,0.00056980,-0.00023391,0.00013094,0.00009309,0.00008821,
 -0.00005593,0.00032357,0.00000219,0.00039973,0.00027877,0.00012549,0.0
 0000807,-0.00009279,-0.00002777,-0.00003519,-0.00015389,-0.00002648,-0
 .00003557,-0.00006416,0.00003249,-0.00011638,-0.00006330,-0.00005968,0
 .00011286,0.00008597,0.00005066,-0.00012287,-0.00030134,-0.00007845,0.
 00007000,-0.00032904,0.00006387,0.00020233,-0.00044186,-0.00033796,0.0
 0062111,-0.00105928,0.00048121,-0.00006043,-0.00006212,-0.00001492,-0.
 00002728,0.00030191,-0.00016232,0.00224124,0.00141416,-0.00315983,-0.0
 0004412,0.00076911,0.00026023,0.00003642,0.00005604,-0.00005880,-0.000
 05388,0.00014630,0.00001700,-0.00026799,0.00038934,0.00039956,0.000024
 52,-0.00003036,-0.00009783,-0.00002539,-0.00012201,0.00001260,0.000157
 92,-0.00023439,-0.00034651,0.00011783,-0.00009904,0.00001558,-0.000156
 15,0.00007358,-0.00008908,-0.00001751,0.00061643,0.00095983,-0.0011106
 2,0.00062239,-0.00001149,0.00029120,-0.00006601,-0.00024129,0.00025355
 ,0.00046373,0.00160312,-0.00050863,0.00032009,-0.00040693,-0.00003115,
 -0.00001420,0.00004169,-0.00790282,-0.01262876,-0.01266326,0.00177749,
 -0.00058765,-0.00064720,-0.00066614,0.00062239,-0.00021506,-0.09396450
 ,-0.08460213,-0.14396498,-0.01361387,-0.00968146,-0.01005361,0.0965507
 3,0.08935226,0.15646581,-0.00055326,-0.00023450,-0.00016391,0.00074001
 ,0.00099946,-0.00028910,0.00047819,0.00001345,0.00050133,0.00137487,-0
 .00036165,-0.00146317,-0.00017146,0.00013511,-0.00013984,0.00047149,0.
 00004831,0.00000720,-0.00007040,-0.00004398,0.00009211,-0.00011901,-0.
 00013742,-0.00013737,0.00036877,0.00000569,-0.00016688,-0.00001195,-0.
 00002303,-0.00003877,0.00002165,0.00005761,0.00000232,-0.00014319,0.00
 020363,0.00040102,0.00006865,0.00140933,0.00169027,-0.00182922,-0.0014
 0481,0.00014356,-0.00067981,-0.00095941,0.00007971,-0.00003116,0.00010
 720,0.00000542,-0.00000966,0.00003415,0.00006733,-0.00000236,-0.000013
 16,-0.00001832,-0.00011195,-0.00006924,0.00010352,0.00001539,-0.000010
 80,0.00000026,0.00005101,-0.00009348,-0.00013243,-0.00018578,-0.000192
 00,0.00017140,0.00018537,0.00131334,0.00012799,0.00133847,-0.00038451,
 -0.00177907,0.00036744,0.00002510,0.00141037,-0.00013590,0.00016218,0.
 00004427,0.00029468,0.00007451,0.00005615,-0.00000340,0.00027494,0.000
 00516,-0.00070665,0.00071194,-0.00023292,-0.00001254,0.00003552,-0.000
 19386,0.00003723,-0.00003136,-0.00003325,-0.00000170,-0.00005830,-0.00
 003686,-0.00000648,-0.00009321,-0.00001885,0.00018599,-0.00011994,-0.0
 0004181,-0.00012908,-0.00054454,0.00005688,0.00008510,-0.00018102,-0.0
 0020744,-0.00042603,-0.00015538,-0.00038980,-0.00076246,0.00029156,0.0
 0019556,0.00002441,0.00013502,-0.00026188,0.00001294,-0.00003007,-0.00
 006719,0.00059884,-0.00049932,0.00015815,-0.00011105,0.00001931,-0.000
 08106,-0.00001982,0.00021540,-0.00001956,-0.00000672,0.00000997,0.0000
 5530,-0.00259454,-0.00084457,0.00048013,0.00117303,0.00017794,-0.00003
 591,0.00025491,0.00018377,-0.00010993,0.00055820,0.00016339,0.00018550
 ,-0.00024103,0.00013584,0.00030093,0.00265969,0.00158474,-0.00028610,0
 .00000226,-0.00015479,0.00007167,-0.00001271,-0.00008317,-0.00002611,-
 0.00006579,-0.00005452,-0.00002897,-0.00074470,-0.00010913,-0.00036155
 ,0.00011506,0.00024749,0.00026288,-0.00039582,-0.00025862,-0.00027506,
 -0.00034517,-0.00006179,0.00003581,-0.00112645,-0.00018037,0.00090287,
 0.00689259,-0.00820922,0.00168445,-0.00033976,0.00076077,0.00004423,-0
 .00032083,0.00253801,-0.00134183,-0.00321948,0.00676346,-0.00491909,-0
 .00207472,0.00353511,0.00138954,0.00009912,0.00001305,-0.00003086,0.00
 003587,0.00001169,-0.00009794,0.00035353,-0.00020275,-0.00056779,-0.00
 000914,-0.00000120,0.00016832,0.00001193,0.00011235,-0.00007712,-0.000
 03563,0.00022383,-0.00019397,0.00000963,-0.00011694,0.00007067,0.00012
 560,-0.00008677,0.00013729,-0.00041214,-0.00018382,0.00011530,-0.00007
 205,-0.00008467,-0.00040451,0.00013256,-0.00004546,-0.00002234,-0.0005
 0073,-0.00069445,-0.00057532,0.00078173,-0.00024724,-0.00003974,-0.000
 03692,0.00093003,-0.00014762,-0.00933718,-0.00199507,0.01006091,0.0010
 2722,-0.00062504,-0.00125216,0.00057688,0.00065819,0.00005618,-0.14988
 299,-0.08447485,0.09881366,0.01705512,0.01322541,-0.01656736,-0.012291
 46,-0.01170486,0.01061360,0.15171489,-0.00021011,-0.00016463,0.0005102
 6,0.00085236,0.00071160,-0.00069859,-0.00112514,-0.00085887,-0.0011787
 4,0.00029330,-0.00044126,-0.00061112,-0.00005055,0.00003570,-0.0003688
 1,0.00011469,0.00018872,-0.00015459,-0.00002750,-0.00006459,0.00005067
 ,0.00008617,0.00015625,0.00019517,-0.00015479,0.00025952,-0.00054665,0
 .00010793,0.00000176,0.00007935,0.00001309,0.00004603,-0.00000607,0.00
 007667,0.00020642,0.00040931,0.00042397,0.00076447,0.00047806,-0.00120
 310,0.00253281,0.00155592,-0.00071758,-0.00079714,0.00050693,-0.000043
 02,0.00005615,-0.00002733,-0.00001193,0.00003280,0.00004415,0.00002929
 ,-0.00000362,0.00000614,-0.00004158,-0.00002433,0.00012343,-0.00000748
 ,-0.00001559,-0.00000681,0.00001364,-0.00008239,-0.00015065,-0.0001442
 0,-0.00013418,0.00017607,0.00117612,0.00036642,-0.00021749,0.00124257,
 -0.00052199,-0.00130983,0.00002939,0.00029530,0.00083744,-0.00008478,0
 .00019342,-0.00002811,0.00047364,0.00008369,-0.00009888,0.00006830,0.0
 0037515,-0.00029431,-0.00062376,0.00066713,-0.00022925,0.00001270,0.00
 000350,-0.00013419,0.00000406,-0.00001363,-0.00001956,-0.00004366,-0.0
 0004271,-0.00000102,-0.00005083,-0.00010870,0.00003624,0.00015467,-0.0
 0012408,-0.00001013,-0.00051116,-0.00043194,0.00042630,0.00003069,-0.0
 0021907,-0.00005954,0.00013629,-0.00032744,-0.00035784,-0.00039897,0.0
 0019363,0.00004428,0.00002188,0.00014383,-0.00015210,-0.00004558,-0.00
 003685,-0.00002614,0.00030924,-0.00039493,0.00013714,-0.00003335,0.000
 01899,-0.00005522,0.00008559,0.00015233,0.00002489,0.00000181,0.000021
 41,0.00000081,-0.00190711,-0.00038505,-0.00107072,0.00191927,0.0002795
 7,0.00050504,0.00006690,0.00036898,-0.00000778,0.00028275,0.00018448,0
 .00029877,-0.00037816,0.00031042,0.00026644,0.00062318,0.00039662,0.00
 064624,-0.00012326,-0.00003916,-0.00015863,-0.00003047,-0.00007304,-0.
 00001984,-0.00003651,-0.00005696,-0.00000102,-0.00026599,0.00002695,-0
 .00030803,0.00007781,0.00026062,0.00010644,-0.00016511,-0.00036596,-0.
 00034889,-0.00024808,-0.00022114,-0.00023956,-0.00095739,-0.00016646,0
 .00048845,0.00018272,-0.00579442,0.00268918,-0.00025659,0.00005293,-0.
 00017262,0.00009488,0.00091007,-0.00058347,0.00562602,-0.00776013,-0.0
 0436421,0.00133536,0.00618971,0.00009062,0.00004724,0.00002441,-0.0000
 0225,0.00004920,0.00007862,0.00000294,0.00040909,-0.00013330,-0.000316
 41,-0.00005715,-0.00000801,0.00007075,-0.00001063,-0.00002486,-0.00003
 753,0.00000778,0.00009646,-0.00005604,0.00000871,-0.00006068,0.0000448
 6,0.00003833,-0.00005221,0.00006051,-0.00011229,-0.00030689,0.00054537
 ,-0.00012656,0.00007753,-0.00021166,-0.00029994,-0.00014285,-0.0000606
 7,0.00004204,0.00200762,-0.00152773,-0.00017426,-0.00030355,0.00032888
 ,0.00005940,-0.00102606,0.00076811,0.01364516,0.01988137,-0.01428380,-
 0.00022196,0.00019069,-0.00039704,0.00338513,-0.00404883,-0.00414817,-
 0.07937439,-0.14021842,0.08809979,-0.01310557,-0.01290462,0.01303895,-
 0.00879110,-0.01067685,0.01088929,0.07851260,0.15073330,0.00029265,0.0
 0022071,-0.00003265,-0.00055652,-0.00082837,0.00025132,0.00055552,-0.0
 0025339,-0.00014422,-0.00182123,-0.00134744,0.00181146,0.00018309,-0.0
 0009925,-0.00041172,-0.00023961,-0.00016910,-0.00002215,0.00003118,0.0
 0006468,-0.00003545,-0.00007666,0.00012882,-0.00002387,-0.00012717,0.0
 0004925,-0.00071461,-0.00002487,0.00002920,0.00002664,0.00000557,-0.00
 003321,-0.00003109,0.00022027,0.00023546,-0.00015283,0.00004793,-0.001
 39852,-0.00360670,0.00029902,0.00040812,-0.00128912,0.00023910,0.00075
 400,-0.00008091,0.00000432,-0.00011654,-0.00002987,0.00000530,-0.00001
 877,-0.00003970,-0.00001255,0.00000983,-0.00000053,0.00008964,0.000122
 41,-0.00004281,-0.00001022,-0.00000933,-0.00000490,0.00001167,0.000063
 33,0.00002392,0.00014084,0.00012826,-0.00011681,-0.00011002,-0.0005764
 5,0.00021701,-0.00106033,0.00038092,0.00095926,0.00016755,-0.00028301,
 -0.00067115,0.00013589,-0.00012516,-0.00008259,-0.00002619,-0.00000349
 ,-0.00002238,-0.00003129,-0.00022914,0.00013924,0.00067670,-0.00056153
 ,0.00019159,-0.00003464,-0.00000641,0.00010871,-0.00001332,0.00000733,
 -0.00000224,-0.00002964,0.00004667,0.00002536,0.00001205,0.00007581,-0
 .00001223,-0.00014184,0.00009073,0.00000745,0.00010637,0.00036624,-0.0
 0029104,-0.00013725,0.00015484,0.00015455,-0.00032298,0.00017083,0.000
 45364,0.00035191,-0.00016922,0.00000950,0.00000077,-0.00009519,0.00017
 884,0.00001511,0.00001840,0.00002584,-0.00035833,0.00031627,-0.0002052
 3,0.00002805,-0.00001686,0.00008520,-0.00001255,-0.00011155,0.00008934
 ,0.00001759,-0.00001679,-0.00003854,0.00207754,-0.00037456,0.00120913,
 -0.00250912,-0.00038913,-0.00058976,-0.00014616,-0.00013647,-0.0001398
 3,-0.00029490,-0.00025065,-0.00035723,0.00036158,0.00013881,-0.0004646
 9,-0.00012996,0.00019986,-0.00073772,0.00022402,-0.00001171,0.00024518
 ,-0.00000766,-0.00000494,0.00001733,0.00005403,0.00002791,0.00004492,0
 .00021487,-0.00013495,0.00034099,0.00001669,-0.00035417,-0.00027127,0.
 00016414,0.00030045,0.00036359,0.00038562,0.00009539,0.00031964,0.0013
 6626,0.00002185,-0.00086492,-0.00293089,0.00602337,-0.00250010,0.00025
 821,-0.00071320,0.00021114,0.00007052,-0.00166075,0.00083486,-0.005045
 30,-0.00474275,-0.00032093,0.00173608,-0.00224188,-0.00183502,-0.00005
 356,-0.00001709,-0.00002523,-0.00009137,-0.00003544,0.00002277,-0.0005
 5786,0.00039318,0.00065500,0.00006499,-0.00002268,-0.00014197,-0.00001
 083,-0.00004929,0.00005788,0.00003116,-0.00024462,0.00007676,0.0000329
 5,0.00007247,-0.00006367,-0.00010633,0.00009009,-0.00012170,0.00008399
 ,0.00048463,-0.00019604,0.00009741,-0.00014289,0.00024952,0.00012542,-
 0.00002437,-0.00014277,-0.00078428,-0.00019056,0.00216447,-0.00059956,
 0.00040973,-0.00035422,0.00026475,-0.00004803,0.00041483,0.01202569,0.
 00519314,-0.01410431,-0.00058690,0.00073526,-0.00009929,0.00030015,-0.
 00177760,-0.00032433,0.09301471,0.08800680,-0.16536083,0.00966983,0.01
 152464,-0.01126282,-0.00978222,-0.00799914,0.02148936,-0.09749459,-0.0
 8952412,0.17490768\\-0.00000476,-0.00000669,-0.00000822,-0.00000127,0.
 00001210,0.00001890,0.00000780,-0.00000068,0.00001068,0.00000188,-0.00
 000221,-0.00002077,-0.00001007,0.00000181,0.00002476,0.00001596,0.0000
 0444,0.00001023,-0.00000031,0.00000050,-0.00000091,0.00000244,-0.00000
 085,0.00000101,0.00000228,-0.00000123,0.00000274,0.00000364,-0.0000005
 4,-0.00000418,-0.00000188,-0.00000494,0.00000257,-0.00000170,0.0000063
 4,0.00001473,-0.00000712,0.00001618,0.00003650,-0.00001959,-0.00000113
 ,0.00001072,0.00001336,0.00000151,-0.00000895,-0.00000951,-0.00003196,
 0.00000592,-0.00000199,-0.00000103,0.00000167,0.00000134,-0.00000215,0
 .00000262,0.00001921,0.00003153,-0.00001143,-0.00000682,-0.00001664,0.
 00001937,0.00000377,-0.00001360,-0.00000708,0.00000215,0.00000195,-0.0
 0000575,0.00001281,0.00000732,-0.00000345,0.00000947,-0.00000426,-0.00
 000721,0.00000860,-0.00000592,0.00000125,-0.00000217,-0.00001318,0.000
 00362,-0.00003012,0.00000108,-0.00000388,0.00002252,-0.00001808,-0.000
 00083,-0.00001711,0.00002383,-0.00001180,-0.00000307,-0.00000282,-0.00
 000230,0.00000033,0.00000155,0.00000249,0.00000614,0.00000080,0.000003
 73,-0.00000503,-0.00000019,0.00000440,-0.00000210,0.00000197,0.0000031
 3,-0.00001199,0.00001131,-0.00000060,0.00000322,0.00000042,0.00000347,
 -0.00002225,-0.00000903,0.00000531,0.00001285,-0.00002442,0.00000517,-
 0.00000021,0.00000797,-0.00000142,-0.00000355,0.00000766,-0.00000043,0
 .00000889,0.00000997,-0.00001305,-0.00001419,0.00000730,0.00000862,0.0
 0000229,0.00000326,0.00000470,-0.00000366,-0.00000293,0.00000179,0.000
 00899,0.00000777,0.00000631,0.00000878,0.00001035,-0.00001113,-0.00001
 138,-0.00001382,-0.00000562,0.00001231,-0.00001716,-0.00001316,0.00003
 786,-0.00000247,-0.00001334,-0.00002212,0.00001501,-0.00000449,-0.0000
 0069,-0.00000727,-0.00000599,-0.00000562,0.00000338,-0.00000077,-0.000
 00793,-0.00000133,-0.00000190,-0.00000215,-0.00000667,-0.00000319,-0.0
 0000381,0.00000101,0.00000406,-0.00000741,0.00000031,0.00001428,0.0000
 0244,0.00001133,0.00000803,-0.00000602,-0.00000681,0.00002660,0.000000
 02,-0.00000962,-0.00000579,0.00000316,0.00000162,-0.00000323,0.0000003
 8,0.00000176,-0.00000466,-0.00000605,0.00000873,0.00000714,0.00000757,
 0.00000226,-0.00000433,0.00000509,-0.00000147,-0.00000341,0.00000026,-
 0.00001310,-0.00000510,0.00000334,-0.00000762,-0.00002539,-0.00000003,
 0.00000352,-0.00000274,-0.00000310,0.00000125,0.00000078,-0.00000525,0
 .00000132,0.00000310,0.00000182,0.00000151,-0.00000465,0.00000219,-0.0
 0000048,-0.00000028,0.00000134,0.00000363,-0.00000246,0.00000118,0.000
 00015,-0.00000073,0.00000071,0.00000559,0.00000086,-0.00000074,0.00000
 169,-0.00000218,0.00000018,0.00000350,-0.00000253,-0.00000077,0.000000
 42,0.00000065,-0.00000173,0.00000673,-0.00000059,-0.00000088,0.0000039
 1,-0.00000114,0.00000229,0.00000343,-0.00000287,-0.00001222,0.00001009
 ,0.00000901,0.00000817,0.00000157,-0.00001378,-0.00000625,-0.00002031,
 -0.00003595,0.00001557,-0.00000006,0.00000276\\\@


 REALITY IS FOR PEOPLE WHO CAN'T FACE SCIENCE FICTION.
 Job cpu time:      24 days 14 hours 41 minutes  1.0 seconds.
 File lengths (MBytes):  RWF=  24151 Int=      0 D2E=      0 Chk=     99 Scr=      1
 Normal termination of Gaussian 09 at Sat Apr 30 08:00:35 2016.
