 Entering Gaussian System, Link 0=g09
 Initial command:
 /share/apps//g09/l1.exe "/scratch/Gau-11093.inp" -scrdir="/scratch/"
 Entering Link 1 = /share/apps//g09/l1.exe PID=     11094.
  
 Copyright (c) 1988,1990,1992,1993,1995,1998,2003,2009,2013,
            Gaussian, Inc.  All Rights Reserved.
  
 This is part of the Gaussian(R) 09 program.  It is based on
 the Gaussian(R) 03 system (copyright 2003, Gaussian, Inc.),
 the Gaussian(R) 98 system (copyright 1998, Gaussian, Inc.),
 the Gaussian(R) 94 system (copyright 1995, Gaussian, Inc.),
 the Gaussian 92(TM) system (copyright 1992, Gaussian, Inc.),
 the Gaussian 90(TM) system (copyright 1990, Gaussian, Inc.),
 the Gaussian 88(TM) system (copyright 1988, Gaussian, Inc.),
 the Gaussian 86(TM) system (copyright 1986, Carnegie Mellon
 University), and the Gaussian 82(TM) system (copyright 1983,
 Carnegie Mellon University). Gaussian is a federally registered
 trademark of Gaussian, Inc.
  
 This software contains proprietary and confidential information,
 including trade secrets, belonging to Gaussian, Inc.
  
 This software is provided under written license and may be
 used, copied, transmitted, or stored only in accord with that
 written license.
  
 The following legend is applicable only to US Government
 contracts under FAR:
  
                    RESTRICTED RIGHTS LEGEND
  
 Use, reproduction and disclosure by the US Government is
 subject to restrictions as set forth in subparagraphs (a)
 and (c) of the Commercial Computer Software - Restricted
 Rights clause in FAR 52.227-19.
  
 Gaussian, Inc.
 340 Quinnipiac St., Bldg. 40, Wallingford CT 06492
  
  
 ---------------------------------------------------------------
 Warning -- This program may not be used in any manner that
 competes with the business of Gaussian, Inc. or will provide
 assistance to any competitor of Gaussian, Inc.  The licensee
 of this program is prohibited from giving any competitor of
 Gaussian, Inc. access to this program.  By using this program,
 the user acknowledges that Gaussian, Inc. is engaged in the
 business of creating and licensing software in the field of
 computational chemistry and represents and warrants to the
 licensee that it is not a competitor of Gaussian, Inc. and that
 it will not use this program in any manner prohibited above.
 ---------------------------------------------------------------
  

 Cite this work as:
 Gaussian 09, Revision D.01,
 M. J. Frisch, G. W. Trucks, H. B. Schlegel, G. E. Scuseria, 
 M. A. Robb, J. R. Cheeseman, G. Scalmani, V. Barone, B. Mennucci, 
 G. A. Petersson, H. Nakatsuji, M. Caricato, X. Li, H. P. Hratchian, 
 A. F. Izmaylov, J. Bloino, G. Zheng, J. L. Sonnenberg, M. Hada, 
 M. Ehara, K. Toyota, R. Fukuda, J. Hasegawa, M. Ishida, T. Nakajima, 
 Y. Honda, O. Kitao, H. Nakai, T. Vreven, J. A. Montgomery, Jr., 
 J. E. Peralta, F. Ogliaro, M. Bearpark, J. J. Heyd, E. Brothers, 
 K. N. Kudin, V. N. Staroverov, T. Keith, R. Kobayashi, J. Normand, 
 K. Raghavachari, A. Rendell, J. C. Burant, S. S. Iyengar, J. Tomasi, 
 M. Cossi, N. Rega, J. M. Millam, M. Klene, J. E. Knox, J. B. Cross, 
 V. Bakken, C. Adamo, J. Jaramillo, R. Gomperts, R. E. Stratmann, 
 O. Yazyev, A. J. Austin, R. Cammi, C. Pomelli, J. W. Ochterski, 
 R. L. Martin, K. Morokuma, V. G. Zakrzewski, G. A. Voth, 
 P. Salvador, J. J. Dannenberg, S. Dapprich, A. D. Daniels, 
 O. Farkas, J. B. Foresman, J. V. Ortiz, J. Cioslowski, 
 and D. J. Fox, Gaussian, Inc., Wallingford CT, 2013.
 
 ******************************************
 Gaussian 09:  EM64L-G09RevD.01 24-Apr-2013
                21-May-2016 
 ******************************************
 %nproc=20
 Will use up to   20 processors via shared memory.
 %mem=80GB
 %chk=Tri_A154_of.chk
 ----------------------------------------------------------------------
 #P PBE1PBE/6-311+G(d,p) opt=ModRedundant optcyc=999 freq EmpiricalDisp
 ersion=GD3
 ----------------------------------------------------------------------
 1/6=999,14=-1,18=120,19=15,26=3,38=1/1,3;
 2/9=110,12=2,17=6,18=5,40=1/2;
 3/5=4,6=6,7=111,11=2,16=1,25=1,30=1,71=1,74=-13,124=31/1,2,3;
 4//1;
 5/5=2,38=5/2;
 6/7=2,8=2,9=2,10=2,28=1/1;
 7//1,2,3,16;
 1/6=999,14=-1,18=20,19=15,26=3/3(2);
 2/9=110/2;
 99//99;
 2/9=110/2;
 3/5=4,6=6,7=111,11=2,16=1,25=1,30=1,71=1,74=-13,124=31/1,2,3;
 4/5=5,16=3,69=1/1;
 5/5=2,38=5/2;
 7//1,2,3,16;
 1/6=999,14=-1,18=20,19=15,26=3/3(-5);
 2/9=110/2;
 6/7=2,8=2,9=2,10=2,19=2,28=1/1;
 99/9=1/99;
 Leave Link    1 at Sat May 21 18:53:19 2016, MaxMem= 10737418240 cpu:         1.5
 (Enter /share/apps//g09/l101.exe)
 -------
 disacch
 -------
 Symbolic Z-matrix:
 Charge =  1 Multiplicity = 1
 O                     1.90914   2.01904  -0.97547 
 C                     2.95507   1.067    -1.15044 
 C                     3.29867   0.94136  -2.64659 
 C                     3.72397   2.30071  -3.19879 
 C                     2.68489   3.37892  -2.89605 
 C                     2.27584   3.33212  -1.41533 
 C                     1.10267   4.25738  -1.09896 
 O                    -0.11757   3.86764  -1.7525 
 O                     1.52356   3.19698  -3.72386 
 O                     3.87693   2.26425  -4.61781 
 O                     4.38345   0.05825  -2.89597 
 O                     2.41554  -0.1333   -0.64573 
 C                     3.33003  -1.06807  -0.05335 
 C                     3.10987  -2.43914  -0.70125 
 O                     3.43791  -2.40757  -2.09169 
 C                     1.64793  -2.83122  -0.51278 
 C                     1.26221  -2.83303   0.98293 
 O                     1.67519  -1.62651   1.65302 
 C                     3.03989  -1.25628   1.45015 
 C                     3.32354  -0.07192   2.36096 
 O                     2.43499   1.02013   2.06281 
 O                    -0.11515  -2.98128   1.215 
 C                    -1.00388  -2.05718   0.55737 
 C                    -1.97581  -2.87651  -0.29685 
 C                    -3.13692  -2.03551  -0.82229 
 C                    -3.79726  -1.26741   0.32102 
 O                    -2.79593  -0.4625    0.97115 
 C                    -1.78168  -1.25199   1.6202 
 C                    -0.93665  -0.28608   2.44438 
 O                    -0.32272   0.73525   1.64462 
 O                    -4.74966  -0.41679  -0.2292 
 C                    -5.62237   0.21561   0.74563 
 C                    -5.97631   1.61571   0.25642 
 C                    -4.75962   2.47121  -0.12584 
 C                    -3.77209   2.75032   1.01854 
 C                    -2.42951   3.2843    0.52717 
 N                    -1.63367   2.23267  -0.1992 
 O                    -4.02353  -2.94499  -1.46782 
 O                    -1.26555  -3.45936  -1.40133 
 O                     1.46194  -4.11259  -1.09538 
 H                     3.85086   1.36607  -0.56315 
 H                     2.37637   0.60413  -3.15442 
 H                     4.6819    2.58432  -2.7193 
 H                     3.12738   4.37209  -3.10018 
 H                     3.14635   3.6959   -0.82892 
 H                     1.37008   5.29018  -1.3793 
 H                     0.90471   4.23875  -0.01715 
 H                     0.13922   3.6396   -2.67931 
 H                     1.85874   2.93071  -4.60417 
 H                     4.37778   1.45066  -4.81981 
 H                     4.06018  -0.86633  -2.78226 
 H                     4.37471  -0.74817  -0.19966 
 H                     3.76378  -3.17437  -0.1941 
 H                     3.00828  -3.19133  -2.48818 
 H                     1.05399  -2.07331  -1.04789 
 H                     1.71887  -3.71243   1.47344 
 H                     3.71517  -2.06357   1.80636 
 H                     3.18508  -0.4057    3.40233 
 H                     4.37547   0.2355    2.22886 
 H                     2.50842   1.66674   2.78434 
 H                    -0.44796  -1.34416  -0.07111 
 H                    -2.38647  -3.68384   0.3394 
 H                    -2.74579  -1.28584  -1.53846 
 H                    -4.2457   -1.96146   1.06401 
 H                    -2.25062  -1.96293   2.33025 
 H                    -1.60237   0.20244   3.1737 
 H                    -0.16978  -0.85291   2.98653 
 H                     0.66107   0.63639   1.65835 
 H                    -5.10535   0.25386   1.71637 
 H                    -6.52984  -0.39956   0.85969 
 H                    -6.56639   2.10749   1.04713 
 H                    -6.63852   1.53615  -0.61928 
 H                    -5.11162   3.42845  -0.54119 
 H                    -4.25252   1.9529   -0.95748 
 H                    -3.58922   1.84186   1.61178 
 H                    -4.20061   3.49437   1.70769 
 H                    -2.55899   4.12763  -0.16582 
 H                    -1.80277   3.62436   1.36214 
 H                    -2.25898   1.61556  -0.73168 
 H                    -1.10324   1.61421   0.48178 
 H                    -0.96042   2.7049   -0.8691 
 H                    -4.74292  -2.42791  -1.87235 
 H                    -1.93677  -3.90824  -1.94958 
 H                     0.49684  -4.1839   -1.27175 
 
 The following ModRedundant input section has been read:
 
 NAtoms=     84 NQM=       84 NQMF=       0 NMMI=      0 NMMIF=      0
                NMic=       0 NMicF=      0.
                    Isotopes and Nuclear Properties:
 (Nuclear quadrupole moments (NQMom) in fm**2, nuclear magnetic moments (NMagM)
  in nuclear magnetons)

  Atom         1           2           3           4           5           6           7           8           9          10
 IAtWgt=          16          12          12          12          12          12          12          16          16          16
 AtmWgt=  15.9949146  12.0000000  12.0000000  12.0000000  12.0000000  12.0000000  12.0000000  15.9949146  15.9949146  15.9949146
 NucSpn=           0           0           0           0           0           0           0           0           0           0
 AtZEff=   0.0000000   0.0000000   0.0000000   0.0000000   0.0000000   0.0000000   0.0000000   0.0000000   0.0000000   0.0000000
 NQMom=    0.0000000   0.0000000   0.0000000   0.0000000   0.0000000   0.0000000   0.0000000   0.0000000   0.0000000   0.0000000
 NMagM=    0.0000000   0.0000000   0.0000000   0.0000000   0.0000000   0.0000000   0.0000000   0.0000000   0.0000000   0.0000000
 AtZNuc=   8.0000000   6.0000000   6.0000000   6.0000000   6.0000000   6.0000000   6.0000000   8.0000000   8.0000000   8.0000000

  Atom        11          12          13          14          15          16          17          18          19          20
 IAtWgt=          16          16          12          12          16          12          12          16          12          12
 AtmWgt=  15.9949146  15.9949146  12.0000000  12.0000000  15.9949146  12.0000000  12.0000000  15.9949146  12.0000000  12.0000000
 NucSpn=           0           0           0           0           0           0           0           0           0           0
 AtZEff=   0.0000000   0.0000000   0.0000000   0.0000000   0.0000000   0.0000000   0.0000000   0.0000000   0.0000000   0.0000000
 NQMom=    0.0000000   0.0000000   0.0000000   0.0000000   0.0000000   0.0000000   0.0000000   0.0000000   0.0000000   0.0000000
 NMagM=    0.0000000   0.0000000   0.0000000   0.0000000   0.0000000   0.0000000   0.0000000   0.0000000   0.0000000   0.0000000
 AtZNuc=   8.0000000   8.0000000   6.0000000   6.0000000   8.0000000   6.0000000   6.0000000   8.0000000   6.0000000   6.0000000

  Atom        21          22          23          24          25          26          27          28          29          30
 IAtWgt=          16          16          12          12          12          12          16          12          12          16
 AtmWgt=  15.9949146  15.9949146  12.0000000  12.0000000  12.0000000  12.0000000  15.9949146  12.0000000  12.0000000  15.9949146
 NucSpn=           0           0           0           0           0           0           0           0           0           0
 AtZEff=   0.0000000   0.0000000   0.0000000   0.0000000   0.0000000   0.0000000   0.0000000   0.0000000   0.0000000   0.0000000
 NQMom=    0.0000000   0.0000000   0.0000000   0.0000000   0.0000000   0.0000000   0.0000000   0.0000000   0.0000000   0.0000000
 NMagM=    0.0000000   0.0000000   0.0000000   0.0000000   0.0000000   0.0000000   0.0000000   0.0000000   0.0000000   0.0000000
 AtZNuc=   8.0000000   8.0000000   6.0000000   6.0000000   6.0000000   6.0000000   8.0000000   6.0000000   6.0000000   8.0000000

  Atom        31          32          33          34          35          36          37          38          39          40
 IAtWgt=          16          12          12          12          12          12          14          16          16          16
 AtmWgt=  15.9949146  12.0000000  12.0000000  12.0000000  12.0000000  12.0000000  14.0030740  15.9949146  15.9949146  15.9949146
 NucSpn=           0           0           0           0           0           0           2           0           0           0
 AtZEff=   0.0000000   0.0000000   0.0000000   0.0000000   0.0000000   0.0000000   0.0000000   0.0000000   0.0000000   0.0000000
 NQMom=    0.0000000   0.0000000   0.0000000   0.0000000   0.0000000   0.0000000   2.0440000   0.0000000   0.0000000   0.0000000
 NMagM=    0.0000000   0.0000000   0.0000000   0.0000000   0.0000000   0.0000000   0.4037610   0.0000000   0.0000000   0.0000000
 AtZNuc=   8.0000000   6.0000000   6.0000000   6.0000000   6.0000000   6.0000000   7.0000000   8.0000000   8.0000000   8.0000000

  Atom        41          42          43          44          45          46          47          48          49          50
 IAtWgt=           1           1           1           1           1           1           1           1           1           1
 AtmWgt=   1.0078250   1.0078250   1.0078250   1.0078250   1.0078250   1.0078250   1.0078250   1.0078250   1.0078250   1.0078250
 NucSpn=           1           1           1           1           1           1           1           1           1           1
 AtZEff=   0.0000000   0.0000000   0.0000000   0.0000000   0.0000000   0.0000000   0.0000000   0.0000000   0.0000000   0.0000000
 NQMom=    0.0000000   0.0000000   0.0000000   0.0000000   0.0000000   0.0000000   0.0000000   0.0000000   0.0000000   0.0000000
 NMagM=    2.7928460   2.7928460   2.7928460   2.7928460   2.7928460   2.7928460   2.7928460   2.7928460   2.7928460   2.7928460
 AtZNuc=   1.0000000   1.0000000   1.0000000   1.0000000   1.0000000   1.0000000   1.0000000   1.0000000   1.0000000   1.0000000

  Atom        51          52          53          54          55          56          57          58          59          60
 IAtWgt=           1           1           1           1           1           1           1           1           1           1
 AtmWgt=   1.0078250   1.0078250   1.0078250   1.0078250   1.0078250   1.0078250   1.0078250   1.0078250   1.0078250   1.0078250
 NucSpn=           1           1           1           1           1           1           1           1           1           1
 AtZEff=   0.0000000   0.0000000   0.0000000   0.0000000   0.0000000   0.0000000   0.0000000   0.0000000   0.0000000   0.0000000
 NQMom=    0.0000000   0.0000000   0.0000000   0.0000000   0.0000000   0.0000000   0.0000000   0.0000000   0.0000000   0.0000000
 NMagM=    2.7928460   2.7928460   2.7928460   2.7928460   2.7928460   2.7928460   2.7928460   2.7928460   2.7928460   2.7928460
 AtZNuc=   1.0000000   1.0000000   1.0000000   1.0000000   1.0000000   1.0000000   1.0000000   1.0000000   1.0000000   1.0000000

  Atom        61          62          63          64          65          66          67          68          69          70
 IAtWgt=           1           1           1           1           1           1           1           1           1           1
 AtmWgt=   1.0078250   1.0078250   1.0078250   1.0078250   1.0078250   1.0078250   1.0078250   1.0078250   1.0078250   1.0078250
 NucSpn=           1           1           1           1           1           1           1           1           1           1
 AtZEff=   0.0000000   0.0000000   0.0000000   0.0000000   0.0000000   0.0000000   0.0000000   0.0000000   0.0000000   0.0000000
 NQMom=    0.0000000   0.0000000   0.0000000   0.0000000   0.0000000   0.0000000   0.0000000   0.0000000   0.0000000   0.0000000
 NMagM=    2.7928460   2.7928460   2.7928460   2.7928460   2.7928460   2.7928460   2.7928460   2.7928460   2.7928460   2.7928460
 AtZNuc=   1.0000000   1.0000000   1.0000000   1.0000000   1.0000000   1.0000000   1.0000000   1.0000000   1.0000000   1.0000000

  Atom        71          72          73          74          75          76          77          78          79          80
 IAtWgt=           1           1           1           1           1           1           1           1           1           1
 AtmWgt=   1.0078250   1.0078250   1.0078250   1.0078250   1.0078250   1.0078250   1.0078250   1.0078250   1.0078250   1.0078250
 NucSpn=           1           1           1           1           1           1           1           1           1           1
 AtZEff=   0.0000000   0.0000000   0.0000000   0.0000000   0.0000000   0.0000000   0.0000000   0.0000000   0.0000000   0.0000000
 NQMom=    0.0000000   0.0000000   0.0000000   0.0000000   0.0000000   0.0000000   0.0000000   0.0000000   0.0000000   0.0000000
 NMagM=    2.7928460   2.7928460   2.7928460   2.7928460   2.7928460   2.7928460   2.7928460   2.7928460   2.7928460   2.7928460
 AtZNuc=   1.0000000   1.0000000   1.0000000   1.0000000   1.0000000   1.0000000   1.0000000   1.0000000   1.0000000   1.0000000

  Atom        81          82          83          84
 IAtWgt=           1           1           1           1
 AtmWgt=   1.0078250   1.0078250   1.0078250   1.0078250
 NucSpn=           1           1           1           1
 AtZEff=   0.0000000   0.0000000   0.0000000   0.0000000
 NQMom=    0.0000000   0.0000000   0.0000000   0.0000000
 NMagM=    2.7928460   2.7928460   2.7928460   2.7928460
 AtZNuc=   1.0000000   1.0000000   1.0000000   1.0000000
 Leave Link  101 at Sat May 21 18:53:20 2016, MaxMem= 10737418240 cpu:         2.6
 (Enter /share/apps//g09/l103.exe)

 GradGradGradGradGradGradGradGradGradGradGradGradGradGradGradGradGradGrad
 Berny optimization.
 Initialization pass.
                           ----------------------------
                           !    Initial Parameters    !
                           ! (Angstroms and Degrees)  !
 --------------------------                            --------------------------
 ! Name  Definition              Value          Derivative Info.                !
 --------------------------------------------------------------------------------
 ! R1    R(1,2)                  1.4251         estimate D2E/DX2                !
 ! R2    R(1,6)                  1.4325         estimate D2E/DX2                !
 ! R3    R(2,3)                  1.5402         estimate D2E/DX2                !
 ! R4    R(2,12)                 1.4094         estimate D2E/DX2                !
 ! R5    R(2,41)                 1.1121         estimate D2E/DX2                !
 ! R6    R(3,4)                  1.5276         estimate D2E/DX2                !
 ! R7    R(3,11)                 1.4209         estimate D2E/DX2                !
 ! R8    R(3,42)                 1.1056         estimate D2E/DX2                !
 ! R9    R(4,5)                  1.5277         estimate D2E/DX2                !
 ! R10   R(4,10)                 1.4277         estimate D2E/DX2                !
 ! R11   R(4,43)                 1.1081         estimate D2E/DX2                !
 ! R12   R(5,6)                  1.5369         estimate D2E/DX2                !
 ! R13   R(5,9)                  1.4377         estimate D2E/DX2                !
 ! R14   R(5,44)                 1.1063         estimate D2E/DX2                !
 ! R15   R(6,7)                  1.5273         estimate D2E/DX2                !
 ! R16   R(6,45)                 1.1109         estimate D2E/DX2                !
 ! R17   R(7,8)                  1.4381         estimate D2E/DX2                !
 ! R18   R(7,46)                 1.1031         estimate D2E/DX2                !
 ! R19   R(7,47)                 1.0999         estimate D2E/DX2                !
 ! R20   R(8,48)                 0.9884         estimate D2E/DX2                !
 ! R21   R(9,49)                 0.9789         estimate D2E/DX2                !
 ! R22   R(10,50)                0.9765         estimate D2E/DX2                !
 ! R23   R(11,51)                0.986          estimate D2E/DX2                !
 ! R24   R(12,13)                1.4356         estimate D2E/DX2                !
 ! R25   R(13,14)                1.5323         estimate D2E/DX2                !
 ! R26   R(13,19)                1.5428         estimate D2E/DX2                !
 ! R27   R(13,52)                1.1023         estimate D2E/DX2                !
 ! R28   R(14,15)                1.429          estimate D2E/DX2                !
 ! R29   R(14,16)                1.5253         estimate D2E/DX2                !
 ! R30   R(14,53)                1.107          estimate D2E/DX2                !
 ! R31   R(15,54)                0.9778         estimate D2E/DX2                !
 ! R32   R(16,17)                1.5446         estimate D2E/DX2                !
 ! R33   R(16,40)                1.4198         estimate D2E/DX2                !
 ! R34   R(16,55)                1.1016         estimate D2E/DX2                !
 ! R35   R(17,18)                1.4406         estimate D2E/DX2                !
 ! R36   R(17,22)                1.4046         estimate D2E/DX2                !
 ! R37   R(17,56)                1.1057         estimate D2E/DX2                !
 ! R38   R(18,19)                1.4285         estimate D2E/DX2                !
 ! R39   R(19,20)                1.5208         estimate D2E/DX2                !
 ! R40   R(19,57)                1.1111         estimate D2E/DX2                !
 ! R41   R(20,21)                1.4391         estimate D2E/DX2                !
 ! R42   R(20,58)                1.1023         estimate D2E/DX2                !
 ! R43   R(20,59)                1.1039         estimate D2E/DX2                !
 ! R44   R(21,60)                0.9716         estimate D2E/DX2                !
 ! R45   R(22,23)                1.4409         estimate D2E/DX2                !
 ! R46   R(23,24)                1.5315         estimate D2E/DX2                !
 ! R47   R(23,28)                1.5437         estimate D2E/DX2                !
 ! R48   R(23,61)                1.1011         estimate D2E/DX2                !
 ! R49   R(24,25)                1.5269         estimate D2E/DX2                !
 ! R50   R(24,39)                1.4367         estimate D2E/DX2                !
 ! R51   R(24,62)                1.1069         estimate D2E/DX2                !
 ! R52   R(25,26)                1.5275         estimate D2E/DX2                !
 ! R53   R(25,38)                1.4248         estimate D2E/DX2                !
 ! R54   R(25,63)                1.1081         estimate D2E/DX2                !
 ! R55   R(26,27)                1.4399         estimate D2E/DX2                !
 ! R56   R(26,31)                1.3905         estimate D2E/DX2                !
 ! R57   R(26,64)                1.1112         estimate D2E/DX2                !
 ! R58   R(27,28)                1.4399         estimate D2E/DX2                !
 ! R59   R(28,29)                1.5252         estimate D2E/DX2                !
 ! R60   R(28,65)                1.1088         estimate D2E/DX2                !
 ! R61   R(29,30)                1.4351         estimate D2E/DX2                !
 ! R62   R(29,66)                1.1017         estimate D2E/DX2                !
 ! R63   R(29,67)                1.097          estimate D2E/DX2                !
 ! R64   R(30,68)                0.9888         estimate D2E/DX2                !
 ! R65   R(31,32)                1.4532         estimate D2E/DX2                !
 ! R66   R(32,33)                1.5248         estimate D2E/DX2                !
 ! R67   R(32,69)                1.1005         estimate D2E/DX2                !
 ! R68   R(32,70)                1.1022         estimate D2E/DX2                !
 ! R69   R(33,34)                1.5357         estimate D2E/DX2                !
 ! R70   R(33,71)                1.1024         estimate D2E/DX2                !
 ! R71   R(33,72)                1.1008         estimate D2E/DX2                !
 ! R72   R(34,35)                1.5371         estimate D2E/DX2                !
 ! R73   R(34,73)                1.1012         estimate D2E/DX2                !
 ! R74   R(34,74)                1.1034         estimate D2E/DX2                !
 ! R75   R(35,36)                1.5261         estimate D2E/DX2                !
 ! R76   R(35,75)                1.1003         estimate D2E/DX2                !
 ! R77   R(35,76)                1.101          estimate D2E/DX2                !
 ! R78   R(36,37)                1.5056         estimate D2E/DX2                !
 ! R79   R(36,77)                1.0992         estimate D2E/DX2                !
 ! R80   R(36,78)                1.098          estimate D2E/DX2                !
 ! R81   R(37,79)                1.0273         estimate D2E/DX2                !
 ! R82   R(37,80)                1.0619         estimate D2E/DX2                !
 ! R83   R(37,81)                1.0607         estimate D2E/DX2                !
 ! R84   R(38,82)                0.9739         estimate D2E/DX2                !
 ! R85   R(39,83)                0.976          estimate D2E/DX2                !
 ! R86   R(40,84)                0.9837         estimate D2E/DX2                !
 ! A1    A(2,1,6)              112.7537         estimate D2E/DX2                !
 ! A2    A(1,2,3)              109.7235         estimate D2E/DX2                !
 ! A3    A(1,2,12)             104.123          estimate D2E/DX2                !
 ! A4    A(1,2,41)             110.2843         estimate D2E/DX2                !
 ! A5    A(3,2,12)             111.3319         estimate D2E/DX2                !
 ! A6    A(3,2,41)             110.8068         estimate D2E/DX2                !
 ! A7    A(12,2,41)            110.3803         estimate D2E/DX2                !
 ! A8    A(2,3,4)              109.9166         estimate D2E/DX2                !
 ! A9    A(2,3,11)             113.0484         estimate D2E/DX2                !
 ! A10   A(2,3,42)             106.5573         estimate D2E/DX2                !
 ! A11   A(4,3,11)             106.0855         estimate D2E/DX2                !
 ! A12   A(4,3,42)             109.7336         estimate D2E/DX2                !
 ! A13   A(11,3,42)            111.5128         estimate D2E/DX2                !
 ! A14   A(3,4,5)              111.5329         estimate D2E/DX2                !
 ! A15   A(3,4,10)             111.4925         estimate D2E/DX2                !
 ! A16   A(3,4,43)             108.1797         estimate D2E/DX2                !
 ! A17   A(5,4,10)             106.7296         estimate D2E/DX2                !
 ! A18   A(5,4,43)             108.7588         estimate D2E/DX2                !
 ! A19   A(10,4,43)            110.12           estimate D2E/DX2                !
 ! A20   A(4,5,6)              110.5154         estimate D2E/DX2                !
 ! A21   A(4,5,9)              110.2421         estimate D2E/DX2                !
 ! A22   A(4,5,44)             108.9654         estimate D2E/DX2                !
 ! A23   A(6,5,9)              109.6268         estimate D2E/DX2                !
 ! A24   A(6,5,44)             108.1538         estimate D2E/DX2                !
 ! A25   A(9,5,44)             109.2962         estimate D2E/DX2                !
 ! A26   A(1,6,5)              113.071          estimate D2E/DX2                !
 ! A27   A(1,6,7)              107.1622         estimate D2E/DX2                !
 ! A28   A(1,6,45)             109.7964         estimate D2E/DX2                !
 ! A29   A(5,6,7)              112.6795         estimate D2E/DX2                !
 ! A30   A(5,6,45)             106.8613         estimate D2E/DX2                !
 ! A31   A(7,6,45)             107.11           estimate D2E/DX2                !
 ! A32   A(6,7,8)              113.1708         estimate D2E/DX2                !
 ! A33   A(6,7,46)             109.1699         estimate D2E/DX2                !
 ! A34   A(6,7,47)             109.3734         estimate D2E/DX2                !
 ! A35   A(8,7,46)             110.1182         estimate D2E/DX2                !
 ! A36   A(8,7,47)             106.8381         estimate D2E/DX2                !
 ! A37   A(46,7,47)            108.0258         estimate D2E/DX2                !
 ! A38   A(7,8,48)             105.5584         estimate D2E/DX2                !
 ! A39   A(5,9,49)             106.0001         estimate D2E/DX2                !
 ! A40   A(4,10,50)            106.3692         estimate D2E/DX2                !
 ! A41   A(3,11,51)            108.195          estimate D2E/DX2                !
 ! A42   A(2,12,13)            117.2855         estimate D2E/DX2                !
 ! A43   A(12,13,14)           108.458          estimate D2E/DX2                !
 ! A44   A(12,13,19)           111.2087         estimate D2E/DX2                !
 ! A45   A(12,13,52)           111.098          estimate D2E/DX2                !
 ! A46   A(14,13,19)           106.0144         estimate D2E/DX2                !
 ! A47   A(14,13,52)           109.859          estimate D2E/DX2                !
 ! A48   A(19,13,52)           110.059          estimate D2E/DX2                !
 ! A49   A(13,14,15)           111.0184         estimate D2E/DX2                !
 ! A50   A(13,14,16)           108.3887         estimate D2E/DX2                !
 ! A51   A(13,14,53)           108.4031         estimate D2E/DX2                !
 ! A52   A(15,14,16)           110.2393         estimate D2E/DX2                !
 ! A53   A(15,14,53)           108.9571         estimate D2E/DX2                !
 ! A54   A(16,14,53)           109.8068         estimate D2E/DX2                !
 ! A55   A(14,15,54)           106.0209         estimate D2E/DX2                !
 ! A56   A(14,16,17)           111.0567         estimate D2E/DX2                !
 ! A57   A(14,16,40)           107.8687         estimate D2E/DX2                !
 ! A58   A(14,16,55)           106.2536         estimate D2E/DX2                !
 ! A59   A(17,16,40)           111.3191         estimate D2E/DX2                !
 ! A60   A(17,16,55)           109.666          estimate D2E/DX2                !
 ! A61   A(40,16,55)           110.5463         estimate D2E/DX2                !
 ! A62   A(16,17,18)           112.2005         estimate D2E/DX2                !
 ! A63   A(16,17,22)           113.8897         estimate D2E/DX2                !
 ! A64   A(16,17,56)           109.1096         estimate D2E/DX2                !
 ! A65   A(18,17,22)           107.0171         estimate D2E/DX2                !
 ! A66   A(18,17,56)           109.9606         estimate D2E/DX2                !
 ! A67   A(22,17,56)           104.3451         estimate D2E/DX2                !
 ! A68   A(17,18,19)           115.1428         estimate D2E/DX2                !
 ! A69   A(13,19,18)           110.468          estimate D2E/DX2                !
 ! A70   A(13,19,20)           116.974          estimate D2E/DX2                !
 ! A71   A(13,19,57)           106.6644         estimate D2E/DX2                !
 ! A72   A(18,19,20)           107.1559         estimate D2E/DX2                !
 ! A73   A(18,19,57)           110.2897         estimate D2E/DX2                !
 ! A74   A(20,19,57)           105.0981         estimate D2E/DX2                !
 ! A75   A(19,20,21)           110.5936         estimate D2E/DX2                !
 ! A76   A(19,20,58)           107.8523         estimate D2E/DX2                !
 ! A77   A(19,20,59)           108.842          estimate D2E/DX2                !
 ! A78   A(21,20,58)           110.3624         estimate D2E/DX2                !
 ! A79   A(21,20,59)           110.6257         estimate D2E/DX2                !
 ! A80   A(58,20,59)           108.487          estimate D2E/DX2                !
 ! A81   A(20,21,60)           107.7272         estimate D2E/DX2                !
 ! A82   A(17,22,23)           117.4977         estimate D2E/DX2                !
 ! A83   A(22,23,24)           107.6304         estimate D2E/DX2                !
 ! A84   A(22,23,28)           109.3331         estimate D2E/DX2                !
 ! A85   A(22,23,61)           111.37           estimate D2E/DX2                !
 ! A86   A(24,23,28)           110.0783         estimate D2E/DX2                !
 ! A87   A(24,23,61)           110.3936         estimate D2E/DX2                !
 ! A88   A(28,23,61)           108.0353         estimate D2E/DX2                !
 ! A89   A(23,24,25)           112.3242         estimate D2E/DX2                !
 ! A90   A(23,24,39)           109.3951         estimate D2E/DX2                !
 ! A91   A(23,24,62)           107.7598         estimate D2E/DX2                !
 ! A92   A(25,24,39)           109.5623         estimate D2E/DX2                !
 ! A93   A(25,24,62)           108.5055         estimate D2E/DX2                !
 ! A94   A(39,24,62)           109.2329         estimate D2E/DX2                !
 ! A95   A(24,25,26)           110.3728         estimate D2E/DX2                !
 ! A96   A(24,25,38)           106.1127         estimate D2E/DX2                !
 ! A97   A(24,25,63)           109.0634         estimate D2E/DX2                !
 ! A98   A(26,25,38)           113.023          estimate D2E/DX2                !
 ! A99   A(26,25,63)           107.2265         estimate D2E/DX2                !
 ! A100  A(38,25,63)           111.0193         estimate D2E/DX2                !
 ! A101  A(25,26,27)           108.5678         estimate D2E/DX2                !
 ! A102  A(25,26,31)           107.9115         estimate D2E/DX2                !
 ! A103  A(25,26,64)           111.1521         estimate D2E/DX2                !
 ! A104  A(27,26,31)           108.242          estimate D2E/DX2                !
 ! A105  A(27,26,64)           109.1412         estimate D2E/DX2                !
 ! A106  A(31,26,64)           111.7313         estimate D2E/DX2                !
 ! A107  A(26,27,28)           112.7606         estimate D2E/DX2                !
 ! A108  A(23,28,27)           109.303          estimate D2E/DX2                !
 ! A109  A(23,28,29)           115.0378         estimate D2E/DX2                !
 ! A110  A(23,28,65)           108.6356         estimate D2E/DX2                !
 ! A111  A(27,28,29)           106.6548         estimate D2E/DX2                !
 ! A112  A(27,28,65)           110.0172         estimate D2E/DX2                !
 ! A113  A(29,28,65)           107.1168         estimate D2E/DX2                !
 ! A114  A(28,29,30)           112.7407         estimate D2E/DX2                !
 ! A115  A(28,29,66)           107.6829         estimate D2E/DX2                !
 ! A116  A(28,29,67)           109.0956         estimate D2E/DX2                !
 ! A117  A(30,29,66)           108.17           estimate D2E/DX2                !
 ! A118  A(30,29,67)           110.1266         estimate D2E/DX2                !
 ! A119  A(66,29,67)           108.9285         estimate D2E/DX2                !
 ! A120  A(29,30,68)           110.2863         estimate D2E/DX2                !
 ! A121  A(26,31,32)           114.3377         estimate D2E/DX2                !
 ! A122  A(31,32,33)           108.8911         estimate D2E/DX2                !
 ! A123  A(31,32,69)           108.9475         estimate D2E/DX2                !
 ! A124  A(31,32,70)           108.7209         estimate D2E/DX2                !
 ! A125  A(33,32,69)           111.1096         estimate D2E/DX2                !
 ! A126  A(33,32,70)           110.7671         estimate D2E/DX2                !
 ! A127  A(69,32,70)           108.3551         estimate D2E/DX2                !
 ! A128  A(32,33,34)           114.0472         estimate D2E/DX2                !
 ! A129  A(32,33,71)           107.6831         estimate D2E/DX2                !
 ! A130  A(32,33,72)           109.179          estimate D2E/DX2                !
 ! A131  A(34,33,71)           110.7389         estimate D2E/DX2                !
 ! A132  A(34,33,72)           108.5943         estimate D2E/DX2                !
 ! A133  A(71,33,72)           106.3103         estimate D2E/DX2                !
 ! A134  A(33,34,35)           115.1405         estimate D2E/DX2                !
 ! A135  A(33,34,73)           108.958          estimate D2E/DX2                !
 ! A136  A(33,34,74)           106.8611         estimate D2E/DX2                !
 ! A137  A(35,34,73)           109.1667         estimate D2E/DX2                !
 ! A138  A(35,34,74)           110.5595         estimate D2E/DX2                !
 ! A139  A(73,34,74)           105.7208         estimate D2E/DX2                !
 ! A140  A(34,35,36)           112.893          estimate D2E/DX2                !
 ! A141  A(34,35,75)           110.9933         estimate D2E/DX2                !
 ! A142  A(34,35,76)           109.7959         estimate D2E/DX2                !
 ! A143  A(36,35,75)           108.4373         estimate D2E/DX2                !
 ! A144  A(36,35,76)           107.9073         estimate D2E/DX2                !
 ! A145  A(75,35,76)           106.5695         estimate D2E/DX2                !
 ! A146  A(35,36,37)           112.0828         estimate D2E/DX2                !
 ! A147  A(35,36,77)           111.5804         estimate D2E/DX2                !
 ! A148  A(35,36,78)           111.4487         estimate D2E/DX2                !
 ! A149  A(37,36,77)           107.0973         estimate D2E/DX2                !
 ! A150  A(37,36,78)           106.3482         estimate D2E/DX2                !
 ! A151  A(77,36,78)           108.0019         estimate D2E/DX2                !
 ! A152  A(36,37,79)           110.3585         estimate D2E/DX2                !
 ! A153  A(36,37,80)           111.1894         estimate D2E/DX2                !
 ! A154  A(36,37,81)           109.2224         estimate D2E/DX2                !
 ! A155  A(79,37,80)           106.6538         estimate D2E/DX2                !
 ! A156  A(79,37,81)           109.0526         estimate D2E/DX2                !
 ! A157  A(80,37,81)           110.3204         estimate D2E/DX2                !
 ! A158  A(25,38,82)           107.995          estimate D2E/DX2                !
 ! A159  A(24,39,83)           106.1665         estimate D2E/DX2                !
 ! A160  A(16,40,84)           105.5165         estimate D2E/DX2                !
 ! D1    D(6,1,2,3)            -61.7312         estimate D2E/DX2                !
 ! D2    D(6,1,2,12)           179.0142         estimate D2E/DX2                !
 ! D3    D(6,1,2,41)            60.6001         estimate D2E/DX2                !
 ! D4    D(2,1,6,5)             58.3772         estimate D2E/DX2                !
 ! D5    D(2,1,6,7)           -176.8608         estimate D2E/DX2                !
 ! D6    D(2,1,6,45)           -60.8576         estimate D2E/DX2                !
 ! D7    D(1,2,3,4)             58.6304         estimate D2E/DX2                !
 ! D8    D(1,2,3,11)           176.952          estimate D2E/DX2                !
 ! D9    D(1,2,3,42)           -60.2107         estimate D2E/DX2                !
 ! D10   D(12,2,3,4)           173.3568         estimate D2E/DX2                !
 ! D11   D(12,2,3,11)          -68.3216         estimate D2E/DX2                !
 ! D12   D(12,2,3,42)           54.5157         estimate D2E/DX2                !
 ! D13   D(41,2,3,4)           -63.3897         estimate D2E/DX2                !
 ! D14   D(41,2,3,11)           54.932          estimate D2E/DX2                !
 ! D15   D(41,2,3,42)          177.7693         estimate D2E/DX2                !
 ! D16   D(1,2,12,13)         -149.1559         estimate D2E/DX2                !
 ! D17   D(3,2,12,13)           92.6893         estimate D2E/DX2                !
 ! D18   D(41,2,12,13)         -30.8076         estimate D2E/DX2                !
 ! D19   D(2,3,4,5)            -52.9589         estimate D2E/DX2                !
 ! D20   D(2,3,4,10)          -172.1646         estimate D2E/DX2                !
 ! D21   D(2,3,4,43)            66.6088         estimate D2E/DX2                !
 ! D22   D(11,3,4,5)          -175.4972         estimate D2E/DX2                !
 ! D23   D(11,3,4,10)           65.2972         estimate D2E/DX2                !
 ! D24   D(11,3,4,43)          -55.9295         estimate D2E/DX2                !
 ! D25   D(42,3,4,5)            63.9121         estimate D2E/DX2                !
 ! D26   D(42,3,4,10)          -55.2935         estimate D2E/DX2                !
 ! D27   D(42,3,4,43)         -176.5202         estimate D2E/DX2                !
 ! D28   D(2,3,11,51)           74.6831         estimate D2E/DX2                !
 ! D29   D(4,3,11,51)         -164.7877         estimate D2E/DX2                !
 ! D30   D(42,3,11,51)         -45.3563         estimate D2E/DX2                !
 ! D31   D(3,4,5,6)             48.429          estimate D2E/DX2                !
 ! D32   D(3,4,5,9)            -72.9189         estimate D2E/DX2                !
 ! D33   D(3,4,5,44)           167.1375         estimate D2E/DX2                !
 ! D34   D(10,4,5,6)           170.4262         estimate D2E/DX2                !
 ! D35   D(10,4,5,9)            49.0783         estimate D2E/DX2                !
 ! D36   D(10,4,5,44)          -70.8653         estimate D2E/DX2                !
 ! D37   D(43,4,5,6)           -70.7954         estimate D2E/DX2                !
 ! D38   D(43,4,5,9)           167.8567         estimate D2E/DX2                !
 ! D39   D(43,4,5,44)           47.9131         estimate D2E/DX2                !
 ! D40   D(3,4,10,50)          -45.38           estimate D2E/DX2                !
 ! D41   D(5,4,10,50)         -167.4026         estimate D2E/DX2                !
 ! D42   D(43,4,10,50)          74.7099         estimate D2E/DX2                !
 ! D43   D(4,5,6,1)            -50.3953         estimate D2E/DX2                !
 ! D44   D(4,5,6,7)           -172.1041         estimate D2E/DX2                !
 ! D45   D(4,5,6,45)            70.5189         estimate D2E/DX2                !
 ! D46   D(9,5,6,1)             71.3163         estimate D2E/DX2                !
 ! D47   D(9,5,6,7)            -50.3925         estimate D2E/DX2                !
 ! D48   D(9,5,6,45)          -167.7695         estimate D2E/DX2                !
 ! D49   D(44,5,6,1)          -169.5963         estimate D2E/DX2                !
 ! D50   D(44,5,6,7)            68.6949         estimate D2E/DX2                !
 ! D51   D(44,5,6,45)          -48.6821         estimate D2E/DX2                !
 ! D52   D(4,5,9,49)           -39.246          estimate D2E/DX2                !
 ! D53   D(6,5,9,49)          -161.1214         estimate D2E/DX2                !
 ! D54   D(44,5,9,49)           80.4976         estimate D2E/DX2                !
 ! D55   D(1,6,7,8)            -59.7744         estimate D2E/DX2                !
 ! D56   D(1,6,7,46)           177.2082         estimate D2E/DX2                !
 ! D57   D(1,6,7,47)            59.205          estimate D2E/DX2                !
 ! D58   D(5,6,7,8)             65.2245         estimate D2E/DX2                !
 ! D59   D(5,6,7,46)           -57.7929         estimate D2E/DX2                !
 ! D60   D(5,6,7,47)          -175.7961         estimate D2E/DX2                !
 ! D61   D(45,6,7,8)          -177.5457         estimate D2E/DX2                !
 ! D62   D(45,6,7,46)           59.4368         estimate D2E/DX2                !
 ! D63   D(45,6,7,47)          -58.5663         estimate D2E/DX2                !
 ! D64   D(6,7,8,48)           -43.8094         estimate D2E/DX2                !
 ! D65   D(46,7,8,48)           78.6819         estimate D2E/DX2                !
 ! D66   D(47,7,8,48)         -164.2419         estimate D2E/DX2                !
 ! D67   D(2,12,13,14)        -128.1226         estimate D2E/DX2                !
 ! D68   D(2,12,13,19)         115.6781         estimate D2E/DX2                !
 ! D69   D(2,12,13,52)          -7.2824         estimate D2E/DX2                !
 ! D70   D(12,13,14,15)         64.3549         estimate D2E/DX2                !
 ! D71   D(12,13,14,16)        -56.8617         estimate D2E/DX2                !
 ! D72   D(12,13,14,53)       -176.001          estimate D2E/DX2                !
 ! D73   D(19,13,14,15)       -176.1345         estimate D2E/DX2                !
 ! D74   D(19,13,14,16)         62.649          estimate D2E/DX2                !
 ! D75   D(19,13,14,53)        -56.4903         estimate D2E/DX2                !
 ! D76   D(52,13,14,15)        -57.2487         estimate D2E/DX2                !
 ! D77   D(52,13,14,16)       -178.4652         estimate D2E/DX2                !
 ! D78   D(52,13,14,53)         62.3955         estimate D2E/DX2                !
 ! D79   D(12,13,19,18)         54.4594         estimate D2E/DX2                !
 ! D80   D(12,13,19,20)        -68.4456         estimate D2E/DX2                !
 ! D81   D(12,13,19,57)        174.333          estimate D2E/DX2                !
 ! D82   D(14,13,19,18)        -63.2315         estimate D2E/DX2                !
 ! D83   D(14,13,19,20)        173.8635         estimate D2E/DX2                !
 ! D84   D(14,13,19,57)         56.6421         estimate D2E/DX2                !
 ! D85   D(52,13,19,18)        178.0147         estimate D2E/DX2                !
 ! D86   D(52,13,19,20)         55.1097         estimate D2E/DX2                !
 ! D87   D(52,13,19,57)        -62.1117         estimate D2E/DX2                !
 ! D88   D(13,14,15,54)       -161.8966         estimate D2E/DX2                !
 ! D89   D(16,14,15,54)        -41.7738         estimate D2E/DX2                !
 ! D90   D(53,14,15,54)         78.7906         estimate D2E/DX2                !
 ! D91   D(13,14,16,17)        -56.728          estimate D2E/DX2                !
 ! D92   D(13,14,16,40)       -178.9662         estimate D2E/DX2                !
 ! D93   D(13,14,16,55)         62.4729         estimate D2E/DX2                !
 ! D94   D(15,14,16,17)       -178.424          estimate D2E/DX2                !
 ! D95   D(15,14,16,40)         59.3378         estimate D2E/DX2                !
 ! D96   D(15,14,16,55)        -59.2231         estimate D2E/DX2                !
 ! D97   D(53,14,16,17)         61.523          estimate D2E/DX2                !
 ! D98   D(53,14,16,40)        -60.7151         estimate D2E/DX2                !
 ! D99   D(53,14,16,55)       -179.2761         estimate D2E/DX2                !
 ! D100  D(14,16,17,18)         48.8701         estimate D2E/DX2                !
 ! D101  D(14,16,17,22)        170.6371         estimate D2E/DX2                !
 ! D102  D(14,16,17,56)        -73.2438         estimate D2E/DX2                !
 ! D103  D(40,16,17,18)        169.0818         estimate D2E/DX2                !
 ! D104  D(40,16,17,22)        -69.1512         estimate D2E/DX2                !
 ! D105  D(40,16,17,56)         46.9679         estimate D2E/DX2                !
 ! D106  D(55,16,17,18)        -68.2648         estimate D2E/DX2                !
 ! D107  D(55,16,17,22)         53.5022         estimate D2E/DX2                !
 ! D108  D(55,16,17,56)        169.6213         estimate D2E/DX2                !
 ! D109  D(14,16,40,84)       -158.758          estimate D2E/DX2                !
 ! D110  D(17,16,40,84)         79.1656         estimate D2E/DX2                !
 ! D111  D(55,16,40,84)        -42.98           estimate D2E/DX2                !
 ! D112  D(16,17,18,19)        -50.163          estimate D2E/DX2                !
 ! D113  D(22,17,18,19)       -175.7778         estimate D2E/DX2                !
 ! D114  D(56,17,18,19)         71.4653         estimate D2E/DX2                !
 ! D115  D(16,17,22,23)        -54.0929         estimate D2E/DX2                !
 ! D116  D(18,17,22,23)         70.4995         estimate D2E/DX2                !
 ! D117  D(56,17,22,23)       -172.9642         estimate D2E/DX2                !
 ! D118  D(17,18,19,13)         58.2883         estimate D2E/DX2                !
 ! D119  D(17,18,19,20)       -173.2552         estimate D2E/DX2                !
 ! D120  D(17,18,19,57)        -59.3786         estimate D2E/DX2                !
 ! D121  D(13,19,20,21)         66.1067         estimate D2E/DX2                !
 ! D122  D(13,19,20,58)       -173.1275         estimate D2E/DX2                !
 ! D123  D(13,19,20,59)        -55.6179         estimate D2E/DX2                !
 ! D124  D(18,19,20,21)        -58.4874         estimate D2E/DX2                !
 ! D125  D(18,19,20,58)         62.2785         estimate D2E/DX2                !
 ! D126  D(18,19,20,59)        179.7881         estimate D2E/DX2                !
 ! D127  D(57,19,20,21)       -175.8212         estimate D2E/DX2                !
 ! D128  D(57,19,20,58)        -55.0554         estimate D2E/DX2                !
 ! D129  D(57,19,20,59)         62.4542         estimate D2E/DX2                !
 ! D130  D(19,20,21,60)        167.3501         estimate D2E/DX2                !
 ! D131  D(58,20,21,60)         48.0898         estimate D2E/DX2                !
 ! D132  D(59,20,21,60)        -71.9821         estimate D2E/DX2                !
 ! D133  D(17,22,23,24)        121.903          estimate D2E/DX2                !
 ! D134  D(17,22,23,28)       -118.5426         estimate D2E/DX2                !
 ! D135  D(17,22,23,61)          0.7724         estimate D2E/DX2                !
 ! D136  D(22,23,24,25)        168.6091         estimate D2E/DX2                !
 ! D137  D(22,23,24,39)        -69.5002         estimate D2E/DX2                !
 ! D138  D(22,23,24,62)         49.1501         estimate D2E/DX2                !
 ! D139  D(28,23,24,25)         49.53           estimate D2E/DX2                !
 ! D140  D(28,23,24,39)        171.4207         estimate D2E/DX2                !
 ! D141  D(28,23,24,62)        -69.929          estimate D2E/DX2                !
 ! D142  D(61,23,24,25)        -69.6509         estimate D2E/DX2                !
 ! D143  D(61,23,24,39)         52.2398         estimate D2E/DX2                !
 ! D144  D(61,23,24,62)        170.8901         estimate D2E/DX2                !
 ! D145  D(22,23,28,27)       -172.2279         estimate D2E/DX2                !
 ! D146  D(22,23,28,29)         67.8528         estimate D2E/DX2                !
 ! D147  D(22,23,28,65)        -52.17           estimate D2E/DX2                !
 ! D148  D(24,23,28,27)        -54.1946         estimate D2E/DX2                !
 ! D149  D(24,23,28,29)       -174.1139         estimate D2E/DX2                !
 ! D150  D(24,23,28,65)         65.8633         estimate D2E/DX2                !
 ! D151  D(61,23,28,27)         66.416          estimate D2E/DX2                !
 ! D152  D(61,23,28,29)        -53.5033         estimate D2E/DX2                !
 ! D153  D(61,23,28,65)       -173.5261         estimate D2E/DX2                !
 ! D154  D(23,24,25,26)        -51.1158         estimate D2E/DX2                !
 ! D155  D(23,24,25,38)       -173.9038         estimate D2E/DX2                !
 ! D156  D(23,24,25,63)         66.4372         estimate D2E/DX2                !
 ! D157  D(39,24,25,26)       -172.9112         estimate D2E/DX2                !
 ! D158  D(39,24,25,38)         64.3008         estimate D2E/DX2                !
 ! D159  D(39,24,25,63)        -55.3583         estimate D2E/DX2                !
 ! D160  D(62,24,25,26)         67.907          estimate D2E/DX2                !
 ! D161  D(62,24,25,38)        -54.881          estimate D2E/DX2                !
 ! D162  D(62,24,25,63)       -174.5401         estimate D2E/DX2                !
 ! D163  D(23,24,39,83)       -175.6185         estimate D2E/DX2                !
 ! D164  D(25,24,39,83)        -52.0819         estimate D2E/DX2                !
 ! D165  D(62,24,39,83)         66.6506         estimate D2E/DX2                !
 ! D166  D(24,25,26,27)         56.7568         estimate D2E/DX2                !
 ! D167  D(24,25,26,31)        173.861          estimate D2E/DX2                !
 ! D168  D(24,25,26,64)        -63.3            estimate D2E/DX2                !
 ! D169  D(38,25,26,27)        175.4079         estimate D2E/DX2                !
 ! D170  D(38,25,26,31)        -67.4879         estimate D2E/DX2                !
 ! D171  D(38,25,26,64)         55.3511         estimate D2E/DX2                !
 ! D172  D(63,25,26,27)        -61.9229         estimate D2E/DX2                !
 ! D173  D(63,25,26,31)         55.1813         estimate D2E/DX2                !
 ! D174  D(63,25,26,64)        178.0203         estimate D2E/DX2                !
 ! D175  D(24,25,38,82)       -175.8184         estimate D2E/DX2                !
 ! D176  D(26,25,38,82)         63.0852         estimate D2E/DX2                !
 ! D177  D(63,25,38,82)        -57.4458         estimate D2E/DX2                !
 ! D178  D(25,26,27,28)        -65.2452         estimate D2E/DX2                !
 ! D179  D(31,26,27,28)        177.8623         estimate D2E/DX2                !
 ! D180  D(64,26,27,28)         56.0553         estimate D2E/DX2                !
 ! D181  D(25,26,31,32)        169.9983         estimate D2E/DX2                !
 ! D182  D(27,26,31,32)        -72.6866         estimate D2E/DX2                !
 ! D183  D(64,26,31,32)         47.5143         estimate D2E/DX2                !
 ! D184  D(26,27,28,23)         64.1143         estimate D2E/DX2                !
 ! D185  D(26,27,28,29)       -170.9372         estimate D2E/DX2                !
 ! D186  D(26,27,28,65)        -55.0918         estimate D2E/DX2                !
 ! D187  D(23,28,29,30)         62.0518         estimate D2E/DX2                !
 ! D188  D(23,28,29,66)       -178.7049         estimate D2E/DX2                !
 ! D189  D(23,28,29,67)        -60.627          estimate D2E/DX2                !
 ! D190  D(27,28,29,30)        -59.3182         estimate D2E/DX2                !
 ! D191  D(27,28,29,66)         59.9251         estimate D2E/DX2                !
 ! D192  D(27,28,29,67)        178.003          estimate D2E/DX2                !
 ! D193  D(65,28,29,30)       -177.0917         estimate D2E/DX2                !
 ! D194  D(65,28,29,66)        -57.8484         estimate D2E/DX2                !
 ! D195  D(65,28,29,67)         60.2294         estimate D2E/DX2                !
 ! D196  D(28,29,30,68)       -114.692          estimate D2E/DX2                !
 ! D197  D(66,29,30,68)        126.3479         estimate D2E/DX2                !
 ! D198  D(67,29,30,68)          7.4078         estimate D2E/DX2                !
 ! D199  D(26,31,32,33)        145.9522         estimate D2E/DX2                !
 ! D200  D(26,31,32,69)         24.6237         estimate D2E/DX2                !
 ! D201  D(26,31,32,70)        -93.2734         estimate D2E/DX2                !
 ! D202  D(31,32,33,34)        -51.9722         estimate D2E/DX2                !
 ! D203  D(31,32,33,71)       -175.2882         estimate D2E/DX2                !
 ! D204  D(31,32,33,72)         69.6888         estimate D2E/DX2                !
 ! D205  D(69,32,33,34)         68.0269         estimate D2E/DX2                !
 ! D206  D(69,32,33,71)        -55.2891         estimate D2E/DX2                !
 ! D207  D(69,32,33,72)       -170.3121         estimate D2E/DX2                !
 ! D208  D(70,32,33,34)       -171.4818         estimate D2E/DX2                !
 ! D209  D(70,32,33,71)         65.2022         estimate D2E/DX2                !
 ! D210  D(70,32,33,72)        -49.8207         estimate D2E/DX2                !
 ! D211  D(32,33,34,35)        -61.5066         estimate D2E/DX2                !
 ! D212  D(32,33,34,73)        175.4904         estimate D2E/DX2                !
 ! D213  D(32,33,34,74)         61.6951         estimate D2E/DX2                !
 ! D214  D(71,33,34,35)         60.1364         estimate D2E/DX2                !
 ! D215  D(71,33,34,73)        -62.8666         estimate D2E/DX2                !
 ! D216  D(71,33,34,74)       -176.6619         estimate D2E/DX2                !
 ! D217  D(72,33,34,35)        176.51           estimate D2E/DX2                !
 ! D218  D(72,33,34,73)         53.507          estimate D2E/DX2                !
 ! D219  D(72,33,34,74)        -60.2883         estimate D2E/DX2                !
 ! D220  D(33,34,35,36)        165.3301         estimate D2E/DX2                !
 ! D221  D(33,34,35,75)         43.3413         estimate D2E/DX2                !
 ! D222  D(33,34,35,76)        -74.224          estimate D2E/DX2                !
 ! D223  D(73,34,35,36)        -71.7782         estimate D2E/DX2                !
 ! D224  D(73,34,35,75)        166.2329         estimate D2E/DX2                !
 ! D225  D(73,34,35,76)         48.6677         estimate D2E/DX2                !
 ! D226  D(74,34,35,36)         44.1174         estimate D2E/DX2                !
 ! D227  D(74,34,35,75)        -77.8715         estimate D2E/DX2                !
 ! D228  D(74,34,35,76)        164.5633         estimate D2E/DX2                !
 ! D229  D(34,35,36,37)        -69.9504         estimate D2E/DX2                !
 ! D230  D(34,35,36,77)         50.1593         estimate D2E/DX2                !
 ! D231  D(34,35,36,78)        170.9878         estimate D2E/DX2                !
 ! D232  D(75,35,36,37)         53.4653         estimate D2E/DX2                !
 ! D233  D(75,35,36,77)        173.575          estimate D2E/DX2                !
 ! D234  D(75,35,36,78)        -65.5966         estimate D2E/DX2                !
 ! D235  D(76,35,36,37)        168.5298         estimate D2E/DX2                !
 ! D236  D(76,35,36,77)        -71.3605         estimate D2E/DX2                !
 ! D237  D(76,35,36,78)         49.468          estimate D2E/DX2                !
 ! D238  D(35,36,37,79)         35.2391         estimate D2E/DX2                !
 ! D239  D(35,36,37,80)        -82.9055         estimate D2E/DX2                !
 ! D240  D(35,36,37,81)        155.1154         estimate D2E/DX2                !
 ! D241  D(77,36,37,79)        -87.4491         estimate D2E/DX2                !
 ! D242  D(77,36,37,80)        154.4062         estimate D2E/DX2                !
 ! D243  D(77,36,37,81)         32.4271         estimate D2E/DX2                !
 ! D244  D(78,36,37,79)        157.2617         estimate D2E/DX2                !
 ! D245  D(78,36,37,80)         39.117          estimate D2E/DX2                !
 ! D246  D(78,36,37,81)        -82.8621         estimate D2E/DX2                !
 --------------------------------------------------------------------------------
 Trust Radius=3.00D-01 FncErr=1.00D-07 GrdErr=1.00D-06
 Number of steps in this run=    504 maximum allowed number of steps=    504.
 GradGradGradGradGradGradGradGradGradGradGradGradGradGradGradGradGradGrad

 Leave Link  103 at Sat May 21 18:53:20 2016, MaxMem= 10737418240 cpu:         0.2
 (Enter /share/apps//g09/l202.exe)
 Stoichiometry    C23H44NO16(1+)
 Framework group  C1[X(C23H44NO16)]
 Deg. of freedom   246
 Full point group                 C1      NOp   1
 Largest Abelian subgroup         C1      NOp   1
 Largest concise Abelian subgroup C1      NOp   1
                         Standard orientation:                         
 ---------------------------------------------------------------------
 Center     Atomic      Atomic             Coordinates (Angstroms)
 Number     Number       Type             X           Y           Z
 ---------------------------------------------------------------------
      1          8           0        2.129409    1.599862    0.449516
      2          6           0        3.044338    0.520808    0.277730
      3          6           0        3.781125    0.672986   -1.066256
      4          6           0        4.524602    2.006948   -1.104005
      5          6           0        3.596559    3.175568   -0.776987
      6          6           0        2.778978    2.876024    0.489456
      7          6           0        1.699314    3.923148    0.754754
      8          8           0        0.676012    3.949234   -0.255281
      9          8           0        2.706798    3.427330   -1.877895
     10          8           0        5.070397    2.265164   -2.397750
     11          8           0        4.763418   -0.331341   -1.278975
     12          8           0        2.227350   -0.627661    0.287388
     13          6           0        2.800572   -1.838777    0.802767
     14          6           0        2.593153   -2.951556   -0.230082
     15          8           0        3.306025   -2.670667   -1.436251
     16          6           0        1.099556   -3.070846   -0.515482
     17          6           0        0.305854   -3.335716    0.782907
     18          8           0        0.667852   -2.423859    1.837770
     19          6           0        2.070368   -2.302326    2.080281
     20          6           0        2.237882   -1.440254    3.321856
     21          8           0        1.626256   -0.151839    3.129790
     22          8           0       -1.087282   -3.249988    0.625501
     23          6           0       -1.618843   -2.039367    0.052684
     24          6           0       -2.406726   -2.426945   -1.202173
     25          6           0       -3.245655   -1.270284   -1.740578
     26          6           0       -4.096086   -0.665823   -0.624971
     27          8           0       -3.223911   -0.251348    0.443080
     28          6           0       -2.552761   -1.357347    1.075209
     29          6           0       -1.857069   -0.797560    2.311729
     30          8           0       -0.909138    0.232757    1.996270
     31          8           0       -4.728603    0.463246   -1.133387
     32          6           0       -5.750578    1.020124   -0.263157
     33          6           0       -5.759051    2.536841   -0.419290
     34          6           0       -4.380702    3.191455   -0.246164
     35          6           0       -3.733311    2.995243    1.134093
     36          6           0       -2.247398    3.343059    1.147744
     37          7           0       -1.425532    2.345902    0.375010
     38          8           0       -4.024298   -1.808686   -2.805368
     39          8           0       -1.495207   -2.874031   -2.218689
     40          8           0        0.917915   -4.120072   -1.454660
     41          1           0        3.766563    0.489445    1.122834
     42          1           0        3.005925    0.655258   -1.854294
     43          1           0        5.334527    1.972853   -0.348469
     44          1           0        4.207818    4.077904   -0.587240
     45          1           0        3.486134    2.911612    1.345413
     46          1           0        2.171532    4.916195    0.842174
     47          1           0        1.199809    3.698619    1.708656
     48          1           0        1.153997    3.891552   -1.118486
     49          1           0        3.240756    3.306702   -2.689393
     50          1           0        5.494382    1.434864   -2.688305
     51          1           0        4.300315   -1.171949   -1.505236
     52          1           0        3.876520   -1.713053    1.006798
     53          1           0        2.970205   -3.900272    0.197860
     54          1           0        2.906672   -3.239086   -2.124352
     55          1           0        0.790438   -2.106338   -0.948731
     56          1           0        0.481181   -4.377822    1.108113
     57          1           0        2.501180   -3.289530    2.353107
     58          1           0        1.764174   -1.967707    4.165910
     59          1           0        3.314977   -1.331131    3.537435
     60          1           0        1.576351    0.284154    3.996693
     61          1           0       -0.816209   -1.329927   -0.202080
     62          1           0       -3.086381   -3.257471   -0.931004
     63          1           0       -2.569416   -0.472441   -2.106685
     64          1           0       -4.826919   -1.405187   -0.232463
     65          1           0       -3.295895   -2.101106    1.427468
     66          1           0       -2.631746   -0.363677    2.963929
     67          1           0       -1.360275   -1.616879    2.845792
     68          1           0        0.007196   -0.064409    2.219495
     69          1           0       -5.532288    0.729833    0.775684
     70          1           0       -6.726668    0.592744   -0.545184
     71          1           0       -6.479062    2.944440    0.309210
     72          1           0       -6.147804    2.795600   -1.416093
     73          1           0       -4.467771    4.269248   -0.454756
     74          1           0       -3.731286    2.784803   -1.040087
     75          1           0       -3.851031    1.957644    1.480799
     76          1           0       -4.237200    3.633401    1.876399
     77          1           0       -2.059234    4.330573    0.703202
     78          1           0       -1.845763    3.348840    2.169641
     79          1           0       -1.949373    2.006970   -0.441132
     80          1           0       -1.199684    1.493767    0.966992
     81          1           0       -0.531986    2.811692    0.043882
     82          1           0       -4.522034   -1.077807   -3.213550
     83          1           0       -2.035567   -3.039855   -3.014378
     84          1           0        0.042999   -3.951594   -1.871491
 ---------------------------------------------------------------------
 Rotational constants (GHZ):      0.1073042      0.0727536      0.0562501
 Leave Link  202 at Sat May 21 18:53:21 2016, MaxMem= 10737418240 cpu:         0.7
 (Enter /share/apps//g09/l301.exe)
 Standard basis: 6-311+G(d,p) (5D, 7F)
 Ernie: Thresh=  0.10000D-02 Tol=  0.10000D-05 Strict=F.
 There are  1184 symmetry adapted cartesian basis functions of A   symmetry.
 There are  1144 symmetry adapted basis functions of A   symmetry.
  1144 basis functions,  1792 primitive gaussians,  1184 cartesian basis functions
   158 alpha electrons      158 beta electrons
       nuclear repulsion energy      5869.8140801825 Hartrees.
 IExCor= 1009 DFT=T Ex+Corr=PBE1PBE ExCW=0 ScaHFX=  0.250000
 ScaDFX=  0.750000  0.750000  1.000000  1.000000 ScalE2=  1.000000  1.000000
 IRadAn=      0 IRanWt=     -1 IRanGd=            0 ICorTp=0 IEmpDi=131
 NAtoms=   84 NActive=   84 NUniq=   84 SFac= 1.00D+00 NAtFMM=   60 NAOKFM=T Big=T
 Integral buffers will be    131072 words long.
 Raffenetti 2 integral format.
 Two-electron integral symmetry is turned on.
 R6Disp:  Grimme-D3 Dispersion energy=       -0.0815983126 Hartrees.
 Nuclear repulsion after empirical dispersion term =     5869.7324818698 Hartrees.
 Leave Link  301 at Sat May 21 18:53:21 2016, MaxMem= 10737418240 cpu:         0.8
 (Enter /share/apps//g09/l302.exe)
 NPDir=0 NMtPBC=     1 NCelOv=     1 NCel=       1 NClECP=     1 NCelD=      1
         NCelK=      1 NCelE2=     1 NClLst=     1 CellRange=     0.0.
 One-electron integrals computed using PRISM.
 NBasis=  1144 RedAO= T EigKep=  1.51D-06  NBF=  1144
 NBsUse=  1144 1.00D-06 EigRej= -1.00D+00 NBFU=  1144
 Precomputing XC quadrature grid using
 IXCGrd= 4 IRadAn=           0 IRanWt=          -1 IRanGd=           0 AccXCQ= 0.00D+00.
 Generated NRdTot=       0 NPtTot=           0 NUsed=           0 NTot=          32
 NSgBfM=  1105  1106  1107  1107  1107 MxSgAt=    84 MxSgA2=    84.
 Leave Link  302 at Sat May 21 18:53:28 2016, MaxMem= 10737418240 cpu:        59.6
 (Enter /share/apps//g09/l303.exe)
 DipDrv:  MaxL=1.
 Leave Link  303 at Sat May 21 18:53:33 2016, MaxMem= 10737418240 cpu:        43.8
 (Enter /share/apps//g09/l401.exe)
 ExpMin= 4.38D-02 ExpMax= 8.59D+03 ExpMxC= 1.30D+03 IAcc=2 IRadAn=         4 AccDes= 0.00D+00
 Harris functional with IExCor= 1009 and IRadAn=       4 diagonalized for initial guess.
 HarFok:  IExCor= 1009 AccDes= 0.00D+00 IRadAn=         4 IDoV= 1 UseB2=F ITyADJ=14
 ICtDFT=  3500011 ScaDFX=  1.000000  1.000000  1.000000  1.000000
 FoFCou: FMM=F IPFlag=           0 FMFlag=      100000 FMFlg1=        2001
         NFxFlg=           0 DoJE=T BraDBF=F KetDBF=T FulRan=T
         wScrn=  0.000000 ICntrl=     500 IOpCl=  0 I1Cent=   200000004 NGrid=           0
         NMat0=    1 NMatS0=      1 NMatT0=    0 NMatD0=    1 NMtDS0=    0 NMtDT0=    0
 Petite list used in FoFCou.
 Harris En= -2159.71808655453    
 JPrj=0 DoOrth=F DoCkMO=F.
 Leave Link  401 at Sat May 21 18:54:20 2016, MaxMem= 10737418240 cpu:       474.6
 (Enter /share/apps//g09/l502.exe)
 Closed shell SCF:
 Using DIIS extrapolation, IDIIS=  1040.
 Integral symmetry usage will be decided dynamically.
 IVT=     4256630 IEndB=     4256630 NGot= 10737418240 MDV= 10734581291
 LenX= 10734581291 LenY= 10733178251
 Requested convergence on RMS density matrix=1.00D-08 within 128 cycles.
 Requested convergence on MAX density matrix=1.00D-06.
 Requested convergence on             energy=1.00D-06.
 No special actions if energy rises.
 Fock matrices will be formed incrementally for  20 cycles.

 Cycle   1  Pass 1  IDiag  1:
 FoFJK:  IHMeth= 1 ICntrl=       0 DoSepK=F KAlg= 0 I1Cent=   0 FoldK=F
 IRaf= 780000000 NMat=   1 IRICut=       1 DoRegI=T DoRafI=F ISym2E= 0.
 FoFCou: FMM=T IPFlag=           0 FMFlag=      100000 FMFlg1=        2001
         NFxFlg=           0 DoJE=F BraDBF=F KetDBF=F FulRan=T
         wScrn=  0.000000 ICntrl=       0 IOpCl=  0 I1Cent=           0 NGrid=           0
         NMat0=    1 NMatS0=      1 NMatT0=    0 NMatD0=    1 NMtDS0=    0 NMtDT0=    0
 Symmetry not used in FoFCou.
 FMM levels:  10  Number of levels for PrismC:   9
 E= -2158.70989046105    
 DIIS: error= 1.51D-02 at cycle   1 NSaved=   1.
 NSaved= 1 IEnMin= 1 EnMin= -2158.70989046105     IErMin= 1 ErrMin= 1.51D-02
 ErrMax= 1.51D-02  0.00D+00 EMaxC= 1.00D-01 BMatC= 1.01D+00 BMatP= 1.01D+00
 IDIUse=3 WtCom= 8.49D-01 WtEn= 1.51D-01
 Coeff-Com:  0.100D+01
 Coeff-En:   0.100D+01
 Coeff:      0.100D+01
 Gap=     0.244 Goal=   None    Shift=    0.000
 GapD=    0.244 DampG=1.000 DampE=0.500 DampFc=0.5000 IDamp=-1.
 Damping current iteration by 5.00D-01
 RMSDP=9.35D-03 MaxDP=1.73D+00              OVMax= 1.42D-01

 Cycle   2  Pass 1  IDiag  1:
 RMSU=  4.58D-03    CP:  1.02D+00
 E= -2158.98988208222     Delta-E=       -0.279991621168 Rises=F Damp=T
 DIIS: error= 3.50D-03 at cycle   2 NSaved=   2.
 NSaved= 2 IEnMin= 2 EnMin= -2158.98988208222     IErMin= 2 ErrMin= 3.50D-03
 ErrMax= 3.50D-03  0.00D+00 EMaxC= 1.00D-01 BMatC= 8.05D-02 BMatP= 1.01D+00
 IDIUse=3 WtCom= 9.65D-01 WtEn= 3.50D-02
 Coeff-Com:  0.614D-01 0.939D+00
 Coeff-En:   0.161D+00 0.839D+00
 Coeff:      0.649D-01 0.935D+00
 Gap=     0.270 Goal=   None    Shift=    0.000
 RMSDP=4.40D-03 MaxDP=1.31D+00 DE=-2.80D-01 OVMax= 7.94D-02

 Cycle   3  Pass 1  IDiag  1:
 RMSU=  2.79D-03    CP:  9.41D-01  1.06D+00
 E= -2159.35861004671     Delta-E=       -0.368727964486 Rises=F Damp=F
 DIIS: error= 3.45D-03 at cycle   3 NSaved=   3.
 NSaved= 3 IEnMin= 3 EnMin= -2159.35861004671     IErMin= 3 ErrMin= 3.45D-03
 ErrMax= 3.45D-03  0.00D+00 EMaxC= 1.00D-01 BMatC= 4.40D-02 BMatP= 8.05D-02
 IDIUse=3 WtCom= 9.66D-01 WtEn= 3.45D-02
 Coeff-Com: -0.672D-01 0.405D+00 0.662D+00
 Coeff-En:   0.000D+00 0.000D+00 0.100D+01
 Coeff:     -0.649D-01 0.391D+00 0.674D+00
 Gap=     0.258 Goal=   None    Shift=    0.000
 RMSDP=1.57D-03 MaxDP=4.50D-01 DE=-3.69D-01 OVMax= 1.53D-02

 Cycle   4  Pass 1  IDiag  1:
 RMSU=  1.17D-03    CP:  9.60D-01  1.16D+00  7.97D-01
 E= -2159.38588882954     Delta-E=       -0.027278782831 Rises=F Damp=F
 DIIS: error= 1.11D-03 at cycle   4 NSaved=   4.
 NSaved= 4 IEnMin= 4 EnMin= -2159.38588882954     IErMin= 4 ErrMin= 1.11D-03
 ErrMax= 1.11D-03  0.00D+00 EMaxC= 1.00D-01 BMatC= 6.24D-03 BMatP= 4.40D-02
 IDIUse=3 WtCom= 9.89D-01 WtEn= 1.11D-02
 Coeff-Com: -0.363D-01 0.125D+00 0.348D+00 0.562D+00
 Coeff-En:   0.000D+00 0.000D+00 0.880D-01 0.912D+00
 Coeff:     -0.359D-01 0.124D+00 0.346D+00 0.566D+00
 Gap=     0.254 Goal=   None    Shift=    0.000
 RMSDP=1.17D-03 MaxDP=3.97D-01 DE=-2.73D-02 OVMax= 6.27D-03

 Cycle   5  Pass 1  IDiag  1:
 RMSU=  3.08D-04    CP:  9.35D-01  1.12D+00  8.33D-01  5.84D-01
 E= -2159.39115972276     Delta-E=       -0.005270893219 Rises=F Damp=F
 DIIS: error= 2.98D-04 at cycle   5 NSaved=   5.
 NSaved= 5 IEnMin= 5 EnMin= -2159.39115972276     IErMin= 5 ErrMin= 2.98D-04
 ErrMax= 2.98D-04  0.00D+00 EMaxC= 1.00D-01 BMatC= 2.81D-04 BMatP= 6.24D-03
 IDIUse=3 WtCom= 9.97D-01 WtEn= 2.98D-03
 Coeff-Com: -0.119D-01 0.274D-01 0.108D+00 0.250D+00 0.627D+00
 Coeff-En:   0.000D+00 0.000D+00 0.000D+00 0.000D+00 0.100D+01
 Coeff:     -0.119D-01 0.273D-01 0.108D+00 0.249D+00 0.628D+00
 Gap=     0.253 Goal=   None    Shift=    0.000
 RMSDP=1.46D-04 MaxDP=4.51D-02 DE=-5.27D-03 OVMax= 1.73D-03

 Cycle   6  Pass 1  IDiag  1:
 RMSU=  7.49D-05    CP:  9.38D-01  1.12D+00  8.39D-01  6.06D-01  7.69D-01
 E= -2159.39135116510     Delta-E=       -0.000191442341 Rises=F Damp=F
 DIIS: error= 1.02D-04 at cycle   6 NSaved=   6.
 NSaved= 6 IEnMin= 6 EnMin= -2159.39135116510     IErMin= 6 ErrMin= 1.02D-04
 ErrMax= 1.02D-04  0.00D+00 EMaxC= 1.00D-01 BMatC= 2.92D-05 BMatP= 2.81D-04
 IDIUse=3 WtCom= 9.99D-01 WtEn= 1.02D-03
 Coeff-Com: -0.418D-02 0.758D-02 0.376D-01 0.101D+00 0.335D+00 0.523D+00
 Coeff-En:   0.000D+00 0.000D+00 0.000D+00 0.000D+00 0.000D+00 0.100D+01
 Coeff:     -0.418D-02 0.758D-02 0.376D-01 0.101D+00 0.335D+00 0.523D+00
 Gap=     0.254 Goal=   None    Shift=    0.000
 RMSDP=4.13D-05 MaxDP=1.40D-02 DE=-1.91D-04 OVMax= 6.60D-04

 Cycle   7  Pass 1  IDiag  1:
 RMSU=  2.02D-05    CP:  9.38D-01  1.12D+00  8.44D-01  6.11D-01  7.70D-01
                    CP:  6.74D-01
 E= -2159.39137154930     Delta-E=       -0.000020384201 Rises=F Damp=F
 DIIS: error= 2.68D-05 at cycle   7 NSaved=   7.
 NSaved= 7 IEnMin= 7 EnMin= -2159.39137154930     IErMin= 7 ErrMin= 2.68D-05
 ErrMax= 2.68D-05  0.00D+00 EMaxC= 1.00D-01 BMatC= 1.91D-06 BMatP= 2.92D-05
 IDIUse=1 WtCom= 1.00D+00 WtEn= 0.00D+00
 Coeff-Com: -0.110D-02 0.155D-02 0.102D-01 0.313D-01 0.117D+00 0.264D+00
 Coeff-Com:  0.577D+00
 Coeff:     -0.110D-02 0.155D-02 0.102D-01 0.313D-01 0.117D+00 0.264D+00
 Coeff:      0.577D+00
 Gap=     0.254 Goal=   None    Shift=    0.000
 RMSDP=1.38D-05 MaxDP=2.36D-03 DE=-2.04D-05 OVMax= 1.37D-04

 Cycle   8  Pass 1  IDiag  1:
 RMSU=  8.18D-06    CP:  9.38D-01  1.12D+00  8.42D-01  6.15D-01  7.79D-01
                    CP:  6.93D-01  6.63D-01
 E= -2159.39137295023     Delta-E=       -0.000001400930 Rises=F Damp=F
 DIIS: error= 6.30D-06 at cycle   8 NSaved=   8.
 NSaved= 8 IEnMin= 8 EnMin= -2159.39137295023     IErMin= 8 ErrMin= 6.30D-06
 ErrMax= 6.30D-06  0.00D+00 EMaxC= 1.00D-01 BMatC= 1.36D-07 BMatP= 1.91D-06
 IDIUse=1 WtCom= 1.00D+00 WtEn= 0.00D+00
 Coeff-Com: -0.115D-04-0.176D-03 0.323D-03 0.265D-02 0.134D-01 0.532D-01
 Coeff-Com:  0.251D+00 0.680D+00
 Coeff:     -0.115D-04-0.176D-03 0.323D-03 0.265D-02 0.134D-01 0.532D-01
 Coeff:      0.251D+00 0.680D+00
 Gap=     0.254 Goal=   None    Shift=    0.000
 RMSDP=3.70D-06 MaxDP=8.05D-04 DE=-1.40D-06 OVMax= 3.56D-05

 Cycle   9  Pass 1  IDiag  1:
 RMSU=  2.05D-06    CP:  9.38D-01  1.12D+00  8.43D-01  6.14D-01  7.80D-01
                    CP:  6.95D-01  7.38D-01  8.60D-01
 E= -2159.39137305705     Delta-E=       -0.000000106822 Rises=F Damp=F
 DIIS: error= 1.76D-06 at cycle   9 NSaved=   9.
 NSaved= 9 IEnMin= 9 EnMin= -2159.39137305705     IErMin= 9 ErrMin= 1.76D-06
 ErrMax= 1.76D-06  0.00D+00 EMaxC= 1.00D-01 BMatC= 1.48D-08 BMatP= 1.36D-07
 IDIUse=1 WtCom= 1.00D+00 WtEn= 0.00D+00
 Coeff-Com:  0.678D-04-0.186D-03-0.555D-03-0.873D-03-0.196D-02 0.619D-02
 Coeff-Com:  0.794D-01 0.329D+00 0.589D+00
 Coeff:      0.678D-04-0.186D-03-0.555D-03-0.873D-03-0.196D-02 0.619D-02
 Coeff:      0.794D-01 0.329D+00 0.589D+00
 Gap=     0.254 Goal=   None    Shift=    0.000
 RMSDP=8.59D-07 MaxDP=3.18D-04 DE=-1.07D-07 OVMax= 1.15D-05

 Cycle  10  Pass 1  IDiag  1:
 RMSU=  5.17D-07    CP:  9.38D-01  1.12D+00  8.43D-01  6.14D-01  7.80D-01
                    CP:  6.98D-01  7.42D-01  8.72D-01  7.85D-01
 E= -2159.39137306758     Delta-E=       -0.000000010532 Rises=F Damp=F
 DIIS: error= 6.17D-07 at cycle  10 NSaved=  10.
 NSaved=10 IEnMin=10 EnMin= -2159.39137306758     IErMin=10 ErrMin= 6.17D-07
 ErrMax= 6.17D-07  0.00D+00 EMaxC= 1.00D-01 BMatC= 1.57D-09 BMatP= 1.48D-08
 IDIUse=1 WtCom= 1.00D+00 WtEn= 0.00D+00
 Coeff-Com:  0.310D-04-0.723D-04-0.297D-03-0.615D-03-0.202D-02-0.127D-02
 Coeff-Com:  0.181D-01 0.108D+00 0.305D+00 0.573D+00
 Coeff:      0.310D-04-0.723D-04-0.297D-03-0.615D-03-0.202D-02-0.127D-02
 Coeff:      0.181D-01 0.108D+00 0.305D+00 0.573D+00
 Gap=     0.254 Goal=   None    Shift=    0.000
 RMSDP=2.59D-07 MaxDP=4.51D-05 DE=-1.05D-08 OVMax= 3.73D-06

 Cycle  11  Pass 1  IDiag  1:
 RMSU=  1.45D-07    CP:  9.38D-01  1.12D+00  8.43D-01  6.14D-01  7.80D-01
                    CP:  6.98D-01  7.44D-01  8.82D-01  7.99D-01  6.81D-01
 E= -2159.39137306862     Delta-E=       -0.000000001039 Rises=F Damp=F
 DIIS: error= 1.84D-07 at cycle  11 NSaved=  11.
 NSaved=11 IEnMin=11 EnMin= -2159.39137306862     IErMin=11 ErrMin= 1.84D-07
 ErrMax= 1.84D-07  0.00D+00 EMaxC= 1.00D-01 BMatC= 1.29D-10 BMatP= 1.57D-09
 IDIUse=1 WtCom= 1.00D+00 WtEn= 0.00D+00
 Coeff-Com:  0.905D-05-0.195D-04-0.103D-03-0.226D-03-0.815D-03-0.101D-02
 Coeff-Com:  0.277D-02 0.273D-01 0.103D+00 0.288D+00 0.581D+00
 Coeff:      0.905D-05-0.195D-04-0.103D-03-0.226D-03-0.815D-03-0.101D-02
 Coeff:      0.277D-02 0.273D-01 0.103D+00 0.288D+00 0.581D+00
 Gap=     0.254 Goal=   None    Shift=    0.000
 RMSDP=8.85D-08 MaxDP=1.40D-05 DE=-1.04D-09 OVMax= 1.08D-06

 Cycle  12  Pass 1  IDiag  1:
 RMSU=  4.97D-08    CP:  9.38D-01  1.12D+00  8.43D-01  6.14D-01  7.80D-01
                    CP:  6.98D-01  7.43D-01  8.86D-01  8.01D-01  7.12D-01
                    CP:  7.41D-01
 E= -2159.39137306867     Delta-E=       -0.000000000045 Rises=F Damp=F
 DIIS: error= 3.89D-08 at cycle  12 NSaved=  12.
 NSaved=12 IEnMin=12 EnMin= -2159.39137306867     IErMin=12 ErrMin= 3.89D-08
 ErrMax= 3.89D-08  0.00D+00 EMaxC= 1.00D-01 BMatC= 7.94D-12 BMatP= 1.29D-10
 IDIUse=1 WtCom= 1.00D+00 WtEn= 0.00D+00
 Coeff-Com:  0.385D-06-0.519D-06-0.136D-04-0.321D-04-0.132D-03-0.297D-03
 Coeff-Com: -0.741D-03-0.292D-03 0.109D-01 0.599D-01 0.242D+00 0.689D+00
 Coeff:      0.385D-06-0.519D-06-0.136D-04-0.321D-04-0.132D-03-0.297D-03
 Coeff:     -0.741D-03-0.292D-03 0.109D-01 0.599D-01 0.242D+00 0.689D+00
 Gap=     0.254 Goal=   None    Shift=    0.000
 RMSDP=2.78D-08 MaxDP=7.78D-06 DE=-4.46D-11 OVMax= 3.30D-07

 Cycle  13  Pass 1  IDiag  1:
 RMSU=  1.45D-08    CP:  9.38D-01  1.12D+00  8.43D-01  6.14D-01  7.80D-01
                    CP:  6.98D-01  7.43D-01  8.85D-01  8.06D-01  7.19D-01
                    CP:  7.41D-01  8.23D-01
 E= -2159.39137306883     Delta-E=       -0.000000000159 Rises=F Damp=F
 DIIS: error= 1.72D-08 at cycle  13 NSaved=  13.
 NSaved=13 IEnMin=13 EnMin= -2159.39137306883     IErMin=13 ErrMin= 1.72D-08
 ErrMax= 1.72D-08  0.00D+00 EMaxC= 1.00D-01 BMatC= 9.66D-13 BMatP= 7.94D-12
 IDIUse=1 WtCom= 1.00D+00 WtEn= 0.00D+00
 Coeff-Com: -0.397D-06 0.101D-05-0.249D-06-0.171D-05-0.136D-04-0.866D-04
 Coeff-Com: -0.542D-03-0.200D-02-0.135D-02 0.114D-01 0.838D-01 0.347D+00
 Coeff-Com:  0.562D+00
 Coeff:     -0.397D-06 0.101D-05-0.249D-06-0.171D-05-0.136D-04-0.866D-04
 Coeff:     -0.542D-03-0.200D-02-0.135D-02 0.114D-01 0.838D-01 0.347D+00
 Coeff:      0.562D+00
 Gap=     0.254 Goal=   None    Shift=    0.000
 RMSDP=6.90D-09 MaxDP=1.40D-06 DE=-1.59D-10 OVMax= 1.26D-07

[...]
 014713,-0.00033607,-0.00013643,0.00019467,0.00013333,-0.00000167,0.000
 01595,-0.00000229,0.00000924,0.00000369,0.00001664,0.00000564,-0.00000
 453,0.00001198,0.00002893,-0.00001936,-0.00002867,-0.00008206,0.000034
 12,-0.00001274,0.00038711,-0.00182695,-0.00058097,-0.27281485,-0.15358
 890,-0.20983850,-0.00100946,0.00076927,0.00040891,0.00000299,0.0000072
 1,0.00000357,0.00000443,-0.00001155,0.00000613,0.00000159,0.00000464,0
 .00000028,-0.00000137,0.00000690,-0.00000297,0.00000198,0.00000533,0.0
 0000004,-0.00000559,0.00000049,-0.00000318,0.00000036,-0.00000282,0.00
 000273,0.00002891,-0.00001827,-0.00001254,0.00000696,-0.00002169,0.000
 00452,-0.00001080,-0.00001920,0.00000600,-0.00003703,-0.00006795,0.000
 00515,0.00000043,0.00001355,-0.00000192,-0.00004730,-0.00003985,0.0000
 2636,-0.00012663,-0.00003538,-0.00007211,0.00003397,0.00025231,-0.0001
 3109,0.00002527,-0.00000136,-0.00003215,0.00000979,-0.00000175,-0.0000
 0340,-0.00000535,0.00000154,0.00000233,0.00000180,0.00000668,-0.000000
 82,0.00000240,-0.00001130,-0.00000474,0.00000385,0.00011787,-0.0001470
 9,-0.00036734,-0.00000182,0.00135877,-0.00026467,-0.00049418,-0.000175
 30,0.00000414,-0.00000502,0.00004312,0.00000973,-0.00000088,-0.0000725
 6,0.00007911,0.00014370,0.00012856,-0.00003053,-0.00004128,-0.00003559
 ,-0.00000612,-0.00002105,-0.00002071,0.00002375,-0.00002657,-0.0000547
 8,0.00000120,-0.00000196,0.00000563,0.00000104,-0.00001681,-0.00000473
 ,-0.00002171,0.00000826,-0.00000183,-0.00000562,-0.00001692,-0.0000049
 3,0.00001229,0.00002205,-0.00000847,0.00001296,0.00000871,0.00000813,-
 0.00000625,-0.00000612,-0.00000447,0.00000162,0.00000522,0.00000381,-0
 .00001173,-0.00000852,-0.00000308,0.00005860,0.00004431,0.00001344,0.0
 0010959,-0.00008913,0.00009969,0.00004943,0.00001437,-0.00003423,-0.00
 011942,-0.00076561,-0.00122099,0.25998680,0.00006061,-0.00000273,0.000
 00344,-0.00005212,0.00003796,-0.00002371,-0.00007541,0.00002549,-0.000
 02194,-0.00001601,-0.00000591,0.00002691,-0.00004156,-0.00001643,-0.00
 002661,-0.00000773,-0.00002355,0.00000708,-0.00007120,-0.00002899,-0.0
 0003934,0.00009293,0.00007618,0.00000646,0.00006353,0.00002869,0.00001
 009,0.00003926,0.00000215,-0.00002755,0.00006158,-0.00004889,-0.000000
 35,0.00005471,-0.00006059,0.00004268,-0.00004240,0.00006571,-0.0000195
 7,-0.00007880,-0.00002384,-0.00006328,0.00009432,-0.00004275,-0.000006
 79,-0.00038594,-0.00013803,-0.00002866,-0.00042290,-0.00007915,-0.0000
 8500,0.00010559,-0.00000293,-0.00000255,-0.00004949,-0.00000089,-0.000
 00342,-0.00002124,0.00003130,-0.00001814,0.00004315,-0.00002516,0.0000
 1786,0.00026812,0.00043366,0.00074405,0.00316286,-0.00206088,-0.002823
 69,-0.01154825,-0.00941706,-0.01218235,-0.00087440,-0.00109767,-0.0019
 3148,-0.00054598,-0.00077270,-0.00132947,0.00056141,0.00026110,0.00073
 856,-0.00142773,0.00029481,-0.00084600,0.00037507,-0.00004937,-0.00023
 847,0.00004265,-0.00005375,0.00013257,-0.00055008,0.00065449,0.0006672
 4,0.00029286,-0.00010555,-0.00031865,-0.00004419,0.00000675,0.00007296
 ,0.00000240,-0.00002618,-0.00004250,-0.00000794,0.00000478,-0.00000124
 ,0.00002339,-0.00004164,-0.00000778,0.00003460,0.00003127,0.00002028,-
 0.00104365,0.00024773,0.00138808,-0.12882063,-0.10341374,-0.13712781,0
 .00181741,-0.00076093,-0.00021011,0.00001508,0.00000224,0.00000982,0.0
 0000552,-0.00000191,0.00001580,0.00000652,0.00000426,-0.00000020,0.000
 00699,0.00000767,0.00000427,0.00001116,0.00000324,0.00000570,0.0000133
 1,0.00001002,-0.00000041,-0.00000086,-0.00000308,0.00000154,-0.0000330
 8,-0.00002758,0.00001326,-0.00002267,-0.00001448,0.00001182,-0.0000197
 9,0.00000097,0.00001060,-0.00001796,0.00002824,-0.00000484,0.00000815,
 -0.00000429,-0.00000125,0.00001660,0.00000460,0.00001034,-0.00004512,0
 .00007806,0.00002716,-0.00002203,-0.00002786,-0.00005519,0.00005885,-0
 .00000457,0.00002260,0.00001153,-0.00000924,0.00000902,-0.00000263,-0.
 00000364,0.00000438,0.00000813,0.00000275,-0.00000198,-0.00000819,0.00
 000298,-0.00000994,0.00019287,0.00025289,0.00018873,-0.00005189,0.0010
 2913,0.00102072,0.00027199,-0.00065111,0.00013300,-0.00013193,0.000111
 89,0.00021860,0.00005145,-0.00006615,-0.00002813,-0.00009712,-0.000083
 86,-0.00006749,0.00003142,0.00003144,0.00001722,-0.00005036,-0.0000081
 1,-0.00000412,-0.00002385,0.00002055,0.00005455,-0.00004739,0.00000329
 ,0.00002809,-0.00001445,0.00004774,0.00000182,0.00001717,-0.00000128,-
 0.00001336,0.00000126,0.00002860,0.00000743,-0.00001629,-0.00002500,0.
 00003078,-0.00000731,-0.00001790,-0.00002300,-0.00000143,0.00001409,0.
 00000873,-0.00000534,0.00000063,-0.00000396,0.00000445,0.00001331,0.00
 000992,-0.00001179,-0.00012215,-0.00004703,-0.00009440,0.00004120,-0.0
 0010181,-0.00007400,-0.00007252,0.00004145,0.00020052,-0.00008468,0.00
 048733,0.13998086,0.11341612,-0.00001643,0.00011013,-0.00005539,-0.000
 03273,-0.00021366,0.00013803,0.00004739,0.00001731,0.00003149,-0.00002
 102,-0.00001214,0.00004403,0.00004577,0.00000875,0.00004063,-0.0000211
 5,-0.00006972,0.00003415,0.00001305,0.00000307,0.00001446,0.00000136,0
 .00002428,-0.00006412,-0.00004217,-0.00002105,-0.00007498,0.00000620,0
 .00000073,-0.00008241,-0.00000540,0.00005634,-0.00008583,0.00004617,0.
 00024849,-0.00012157,0.00004746,-0.00012259,-0.00001047,-0.00010701,-0
 .00014039,0.00039105,0.00011264,0.00006731,-0.00030219,0.00020807,0.00
 012822,-0.00022941,-0.00039339,-0.00023376,-0.00022655,0.00027787,0.00
 026934,0.00013990,-0.00018434,-0.00004480,0.00000808,0.00002101,-0.000
 04885,-0.00001316,0.00000413,0.00006817,0.00000040,0.00066060,0.000256
 75,0.00071383,0.00405998,-0.00111210,-0.00390666,-0.02053819,-0.017721
 35,-0.02350916,-0.00017609,-0.00063012,0.00240406,-0.00039310,-0.00044
 678,-0.00062283,0.00007002,0.00021376,0.00006964,-0.00140989,-0.000805
 38,-0.00033661,0.00039904,-0.00016306,-0.00031678,-0.00001152,0.000132
 03,0.00009070,-0.00043070,0.00054260,0.00020382,0.00014697,-0.00001693
 ,-0.00015631,-0.00002028,0.00000076,0.00005011,-0.00001695,0.00000710,
 0.00000360,0.00000597,-0.00001090,0.00000261,0.00000668,-0.00002135,-0
 .00000632,0.00000244,0.00005916,-0.00005193,-0.00009834,0.00010107,-0.
 00170869,-0.16867646,-0.13246789,-0.19553180,0.00106040,0.00016799,-0.
 00005580,0.00000616,0.00001685,-0.00001198,-0.00000904,0.00000193,0.00
 000360,-0.00000944,-0.00000349,-0.00000568,-0.00000748,0.00000092,-0.0
 0000829,0.00000380,0.00000413,-0.00000316,-0.00000353,0.00000603,-0.00
 000177,0.00000090,-0.00000590,-0.00000802,0.00000568,0.00001355,0.0000
 4545,0.00002482,0.00001741,0.00002710,0.00000552,0.00000134,0.00002861
 ,-0.00001874,-0.00007043,0.00007692,0.00000968,0.00003595,0.00000660,0
 .00008734,0.00002963,-0.00003430,-0.00001143,-0.00000157,0.00018375,-0
 .00021274,-0.00032025,0.00010848,-0.00000521,-0.00000580,0.00003966,0.
 00001912,-0.00000735,-0.00000844,-0.00000946,0.00000079,-0.00000140,0.
 00000793,0.00001832,0.00000087,-0.00000439,-0.00001937,0.00000167,0.00
 015629,0.00007546,0.00025122,-0.00078241,0.00044462,0.00005343,0.00006
 279,0.00025857,-0.00000717,0.00006710,0.00000998,-0.00010373,-0.000016
 14,0.00005568,-0.00002251,-0.00009368,-0.00006524,-0.00006827,0.000015
 00,0.00000281,-0.00000912,-0.00001213,-0.00006059,-0.00002181,-0.00001
 256,-0.00000236,0.00001034,-0.00001190,0.00000055,0.00002067,-0.000005
 12,0.00002618,-0.00000811,-0.00000478,0.00000366,-0.00001183,0.0000002
 9,0.00001992,0.00000084,0.00000795,-0.00001787,0.00001413,-0.00000087,
 -0.00000763,-0.00001792,-0.00000298,0.00000575,-0.00000179,-0.00000289
 ,0.00000793,-0.00000064,0.00000093,-0.00000095,0.00000285,-0.00000435,
 -0.00004992,0.00004413,0.00002487,-0.00008028,0.00004289,-0.00003391,-
 0.00003966,0.00006796,-0.00010184,0.00055087,0.00052073,0.18846797,0.1
 5036000,0.22160955,-0.00034277,0.00056575,-0.00003977,0.00013554,-0.00
 102809,0.00033532,0.00024832,-0.00014362,-0.00000975,-0.00003139,-0.00
 010424,0.00007814,0.00014401,0.00000194,0.00005196,-0.00007104,-0.0002
 5056,0.00006082,0.00022019,0.00003290,0.00005385,-0.00030494,-0.000087
 07,0.00003465,-0.00019539,0.00007734,-0.00006625,-0.00000356,0.0001369
 7,-0.00013145,-0.00006546,0.00062576,-0.00016432,0.00003493,0.00125882
 ,-0.00025325,0.00056707,-0.00047597,-0.00008014,0.00004275,0.00013223,
 0.00027826,0.00099273,0.00095101,-0.00047595,-0.00530647,-0.00584581,-
 0.00179677,0.00444300,0.00095865,-0.00228938,-0.00072764,0.00137348,0.
 00222870,-0.00041646,-0.00015885,-0.00031101,0.00010464,-0.00039669,-0
 .00003809,-0.00033975,0.00032140,0.00008621,-0.00362800,0.00037701,-0.
 00023013,0.00205355,0.00011569,0.00094211,-0.00206937,0.00337186,0.008
 94397,0.00077305,-0.00050707,-0.00225905,0.00042700,0.00101231,0.00146
 702,-0.00064941,-0.00033666,-0.00050150,-0.00049611,-0.00025044,-0.000
 00566,0.00063811,0.00025009,-0.00021200,-0.00069855,-0.00027784,0.0001
 0867,0.00079843,-0.00100440,-0.00065180,-0.00035925,0.00017141,0.00042
 041,0.00005246,0.00001119,-0.00009564,0.00001209,0.00000984,0.00004300
 ,0.00000947,0.00001762,-0.00000785,0.00002219,0.00001586,-0.00001814,-
 0.00014592,-0.00007950,0.00007896,0.00058777,-0.00040463,-0.00017328,0
 .00159449,-0.00441585,-0.00414880,-0.47234581,-0.05429237,-0.08112212,
 0.00002190,0.00008461,-0.00003227,-0.00000885,-0.00003105,0.00001669,-
 0.00000966,0.00000339,-0.00000487,-0.00002124,0.00002813,-0.00002297,0
 .00000528,0.00001653,-0.00000946,-0.00004016,0.00000200,-0.00000900,-0
 .00000062,-0.00000457,0.00001275,0.00011593,-0.00003606,-0.00004394,0.
 00005945,-0.00004644,0.00003209,-0.00002294,-0.00007453,0.00007334,-0.
 00023562,-0.00065798,0.00027625,0.00008105,0.00030491,0.00005506,0.000
 07460,-0.00009059,0.00008314,-0.00124541,-0.00049005,0.00062719,0.0007
 7199,0.00326669,0.00082106,-0.00027573,-0.00003171,-0.00020969,-0.0000
 2189,0.00000790,-0.00006784,-0.00002813,0.00005482,0.00004447,-0.00003
 560,0.00004590,-0.00002479,0.00006977,-0.00002925,-0.00003879,0.000163
 00,-0.00011808,-0.00012622,0.00054329,-0.00021762,-0.00090550,-0.00014
 494,0.00001348,0.00005374,-0.00000489,-0.00009726,-0.00004045,-0.00002
 090,0.00003018,0.00007142,-0.00011691,-0.00009735,-0.00005130,0.000052
 82,-0.00004595,-0.00008329,0.00058019,-0.00014792,-0.00004600,0.000023
 68,-0.00000469,-0.00005836,0.00004342,-0.00001562,-0.00003861,0.000015
 49,-0.00006594,0.00000472,-0.00002281,-0.00000620,0.00001921,-0.000002
 42,-0.00004631,-0.00000495,0.00001383,0.00004824,-0.00003282,0.0000049
 9,0.00003117,0.00004139,-0.00000386,-0.00002376,-0.00000551,0.00001657
 ,-0.00000455,0.00001087,-0.00001011,-0.00001135,-0.00002431,0.00006583
 ,0.00019014,-0.00000959,0.00016530,0.00003764,0.00006498,0.00024434,0.
 00015059,-0.00017549,-0.00020828,-0.00002588,-0.00015915,-0.00056662,-
 0.00118274,-0.00224518,0.47421038,0.00008625,0.00000803,0.00001697,-0.
 00003783,-0.00001063,-0.00002116,-0.00007968,0.00003344,-0.00004055,-0
 .00001569,-0.00001441,0.00003298,-0.00001950,-0.00001169,-0.00001269,-
 0.00000538,-0.00004451,0.00000763,-0.00004414,-0.00002308,-0.00001861,
 0.00005675,0.00006464,-0.00001264,0.00003379,0.00002586,-0.00000685,0.
 00003484,0.00000916,-0.00003221,0.00008742,0.00000542,0.00003641,0.000
 40040,0.00025779,0.00015371,-0.00259632,0.00014749,0.00044485,-0.00011
 620,-0.00771871,-0.00374628,0.00055700,0.00038880,-0.00023608,-0.04354
 322,-0.01205837,-0.00989080,-0.00129775,-0.00042549,-0.00087642,0.0005
 3598,0.00009563,0.00005823,-0.00026284,-0.00000249,0.00031049,-0.00002
 129,0.00008286,-0.00005600,0.00010386,-0.00002517,0.00001510,0.0006678
 9,-0.00000435,0.00040498,0.00007123,-0.00015075,-0.00064160,0.00060067
 ,-0.00119209,-0.00195706,-0.00000032,0.00005148,0.00045130,0.00014777,
 -0.00018661,-0.00028364,-0.00010736,0.00009961,0.00006857,0.00024833,-
 0.00020560,-0.00001705,-0.00017724,-0.00006716,0.00000574,0.00012792,0
 .00015520,0.00004477,-0.00032109,0.00028845,0.00014770,0.00014868,-0.0
 0005805,-0.00013239,-0.00001444,-0.00000075,0.00002666,0.00000222,-0.0
 0000844,-0.00001335,-0.00000177,-0.00000466,0.00000819,0.00002736,-0.0
 0004726,-0.00002475,-0.00001222,0.00007579,-0.00002581,-0.00042737,0.0
 0004165,-0.00003019,-0.00111030,-0.00364525,-0.00022594,-0.00803798,-0
 .04198904,-0.01451194,0.00004986,0.00005751,0.00001785,0.00001429,-0.0
 0001341,0.00003124,0.00000767,0.00001001,-0.00000171,0.00000360,0.0000
 0771,0.00000029,0.00000941,0.00000716,0.00000364,0.00000881,0.00000853
 ,-0.00000202,-0.00000078,-0.00000494,-0.00000130,-0.00001359,-0.000020
 29,0.00001793,-0.00000935,-0.00001406,0.00001483,-0.00002047,-0.000004
 47,0.00001200,-0.00008155,-0.00006605,-0.00001520,-0.00001292,-0.00063
 465,-0.00032605,0.00027135,0.00018582,-0.00018660,-0.00015872,-0.00001
 951,0.00030333,-0.00070458,0.00050369,0.00100038,0.00015289,-0.0000126
 1,0.00020650,0.00003242,0.00000211,-0.00001877,0.00000421,-0.00002310,
 -0.00002089,0.00003153,0.00002597,0.00001699,-0.00001656,-0.00000586,-
 0.00000109,0.00000687,-0.00034252,-0.00007104,-0.00045345,0.00020705,0
 .00047450,0.00004409,-0.00006789,0.00001152,-0.00002066,0.00001694,0.0
 0001588,-0.00006616,0.00003544,0.00006781,0.00001889,0.00005832,0.0000
 2969,0.00000386,-0.00000405,-0.00001454,-0.00014701,-0.00004456,-0.000
 04803,-0.00000139,0.00000282,0.00001080,-0.00002467,0.00000148,0.00001
 155,-0.00000515,0.00002030,0.00000296,0.00000280,0.00000046,-0.0000098
 0,-0.00000245,0.00001485,0.00000003,-0.00000509,-0.00000969,0.00001892
 ,0.00000527,-0.00001096,-0.00001788,-0.00000546,0.00000980,0.00000269,
 -0.00000638,0.00000701,-0.00000168,-0.00000166,0.00000196,0.00000785,0
 .00002273,-0.00006462,0.00000376,0.00001491,-0.00008162,0.00002055,-0.
 00005250,-0.00006639,0.00004795,0.00006308,0.00002160,0.00007028,-0.00
 220408,0.00217073,0.00060929,0.05755765,0.06419727,-0.00003389,0.00008
 483,-0.00006872,-0.00000700,-0.00017507,0.00012897,0.00011271,0.000000
 99,0.00004641,-0.00002771,-0.00000270,0.00003344,0.00004426,0.00001236
 ,0.00003986,-0.00001311,-0.00004702,0.00003540,0.00002501,0.00000969,0
 .00002183,-0.00001678,-0.00000180,-0.00005395,-0.00004061,-0.00002741,
 -0.00006480,-0.00000510,-0.00000588,-0.00007322,-0.00003124,0.00012091
 ,-0.00011962,-0.00006220,0.00016078,-0.00022311,0.00009536,-0.00006850
 ,0.00038248,0.00113964,-0.00068822,-0.00105701,0.00038267,0.00133734,0
 .00020758,-0.01673505,-0.00483061,-0.00442453,-0.00395576,-0.00308617,
 -0.00162583,0.00096498,0.00073857,0.00008738,-0.00038245,-0.00006213,0
 .00011754,0.00011946,-0.00008354,-0.00003095,-0.00001633,0.00012232,-0
 .00001389,-0.00015629,0.00223865,0.00094128,0.00186107,-0.00192856,0.0
 0062033,0.00159798,-0.00011938,0.00232793,0.00033913,-0.00024249,-0.00
 056620,0.00035879,0.00014914,0.00046583,-0.00052214,0.00015509,-0.0001
 9950,0.00012197,-0.00011989,-0.00010022,0.00000634,-0.00009756,0.00001
 784,-0.00004840,0.00017319,-0.00007770,-0.00001139,-0.00006122,-0.0001
 7437,0.00000162,-0.00000897,0.00004410,0.00001200,-0.00000665,-0.00001
 295,-0.00000209,0.00001189,0.00001159,0.00000378,-0.00000961,0.0000063
 8,0.00000851,-0.00000888,-0.00000697,-0.00003018,0.00005420,-0.0000674
 4,-0.00012173,-0.00005684,-0.00026780,-0.00081552,-0.00154798,-0.00738
 710,-0.06565963,-0.02094754,-0.02863193,-0.00001719,-0.00000447,-0.000
 02131,-0.00002080,0.00001248,-0.00001199,-0.00001207,-0.00001040,-0.00
 000480,-0.00000739,-0.00000082,-0.00000763,-0.00000201,0.00000066,-0.0
 0000318,-0.00000480,0.00000315,-0.00000160,0.00000315,-0.00000616,-0.0
 0000777,0.00000413,0.00001797,0.00003282,0.00001834,0.00002124,0.00001
 914,0.00001452,0.00000544,0.00002863,-0.00000985,-0.00015176,0.0001439
 0,0.00000569,0.00006316,-0.00003266,0.00008331,0.00005584,-0.00004532,
 -0.00010985,-0.00100919,0.00128163,0.00105911,0.00050880,0.00113218,-0
 .00015022,0.00000939,-0.00010925,0.00004873,-0.00001374,-0.00001009,-0
 .00001286,-0.00000756,-0.00002005,0.00000593,0.00005220,0.00002260,-0.
 00000398,-0.00002812,-0.00000139,-0.00012210,0.00020136,-0.00008333,0.
 00044620,-0.00010253,-0.00039434,-0.00007777,0.00006115,-0.00001645,0.
 00000008,-0.00002162,-0.00002390,0.00004214,0.00001010,-0.00002018,-0.
 00002002,0.00003356,-0.00000257,-0.00001209,-0.00004522,-0.00008068,0.
 00002372,-0.00009563,0.00000930,0.00000559,-0.00000711,-0.00001423,0.0
 0000007,-0.00000153,0.00000024,0.00000270,-0.00000474,0.00000150,-0.00
 000739,0.00000171,-0.00000364,-0.00000337,0.00000276,-0.00000282,0.000
 00485,-0.00000314,-0.00000003,0.00000708,0.00000045,-0.00000541,-0.000
 00162,0.00000092,-0.00000151,-0.00000328,0.00000615,-0.00000023,-0.000
 00298,-0.00000963,0.00000028,0.00000453,0.00000069,0.00004051,0.000086
 43,-0.00010884,0.00012139,-0.00001562,-0.00000981,0.00004234,-0.000054
 20,-0.00000401,0.00003198,-0.00172756,0.00115625,0.00028288,0.08203203
 ,0.02828529,0.03744667\\0.00002122,0.00001046,-0.00000900,-0.00003306,
 -0.00000418,0.00000111,-0.00000815,-0.00000510,0.00000783,0.00000953,0
 .00000818,-0.00001148,-0.00000647,-0.00000110,-0.00000384,-0.00001792,
 -0.00001765,0.00000594,-0.00000973,0.00000221,-0.00001899,0.00000256,0
 .00000503,0.00000654,0.00001020,-0.00000412,-0.00000039,0.00000027,-0.
 00000123,0.00000321,0.00000659,-0.00001726,0.00000498,0.00000528,-0.00
 000097,-0.00000015,-0.00000726,0.00000451,-0.00001189,0.00001270,0.000
 00974,-0.00001350,-0.00000907,0.00000403,0.00001340,0.00000108,-0.0000
 0786,-0.00000120,-0.00001294,0.00001145,0.00000969,0.00000447,-0.00000
 133,-0.00000529,-0.00000995,-0.00000719,-0.00000366,-0.00000048,0.0000
 2189,-0.00000315,0.00000166,-0.00001067,0.00000534,0.00000956,-0.00000
 163,0.00000137,0.00000499,0.00000592,0.00000459,-0.00000423,-0.0000049
 9,-0.00000752,0.00000040,-0.00001171,-0.00000436,0.00000093,0.00002369
 ,0.00000425,-0.00000376,0.00000294,-0.00000404,-0.00000199,-0.00000612
 ,0.00000633,0.00000930,0.00000856,-0.00000967,-0.00001740,0.00001102,-
 0.00001557,-0.00000823,-0.00001804,-0.00000009,0.00000752,-0.00000209,
 0.00000196,-0.00000371,0.00000308,-0.00000007,0.00000835,0.00000081,0.
 00000384,-0.00000715,-0.00000403,0.00000137,0.00000464,0.00000483,-0.0
 0000543,0.00001946,0.00000358,0.00001108,0.00000511,0.00000168,0.00000
 244,0.00000072,0.00000222,0.00000067,-0.00000276,0.00000061,0.00000717
 ,0.00000884,0.00000369,0.00000109,0.00000060,0.00000199,-0.00000225,-0
 .00000358,0.00000024,-0.00000040,-0.00000163,-0.00000064,-0.00000145,0
 .00000576,0.00000165,0.00000331,-0.00000557,0.00000021,0.00000044,0.00
 000228,-0.00000663,0.00000489,0.00000266,0.00000167,0.00001143,-0.0000
 0147,-0.00000157,-0.00000140,0.00000041,-0.00000187,-0.00000163,-0.000
 00313,0.00000816,-0.00000449,0.00000364,-0.00000196,0.00000110,-0.0000
 0388,-0.00000254,0.00000307,0.00000763,0.00000286,0.00000246,-0.000002
 18,0.00000518,0.00000009,0.00000257,-0.00000401,-0.00000158,0.00000183
 ,-0.00000313,0.00000135,-0.00000166,-0.00000283,0.00000074,0.00000201,
 -0.00000031,0.00000131,0.00000263,0.00000209,0.00000023,0.00000080,0.0
 0000080,-0.00000408,0.00000120,0.00000011,0.00000241,0.00000172,0.0000
 0374,0.00000004,-0.00000070,-0.00000487,0.00000260,-0.00000170,0.00000
 023,-0.00000166,0.00000032,0.00000138,-0.00000161,0.00000059,-0.000000
 58,-0.00000021,-0.00000078,-0.00000081,0.00000099,-0.00000036,0.000000
 61,0.00000123,-0.00000110,0.00000228,-0.00000042,0.00000058,-0.0000010
 8,0.00000145,0.00000144,-0.00000235,-0.00000024,-0.00000176,-0.0000004
 0,0.00000003,-0.00000503,-0.00000498,-0.00000343,0.00000223,-0.0000029
 4,-0.00000023,0.00000027,0.00000234,-0.00000382,0.00000024,0.00000022,
 -0.00000263,-0.00000161,-0.00000214,0.00000128,0.00000255,-0.00000123,
 -0.00000016,0.00001257,-0.00000279,0.00001514,-0.00001047,-0.00000785,
 -0.00000037,-0.00000174,0.00000097,0.00000118,-0.00000164,-0.00000124,
 -0.00000029,0.00000238,-0.00000084,0.00000075\\\@


 IF YOU DON'T HAVE THE LAW - ARGUE THE FACTS.
 IF YOU DON'T HAVE THE FACTS - ARGUE THE LAW.
 IF YOU DON'T HAVE EITHER - POUND THE TABLE.
 Job cpu time:      26 days  9 hours 47 minutes  0.8 seconds.
 File lengths (MBytes):  RWF=  23504 Int=      0 D2E=      0 Chk=     97 Scr=      1
 Normal termination of Gaussian 09 at Fri May 27 02:19:52 2016.
