 Entering Gaussian System, Link 0=g09
 Initial command:
 /share/apps//g09/l1.exe "/scratch/Gau-19948.inp" -scrdir="/scratch/"
 Entering Link 1 = /share/apps//g09/l1.exe PID=     19949.
  
 Copyright (c) 1988,1990,1992,1993,1995,1998,2003,2009,2013,
            Gaussian, Inc.  All Rights Reserved.
  
 This is part of the Gaussian(R) 09 program.  It is based on
 the Gaussian(R) 03 system (copyright 2003, Gaussian, Inc.),
 the Gaussian(R) 98 system (copyright 1998, Gaussian, Inc.),
 the Gaussian(R) 94 system (copyright 1995, Gaussian, Inc.),
 the Gaussian 92(TM) system (copyright 1992, Gaussian, Inc.),
 the Gaussian 90(TM) system (copyright 1990, Gaussian, Inc.),
 the Gaussian 88(TM) system (copyright 1988, Gaussian, Inc.),
 the Gaussian 86(TM) system (copyright 1986, Carnegie Mellon
 University), and the Gaussian 82(TM) system (copyright 1983,
 Carnegie Mellon University). Gaussian is a federally registered
 trademark of Gaussian, Inc.
  
 This software contains proprietary and confidential information,
 including trade secrets, belonging to Gaussian, Inc.
  
 This software is provided under written license and may be
 used, copied, transmitted, or stored only in accord with that
 written license.
  
 The following legend is applicable only to US Government
 contracts under FAR:
  
                    RESTRICTED RIGHTS LEGEND
  
 Use, reproduction and disclosure by the US Government is
 subject to restrictions as set forth in subparagraphs (a)
 and (c) of the Commercial Computer Software - Restricted
 Rights clause in FAR 52.227-19.
  
 Gaussian, Inc.
 340 Quinnipiac St., Bldg. 40, Wallingford CT 06492
  
  
 ---------------------------------------------------------------
 Warning -- This program may not be used in any manner that
 competes with the business of Gaussian, Inc. or will provide
 assistance to any competitor of Gaussian, Inc.  The licensee
 of this program is prohibited from giving any competitor of
 Gaussian, Inc. access to this program.  By using this program,
 the user acknowledges that Gaussian, Inc. is engaged in the
 business of creating and licensing software in the field of
 computational chemistry and represents and warrants to the
 licensee that it is not a competitor of Gaussian, Inc. and that
 it will not use this program in any manner prohibited above.
 ---------------------------------------------------------------
  

 Cite this work as:
 Gaussian 09, Revision D.01,
 M. J. Frisch, G. W. Trucks, H. B. Schlegel, G. E. Scuseria, 
 M. A. Robb, J. R. Cheeseman, G. Scalmani, V. Barone, B. Mennucci, 
 G. A. Petersson, H. Nakatsuji, M. Caricato, X. Li, H. P. Hratchian, 
 A. F. Izmaylov, J. Bloino, G. Zheng, J. L. Sonnenberg, M. Hada, 
 M. Ehara, K. Toyota, R. Fukuda, J. Hasegawa, M. Ishida, T. Nakajima, 
 Y. Honda, O. Kitao, H. Nakai, T. Vreven, J. A. Montgomery, Jr., 
 J. E. Peralta, F. Ogliaro, M. Bearpark, J. J. Heyd, E. Brothers, 
 K. N. Kudin, V. N. Staroverov, T. Keith, R. Kobayashi, J. Normand, 
 K. Raghavachari, A. Rendell, J. C. Burant, S. S. Iyengar, J. Tomasi, 
 M. Cossi, N. Rega, J. M. Millam, M. Klene, J. E. Knox, J. B. Cross, 
 V. Bakken, C. Adamo, J. Jaramillo, R. Gomperts, R. E. Stratmann, 
 O. Yazyev, A. J. Austin, R. Cammi, C. Pomelli, J. W. Ochterski, 
 R. L. Martin, K. Morokuma, V. G. Zakrzewski, G. A. Voth, 
 P. Salvador, J. J. Dannenberg, S. Dapprich, A. D. Daniels, 
 O. Farkas, J. B. Foresman, J. V. Ortiz, J. Cioslowski, 
 and D. J. Fox, Gaussian, Inc., Wallingford CT, 2013.
 
 ******************************************
 Gaussian 09:  EM64L-G09RevD.01 24-Apr-2013
                 6-Apr-2016 
 ******************************************
 %nproc=20
 Will use up to   20 processors via shared memory.
 %mem=80GB
 %chk=Tri_A131_of.chk
 ----------------------------------------------------------------------
 #P PBE1PBE/6-311+G(d,p) opt=ModRedundant freq optcyc=999 EmpiricalDisp
 ersion=GD3
 ----------------------------------------------------------------------
 1/6=999,14=-1,18=120,19=15,26=3,38=1/1,3;
 2/9=110,12=2,17=6,18=5,40=1/2;
 3/5=4,6=6,7=111,11=2,16=1,25=1,30=1,71=1,74=-13,124=31/1,2,3;
 4//1;
 5/5=2,38=5/2;
 6/7=2,8=2,9=2,10=2,28=1/1;
 7//1,2,3,16;
 1/6=999,14=-1,18=20,19=15,26=3/3(2);
 2/9=110/2;
 99//99;
 2/9=110/2;
 3/5=4,6=6,7=111,11=2,16=1,25=1,30=1,71=1,74=-13,124=31/1,2,3;
 4/5=5,16=3,69=1/1;
 5/5=2,38=5/2;
 7//1,2,3,16;
 1/6=999,14=-1,18=20,19=15,26=3/3(-5);
 2/9=110/2;
 6/7=2,8=2,9=2,10=2,19=2,28=1/1;
 99/9=1/99;
 Leave Link    1 at Wed Apr  6 15:55:04 2016, MaxMem= 10737418240 cpu:         2.4
 (Enter /share/apps//g09/l101.exe)
 -------
 disacch
 -------
 Symbolic Z-matrix:
 Charge =  1 Multiplicity = 1
 O                     0.04722  -1.13008   5.42428 
 C                     0.81265  -1.21128   4.18408 
 C                     1.83075  -0.07134   4.12468 
 C                     1.12327   1.28605   4.29462 
 C                     0.22234   1.31468   5.53621 
 C                    -0.71519   0.07931   5.63437 
 H                     0.12265  -1.18185   3.32735 
 H                     2.30682  -0.09741   3.12575 
 H                     1.89173   2.06737   4.41476 
 H                     0.88784   1.26371   6.41193 
 H                    -1.05068   0.00174   6.68155 
 O                    -0.49443   2.53543   5.62711 
 O                     0.2771    1.57151   3.16553 
 O                     2.80678  -0.18548   5.15761 
 O                     1.51994  -2.41552   4.24685 
 C                    -1.97834   0.11152   4.77961 
 H                    -2.54276   1.01837   5.03797 
 H                    -1.75809   0.12231   3.70204 
 O                    -2.76056  -1.07344   5.11145 
 H                    -3.68784  -0.89678   4.87656 
 H                    -0.70096   2.80236   4.70877 
 H                     0.80924   1.98636   2.46622 
 H                     3.24989  -1.04358   5.0231 
 O                    -0.16334  -6.26586   4.42262 
 C                    -1.11124  -5.24768   4.11809 
 C                    -0.56889  -3.8       4.23515 
 C                     0.88134  -3.63711   3.77623 
 C                     1.77392  -4.77503   4.27177 
 C                     1.14786  -6.1214    3.87224 
 H                    -1.51858  -5.38456   3.10046 
 H                    -0.64085  -3.51237   5.29061 
 H                     0.90231  -3.63336   2.67063 
 H                     2.7599   -4.68309   3.77953 
 H                     1.12315  -6.18523   2.76516 
 O                     1.95311  -4.69577   5.6987 
 O                    -1.41141  -2.96647   3.43704 
 O                    -2.22301  -5.44333   4.97043 
 C                     1.93631  -7.32127   4.4103 
 H                     1.45639  -8.25239   4.07201 
 H                     2.96436  -7.30053   4.02092 
 O                     2.02136  -7.29433   5.84448 
 H                     1.14057  -7.59153   6.19959 
 H                     2.05581  -5.65062   5.99985 
 H                    -2.00735  -2.46693   4.03494 
 O                    -2.36269  -6.89424   8.39761 
 C                    -2.18301  -5.67238   9.1183 
 C                    -3.09221  -4.5929    8.5402 
 C                    -2.68706  -4.27493   7.07257 
 C                    -1.94664  -5.44508   6.39217 
 C                    -2.44269  -6.79999   6.9404 
 H                    -2.46612  -5.92858   10.15377 
 H                    -2.97518  -3.6653    9.11924 
 H                    -3.6248   -4.10416   6.52134 
 H                    -3.50188  -6.90897   6.63957 
 H                    -0.8664   -5.35792   6.57338 
 O                    -1.87028  -3.08773   7.0482 
 O                    -4.45668  -4.98761   8.6453 
 O                    -0.85299  -5.1874    9.07276 
 C                    -1.70062  -8.02661   6.41456 
 H                    -2.25773  -8.9299    6.71035 
 H                    -1.63636  -7.98936   5.32227 
 O                    -0.35618  -8.11002   6.91259 
 H                    -0.42629  -8.14486   7.8837 
 H                    -2.31835  -2.3943    6.52232 
 H                    -4.49831  -5.96167   8.61184 
 C                     0.08401  -5.94556   9.86562 
 H                    -0.1861   -5.86021   10.93457 
 H                     0.03375  -7.01262   9.59328 
 C                     1.46807  -5.38825   9.58703 
 H                     1.61555  -5.40635   8.4953 
 H                     2.21964  -6.07986   9.9967 
 C                     1.69138  -3.97214   10.15853 
 H                     0.72192  -3.45333   10.24747 
 H                     2.06706  -4.06253   11.18737 
 C                     2.66269  -3.10512   9.33122 
 H                     3.29145  -2.49549   9.99679 
 H                     3.35957  -3.74544   8.766 
 C                     1.97818  -2.12198   8.38478 
 H                     2.71165  -1.57197   7.78006 
 H                     1.39687  -1.38133   8.95333 
 N                     1.0288   -2.76278   7.41941 
 H                     0.67881  -2.05687   6.72506 
 H                     0.18754  -3.16223   7.8665 
 H                     1.47053  -3.51712   6.82636 
 
 The following ModRedundant input section has been read:
 B      35      84 B                                                           
 B       1      82 B                                                           
 B      56      83 B                                                           
 B      19      64 B                                                           
 B      42      62 B                                                           
 
 NAtoms=     84 NQM=       84 NQMF=       0 NMMI=      0 NMMIF=      0
                NMic=       0 NMicF=      0.
                    Isotopes and Nuclear Properties:
 (Nuclear quadrupole moments (NQMom) in fm**2, nuclear magnetic moments (NMagM)
  in nuclear magnetons)

  Atom         1           2           3           4           5           6           7           8           9          10
 IAtWgt=          16          12          12          12          12          12           1           1           1           1
 AtmWgt=  15.9949146  12.0000000  12.0000000  12.0000000  12.0000000  12.0000000   1.0078250   1.0078250   1.0078250   1.0078250
 NucSpn=           0           0           0           0           0           0           1           1           1           1
 AtZEff=   0.0000000   0.0000000   0.0000000   0.0000000   0.0000000   0.0000000   0.0000000   0.0000000   0.0000000   0.0000000
 NQMom=    0.0000000   0.0000000   0.0000000   0.0000000   0.0000000   0.0000000   0.0000000   0.0000000   0.0000000   0.0000000
 NMagM=    0.0000000   0.0000000   0.0000000   0.0000000   0.0000000   0.0000000   2.7928460   2.7928460   2.7928460   2.7928460
 AtZNuc=   8.0000000   6.0000000   6.0000000   6.0000000   6.0000000   6.0000000   1.0000000   1.0000000   1.0000000   1.0000000

  Atom        11          12          13          14          15          16          17          18          19          20
 IAtWgt=           1          16          16          16          16          12           1           1          16           1
 AtmWgt=   1.0078250  15.9949146  15.9949146  15.9949146  15.9949146  12.0000000   1.0078250   1.0078250  15.9949146   1.0078250
 NucSpn=           1           0           0           0           0           0           1           1           0           1
 AtZEff=   0.0000000   0.0000000   0.0000000   0.0000000   0.0000000   0.0000000   0.0000000   0.0000000   0.0000000   0.0000000
 NQMom=    0.0000000   0.0000000   0.0000000   0.0000000   0.0000000   0.0000000   0.0000000   0.0000000   0.0000000   0.0000000
 NMagM=    2.7928460   0.0000000   0.0000000   0.0000000   0.0000000   0.0000000   2.7928460   2.7928460   0.0000000   2.7928460
 AtZNuc=   1.0000000   8.0000000   8.0000000   8.0000000   8.0000000   6.0000000   1.0000000   1.0000000   8.0000000   1.0000000

  Atom        21          22          23          24          25          26          27          28          29          30
 IAtWgt=           1           1           1          16          12          12          12          12          12           1
 AtmWgt=   1.0078250   1.0078250   1.0078250  15.9949146  12.0000000  12.0000000  12.0000000  12.0000000  12.0000000   1.0078250
 NucSpn=           1           1           1           0           0           0           0           0           0           1
 AtZEff=   0.0000000   0.0000000   0.0000000   0.0000000   0.0000000   0.0000000   0.0000000   0.0000000   0.0000000   0.0000000
 NQMom=    0.0000000   0.0000000   0.0000000   0.0000000   0.0000000   0.0000000   0.0000000   0.0000000   0.0000000   0.0000000
 NMagM=    2.7928460   2.7928460   2.7928460   0.0000000   0.0000000   0.0000000   0.0000000   0.0000000   0.0000000   2.7928460
 AtZNuc=   1.0000000   1.0000000   1.0000000   8.0000000   6.0000000   6.0000000   6.0000000   6.0000000   6.0000000   1.0000000

  Atom        31          32          33          34          35          36          37          38          39          40
 IAtWgt=           1           1           1           1          16          16          16          12           1           1
 AtmWgt=   1.0078250   1.0078250   1.0078250   1.0078250  15.9949146  15.9949146  15.9949146  12.0000000   1.0078250   1.0078250
 NucSpn=           1           1           1           1           0           0           0           0           1           1
 AtZEff=   0.0000000   0.0000000   0.0000000   0.0000000   0.0000000   0.0000000   0.0000000   0.0000000   0.0000000   0.0000000
 NQMom=    0.0000000   0.0000000   0.0000000   0.0000000   0.0000000   0.0000000   0.0000000   0.0000000   0.0000000   0.0000000
 NMagM=    2.7928460   2.7928460   2.7928460   2.7928460   0.0000000   0.0000000   0.0000000   0.0000000   2.7928460   2.7928460
 AtZNuc=   1.0000000   1.0000000   1.0000000   1.0000000   8.0000000   8.0000000   8.0000000   6.0000000   1.0000000   1.0000000

  Atom        41          42          43          44          45          46          47          48          49          50
 IAtWgt=          16           1           1           1          16          12          12          12          12          12
 AtmWgt=  15.9949146   1.0078250   1.0078250   1.0078250  15.9949146  12.0000000  12.0000000  12.0000000  12.0000000  12.0000000
 NucSpn=           0           1           1           1           0           0           0           0           0           0
 AtZEff=   0.0000000   0.0000000   0.0000000   0.0000000   0.0000000   0.0000000   0.0000000   0.0000000   0.0000000   0.0000000
 NQMom=    0.0000000   0.0000000   0.0000000   0.0000000   0.0000000   0.0000000   0.0000000   0.0000000   0.0000000   0.0000000
 NMagM=    0.0000000   2.7928460   2.7928460   2.7928460   0.0000000   0.0000000   0.0000000   0.0000000   0.0000000   0.0000000
 AtZNuc=   8.0000000   1.0000000   1.0000000   1.0000000   8.0000000   6.0000000   6.0000000   6.0000000   6.0000000   6.0000000

  Atom        51          52          53          54          55          56          57          58          59          60
 IAtWgt=           1           1           1           1           1          16          16          16          12           1
 AtmWgt=   1.0078250   1.0078250   1.0078250   1.0078250   1.0078250  15.9949146  15.9949146  15.9949146  12.0000000   1.0078250
 NucSpn=           1           1           1           1           1           0           0           0           0           1
 AtZEff=   0.0000000   0.0000000   0.0000000   0.0000000   0.0000000   0.0000000   0.0000000   0.0000000   0.0000000   0.0000000
 NQMom=    0.0000000   0.0000000   0.0000000   0.0000000   0.0000000   0.0000000   0.0000000   0.0000000   0.0000000   0.0000000
 NMagM=    2.7928460   2.7928460   2.7928460   2.7928460   2.7928460   0.0000000   0.0000000   0.0000000   0.0000000   2.7928460
 AtZNuc=   1.0000000   1.0000000   1.0000000   1.0000000   1.0000000   8.0000000   8.0000000   8.0000000   6.0000000   1.0000000

  Atom        61          62          63          64          65          66          67          68          69          70
 IAtWgt=           1          16           1           1           1          12           1           1          12           1
 AtmWgt=   1.0078250  15.9949146   1.0078250   1.0078250   1.0078250  12.0000000   1.0078250   1.0078250  12.0000000   1.0078250
 NucSpn=           1           0           1           1           1           0           1           1           0           1
 AtZEff=   0.0000000   0.0000000   0.0000000   0.0000000   0.0000000   0.0000000   0.0000000   0.0000000   0.0000000   0.0000000
 NQMom=    0.0000000   0.0000000   0.0000000   0.0000000   0.0000000   0.0000000   0.0000000   0.0000000   0.0000000   0.0000000
 NMagM=    2.7928460   0.0000000   2.7928460   2.7928460   2.7928460   0.0000000   2.7928460   2.7928460   0.0000000   2.7928460
 AtZNuc=   1.0000000   8.0000000   1.0000000   1.0000000   1.0000000   6.0000000   1.0000000   1.0000000   6.0000000   1.0000000

  Atom        71          72          73          74          75          76          77          78          79          80
 IAtWgt=           1          12           1           1          12           1           1          12           1           1
 AtmWgt=   1.0078250  12.0000000   1.0078250   1.0078250  12.0000000   1.0078250   1.0078250  12.0000000   1.0078250   1.0078250
 NucSpn=           1           0           1           1           0           1           1           0           1           1
 AtZEff=   0.0000000   0.0000000   0.0000000   0.0000000   0.0000000   0.0000000   0.0000000   0.0000000   0.0000000   0.0000000
 NQMom=    0.0000000   0.0000000   0.0000000   0.0000000   0.0000000   0.0000000   0.0000000   0.0000000   0.0000000   0.0000000
 NMagM=    2.7928460   0.0000000   2.7928460   2.7928460   0.0000000   2.7928460   2.7928460   0.0000000   2.7928460   2.7928460
 AtZNuc=   1.0000000   6.0000000   1.0000000   1.0000000   6.0000000   1.0000000   1.0000000   6.0000000   1.0000000   1.0000000

  Atom        81          82          83          84
 IAtWgt=          14           1           1           1
 AtmWgt=  14.0030740   1.0078250   1.0078250   1.0078250
 NucSpn=           2           1           1           1
 AtZEff=   0.0000000   0.0000000   0.0000000   0.0000000
 NQMom=    2.0440000   0.0000000   0.0000000   0.0000000
 NMagM=    0.4037610   2.7928460   2.7928460   2.7928460
 AtZNuc=   7.0000000   1.0000000   1.0000000   1.0000000
 Leave Link  101 at Wed Apr  6 15:55:05 2016, MaxMem= 10737418240 cpu:         4.9
 (Enter /share/apps//g09/l103.exe)

 GradGradGradGradGradGradGradGradGradGradGradGradGradGradGradGradGradGrad
 Berny optimization.
 Initialization pass.
                           ----------------------------
                           !    Initial Parameters    !
                           ! (Angstroms and Degrees)  !
 --------------------------                            --------------------------
 ! Name  Definition              Value          Derivative Info.                !
 --------------------------------------------------------------------------------
 ! R1    R(1,2)                  1.4596         estimate D2E/DX2                !
 ! R2    R(1,6)                  1.445          estimate D2E/DX2                !
 ! R3    R(1,82)                 1.7175         estimate D2E/DX2                !
 ! R4    R(2,3)                  1.5295         estimate D2E/DX2                !
 ! R5    R(2,7)                  1.1004         estimate D2E/DX2                !
 ! R6    R(2,15)                 1.398          estimate D2E/DX2                !
 ! R7    R(3,4)                  1.5401         estimate D2E/DX2                !
 ! R8    R(3,8)                  1.1069         estimate D2E/DX2                !
 ! R9    R(3,14)                 1.4257         estimate D2E/DX2                !
 ! R10   R(4,5)                  1.5343         estimate D2E/DX2                !
 ! R11   R(4,9)                  1.1025         estimate D2E/DX2                !
 ! R12   R(4,13)                 1.4396         estimate D2E/DX2                !
 ! R13   R(5,6)                  1.5539         estimate D2E/DX2                !
 ! R14   R(5,10)                 1.1011         estimate D2E/DX2                !
 ! R15   R(5,12)                 1.4185         estimate D2E/DX2                !
 ! R16   R(6,11)                 1.1023         estimate D2E/DX2                !
 ! R17   R(6,16)                 1.5255         estimate D2E/DX2                !
 ! R18   R(12,21)                0.9784         estimate D2E/DX2                !
 ! R19   R(13,22)                0.9718         estimate D2E/DX2                !
 ! R20   R(14,23)                0.9751         estimate D2E/DX2                !
 ! R21   R(15,27)                1.4566         estimate D2E/DX2                !
 ! R22   R(16,17)                1.099          estimate D2E/DX2                !
 ! R23   R(16,18)                1.0999         estimate D2E/DX2                !
 ! R24   R(16,19)                1.4581         estimate D2E/DX2                !
 ! R25   R(19,20)                0.9727         estimate D2E/DX2                !
 ! R26   R(19,64)                1.9826         estimate D2E/DX2                !
 ! R27   R(24,25)                1.4241         estimate D2E/DX2                !
 ! R28   R(24,29)                1.4293         estimate D2E/DX2                !
 ! R29   R(25,26)                1.5504         estimate D2E/DX2                !
 ! R30   R(25,30)                1.1046         estimate D2E/DX2                !
 ! R31   R(25,37)                1.4145         estimate D2E/DX2                !
 ! R32   R(26,27)                1.5298         estimate D2E/DX2                !
 ! R33   R(26,31)                1.0963         estimate D2E/DX2                !
 ! R34   R(26,36)                1.4288         estimate D2E/DX2                !
 ! R35   R(27,28)                1.5288         estimate D2E/DX2                !
 ! R36   R(27,32)                1.1058         estimate D2E/DX2                !
 ! R37   R(28,29)                1.5376         estimate D2E/DX2                !
 ! R38   R(28,33)                1.1059         estimate D2E/DX2                !
 ! R39   R(28,35)                1.4403         estimate D2E/DX2                !
 ! R40   R(29,34)                1.1092         estimate D2E/DX2                !
 ! R41   R(29,38)                1.5332         estimate D2E/DX2                !
 ! R42   R(35,43)                1.0065         estimate D2E/DX2                !
 ! R43   R(35,84)                1.7011         estimate D2E/DX2                !
 ! R44   R(36,44)                0.9809         estimate D2E/DX2                !
 ! R45   R(37,49)                1.4484         estimate D2E/DX2                !
 ! R46   R(38,39)                1.1008         estimate D2E/DX2                !
 ! R47   R(38,40)                1.0995         estimate D2E/DX2                !
 ! R48   R(38,41)                1.437          estimate D2E/DX2                !
 ! R49   R(41,42)                0.9951         estimate D2E/DX2                !
 ! R50   R(42,62)                1.7371         estimate D2E/DX2                !
 ! R51   R(45,46)                1.4299         estimate D2E/DX2                !
 ! R52   R(45,50)                1.4624         estimate D2E/DX2                !
 ! R53   R(46,47)                1.5252         estimate D2E/DX2                !
 ! R54   R(46,51)                1.1036         estimate D2E/DX2                !
 ! R55   R(46,58)                1.4164         estimate D2E/DX2                !
 ! R56   R(47,48)                1.5554         estimate D2E/DX2                !
 ! R57   R(47,52)                1.0997         estimate D2E/DX2                !
 ! R58   R(47,57)                1.4243         estimate D2E/DX2                !
 ! R59   R(48,49)                1.5429         estimate D2E/DX2                !
 ! R60   R(48,53)                1.1011         estimate D2E/DX2                !
 ! R61   R(48,56)                1.4412         estimate D2E/DX2                !
 ! R62   R(49,50)                1.5435         estimate D2E/DX2                !
 ! R63   R(49,55)                1.0988         estimate D2E/DX2                !
 ! R64   R(50,54)                1.1065         estimate D2E/DX2                !
 ! R65   R(50,59)                1.527          estimate D2E/DX2                !
 ! R66   R(56,64)                0.9789         estimate D2E/DX2                !
 ! R67   R(56,83)                2.2158         estimate D2E/DX2                !
 ! R68   R(57,65)                0.9755         estimate D2E/DX2                !
 ! R69   R(58,66)                1.4427         estimate D2E/DX2                !
 ! R70   R(59,60)                1.1017         estimate D2E/DX2                !
 ! R71   R(59,61)                1.0948         estimate D2E/DX2                !
 ! R72   R(59,62)                1.4361         estimate D2E/DX2                !
 ! R73   R(62,63)                0.9743         estimate D2E/DX2                !
 ! R74   R(66,67)                1.1058         estimate D2E/DX2                !
 ! R75   R(66,68)                1.1024         estimate D2E/DX2                !
 ! R76   R(66,69)                1.5178         estimate D2E/DX2                !
 ! R77   R(69,70)                1.1018         estimate D2E/DX2                !
 ! R78   R(69,71)                1.1005         estimate D2E/DX2                !
 ! R79   R(69,72)                1.5433         estimate D2E/DX2                !
 ! R80   R(72,73)                1.1031         estimate D2E/DX2                !
 ! R81   R(72,74)                1.099          estimate D2E/DX2                !
 ! R82   R(72,75)                1.5426         estimate D2E/DX2                !
 ! R83   R(75,76)                1.1            estimate D2E/DX2                !
 ! R84   R(75,77)                1.1023         estimate D2E/DX2                !
 ! R85   R(75,78)                1.5267         estimate D2E/DX2                !
 ! R86   R(78,79)                1.0983         estimate D2E/DX2                !
 ! R87   R(78,80)                1.0999         estimate D2E/DX2                !
 ! R88   R(78,81)                1.498          estimate D2E/DX2                !
 ! R89   R(81,82)                1.0502         estimate D2E/DX2                !
 ! R90   R(81,83)                1.033          estimate D2E/DX2                !
 ! R91   R(81,84)                1.0563         estimate D2E/DX2                !
 ! A1    A(2,1,6)              116.5367         estimate D2E/DX2                !
 ! A2    A(2,1,82)             114.875          estimate D2E/DX2                !
 ! A3    A(6,1,82)             122.3802         estimate D2E/DX2                !
 ! A4    A(1,2,3)              109.9125         estimate D2E/DX2                !
 ! A5    A(1,2,7)              109.3413         estimate D2E/DX2                !
 ! A6    A(1,2,15)             105.9666         estimate D2E/DX2                !
 ! A7    A(3,2,7)              111.5428         estimate D2E/DX2                !
 ! A8    A(3,2,15)             107.8768         estimate D2E/DX2                !
 ! A9    A(7,2,15)             112.0383         estimate D2E/DX2                !
 ! A10   A(2,3,4)              110.2922         estimate D2E/DX2                !
 ! A11   A(2,3,8)              107.6847         estimate D2E/DX2                !
 ! A12   A(2,3,14)             111.585          estimate D2E/DX2                !
 ! A13   A(4,3,8)              108.537          estimate D2E/DX2                !
 ! A14   A(4,3,14)             107.7643         estimate D2E/DX2                !
 ! A15   A(8,3,14)             110.9479         estimate D2E/DX2                !
 ! A16   A(3,4,5)              112.0541         estimate D2E/DX2                !
 ! A17   A(3,4,9)              108.4484         estimate D2E/DX2                !
 ! A18   A(3,4,13)             110.9924         estimate D2E/DX2                !
 ! A19   A(5,4,9)              107.9321         estimate D2E/DX2                !
 ! A20   A(5,4,13)             106.6096         estimate D2E/DX2                !
 ! A21   A(9,4,13)             110.7723         estimate D2E/DX2                !
 ! A22   A(4,5,6)              112.9889         estimate D2E/DX2                !
 ! A23   A(4,5,10)             106.7283         estimate D2E/DX2                !
 ! A24   A(4,5,12)             111.384          estimate D2E/DX2                !
 ! A25   A(6,5,10)             106.1178         estimate D2E/DX2                !
 ! A26   A(6,5,12)             112.0394         estimate D2E/DX2                !
 ! A27   A(10,5,12)            107.1139         estimate D2E/DX2                !
 ! A28   A(1,6,5)              109.7463         estimate D2E/DX2                !
 ! A29   A(1,6,11)             103.8746         estimate D2E/DX2                !
 ! A30   A(1,6,16)             111.9059         estimate D2E/DX2                !
 ! A31   A(5,6,11)             107.4316         estimate D2E/DX2                !
 ! A32   A(5,6,16)             116.5758         estimate D2E/DX2                !
 ! A33   A(11,6,16)            106.365          estimate D2E/DX2                !
 ! A34   A(5,12,21)            106.3378         estimate D2E/DX2                !
 ! A35   A(4,13,22)            109.0992         estimate D2E/DX2                !
 ! A36   A(3,14,23)            106.3567         estimate D2E/DX2                !
 ! A37   A(2,15,27)            119.0859         estimate D2E/DX2                !
 ! A38   A(6,16,17)            108.1173         estimate D2E/DX2                !
 ! A39   A(6,16,18)            112.5403         estimate D2E/DX2                !
 ! A40   A(6,16,19)            107.4288         estimate D2E/DX2                !
 ! A41   A(17,16,18)           108.97           estimate D2E/DX2                !
 ! A42   A(17,16,19)           109.973          estimate D2E/DX2                !
 ! A43   A(18,16,19)           109.7767         estimate D2E/DX2                !
 ! A44   A(16,19,20)           107.9895         estimate D2E/DX2                !
 ! A45   A(16,19,64)           125.7119         estimate D2E/DX2                !
 ! A46   A(20,19,64)           120.361          estimate D2E/DX2                !
 ! A47   A(25,24,29)           117.1298         estimate D2E/DX2                !
 ! A48   A(24,25,26)           114.7482         estimate D2E/DX2                !
 ! A49   A(24,25,30)           110.7236         estimate D2E/DX2                !
 ! A50   A(24,25,37)           107.1829         estimate D2E/DX2                !
 ! A51   A(26,25,30)           108.3163         estimate D2E/DX2                !
 ! A52   A(26,25,37)           111.0151         estimate D2E/DX2                !
 ! A53   A(30,25,37)           104.3673         estimate D2E/DX2                !
 ! A54   A(25,26,27)           114.1043         estimate D2E/DX2                !
 ! A55   A(25,26,31)           107.1404         estimate D2E/DX2                !
 ! A56   A(25,26,36)           107.2341         estimate D2E/DX2                !
 ! A57   A(27,26,31)           108.8502         estimate D2E/DX2                !
 ! A58   A(27,26,36)           109.2264         estimate D2E/DX2                !
 ! A59   A(31,26,36)           110.2429         estimate D2E/DX2                !
 ! A60   A(15,27,26)           114.0791         estimate D2E/DX2                !
 ! A61   A(15,27,28)           105.2808         estimate D2E/DX2                !
 ! A62   A(15,27,32)           108.1729         estimate D2E/DX2                !
 ! A63   A(26,27,28)           112.1475         estimate D2E/DX2                !
 ! A64   A(26,27,32)           108.5582         estimate D2E/DX2                !
 ! A65   A(28,27,32)           108.3932         estimate D2E/DX2                !
 ! A66   A(27,28,29)           109.2572         estimate D2E/DX2                !
 ! A67   A(27,28,33)           108.3246         estimate D2E/DX2                !
 ! A68   A(27,28,35)           110.6591         estimate D2E/DX2                !
 ! A69   A(29,28,33)           108.6729         estimate D2E/DX2                !
 ! A70   A(29,28,35)           110.8707         estimate D2E/DX2                !
 ! A71   A(33,28,35)           108.995          estimate D2E/DX2                !
 ! A72   A(24,29,28)           111.22           estimate D2E/DX2                !
 ! A73   A(24,29,34)           110.9818         estimate D2E/DX2                !
 ! A74   A(24,29,38)           104.9224         estimate D2E/DX2                !
 ! A75   A(28,29,34)           108.5904         estimate D2E/DX2                !
 ! A76   A(28,29,38)           112.6232         estimate D2E/DX2                !
 ! A77   A(34,29,38)           108.4623         estimate D2E/DX2                !
 ! A78   A(28,35,43)           104.8874         estimate D2E/DX2                !
 ! A79   A(28,35,84)           131.2675         estimate D2E/DX2                !
 ! A80   A(43,35,84)           119.2053         estimate D2E/DX2                !
 ! A81   A(26,36,44)           108.3519         estimate D2E/DX2                !
 ! A82   A(25,37,49)           116.2119         estimate D2E/DX2                !
 ! A83   A(29,38,39)           109.263          estimate D2E/DX2                !
 ! A84   A(29,38,40)           109.9849         estimate D2E/DX2                !
 ! A85   A(29,38,41)           111.4701         estimate D2E/DX2                !
 ! A86   A(39,38,40)           108.3465         estimate D2E/DX2                !
 ! A87   A(39,38,41)           110.3885         estimate D2E/DX2                !
 ! A88   A(40,38,41)           107.3231         estimate D2E/DX2                !
 ! A89   A(38,41,42)           107.3485         estimate D2E/DX2                !
 ! A90   A(46,45,50)           117.0015         estimate D2E/DX2                !
 ! A91   A(45,46,47)           109.8069         estimate D2E/DX2                !
 ! A92   A(45,46,51)           104.0214         estimate D2E/DX2                !
 ! A93   A(45,46,58)           113.2268         estimate D2E/DX2                !
 ! A94   A(47,46,51)           111.5317         estimate D2E/DX2                !
 ! A95   A(47,46,58)           107.7727         estimate D2E/DX2                !
 ! A96   A(51,46,58)           110.5199         estimate D2E/DX2                !
 ! A97   A(46,47,48)           110.3081         estimate D2E/DX2                !
 ! A98   A(46,47,52)           109.5106         estimate D2E/DX2                !
 ! A99   A(46,47,57)           110.3026         estimate D2E/DX2                !
 ! A100  A(48,47,52)           107.2576         estimate D2E/DX2                !
 ! A101  A(48,47,57)           112.0753         estimate D2E/DX2                !
 ! A102  A(52,47,57)           107.268          estimate D2E/DX2                !
 ! A103  A(47,48,49)           112.7108         estimate D2E/DX2                !
 ! A104  A(47,48,53)           106.3945         estimate D2E/DX2                !
 ! A105  A(47,48,56)           109.3887         estimate D2E/DX2                !
 ! A106  A(49,48,53)           107.792          estimate D2E/DX2                !
 ! A107  A(49,48,56)           110.2012         estimate D2E/DX2                !
 ! A108  A(53,48,56)           110.2691         estimate D2E/DX2                !
 ! A109  A(37,49,48)           109.9016         estimate D2E/DX2                !
 ! A110  A(37,49,50)           106.7619         estimate D2E/DX2                !
 ! A111  A(37,49,55)           110.4497         estimate D2E/DX2                !
 ! A112  A(48,49,50)           110.7869         estimate D2E/DX2                !
 ! A113  A(48,49,55)           109.8103         estimate D2E/DX2                !
 ! A114  A(50,49,55)           109.0872         estimate D2E/DX2                !
 ! A115  A(45,50,49)           113.1355         estimate D2E/DX2                !
 ! A116  A(45,50,54)           108.4773         estimate D2E/DX2                !
 ! A117  A(45,50,59)           105.3535         estimate D2E/DX2                !
 ! A118  A(49,50,54)           107.3098         estimate D2E/DX2                !
 ! A119  A(49,50,59)           115.2546         estimate D2E/DX2                !
 ! A120  A(54,50,59)           107.005          estimate D2E/DX2                !
 ! A121  A(48,56,64)           109.4637         estimate D2E/DX2                !
 ! A122  A(48,56,83)           119.4968         estimate D2E/DX2                !
 ! A123  A(64,56,83)           130.3408         estimate D2E/DX2                !
 ! A124  A(47,57,65)           108.3645         estimate D2E/DX2                !
 ! A125  A(46,58,66)           114.3465         estimate D2E/DX2                !
 ! A126  A(50,59,60)           108.6877         estimate D2E/DX2                !
 ! A127  A(50,59,61)           110.167          estimate D2E/DX2                !
 ! A128  A(50,59,62)           112.468          estimate D2E/DX2                !
 ! A129  A(60,59,61)           108.992          estimate D2E/DX2                !
 ! A130  A(60,59,62)           109.4303         estimate D2E/DX2                !
 ! A131  A(61,59,62)           107.0384         estimate D2E/DX2                !
 ! A132  A(42,62,59)           130.312          estimate D2E/DX2                !
 ! A133  A(42,62,63)           118.8037         estimate D2E/DX2                !
 ! A134  A(59,62,63)           106.2824         estimate D2E/DX2                !
 ! A135  A(19,64,56)           163.0113         estimate D2E/DX2                !
 ! A136  A(58,66,67)           109.3921         estimate D2E/DX2                !
 ! A137  A(58,66,68)           110.0772         estimate D2E/DX2                !
 ! A138  A(58,66,69)           107.362          estimate D2E/DX2                !
 ! A139  A(67,66,68)           107.5998         estimate D2E/DX2                !
 ! A140  A(67,66,69)           111.8273         estimate D2E/DX2                !
 ! A141  A(68,66,69)           110.587          estimate D2E/DX2                !
 ! A142  A(66,69,70)           107.3311         estimate D2E/DX2                !
 ! A143  A(66,69,71)           108.8856         estimate D2E/DX2                !
 ! A144  A(66,69,72)           113.6334         estimate D2E/DX2                !
 ! A145  A(70,69,71)           105.4935         estimate D2E/DX2                !
 ! A146  A(70,69,72)           111.2617         estimate D2E/DX2                !
 ! A147  A(71,69,72)           109.8766         estimate D2E/DX2                !
 ! A148  A(69,72,73)           109.5258         estimate D2E/DX2                !
 ! A149  A(69,72,74)           108.7026         estimate D2E/DX2                !
 ! A150  A(69,72,75)           114.0939         estimate D2E/DX2                !
 ! A151  A(73,72,74)           105.2847         estimate D2E/DX2                !
 ! A152  A(73,72,75)           109.406          estimate D2E/DX2                !
 ! A153  A(74,72,75)           109.4543         estimate D2E/DX2                !
 ! A154  A(72,75,76)           110.2984         estimate D2E/DX2                !
 ! A155  A(72,75,77)           110.2778         estimate D2E/DX2                !
 ! A156  A(72,75,78)           114.3365         estimate D2E/DX2                !
 ! A157  A(76,75,77)           105.7131         estimate D2E/DX2                !
 ! A158  A(76,75,78)           105.9314         estimate D2E/DX2                !
 ! A159  A(77,75,78)           109.8551         estimate D2E/DX2                !
 ! A160  A(75,78,79)           111.3706         estimate D2E/DX2                !
 ! A161  A(75,78,80)           110.4966         estimate D2E/DX2                !
 ! A162  A(75,78,81)           114.0915         estimate D2E/DX2                !
 ! A163  A(79,78,80)           107.4793         estimate D2E/DX2                !
 ! A164  A(79,78,81)           106.4187         estimate D2E/DX2                !
 ! A165  A(80,78,81)           106.6324         estimate D2E/DX2                !
 ! A166  A(78,81,82)           110.4727         estimate D2E/DX2                !
 ! A167  A(78,81,83)           113.7421         estimate D2E/DX2                !
 ! A168  A(78,81,84)           113.7197         estimate D2E/DX2                !
 ! A169  A(82,81,83)           105.9419         estimate D2E/DX2                !
 ! A170  A(82,81,84)           104.3692         estimate D2E/DX2                !
 ! A171  A(83,81,84)           107.9019         estimate D2E/DX2                !
 ! A172  A(56,83,81)           125.6944         estimate D2E/DX2                !
 ! A173  L(41,42,62,1,-1)      180.5845         estimate D2E/DX2                !
 ! A174  L(1,82,81,23,-1)      181.0902         estimate D2E/DX2                !
 ! A175  L(35,84,81,2,-1)      173.4696         estimate D2E/DX2                !
 ! A176  L(41,42,62,1,-2)      183.3651         estimate D2E/DX2                !
 ! A177  L(1,82,81,23,-2)      189.9481         estimate D2E/DX2                !
 ! A178  L(35,84,81,2,-2)      172.7523         estimate D2E/DX2                !
 ! D1    D(6,1,2,3)             60.1178         estimate D2E/DX2                !
 ! D2    D(6,1,2,7)            -62.6375         estimate D2E/DX2                !
 ! D3    D(6,1,2,15)           176.4282         estimate D2E/DX2                !
 ! D4    D(82,1,2,3)           -92.9257         estimate D2E/DX2                !
 ! D5    D(82,1,2,7)           144.319          estimate D2E/DX2                !
 ! D6    D(82,1,2,15)           23.3848         estimate D2E/DX2                !
 ! D7    D(2,1,6,5)            -55.5138         estimate D2E/DX2                !
 ! D8    D(2,1,6,11)          -170.1285         estimate D2E/DX2                !
 ! D9    D(2,1,6,16)            75.5325         estimate D2E/DX2                !
 ! D10   D(82,1,6,5)            95.3441         estimate D2E/DX2                !
 ! D11   D(82,1,6,11)          -19.2707         estimate D2E/DX2                !
 ! D12   D(82,1,6,16)         -133.6096         estimate D2E/DX2                !
 ! D13   D(2,1,81,78)           94.5734         estimate D2E/DX2                !
 ! D14   D(2,1,81,83)         -139.2691         estimate D2E/DX2                !
 ! D15   D(2,1,81,84)          -27.8137         estimate D2E/DX2                !
 ! D16   D(6,1,81,78)          -59.6392         estimate D2E/DX2                !
 ! D17   D(6,1,81,83)           66.5182         estimate D2E/DX2                !
 ! D18   D(6,1,81,84)          177.9737         estimate D2E/DX2                !
 ! D19   D(1,2,3,4)            -55.3183         estimate D2E/DX2                !
 ! D20   D(1,2,3,8)           -173.5906         estimate D2E/DX2                !
 ! D21   D(1,2,3,14)            64.4245         estimate D2E/DX2                !
 ! D22   D(7,2,3,4)             66.1289         estimate D2E/DX2                !
 ! D23   D(7,2,3,8)            -52.1433         estimate D2E/DX2                !
 ! D24   D(7,2,3,14)          -174.1282         estimate D2E/DX2                !
 ! D25   D(15,2,3,4)          -170.4215         estimate D2E/DX2                !
 ! D26   D(15,2,3,8)            71.3062         estimate D2E/DX2                !
 ! D27   D(15,2,3,14)          -50.6786         estimate D2E/DX2                !
 ! D28   D(1,2,15,27)           87.1041         estimate D2E/DX2                !
 ! D29   D(3,2,15,27)         -155.2177         estimate D2E/DX2                !
 ! D30   D(7,2,15,27)          -32.0697         estimate D2E/DX2                !
 ! D31   D(2,3,4,5)             51.7158         estimate D2E/DX2                !
 ! D32   D(2,3,4,9)            170.7506         estimate D2E/DX2                !
 ! D33   D(2,3,4,13)           -67.3486         estimate D2E/DX2                !
 ! D34   D(8,3,4,5)            169.464          estimate D2E/DX2                !
 ! D35   D(8,3,4,9)            -71.5012         estimate D2E/DX2                !
 ! D36   D(8,3,4,13)            50.3996         estimate D2E/DX2                !
 ! D37   D(14,3,4,5)           -70.3116         estimate D2E/DX2                !
 ! D38   D(14,3,4,9)            48.7232         estimate D2E/DX2                !
 ! D39   D(14,3,4,13)          170.6241         estimate D2E/DX2                !
 ! D40   D(2,3,14,23)           59.5904         estimate D2E/DX2                !
 ! D41   D(4,3,14,23)         -179.1856         estimate D2E/DX2                !
 ! D42   D(8,3,14,23)          -60.4931         estimate D2E/DX2                !
 ! D43   D(3,4,5,6)            -48.6934         estimate D2E/DX2                !
 ! D44   D(3,4,5,10)            67.5635         estimate D2E/DX2                !
 ! D45   D(3,4,5,12)          -175.8415         estimate D2E/DX2                !
 ! D46   D(9,4,5,6)           -168.0319         estimate D2E/DX2                !
 ! D47   D(9,4,5,10)           -51.775          estimate D2E/DX2                !
 ! D48   D(9,4,5,12)            64.82           estimate D2E/DX2                !
 ! D49   D(13,4,5,6)            72.9211         estimate D2E/DX2                !
 ! D50   D(13,4,5,10)         -170.822          estimate D2E/DX2                !
 ! D51   D(13,4,5,12)          -54.227          estimate D2E/DX2                !
 ! D52   D(3,4,13,22)          -85.324          estimate D2E/DX2                !
 ! D53   D(5,4,13,22)          152.39           estimate D2E/DX2                !
 ! D54   D(9,4,13,22)           35.2105         estimate D2E/DX2                !
 ! D55   D(4,5,6,1)             48.4193         estimate D2E/DX2                !
 ! D56   D(4,5,6,11)           160.7377         estimate D2E/DX2                !
 ! D57   D(4,5,6,16)           -80.1007         estimate D2E/DX2                !
 ! D58   D(10,5,6,1)           -68.1995         estimate D2E/DX2                !
 ! D59   D(10,5,6,11)           44.1189         estimate D2E/DX2                !
 ! D60   D(10,5,6,16)          163.2805         estimate D2E/DX2                !
 ! D61   D(12,5,6,1)           175.2208         estimate D2E/DX2                !
 ! D62   D(12,5,6,11)          -72.4608         estimate D2E/DX2                !
 ! D63   D(12,5,6,16)           46.7008         estimate D2E/DX2                !
 ! D64   D(4,5,12,21)           34.8743         estimate D2E/DX2                !
 ! D65   D(6,5,12,21)          -92.7884         estimate D2E/DX2                !
 ! D66   D(10,5,12,21)         151.2338         estimate D2E/DX2                !
 ! D67   D(1,6,16,17)          176.135          estimate D2E/DX2                !
 ! D68   D(1,6,16,18)          -63.4597         estimate D2E/DX2                !
 ! D69   D(1,6,16,19)           57.4885         estimate D2E/DX2                !
 ! D70   D(5,6,16,17)          -56.3967         estimate D2E/DX2                !
 ! D71   D(5,6,16,18)           64.0086         estimate D2E/DX2                !
 ! D72   D(5,6,16,19)         -175.0432         estimate D2E/DX2                !
 ! D73   D(11,6,16,17)          63.3387         estimate D2E/DX2                !
 ! D74   D(11,6,16,18)        -176.2559         estimate D2E/DX2                !
 ! D75   D(11,6,16,19)         -55.3078         estimate D2E/DX2                !
 ! D76   D(2,15,27,26)         -44.1202         estimate D2E/DX2                !
 ! D77   D(2,15,27,28)        -167.4975         estimate D2E/DX2                !
 ! D78   D(2,15,27,32)          76.7836         estimate D2E/DX2                !
 ! D79   D(6,16,19,20)         157.1027         estimate D2E/DX2                !
 ! D80   D(6,16,19,64)           4.4881         estimate D2E/DX2                !
 ! D81   D(17,16,19,20)         39.6588         estimate D2E/DX2                !
 ! D82   D(17,16,19,64)       -112.9558         estimate D2E/DX2                !
 ! D83   D(18,16,19,20)        -80.2245         estimate D2E/DX2                !
 ! D84   D(18,16,19,64)        127.161          estimate D2E/DX2                !
 ! D85   D(16,19,64,56)        -63.5047         estimate D2E/DX2                !
 ! D86   D(20,19,64,56)        146.9609         estimate D2E/DX2                !
 ! D87   D(29,24,25,26)        -44.4363         estimate D2E/DX2                !
 ! D88   D(29,24,25,30)         78.5463         estimate D2E/DX2                !
 ! D89   D(29,24,25,37)       -168.2071         estimate D2E/DX2                !
 ! D90   D(25,24,29,28)         55.9504         estimate D2E/DX2                !
 ! D91   D(25,24,29,34)        -65.0589         estimate D2E/DX2                !
 ! D92   D(25,24,29,38)        177.9913         estimate D2E/DX2                !
 ! D93   D(24,25,26,27)         37.0398         estimate D2E/DX2                !
 ! D94   D(24,25,26,31)        -83.5173         estimate D2E/DX2                !
 ! D95   D(24,25,26,36)        158.138          estimate D2E/DX2                !
 ! D96   D(30,25,26,27)        -87.2262         estimate D2E/DX2                !
 ! D97   D(30,25,26,31)        152.2166         estimate D2E/DX2                !
 ! D98   D(30,25,26,36)         33.872          estimate D2E/DX2                !
 ! D99   D(37,25,26,27)        158.7462         estimate D2E/DX2                !
 ! D100  D(37,25,26,31)         38.189          estimate D2E/DX2                !
 ! D101  D(37,25,26,36)        -80.1556         estimate D2E/DX2                !
 ! D102  D(24,25,37,49)         56.8837         estimate D2E/DX2                !
 ! D103  D(26,25,37,49)        -69.146          estimate D2E/DX2                !
 ! D104  D(30,25,37,49)        174.3714         estimate D2E/DX2                !
 ! D105  D(25,26,27,15)       -162.3797         estimate D2E/DX2                !
 ! D106  D(25,26,27,28)        -42.805          estimate D2E/DX2                !
 ! D107  D(25,26,27,32)         76.9312         estimate D2E/DX2                !
 ! D108  D(31,26,27,15)        -42.7815         estimate D2E/DX2                !
 ! D109  D(31,26,27,28)         76.7932         estimate D2E/DX2                !
 ! D110  D(31,26,27,32)       -163.4706         estimate D2E/DX2                !
 ! D111  D(36,26,27,15)         77.6344         estimate D2E/DX2                !
 ! D112  D(36,26,27,28)       -162.7909         estimate D2E/DX2                !
 ! D113  D(36,26,27,32)        -43.0547         estimate D2E/DX2                !
 ! D114  D(25,26,36,44)        103.768          estimate D2E/DX2                !
 ! D115  D(27,26,36,44)       -132.1042         estimate D2E/DX2                !
 ! D116  D(31,26,36,44)        -12.5452         estimate D2E/DX2                !
 ! D117  D(15,27,28,29)        177.651          estimate D2E/DX2                !
 ! D118  D(15,27,28,33)        -64.1223         estimate D2E/DX2                !
 ! D119  D(15,27,28,35)         55.3047         estimate D2E/DX2                !
 ! D120  D(26,27,28,29)         53.0508         estimate D2E/DX2                !
 ! D121  D(26,27,28,33)        171.2775         estimate D2E/DX2                !
 ! D122  D(26,27,28,35)        -69.2955         estimate D2E/DX2                !
 ! D123  D(32,27,28,29)        -66.7817         estimate D2E/DX2                !
 ! D124  D(32,27,28,33)         51.445          estimate D2E/DX2                !
 ! D125  D(32,27,28,35)        170.872          estimate D2E/DX2                !
 ! D126  D(27,28,29,24)        -58.8727         estimate D2E/DX2                !
 ! D127  D(27,28,29,34)         63.5294         estimate D2E/DX2                !
 ! D128  D(27,28,29,38)       -176.3292         estimate D2E/DX2                !
 ! D129  D(33,28,29,24)       -176.8813         estimate D2E/DX2                !
 ! D130  D(33,28,29,34)        -54.4792         estimate D2E/DX2                !
 ! D131  D(33,28,29,38)         65.6621         estimate D2E/DX2                !
 ! D132  D(35,28,29,24)         63.3467         estimate D2E/DX2                !
 ! D133  D(35,28,29,34)       -174.2512         estimate D2E/DX2                !
 ! D134  D(35,28,29,38)        -54.1099         estimate D2E/DX2                !
 ! D135  D(27,28,35,43)        148.6283         estimate D2E/DX2                !
 ! D136  D(27,28,35,84)         -6.1951         estimate D2E/DX2                !
 ! D137  D(29,28,35,43)         27.2298         estimate D2E/DX2                !
 ! D138  D(29,28,35,84)       -127.5936         estimate D2E/DX2                !
 ! D139  D(33,28,35,43)        -92.3494         estimate D2E/DX2                !
 ! D140  D(33,28,35,84)        112.8272         estimate D2E/DX2                !
 ! D141  D(24,29,38,39)         60.2926         estimate D2E/DX2                !
 ! D142  D(24,29,38,40)        179.1014         estimate D2E/DX2                !
 ! D143  D(24,29,38,41)        -61.9844         estimate D2E/DX2                !
 ! D144  D(28,29,38,39)       -178.585          estimate D2E/DX2                !
 ! D145  D(28,29,38,40)        -59.7763         estimate D2E/DX2                !
 ! D146  D(28,29,38,41)         59.1379         estimate D2E/DX2                !
 ! D147  D(34,29,38,39)        -58.3699         estimate D2E/DX2                !
 ! D148  D(34,29,38,40)         60.4388         estimate D2E/DX2                !
 ! D149  D(34,29,38,41)        179.3531         estimate D2E/DX2                !
 ! D150  D(28,35,81,78)       -129.6878         estimate D2E/DX2                !
 ! D151  D(28,35,81,82)         -9.3305         estimate D2E/DX2                !
 ! D152  D(28,35,81,83)        100.4838         estimate D2E/DX2                !
 ! D153  D(43,35,81,78)         81.9724         estimate D2E/DX2                !
 ! D154  D(43,35,81,82)       -157.6704         estimate D2E/DX2                !
 ! D155  D(43,35,81,83)        -47.8561         estimate D2E/DX2                !
 ! D156  D(25,37,49,48)        117.3581         estimate D2E/DX2                !
 ! D157  D(25,37,49,50)       -122.4285         estimate D2E/DX2                !
 ! D158  D(25,37,49,55)         -3.952          estimate D2E/DX2                !
 ! D159  D(29,38,41,42)         76.6337         estimate D2E/DX2                !
 ! D160  D(39,38,41,42)        -44.9926         estimate D2E/DX2                !
 ! D161  D(40,38,41,42)       -162.8766         estimate D2E/DX2                !
 ! D162  D(38,41,62,59)        -28.5053         estimate D2E/DX2                !
 ! D163  D(38,41,62,63)        179.4125         estimate D2E/DX2                !
 ! D164  D(50,45,46,47)         43.3327         estimate D2E/DX2                !
 ! D165  D(50,45,46,51)        162.8057         estimate D2E/DX2                !
 ! D166  D(50,45,46,58)        -77.1722         estimate D2E/DX2                !
 ! D167  D(46,45,50,49)         15.4194         estimate D2E/DX2                !
 ! D168  D(46,45,50,54)       -103.5224         estimate D2E/DX2                !
 ! D169  D(46,45,50,59)        142.1777         estimate D2E/DX2                !
 ! D170  D(45,46,47,48)        -64.0749         estimate D2E/DX2                !
 ! D171  D(45,46,47,52)        178.103          estimate D2E/DX2                !
 ! D172  D(45,46,47,57)         60.2714         estimate D2E/DX2                !
 ! D173  D(51,46,47,48)       -178.8425         estimate D2E/DX2                !
 ! D174  D(51,46,47,52)         63.3354         estimate D2E/DX2                !
 ! D175  D(51,46,47,57)        -54.4962         estimate D2E/DX2                !
 ! D176  D(58,46,47,48)         59.6787         estimate D2E/DX2                !
 ! D177  D(58,46,47,52)        -58.1434         estimate D2E/DX2                !
 ! D178  D(58,46,47,57)       -175.975          estimate D2E/DX2                !
 ! D179  D(45,46,58,66)        -72.4085         estimate D2E/DX2                !
 ! D180  D(47,46,58,66)        165.9383         estimate D2E/DX2                !
 ! D181  D(51,46,58,66)         43.832          estimate D2E/DX2                !
 ! D182  D(46,47,48,49)         24.0984         estimate D2E/DX2                !
 ! D183  D(46,47,48,53)        142.0302         estimate D2E/DX2                !
 ! D184  D(46,47,48,56)        -98.8678         estimate D2E/DX2                !
 ! D185  D(52,47,48,49)        143.2991         estimate D2E/DX2                !
 ! D186  D(52,47,48,53)        -98.7692         estimate D2E/DX2                !
 ! D187  D(52,47,48,56)         20.3328         estimate D2E/DX2                !
 ! D188  D(57,47,48,49)        -99.2226         estimate D2E/DX2                !
 ! D189  D(57,47,48,53)         18.7091         estimate D2E/DX2                !
 ! D190  D(57,47,48,56)        137.8112         estimate D2E/DX2                !
 ! D191  D(46,47,57,65)        -29.1204         estimate D2E/DX2                !
 ! D192  D(48,47,57,65)         94.2038         estimate D2E/DX2                !
 ! D193  D(52,47,57,65)       -148.3242         estimate D2E/DX2                !
 ! D194  D(47,48,49,37)        149.2421         estimate D2E/DX2                !
 ! D195  D(47,48,49,50)         31.4999         estimate D2E/DX2                !
 ! D196  D(47,48,49,55)        -89.0653         estimate D2E/DX2                !
 ! D197  D(53,48,49,37)         32.1353         estimate D2E/DX2                !
 ! D198  D(53,48,49,50)        -85.6069         estimate D2E/DX2                !
 ! D199  D(53,48,49,55)        153.8278         estimate D2E/DX2                !
 ! D200  D(56,48,49,37)        -88.2465         estimate D2E/DX2                !
 ! D201  D(56,48,49,50)        154.0113         estimate D2E/DX2                !
 ! D202  D(56,48,49,55)         33.446          estimate D2E/DX2                !
 ! D203  D(47,48,56,64)       -118.3186         estimate D2E/DX2                !
 ! D204  D(47,48,56,83)         70.2909         estimate D2E/DX2                !
 ! D205  D(49,48,56,64)        117.2365         estimate D2E/DX2                !
 ! D206  D(49,48,56,83)        -54.1541         estimate D2E/DX2                !
 ! D207  D(53,48,56,64)         -1.643          estimate D2E/DX2                !
 ! D208  D(53,48,56,83)       -173.0335         estimate D2E/DX2                !
 ! D209  D(37,49,50,45)       -173.775          estimate D2E/DX2                !
 ! D210  D(37,49,50,54)        -54.1609         estimate D2E/DX2                !
 ! D211  D(37,49,50,59)         64.8987         estimate D2E/DX2                !
 ! D212  D(48,49,50,45)        -54.1317         estimate D2E/DX2                !
 ! D213  D(48,49,50,54)         65.4823         estimate D2E/DX2                !
 ! D214  D(48,49,50,59)       -175.4581         estimate D2E/DX2                !
 ! D215  D(55,49,50,45)         66.8622         estimate D2E/DX2                !
 ! D216  D(55,49,50,54)       -173.5237         estimate D2E/DX2                !
 ! D217  D(55,49,50,59)        -54.4642         estimate D2E/DX2                !
 ! D218  D(45,50,59,60)         65.5881         estimate D2E/DX2                !
 ! D219  D(45,50,59,61)       -175.0572         estimate D2E/DX2                !
 ! D220  D(45,50,59,62)        -55.7376         estimate D2E/DX2                !
 ! D221  D(49,50,59,60)       -168.9592         estimate D2E/DX2                !
 ! D222  D(49,50,59,61)        -49.6045         estimate D2E/DX2                !
 ! D223  D(49,50,59,62)         69.7151         estimate D2E/DX2                !
 ! D224  D(54,50,59,60)        -49.7308         estimate D2E/DX2                !
 ! D225  D(54,50,59,61)         69.6239         estimate D2E/DX2                !
 ! D226  D(54,50,59,62)       -171.0566         estimate D2E/DX2                !
 ! D227  D(48,56,64,19)       -114.8451         estimate D2E/DX2                !
 ! D228  D(83,56,64,19)         55.3122         estimate D2E/DX2                !
 ! D229  D(48,56,83,81)        135.0266         estimate D2E/DX2                !
 ! D230  D(64,56,83,81)        -34.302          estimate D2E/DX2                !
 ! D231  D(46,58,66,67)        -64.4323         estimate D2E/DX2                !
 ! D232  D(46,58,66,68)         53.5986         estimate D2E/DX2                !
 ! D233  D(46,58,66,69)        174.0312         estimate D2E/DX2                !
 ! D234  D(50,59,62,42)        -95.9515         estimate D2E/DX2                !
 ! D235  D(50,59,62,63)         59.0162         estimate D2E/DX2                !
 ! D236  D(60,59,62,42)        143.1479         estimate D2E/DX2                !
 ! D237  D(60,59,62,63)        -61.8844         estimate D2E/DX2                !
 ! D238  D(61,59,62,42)         25.176          estimate D2E/DX2                !
 ! D239  D(61,59,62,63)       -179.8563         estimate D2E/DX2                !
 ! D240  D(58,66,69,70)        -53.8183         estimate D2E/DX2                !
 ! D241  D(58,66,69,71)       -167.5535         estimate D2E/DX2                !
 ! D242  D(58,66,69,72)         69.6313         estimate D2E/DX2                !
 ! D243  D(67,66,69,70)       -173.8164         estimate D2E/DX2                !
 ! D244  D(67,66,69,71)         72.4484         estimate D2E/DX2                !
 ! D245  D(67,66,69,72)        -50.3668         estimate D2E/DX2                !
 ! D246  D(68,66,69,70)         66.2906         estimate D2E/DX2                !
 ! D247  D(68,66,69,71)        -47.4445         estimate D2E/DX2                !
 ! D248  D(68,66,69,72)       -170.2598         estimate D2E/DX2                !
 ! D249  D(66,69,72,73)        -25.7866         estimate D2E/DX2                !
 ! D250  D(66,69,72,74)         88.7545         estimate D2E/DX2                !
 ! D251  D(66,69,72,75)       -148.7951         estimate D2E/DX2                !
 ! D252  D(70,69,72,73)         95.4908         estimate D2E/DX2                !
 ! D253  D(70,69,72,74)       -149.9681         estimate D2E/DX2                !
 ! D254  D(70,69,72,75)        -27.5177         estimate D2E/DX2                !
 ! D255  D(71,69,72,73)       -148.0554         estimate D2E/DX2                !
 ! D256  D(71,69,72,74)        -33.5144         estimate D2E/DX2                !
 ! D257  D(71,69,72,75)         88.936          estimate D2E/DX2                !
 ! D258  D(69,72,75,76)       -141.8911         estimate D2E/DX2                !
 ! D259  D(69,72,75,77)        -25.5004         estimate D2E/DX2                !
 ! D260  D(69,72,75,78)         98.8673         estimate D2E/DX2                !
 ! D261  D(73,72,75,76)         95.0352         estimate D2E/DX2                !
 ! D262  D(73,72,75,77)       -148.574          estimate D2E/DX2                !
 ! D263  D(73,72,75,78)        -24.2063         estimate D2E/DX2                !
 ! D264  D(74,72,75,76)        -19.8528         estimate D2E/DX2                !
 ! D265  D(74,72,75,77)         96.5379         estimate D2E/DX2                !
 ! D266  D(74,72,75,78)       -139.0944         estimate D2E/DX2                !
 ! D267  D(72,75,78,79)       -176.7462         estimate D2E/DX2                !
 ! D268  D(72,75,78,80)         63.8729         estimate D2E/DX2                !
 ! D269  D(72,75,78,81)        -56.2517         estimate D2E/DX2                !
 ! D270  D(76,75,78,79)         61.5819         estimate D2E/DX2                !
 ! D271  D(76,75,78,80)        -57.799          estimate D2E/DX2                !
 ! D272  D(76,75,78,81)       -177.9236         estimate D2E/DX2                !
 ! D273  D(77,75,78,79)        -52.1536         estimate D2E/DX2                !
 ! D274  D(77,75,78,80)       -171.5345         estimate D2E/DX2                !
 ! D275  D(77,75,78,81)         68.3408         estimate D2E/DX2                !
 ! D276  D(75,78,81,82)       -173.2788         estimate D2E/DX2                !
 ! D277  D(75,78,81,83)         67.7415         estimate D2E/DX2                !
 ! D278  D(75,78,81,84)        -56.3179         estimate D2E/DX2                !
 ! D279  D(79,78,81,82)        -50.0558         estimate D2E/DX2                !
 ! D280  D(79,78,81,83)       -169.0355         estimate D2E/DX2                !
 ! D281  D(79,78,81,84)         66.9051         estimate D2E/DX2                !
 ! D282  D(80,78,81,82)         64.4528         estimate D2E/DX2                !
 ! D283  D(80,78,81,83)        -54.5269         estimate D2E/DX2                !
 ! D284  D(80,78,81,84)       -178.5863         estimate D2E/DX2                !
 ! D285  D(78,81,83,56)        140.9462         estimate D2E/DX2                !
 ! D286  D(82,81,83,56)         19.4109         estimate D2E/DX2                !
 ! D287  D(84,81,83,56)        -91.9044         estimate D2E/DX2                !
 --------------------------------------------------------------------------------
 Trust Radius=3.00D-01 FncErr=1.00D-07 GrdErr=1.00D-06
 Number of steps in this run=    504 maximum allowed number of steps=    504.
 GradGradGradGradGradGradGradGradGradGradGradGradGradGradGradGradGradGrad

 Leave Link  103 at Wed Apr  6 15:55:05 2016, MaxMem= 10737418240 cpu:         1.3
 (Enter /share/apps//g09/l202.exe)
 Stoichiometry    C23H44NO16(1+)
 Framework group  C1[X(C23H44NO16)]
 Deg. of freedom   246
 Full point group                 C1      NOp   1
 Largest Abelian subgroup         C1      NOp   1
 Largest concise Abelian subgroup C1      NOp   1
                         Standard orientation:                         
 ---------------------------------------------------------------------
 Center     Atomic      Atomic             Coordinates (Angstroms)
 Number     Number       Type             X           Y           Z
 ---------------------------------------------------------------------
      1          8           0       -2.533753   -0.327621    0.010883
      2          6           0       -3.060014    1.012532   -0.229141
      3          6           0       -4.297199    1.249485    0.638467
      4          6           0       -5.345024    0.149285    0.386402
      5          6           0       -4.746774   -1.257321    0.519060
      6          6           0       -3.422219   -1.430823   -0.274784
      7          1           0       -3.288831    1.127963   -1.299315
      8          1           0       -4.732378    2.223875    0.344583
      9          1           0       -6.144792    0.250308    1.138459
     10          1           0       -4.486939   -1.392401    1.580480
     11          1           0       -2.899095   -2.306557    0.143054
     12          8           0       -5.698385   -2.257098    0.191746
     13          8           0       -5.882063    0.244077   -0.945867
     14          8           0       -3.974883    1.233257    2.027156
     15          8           0       -2.063950    1.898090    0.192802
     16          6           0       -3.552870   -1.682967   -1.773635
     17          1           0       -4.182406   -2.572256   -1.916973
     18          1           0       -4.006566   -0.834134   -2.306013
     19          8           0       -2.213341   -1.932031   -2.293006
     20          1           0       -2.300764   -2.437353   -3.119588
     21          1           0       -6.250811   -1.886844   -0.525883
     22          1           0       -6.615492    0.881559   -0.948433
     23          1           0       -3.321948    1.944046    2.165830
     24          8           0        1.799343    2.232688   -1.435835
     25          6           0        0.923575    1.427357   -2.218405
     26          6           0       -0.444270    1.122720   -1.555217
     27          6           0       -1.018086    2.285822   -0.743898
     28          6           0        0.048159    2.976934    0.106164
     29          6           0        1.232129    3.374999   -0.790522
     30          1           0        0.736254    1.895108   -3.201437
     31          1           0       -0.296301    0.264926   -0.888733
     32          1           0       -1.441169    3.029013   -1.444949
     33          1           0       -0.392671    3.894357    0.538498
     34          1           0        0.877949    4.116802   -1.535234
     35          8           0        0.481711    2.115881    1.176277
     36          8           0       -1.356118    0.784069   -2.601850
     37          8           0        1.616211    0.232627   -2.524462
     38          6           0        2.388904    3.996151    0.001242
     39          1           0        3.192577    4.282530   -0.694348
     40          1           0        2.044230    4.900509    0.523036
     41          8           0        2.889210    3.091022    0.998874
     42          1           0        3.446871    2.412533    0.531018
     43          1           0        1.445978    2.359888    1.329985
     44          1           0       -1.481766   -0.188749   -2.599238
     45          8           0        4.250395   -1.549290   -0.586407
     46          6           0        3.378415   -2.394933    0.168019
     47          6           0        2.337180   -3.018903   -0.755351
     48          6           0        1.424950   -1.915786   -1.363757
     49          6           0        2.104577   -0.531026   -1.394833
     50          6           0        3.630267   -0.673658   -1.580114
     51          1           0        4.050541   -3.158876    0.595366
     52          1           0        1.690586   -3.694346   -0.176457
     53          1           0        1.225679   -2.216194   -2.404150
     54          1           0        3.800954   -1.106397   -2.584037
     55          1           0        1.905063    0.002882   -0.455424
     56          8           0        0.193051   -1.848969   -0.618688
     57          8           0        2.973848   -3.801609   -1.760660
     58          8           0        2.688025   -1.709288    1.197332
     59          6           0        4.419148    0.632258   -1.516704
     60          1           0        5.449549    0.439026   -1.855423
     61          1           0        3.963040    1.380973   -2.172452
     62          8           0        4.447981    1.192415   -0.194622
     63          1           0        4.857319    0.519176    0.378419
     64          1           0       -0.557669   -2.060944   -1.209998
     65          1           0        3.854859   -3.420627   -1.934779
     66          6           0        3.512838   -1.336787    2.320866
     67          1           0        3.884503   -2.249723    2.822177
     68          1           0        4.390093   -0.766499    1.973727
     69          6           0        2.659516   -0.491173    3.248555
     70          1           0        2.239471    0.332092    2.648765
     71          1           0        3.311923   -0.009680    3.992558
     72          6           0        1.547032   -1.287187    3.963112
     73          1           0        1.277479   -2.168952    3.357506
     74          1           0        1.950897   -1.692608    4.901379
     75          6           0        0.277401   -0.464123    4.263462
     76          1           0       -0.136542   -0.744962    5.243131
     77          1           0        0.525844    0.607088    4.340322
     78          6           0       -0.853954   -0.663177    3.257836
     79          1           0       -1.709890   -0.013463    3.484599
     80          1           0       -1.212594   -1.702651    3.282382
     81          7           0       -0.468542   -0.375976    1.839083
     82          1           0       -1.311115   -0.418962    1.213665
     83          1           0        0.209877   -1.049666    1.447860
     84          1           0       -0.082322    0.596190    1.692149
 ---------------------------------------------------------------------
 Rotational constants (GHZ):      0.1306875      0.0697497      0.0671699
 Leave Link  202 at Wed Apr  6 15:55:07 2016, MaxMem= 10737418240 cpu:         4.3
 (Enter /share/apps//g09/l301.exe)
 Standard basis: 6-311+G(d,p) (5D, 7F)
 Ernie: Thresh=  0.10000D-02 Tol=  0.10000D-05 Strict=F.
 There are  1184 symmetry adapted cartesian basis functions of A   symmetry.
 There are  1144 symmetry adapted basis functions of A   symmetry.
  1144 basis functions,  1792 primitive gaussians,  1184 cartesian basis functions
   158 alpha electrons      158 beta electrons
       nuclear repulsion energy      6068.8234116800 Hartrees.
 IExCor= 1009 DFT=T Ex+Corr=PBE1PBE ExCW=0 ScaHFX=  0.250000
 ScaDFX=  0.750000  0.750000  1.000000  1.000000 ScalE2=  1.000000  1.000000
 IRadAn=      0 IRanWt=     -1 IRanGd=            0 ICorTp=0 IEmpDi=131
 NAtoms=   84 NActive=   84 NUniq=   84 SFac= 1.00D+00 NAtFMM=   60 NAOKFM=T Big=T
 Integral buffers will be    131072 words long.
 Raffenetti 2 integral format.
 Two-electron integral symmetry is turned on.
 R6Disp:  Grimme-D3 Dispersion energy=       -0.0907006416 Hartrees.
 Nuclear repulsion after empirical dispersion term =     6068.7327110384 Hartrees.
 Leave Link  301 at Wed Apr  6 15:55:08 2016, MaxMem= 10737418240 cpu:         3.2
 (Enter /share/apps//g09/l302.exe)
 NPDir=0 NMtPBC=     1 NCelOv=     1 NCel=       1 NClECP=     1 NCelD=      1
         NCelK=      1 NCelE2=     1 NClLst=     1 CellRange=     0.0.
 One-electron integrals computed using PRISM.
 NBasis=  1144 RedAO= T EigKep=  1.04D-06  NBF=  1144
 NBsUse=  1142 1.00D-06 EigRej=  9.77D-07 NBFU=  1142
 Precomputing XC quadrature grid using
 IXCGrd= 4 IRadAn=           0 IRanWt=          -1 IRanGd=           0 AccXCQ= 0.00D+00.
 Generated NRdTot=       0 NPtTot=           0 NUsed=           0 NTot=          32
 NSgBfM=  1102  1111  1117  1118  1126 MxSgAt=    84 MxSgA2=    84.
 Leave Link  302 at Wed Apr  6 15:55:15 2016, MaxMem= 10737418240 cpu:        74.3
 (Enter /share/apps//g09/l303.exe)
 DipDrv:  MaxL=1.
 Leave Link  303 at Wed Apr  6 15:55:17 2016, MaxMem= 10737418240 cpu:        26.4
 (Enter /share/apps//g09/l401.exe)
 ExpMin= 4.38D-02 ExpMax= 8.59D+03 ExpMxC= 1.30D+03 IAcc=2 IRadAn=         4 AccDes= 0.00D+00
 Harris functional with IExCor= 1009 and IRadAn=       4 diagonalized for initial guess.
 HarFok:  IExCor= 1009 AccDes= 0.00D+00 IRadAn=         4 IDoV= 1 UseB2=F ITyADJ=14
 ICtDFT=  3500011 ScaDFX=  1.000000  1.000000  1.000000  1.000000
 FoFCou: FMM=F IPFlag=           0 FMFlag=      100000 FMFlg1=        2001
         NFxFlg=           0 DoJE=T BraDBF=F KetDBF=T FulRan=T
         wScrn=  0.000000 ICntrl=     500 IOpCl=  0 I1Cent=   200000004 NGrid=           0
         NMat0=    1 NMatS0=      1 NMatT0=    0 NMatD0=    1 NMtDS0=    0 NMtDT0=    0
 Petite list used in FoFCou.
 Harris En= -2159.70630458686    
 JPrj=0 DoOrth=F DoCkMO=F.
 Leave Link  401 at Wed Apr  6 15:55:25 2016, MaxMem= 10737418240 cpu:       127.1
 (Enter /share/apps//g09/l502.exe)
 Closed shell SCF:
 Using DIIS extrapolation, IDIIS=  1040.
 Integral symmetry usage will be decided dynamically.
 IVT=     4256630 IEndB=     4256630 NGot= 10737418240 MDV= 10734581291
 LenX= 10734581291 LenY= 10733178251
 Requested convergence on RMS density matrix=1.00D-08 within 128 cycles.
 Requested convergence on MAX density matrix=1.00D-06.
 Requested convergence on             energy=1.00D-06.
 No special actions if energy rises.
 Fock matrices will be formed incrementally for  20 cycles.

 Cycle   1  Pass 1  IDiag  1:
 FoFJK:  IHMeth= 1 ICntrl=       0 DoSepK=F KAlg= 0 I1Cent=   0 FoldK=F
 IRaf= 800000000 NMat=   1 IRICut=       1 DoRegI=T DoRafI=F ISym2E= 0.
 FoFCou: FMM=T IPFlag=           0 FMFlag=      100000 FMFlg1=        2001
         NFxFlg=           0 DoJE=F BraDBF=F KetDBF=F FulRan=T
         wScrn=  0.000000 ICntrl=       0 IOpCl=  0 I1Cent=           0 NGrid=           0
         NMat0=    1 NMatS0=      1 NMatT0=    0 NMatD0=    1 NMtDS0=    0 NMtDT0=    0
 Symmetry not used in FoFCou.
 FMM levels:  10  Number of levels for PrismC:   9
 E= -2158.70135520009    
 DIIS: error= 1.13D-02 at cycle   1 NSaved=   1.
 NSaved= 1 IEnMin= 1 EnMin= -2158.70135520009     IErMin= 1 ErrMin= 1.13D-02
 ErrMax= 1.13D-02  0.00D+00 EMaxC= 1.00D-01 BMatC= 1.01D+00 BMatP= 1.01D+00
 IDIUse=3 WtCom= 8.87D-01 WtEn= 1.13D-01
 Coeff-Com:  0.100D+01
 Coeff-En:   0.100D+01
 Coeff:      0.100D+01
 Gap=     0.265 Goal=   None    Shift=    0.000
 GapD=    0.265 DampG=1.000 DampE=0.500 DampFc=0.5000 IDamp=-1.
 Damping current iteration by 5.00D-01
 RMSDP=1.03D-02 MaxDP=1.68D+00              OVMax= 1.33D-01

 Cycle   2  Pass 1  IDiag  1:
 RMSU=  5.14D-03    CP:  1.00D+00
 E= -2158.98235860878     Delta-E=       -0.281003408698 Rises=F Damp=T
 DIIS: error= 3.27D-03 at cycle   2 NSaved=   2.
 NSaved= 2 IEnMin= 2 EnMin= -2158.98235860878     IErMin= 2 ErrMin= 3.27D-03
 ErrMax= 3.27D-03  0.00D+00 EMaxC= 1.00D-01 BMatC= 7.95D-02 BMatP= 1.01D+00
 IDIUse=3 WtCom= 9.67D-01 WtEn= 3.27D-02
 Coeff-Com:  0.542D-01 0.946D+00
 Coeff-En:   0.147D+00 0.853D+00
 Coeff:      0.573D-01 0.943D+00
 Gap=     0.285 Goal=   None    Shift=    0.000
 RMSDP=5.76D-03 MaxDP=2.43D+00 DE=-2.81D-01 OVMax= 7.72D-02

 Cycle   3  Pass 1  IDiag  1:
 RMSU=  2.85D-03    CP:  9.04D-01  8.63D-01
 E= -2159.34306158424     Delta-E=       -0.360702975457 Rises=F Damp=F
 DIIS: error= 2.85D-03 at cycle   3 NSaved=   3.
 NSaved= 3 IEnMin= 3 EnMin= -2159.34306158424     IErMin= 3 ErrMin= 2.85D-03
 ErrMax= 2.85D-03  0.00D+00 EMaxC= 1.00D-01 BMatC= 4.35D-02 BMatP= 7.95D-02
 IDIUse=3 WtCom= 9.72D-01 WtEn= 2.85D-02
 Coeff-Com: -0.701D-01 0.408D+00 0.662D+00
 Coeff-En:   0.000D+00 0.000D+00 0.100D+01
 Coeff:     -0.681D-01 0.397D+00 0.671D+00
 Gap=     0.270 Goal=   None    Shift=    0.000
 RMSDP=1.02D-03 MaxDP=1.41D-01 DE=-3.61D-01 OVMax= 1.80D-02

 Cycle   4  Pass 1  IDiag  1:
 RMSU=  8.38D-04    CP:  9.10D-01  9.17D-01  8.56D-01
 E= -2159.37059976492     Delta-E=       -0.027538180679 Rises=F Damp=F
 DIIS: error= 8.77D-04 at cycle   4 NSaved=   4.
 NSaved= 4 IEnMin= 4 EnMin= -2159.37059976492     IErMin= 4 ErrMin= 8.77D-04
 ErrMax= 8.77D-04  0.00D+00 EMaxC= 1.00D-01 BMatC= 5.37D-03 BMatP= 4.35D-02
 IDIUse=3 WtCom= 9.91D-01 WtEn= 8.77D-03
 Coeff-Com: -0.364D-01 0.126D+00 0.337D+00 0.574D+00
 Coeff-En:   0.000D+00 0.000D+00 0.548D-01 0.945D+00
 Coeff:     -0.361D-01 0.125D+00 0.334D+00 0.577D+00
 Gap=     0.265 Goal=   None    Shift=    0.000
 RMSDP=1.01D-03 MaxDP=4.38D-01 DE=-2.75D-02 OVMax= 5.76D-03

 Cycle   5  Pass 1  IDiag  1:
 RMSU=  3.86D-04    CP:  8.92D-01  8.80D-01  8.49D-01  6.78D-01
 E= -2159.37510538231     Delta-E=       -0.004505617393 Rises=F Damp=F
 DIIS: error= 2.33D-04 at cycle   5 NSaved=   5.
 NSaved= 5 IEnMin= 5 EnMin= -2159.37510538231     IErMin= 5 ErrMin= 2.33D-04
 ErrMax= 2.33D-04  0.00D+00 EMaxC= 1.00D-01 BMatC= 2.93D-04 BMatP= 5.37D-03
 IDIUse=3 WtCom= 9.98D-01 WtEn= 2.33D-03
 Coeff-Com: -0.119D-01 0.277D-01 0.105D+00 0.261D+00 0.618D+00
 Coeff-En:   0.000D+00 0.000D+00 0.000D+00 0.000D+00 0.100D+01
 Coeff:     -0.119D-01 0.276D-01 0.104D+00 0.261D+00 0.619D+00
 Gap=     0.265 Goal=   None    Shift=    0.000
 RMSDP=1.94D-04 MaxDP=7.35D-02 DE=-4.51D-03 OVMax= 1.59D-03

 Cycle   6  Pass 1  IDiag  1:
 RMSU=  8.08D-05    CP:  8.95D-01  8.87D-01  8.65D-01  6.71D-01  7.42D-01
 E= -2159.37531060660     Delta-E=       -0.000205224291 Rises=F Damp=F
 DIIS: error= 7.85D-05 at cycle   6 NSaved=   6.
 NSaved= 6 IEnMin= 6 EnMin= -2159.37531060660     IErMin= 6 ErrMin= 7.85D-05
 ErrMax= 7.85D-05  0.00D+00 EMaxC= 1.00D-01 BMatC= 3.10D-05 BMatP= 2.93D-04
 IDIUse=1 WtCom= 1.00D+00 WtEn= 0.00D+00
 Coeff-Com: -0.428D-02 0.777D-02 0.371D-01 0.108D+00 0.334D+00 0.517D+00
 Coeff:     -0.428D-02 0.777D-02 0.371D-01 0.108D+00 0.334D+00 0.517D+00
 Gap=     0.265 Goal=   None    Shift=    0.000
 RMSDP=3.82D-05 MaxDP=5.98D-03 DE=-2.05D-04 OVMax= 5.99D-04

 Cycle   7  Pass 1  IDiag  1:
 RMSU=  2.07D-05    CP:  8.95D-01  8.89D-01  8.68D-01  6.80D-01  7.30D-01
                    CP:  7.16D-01
 E= -2159.37533191125     Delta-E=       -0.000021304650 Rises=F Damp=F
 DIIS: error= 2.73D-05 at cycle   7 NSaved=   7.
 NSaved= 7 IEnMin= 7 EnMin= -2159.37533191125     IErMin= 7 ErrMin= 2.73D-05
[...]
 0.00000903,0.00013356,0.00000330,-0.00003721,-0.00002982,-0.00002726,0
 .00002586,-0.00000026,-0.00019693,-0.00035940,-0.00007765,0.00034710,0
 .00011528,-0.00013246,0.00001594,0.00058617,0.00008401,0.00018183,0.00
 008340,-0.00028799,0.00013925,0.00082754,0.00047523,-0.00151337,-0.001
 08096,-0.00029063,-0.00087696,-0.00044868,0.00014404,-0.00176561,-0.00
 241743,-0.00011769,0.00010366,-0.00014865,-0.00084243,-0.00012467,-0.0
 0001895,-0.00007318,0.00021873,0.00015364,-0.00008873,-0.00022771,0.00
 015237,0.00028728,0.00027739,0.00040510,0.00002583,0.00000404,0.000010
 56,0.00002500,0.00039447,-0.00020589,-0.00019753,-0.00082908,-0.001396
 13,0.00158263,0.00061209,0.00048590,-0.00020516,-0.00217726,0.00171530
 ,-0.00125317,0.00037740,-0.00011710,0.00000338,-0.00007023,0.00005630,
 -0.00000248,-0.00000601,0.00001252,-0.00000225,-0.00049426,0.00011827,
 0.00000783,0.00012505,-0.00009145,-0.00000961,0.00083758,0.00195978,-0
 .00043906,0.00000556,-0.00010220,0.00004763,0.00312783,0.00004715,0.00
 069672,-0.00039869,0.00024892,-0.00025747,-0.00045087,0.00030452,-0.00
 027612,0.00062926,0.00027676,-0.00080488,-0.00061419,0.00115137,0.0005
 9998,-0.00024488,-0.00026476,0.00046693,-0.00014339,0.00000638,-0.0008
 8206,0.00043296,0.00006942,-0.00050598,0.00020825,-0.00009681,0.000200
 46,-0.00079127,0.00045823,0.00053099,0.00039513,-0.00019278,0.00028393
 ,-0.00012370,-0.00008389,-0.00008960,-0.01398750,-0.00925622,0.0072623
 2,-0.00021490,-0.00083541,-0.00227164,0.00136624,0.00073764,0.00046883
 ,-0.23546435,-0.11639920,0.12981788,0.01664583,0.00557826,-0.00556252,
 0.24638809,0.00058969,-0.00026448,-0.00010048,-0.00018919,0.00004395,0
 .00027903,0.00002582,-0.00002819,0.00000556,0.00001456,-0.00001269,0.0
 0009783,0.00002005,-0.00016371,-0.00001535,0.00005807,-0.00011300,0.00
 031767,0.00001821,0.00004912,-0.00003894,0.00002528,0.00001844,-0.0000
 2461,0.00000896,0.00001032,-0.00002102,-0.00003819,-0.00002602,-0.0000
 0293,0.00012445,-0.00011910,-0.00006072,-0.00003729,0.00015859,-0.0000
 4481,-0.00002938,0.00005555,-0.00011208,0.00006763,0.00009099,-0.00010
 147,-0.00009670,-0.00016631,-0.00049490,0.00013791,0.00004963,-0.00005
 278,-0.00000466,-0.00000493,0.00001069,-0.00003990,-0.00001155,-0.0000
 2563,-0.00014134,-0.00009959,-0.00010142,0.00005207,0.00004414,0.00000
 335,0.00000504,-0.00003278,0.00002153,0.00000321,-0.00002147,0.0000278
 2,-0.00009998,-0.00007513,0.00008573,-0.00028608,-0.00011576,0.0002209
 5,0.00044632,0.00030431,-0.00049977,-0.00006101,-0.00001770,-0.0000392
 6,0.00020548,0.00038522,0.00026668,-0.00010495,-0.00025847,0.00029311,
 0.00031006,0.00012989,-0.00021846,-0.00005545,-0.00003846,0.00005281,0
 .00005156,0.00030542,0.00008630,-0.00002941,-0.00002370,-0.00004592,-0
 .00000437,0.00000100,-0.00000600,-0.00005733,-0.00007150,0.00001833,-0
 .00005084,-0.00228732,-0.00073341,-0.00004074,-0.00023969,0.00002469,0
 .00011846,-0.00017692,0.00089772,-0.00004645,0.00007596,-0.00014188,0.
 00001457,-0.00002984,0.00001768,-0.00002265,0.00001095,0.00002178,-0.0
 0019810,-0.00036173,0.00029046,0.00027461,0.00000214,-0.00024786,0.000
 23566,0.00032140,-0.00064375,0.00001111,0.00013553,0.00009356,0.000871
 41,0.00101352,0.00106463,-0.00422756,-0.00078592,-0.00180503,-0.000325
 49,0.00047068,0.00000655,-0.00030578,0.00187459,-0.00076123,-0.0010938
 5,0.00005500,-0.00050989,0.00006640,-0.00016753,-0.00067637,0.00081567
 ,0.00027223,-0.00011278,0.00012710,0.00001457,-0.00010989,-0.00014677,
 -0.00048470,0.00010192,0.00009517,0.00011685,0.00006408,0.00027665,-0.
 00055517,-0.00076405,-0.00231318,-0.00243755,-0.00061840,0.00031072,-0
 .00032991,0.00033252,0.00290601,0.00158781,-0.00120920,-0.00007682,-0.
 00013850,0.00003398,0.00001849,-0.00001019,-0.00001355,-0.00000284,0.0
 0005285,0.00002411,-0.00005332,0.00023277,0.00024890,-0.00000660,-0.00
 024423,-0.00009668,0.00014332,-0.00001132,0.00005559,-0.00020038,0.000
 02395,-0.00009903,0.00220643,-0.00149605,0.00145721,-0.00018681,0.0003
 2774,-0.00045054,-0.00031813,0.00033455,-0.00016997,0.00007037,-0.0001
 2115,0.00090856,0.00110555,-0.00106614,-0.00027059,-0.00011513,-0.0000
 6012,-0.00044787,-0.00014746,0.00100966,0.00032532,0.00023734,0.000307
 88,-0.00011801,0.00002480,-0.00021790,-0.00008962,0.00089676,0.0009892
 6,-0.00006148,0.00009994,-0.00035033,0.00025954,0.00007845,-0.00012560
 ,0.00004140,-0.01211757,-0.00920001,0.00702314,-0.00113995,-0.00071867
 ,-0.00232029,0.00023195,-0.00035309,0.00041814,-0.11362563,-0.13245229
 ,0.08001387,-0.01835675,-0.00998300,0.01137445,0.12485023,0.13646090,-
 0.00071803,0.00041146,-0.00012154,0.00018175,-0.00021320,-0.00002064,-
 0.00007825,0.00002333,-0.00001638,-0.00001856,0.00003548,-0.00004004,-
 0.00003543,0.00009508,-0.00001127,-0.00012910,0.00008269,-0.00011422,-
 0.00000808,0.00004783,-0.00001064,0.00000042,-0.00001667,0.00002996,-0
 .00000453,-0.00000507,0.00000518,-0.00001204,0.00001467,0.00001448,-0.
 00001511,0.00005731,0.00004517,0.00003123,-0.00011467,0.00000354,0.000
 02150,-0.00005767,0.00005268,0.00003860,-0.00007426,0.00015438,-0.0000
 6742,-0.00006781,-0.00040843,0.00008902,0.00016115,0.00001075,-0.00001
 673,-0.00002575,0.00000207,-0.00001235,-0.00000987,0.00000519,0.000031
 80,-0.00025169,0.00012565,-0.00004895,-0.00001759,0.00001713,0.0000019
 7,0.00002664,-0.00000562,-0.00000326,0.00002215,-0.00001693,0.00001086
 ,-0.00001788,-0.00009187,-0.00011417,0.00026762,0.00007103,-0.00008481
 ,-0.00034981,0.00003612,-0.00002329,-0.00006574,-0.00067512,0.00032423
 ,0.00029467,0.00010487,-0.00011522,-0.00004670,-0.00025102,0.00011173,
 -0.00007038,-0.00011289,0.00003807,0.00007568,0.00001803,-0.00017412,0
 .00002938,-0.00052237,-0.00008950,-0.00006515,0.00002890,-0.00003381,0
 .00001613,0.00008446,-0.00000481,0.00000275,0.00001681,-0.00048098,-0.
 00023008,0.00036542,0.00017869,-0.00010750,0.00041876,0.00022070,0.000
 20630,-0.00010195,0.00002447,-0.00008265,0.00011154,0.00000142,0.00001
 344,-0.00001374,-0.00000250,0.00000155,-0.00001299,0.00002114,0.000203
 73,-0.00019040,-0.00007452,-0.00008961,0.00015060,0.00012951,-0.000364
 11,0.00005066,-0.00012003,0.00009330,-0.00007442,-0.00087513,-0.001165
 12,-0.00125240,0.00333134,0.00080734,0.00110260,0.00022258,0.00006289,
 0.00054902,-0.00074431,-0.00157646,0.00077558,-0.00074885,0.00016113,-
 0.00025712,0.00026092,-0.00013498,0.00113601,-0.00039802,-0.00004563,-
 0.00000399,0.00014168,-0.00012613,-0.00004407,0.00022627,0.00029330,-0
 .00011888,0.00001735,0.00011721,-0.00016015,0.00020295,-0.00075587,-0.
 00016518,0.00170354,-0.00011814,-0.00002967,-0.00023878,0.00010431,-0.
 00047834,-0.00252174,-0.00192017,-0.00059687,0.00015355,0.00001101,-0.
 00009269,-0.00003609,0.00006968,0.00000832,0.00000426,-0.00007725,-0.0
 0002340,-0.00009033,0.00001561,-0.00022219,0.00004080,0.00014049,0.000
 15842,0.00053161,0.00058573,-0.00029386,0.00008577,-0.00000724,0.00009
 414,-0.00113300,0.00094638,-0.00101683,0.00013048,-0.00003510,0.000103
 06,0.00021131,-0.00040206,0.00015704,-0.00043443,0.00126512,0.00011472
 ,-0.00015587,0.00018007,-0.00028294,0.00010005,-0.00018359,-0.00007294
 ,-0.00167781,0.00078227,0.00061404,0.00083813,-0.00063562,-0.00139479,
 0.00077219,-0.00034405,-0.00004850,-0.00041022,-0.00032702,0.00063382,
 0.00023837,0.00016397,-0.00013278,0.00015818,0.00008896,-0.00013708,-0
 .01748551,-0.01143457,0.01844401,-0.00375213,-0.00271462,-0.00346901,0
 .00042961,-0.00018278,0.00051787,0.12706134,0.07985864,-0.15146532,0.0
 1814990,0.00728594,-0.01076576,-0.13480213,-0.08233919,0.15846142,0.00
 009350,-0.00074065,0.00098215,0.00100096,-0.00068261,-0.00119734,0.000
 03580,0.00004536,0.00018654,0.00009900,-0.00003966,-0.00008810,0.00004
 069,0.00009826,-0.00013241,-0.00023825,0.00016267,0.00024214,-0.000131
 27,0.00010850,0.00011551,-0.00005798,-0.00004154,0.00002895,-0.0000126
 5,0.00000311,0.00001779,0.00003499,0.00003765,-0.00000775,-0.00006501,
 0.00001865,0.00001476,-0.00004199,-0.00012938,0.00008923,-0.00006815,0
 .00003721,0.00008604,-0.00019788,0.00014697,0.00001363,-0.00103170,0.0
 0102582,0.00048356,0.00002698,-0.00005322,-0.00005102,0.00002611,-0.00
 000438,0.00001586,0.00001651,0.00000192,0.00002397,0.00000891,-0.00002
 999,0.00010862,-0.00001761,-0.00000899,-0.00002081,0.00002862,0.000015
 74,-0.00003552,0.00000872,-0.00001218,-0.00001038,0.00001044,-0.000446
 98,0.00013195,-0.00131725,0.00045985,0.00022948,0.00104141,-0.00081529
 ,0.00002439,0.00056898,-0.00018255,-0.00115275,0.00081378,-0.00072559,
 -0.00068764,0.00005546,-0.00372707,0.00431141,0.00100344,0.00069628,-0
 .00197749,-0.00000329,0.00016290,0.00002350,-0.00097697,-0.00000334,-0
 .00031072,-0.00024201,0.00015597,0.00001943,0.00003680,0.00002503,-0.0
 0037034,-0.00038200,-0.00055231,-0.00016385,-0.00468745,0.00069803,-0.
 00350001,-0.00009662,0.00023937,0.00066125,-0.00028652,0.00016955,0.00
 065387,-0.00011533,0.00031984,0.00042245,-0.00002241,-0.00009157,-0.00
 004474,-0.00003920,0.00006115,0.00000038,-0.00028913,-0.00169890,0.000
 02097,0.00058691,0.00016960,-0.00040590,-0.00020417,0.00211991,-0.0020
 5711,-0.00013460,-0.00001454,-0.00013958,0.00005896,0.00027194,0.00019
 741,-0.00045880,-0.00028367,-0.00020901,-0.00011409,0.00001120,0.00007
 106,-0.00029550,-0.00028038,0.00003978,-0.00061214,0.00002326,-0.00050
 585,0.00013779,-0.00013353,0.00000360,0.00008181,0.00005010,-0.0000235
 9,-0.00000695,0.00001769,0.00001578,0.00006256,0.00000042,-0.00001163,
 0.00003444,0.00008722,-0.00001648,0.00009170,-0.00046697,-0.00012916,0
 .00016659,-0.00022612,-0.00004490,0.00014561,0.00006883,-0.00004307,0.
 00040598,0.00041635,-0.00033720,0.00024926,-0.00009518,0.00002975,-0.0
 0005648,0.00002354,0.00000174,0.00002927,0.00001737,-0.00000194,-0.000
 43511,0.00009616,0.00012876,0.00002076,-0.00009548,-0.00004710,0.00004
 580,0.00015242,-0.00017179,-0.00001888,-0.00002612,0.00000020,0.000333
 10,-0.00025995,0.00041667,-0.00009008,0.00002993,-0.00005506,0.0000029
 9,0.00008329,-0.00001685,-0.00032956,0.00016222,-0.00021654,0.00061868
 ,0.00011799,-0.00024715,0.00000168,0.00007337,-0.00018052,-0.00021908,
 0.00019513,0.00015157,-0.00017473,-0.00009019,0.00026947,-0.00001328,0
 .00008068,-0.00005029,0.00193778,-0.00076360,0.00005987,-0.00030326,0.
 00027762,0.00030370,-0.00083542,0.00082063,0.00014470,0.01920335,-0.01
 747322,-0.01338090,0.00015151,-0.00038533,0.00020635,-0.00406740,-0.00
 340173,-0.00404588,-0.13071359,0.08720754,0.07650891,-0.00852725,0.010
 93447,0.00770978,-0.01143551,0.01814253,0.01152066,0.14004891,-0.00074
 742,0.00128167,-0.00168378,-0.00111311,0.00050391,0.00187678,0.0005187
 5,-0.00022338,0.00040921,-0.00004140,-0.00013041,0.00018449,0.00001526
 ,-0.00022996,0.00013254,0.00053539,-0.00053401,-0.00040477,0.00007950,
 0.00008383,-0.00022158,0.00003768,0.00008981,-0.00017425,0.00001921,-0
 .00001907,-0.00002532,-0.00003623,-0.00008187,-0.00004412,0.00010431,-
 0.00005485,-0.00001093,-0.00007832,0.00032577,-0.00011792,-0.00009496,
 0.00009042,-0.00028006,0.00001593,0.00047945,-0.00089239,0.00042400,-0
 .00232619,-0.00244985,0.00015601,0.00036768,0.00005982,-0.00008727,-0.
 00001804,-0.00003120,-0.00002604,-0.00000417,-0.00002827,-0.00015842,-
 0.00032783,-0.00024768,0.00004243,0.00006268,0.00005058,-0.00000256,-0
 .00003852,0.00005390,0.00000163,-0.00001294,0.00006649,-0.00038294,-0.
 00004310,0.00061461,0.00202948,-0.00037335,0.00020815,-0.00206048,0.00
 114319,-0.00035372,-0.00093551,-0.00009109,-0.00000058,0.00026849,0.00
 333066,0.00122890,-0.00381449,0.00464383,-0.00883284,-0.00118020,-0.00
 123848,0.00196849,0.00008078,-0.00014162,0.00004789,0.00018131,0.00067
 718,0.00031130,0.00013719,-0.00065209,-0.00008214,-0.00003470,0.000219
 53,0.00229724,0.00055240,0.00071942,0.00029386,0.00225573,-0.00324844,
 0.01064390,0.00072919,-0.00109815,-0.00006039,0.00079416,-0.00024556,-
 0.00068222,0.00015227,-0.00059923,-0.00083770,0.00005566,0.00015096,0.
 00009944,0.00004218,-0.00011265,0.00002088,0.00040781,0.00278606,0.000
 20604,-0.00082287,-0.00050950,0.00058720,0.00050865,-0.00517460,0.0015
 1636,-0.00001806,0.00042266,0.00037800,-0.00003319,-0.00056847,-0.0006
 4189,0.00053350,0.00064722,0.00042866,0.00015461,0.00006755,0.00008459
 ,0.00050672,0.00128987,0.00001607,-0.00050563,0.00010063,0.00035125,0.
 00010652,-0.00005063,0.00036652,-0.00005943,-0.00004573,-0.00001712,0.
 00010192,-0.00006803,-0.00013070,-0.00009111,-0.00024905,-0.00001638,0
 .00005392,0.00005315,-0.00006820,-0.00035525,0.00008378,0.00015910,-0.
 00112986,-0.00104794,-0.00081415,-0.00016890,-0.00020855,-0.00001363,-
 0.00034412,-0.00112436,0.00007523,-0.00044065,0.00005205,-0.00010629,0
 .00010154,0.00000882,-0.00001686,-0.00005535,-0.00007848,0.00000716,0.
 00071880,0.00015494,-0.00019588,-0.00000372,0.00005413,0.00015451,-0.0
 0003235,-0.00008848,0.00011271,-0.00004589,0.00005667,0.00003946,-0.00
 052557,0.00009687,-0.00038997,0.00024151,0.00001541,-0.00003211,-0.000
 05950,-0.00022029,0.00005435,-0.00026183,0.00039219,0.00127947,0.00017
 089,-0.00065804,0.00061104,0.00006773,-0.00010987,-0.00020584,-0.00000
 413,0.00042123,0.00002207,0.00025136,-0.00019241,-0.00036803,0.0001010
 3,-0.00039556,0.00002526,-0.00046459,0.00244907,0.00062790,0.00035541,
 -0.00056022,0.00051637,0.00011846,0.00001476,-0.00037236,0.00110619,-0
 .01028449,-0.00856434,0.00058160,-0.00042131,0.00053379,-0.00089394,0.
 00061523,0.00034475,0.08860485,-0.18336681,-0.10087680,0.01294588,-0.0
 1743149,-0.00991777,-0.00749876,0.01873203,0.01174701,-0.09235904,0.19
 201503,0.00071566,0.00040701,-0.00420635,-0.00282125,0.00361645,0.0017
 5781,0.00053939,-0.00008276,-0.00000658,-0.00023642,0.00005616,0.00010
 990,0.00007405,-0.00015432,0.00024098,0.00021979,-0.00021046,0.0001290
 5,0.00041860,-0.00029649,-0.00027814,0.00008372,0.00008166,-0.00012162
 ,0.00004534,-0.00008290,-0.00003347,-0.00007335,-0.00009310,-0.0000169
 3,0.00027191,-0.00022583,-0.00006747,0.00004216,0.00007180,-0.00018726
 ,0.00004806,-0.00011710,-0.00019724,-0.00015953,-0.00012591,-0.0006137
 2,0.00098133,-0.00319657,0.00092958,0.00009611,0.00011928,0.00005247,-
 0.00001482,-0.00001587,-0.00001987,-0.00006854,0.00003301,-0.00007357,
 0.00001992,-0.00022603,-0.00037820,-0.00002066,0.00004665,0.00007338,-
 0.00004483,0.00000833,0.00005922,-0.00001360,0.00005482,0.00001182,0.0
 0016671,0.00044426,0.00035557,0.00186768,0.00000417,0.00002421,-0.0021
 6264,0.00018420,0.00033180,-0.00096961,0.00028840,-0.00057953,-0.00055
 648,0.00071020,-0.00136890,-0.00096037,0.00164725,-0.00853912,-0.00128
 136,-0.00111007,0.00135260,0.00015359,0.00001574,0.00000566,-0.0007986
 4,0.00032565,0.00081199,0.00022446,-0.00036884,0.00023281,-0.00012361,
 0.00007352,0.00137743,0.00045164,0.00057141,0.00023169,-0.00028760,0.0
 0763392,-0.00234595,0.00116575,-0.00097177,0.00020514,0.00091981,0.000
 13406,-0.00144286,0.00023996,-0.00066805,-0.00062462,0.00003192,0.0001
 8555,0.00004750,0.00004950,-0.00011290,-0.00000307,0.00057828,0.003666
 54,-0.00034564,-0.00094974,-0.00036686,0.00085897,-0.00099887,-0.00398
 893,0.00661827,-0.00024798,0.00045694,0.00045004,-0.00028402,-0.000711
 28,-0.00099949,0.00143484,0.00104725,0.00071369,0.00017080,-0.00011093
 ,0.00011028,0.00020333,0.00075515,0.00001115,-0.00002443,0.00006677,0.
 00091427,0.00009246,-0.00002277,0.00060740,-0.00015492,-0.00008790,-0.
 00001965,0.00007996,-0.00006432,-0.00010124,-0.00012138,-0.00016609,-0
 .00001037,-0.00000202,0.00001395,-0.00008110,-0.00020884,0.00015995,0.
 00041722,-0.00066077,-0.00086298,-0.00094198,-0.00029001,-0.00009122,-
 0.00013748,-0.00167615,-0.00088752,-0.00009313,-0.00024162,0.00006146,
 -0.00003415,0.00006371,0.00001489,-0.00002432,-0.00007596,-0.00011649,
 -0.00000928,0.00054363,-0.00002218,-0.00042601,0.00008979,0.00021692,0
 .00021641,0.00000438,-0.00010356,0.00037454,0.00002704,0.00004424,0.00
 007831,0.00038259,0.00031920,0.00012232,-0.00014026,-0.00003059,0.0000
 4080,-0.00009281,-0.00022558,0.00000612,0.00034520,-0.00035594,-0.0006
 5925,-0.00029975,0.00147999,0.00051262,-0.00009143,-0.00018323,0.00054
 599,0.00027306,-0.00001983,-0.00077581,-0.00002291,-0.00002098,-0.0001
 6507,0.00000021,-0.00011614,0.00018370,0.00086132,0.00115295,-0.000199
 94,0.00019517,-0.00017775,0.00078004,-0.00050145,0.00008367,-0.0000408
 7,0.00408160,-0.01309008,-0.01199747,0.00063641,0.00076678,0.00118988,
 -0.00148441,-0.00051676,0.00021375,0.07645747,-0.09975737,-0.14561172,
 -0.01015426,0.01380944,0.02087641,0.00856821,-0.01007005,-0.00945622,-
 0.07459922,0.09939669,0.14905189\\0.00000190,-0.00003448,0.00002972,0.
 00000671,0.00001212,-0.00001745,-0.00000384,-0.00000787,0.00000571,-0.
 00000991,0.00000538,0.00001095,-0.00000301,0.00000595,-0.00001287,-0.0
 0000343,0.00000330,0.00000798,-0.00000196,0.00000066,0.00000295,-0.000
 00813,0.00000609,-0.00000007,-0.00000252,-0.00000113,0.00000431,-0.000
 00763,0.00000080,0.00000341,0.00000109,-0.00000082,0.00000008,-0.00000
 475,-0.00000318,0.00000843,-0.00000696,-0.00000622,-0.00000329,-0.0000
 0239,0.00001978,-0.00000023,0.00000736,0.00001124,0.00000818,-0.000011
 54,-0.00000326,0.00000244,-0.00000610,-0.00000488,0.00000265,-0.000001
 34,0.00000174,0.00000048,0.00000274,-0.00001441,-0.00000944,-0.0000027
 0,0.00000161,-0.00000523,-0.00000628,-0.00000386,-0.00000268,-0.000002
 44,0.00000708,0.00000574,-0.00000837,-0.00000686,0.00000429,0.00000717
 ,-0.00000672,0.00001462,0.00000423,0.00001373,-0.00002563,-0.00001148,
 0.00000811,0.00000288,0.00000209,-0.00001800,0.00000758,-0.00000184,0.
 00001099,-0.00001648,0.00000201,0.00000882,-0.00001653,0.00000254,-0.0
 0000370,0.00000121,-0.00000176,-0.00000380,0.00000229,0.00000048,0.000
 00503,0.00000110,-0.00000041,0.00000955,0.00000574,0.00000155,0.000000
 71,0.00000581,0.00000480,0.00002196,0.00001516,0.00001128,-0.00001105,
 -0.00000955,0.00000317,0.00000038,0.00000669,-0.00000143,-0.00000700,0
 .00001159,0.00001139,-0.00000198,0.00000078,0.00000478,0.00000731,-0.0
 0000193,0.00001367,0.00000076,-0.00001022,-0.00000264,0.00000318,0.000
 01353,0.00000450,-0.00001430,0.00000290,-0.00000206,0.00000393,0.00000
 904,0.00000917,-0.00000818,-0.00002358,-0.00001169,-0.00000115,-0.0000
 0050,0.00000454,-0.00001278,-0.00000406,0.00000478,-0.00000110,-0.0000
 0190,0.00000744,0.00000414,-0.00001012,-0.00000530,0.00000178,0.000033
 61,-0.00000312,-0.00000294,-0.00000406,0.00000333,-0.00000478,-0.00000
 233,0.00000180,-0.00000581,-0.00000413,0.00000419,-0.00000653,-0.00000
 599,0.00000244,-0.00000439,-0.00000216,0.00001422,-0.00001343,-0.00001
 797,0.00000106,-0.00000336,0.00000553,0.00000661,0.00001240,-0.0000056
 7,0.00000594,-0.00000303,0.00000563,0.00000752,-0.00000168,-0.00000063
 ,0.00000448,-0.00000387,-0.00000206,-0.00000579,0.00000155,-0.00002874
 ,0.00001316,-0.00000106,-0.00000091,-0.00001686,0.00001905,0.00003255,
 0.00000262,-0.00000725,-0.00000781,-0.00000126,-0.00001114,0.00000788,
 0.00000005,-0.00000195,-0.00000179,0.00000010,0.00000383,-0.00000241,0
 .00000838,0.00000839,-0.00000521,0.00000135,-0.00000381,-0.00000130,0.
 00000124,0.00000393,0.00000111,-0.00000693,0.00000447,-0.00000255,0.00
 000085,-0.00000085,-0.00000123,0.00000320,-0.00000209,-0.00000055,-0.0
 0000698,-0.00000470,0.00000016,-0.00000489,0.00000707,0.00000290,-0.00
 000179,0.00000409,0.00000230,-0.00000519,-0.00000013,0.00000524,0.0000
 0235,0.00000111,0.00000175,-0.00000456,-0.00000149,0.00000176,0.000006
 84,0.00000161,0.00001526,-0.00001520,0.00002982,-0.00003317,-0.0000063
 7,-0.00000519,-0.00000645,-0.00000022,-0.00000727,-0.00000509\\\@


 IF YOU WISH TO UNDERSTAND THE FRAGRANCE OF THE ROSE, 
 OR THE TENACITY OF THE OAK; 
 IF YOU ARE NOT SATISFIED UNTIL YOU KNOW THE SECRET PATHS 
 BY WHICH THE SUNSHINE AND THE AIR ACHIEVE THESE WONDERS; 
 IF YOU WISH TO SEE THE PATTERN WHICH UNDERLIES ONE LARGE FIELD OF 
 HUMAN EXPERIENCE AND HUMAN MEASUREMENT, THEN TAKE UP CHEMISTRY.

                                         -- C. A. COULSON, 1973.
 Job cpu time:      23 days  2 hours 33 minutes 56.2 seconds.
 File lengths (MBytes):  RWF=  17329 Int=      0 D2E=      0 Chk=     98 Scr=      1
 Normal termination of Gaussian 09 at Sat Apr  9 05:02:33 2016.
