 Entering Gaussian System, Link 0=g16
 Input=input.com
 Output=input.log
 Initial command:
 /home/matma/Programs/gaussian/G16_x86_SSE4/tar/g16/l1.exe "/scratch-data/gaussian/Gau-7998.inp" -scrdir="/scratch-data/gaussian/"
 Entering Link 1 = /home/matma/Programs/gaussian/G16_x86_SSE4/tar/g16/l1.exe PID=      8000.
  
 Copyright (c) 1988-2017, Gaussian, Inc.  All Rights Reserved.
  
 This is part of the Gaussian(R) 16 program.  It is based on
 the Gaussian(R) 09 system (copyright 2009, Gaussian, Inc.),
 the Gaussian(R) 03 system (copyright 2003, Gaussian, Inc.),
 the Gaussian(R) 98 system (copyright 1998, Gaussian, Inc.),
 the Gaussian(R) 94 system (copyright 1995, Gaussian, Inc.),
 the Gaussian 92(TM) system (copyright 1992, Gaussian, Inc.),
 the Gaussian 90(TM) system (copyright 1990, Gaussian, Inc.),
 the Gaussian 88(TM) system (copyright 1988, Gaussian, Inc.),
 the Gaussian 86(TM) system (copyright 1986, Carnegie Mellon
 University), and the Gaussian 82(TM) system (copyright 1983,
 Carnegie Mellon University). Gaussian is a federally registered
 trademark of Gaussian, Inc.
  
 This software contains proprietary and confidential information,
 including trade secrets, belonging to Gaussian, Inc.
  
 This software is provided under written license and may be
 used, copied, transmitted, or stored only in accord with that
 written license.
  
 The following legend is applicable only to US Government
 contracts under FAR:
  
                    RESTRICTED RIGHTS LEGEND
  
 Use, reproduction and disclosure by the US Government is
 subject to restrictions as set forth in subparagraphs (a)
 and (c) of the Commercial Computer Software - Restricted
 Rights clause in FAR 52.227-19.
  
 Gaussian, Inc.
 340 Quinnipiac St., Bldg. 40, Wallingford CT 06492
  
  
 ---------------------------------------------------------------
 Warning -- This program may not be used in any manner that
 competes with the business of Gaussian, Inc. or will provide
 assistance to any competitor of Gaussian, Inc.  The licensee
 of this program is prohibited from giving any competitor of
 Gaussian, Inc. access to this program.  By using this program,
 the user acknowledges that Gaussian, Inc. is engaged in the
 business of creating and licensing software in the field of
 computational chemistry and represents and warrants to the
 licensee that it is not a competitor of Gaussian, Inc. and that
 it will not use this program in any manner prohibited above.
 ---------------------------------------------------------------
  

 Cite this work as:
 Gaussian 16, Revision B.01,
 M. J. Frisch, G. W. Trucks, H. B. Schlegel, G. E. Scuseria, 
 M. A. Robb, J. R. Cheeseman, G. Scalmani, V. Barone, 
 G. A. Petersson, H. Nakatsuji, X. Li, M. Caricato, A. V. Marenich, 
 J. Bloino, B. G. Janesko, R. Gomperts, B. Mennucci, H. P. Hratchian, 
 J. V. Ortiz, A. F. Izmaylov, J. L. Sonnenberg, D. Williams-Young, 
 F. Ding, F. Lipparini, F. Egidi, J. Goings, B. Peng, A. Petrone, 
 T. Henderson, D. Ranasinghe, V. G. Zakrzewski, J. Gao, N. Rega, 
 G. Zheng, W. Liang, M. Hada, M. Ehara, K. Toyota, R. Fukuda, 
 J. Hasegawa, M. Ishida, T. Nakajima, Y. Honda, O. Kitao, H. Nakai, 
 T. Vreven, K. Throssell, J. A. Montgomery, Jr., J. E. Peralta, 
 F. Ogliaro, M. J. Bearpark, J. J. Heyd, E. N. Brothers, K. N. Kudin, 
 V. N. Staroverov, T. A. Keith, R. Kobayashi, J. Normand, 
 K. Raghavachari, A. P. Rendell, J. C. Burant, S. S. Iyengar, 
 J. Tomasi, M. Cossi, J. M. Millam, M. Klene, C. Adamo, R. Cammi, 
 J. W. Ochterski, R. L. Martin, K. Morokuma, O. Farkas, 
 J. B. Foresman, and D. J. Fox, Gaussian, Inc., Wallingford CT, 2016.
 
 ******************************************
 Gaussian 16:  ES64L-G16RevB.01 20-Dec-2017
                22-Jun-2021 
 ******************************************
 %nproc=12
 Will use up to   12 processors via shared memory.
 %mem=16GB
 --------------------------------------
 #P pm6 opt=loose freq int=(grid=99590)
 --------------------------------------
 1/7=-1,18=20,19=15,26=1,38=1/1,3;
 2/9=110,12=2,17=6,18=5,40=1/2;
 3/5=2,25=1,41=3900000,71=1,75=99590/1,2,3;
 4/35=1/1;
 5/5=2,35=1,38=5/2;
 6/7=2,8=2,9=2,10=2,28=1/1;
 7//1,2,3,16;
 1/7=-1,18=20,19=15,26=1/3(2);
 2/9=110/2;
 99//99;
 2/9=110/2;
 3/5=2,25=1,41=3900000,71=1,75=99590,135=20/1,2,3;
 4/5=5,16=3,35=1/1;
 5/5=2,35=1,38=5/2;
 7//1,2,3,16;
 1/7=-1,18=20,19=15,26=1/3(-5);
 2/9=110/2;
 6/7=2,8=2,9=2,10=2,19=2,28=1/1;
 99/9=1/99;
 Leave Link    1 at Tue Jun 22 14:21:46 2021, MaxMem=  2147483648 cpu:               0.2 elap:               0.0
 (Enter /home/matma/Programs/gaussian/G16_x86_SSE4/tar/g16/l101.exe)
 ------------
 offspring-06
 ------------
 Symbolic Z-matrix:
 Charge =  0 Multiplicity = 1
 O                     1.965     0.953     0.207 
 C                     2.446     2.124     0.881 
 C                     3.127     1.706     2.205 
 O                     3.988     0.63      1.815 
 C                     2.069     1.195     3.206 
 C                     1.085     2.334     3.534 
 O                     1.055     3.347     2.535 
 C                     1.214     3.02      1.137 
 C                    -0.098     2.416     0.616 
 O                    -1.207     3.114     1.213 
 O                    -4.541     0.136     3.895 
 C                    -3.173    -0.295     3.785 
 C                    -2.315     0.9       3.313 
 C                    -0.803     0.667     3.535 
 C                    -0.449    -0.131     4.819 
 O                    -1.401    -1.125     5.208 
 C                    -2.796    -0.738     5.209 
 C                    -3.513    -2.031     5.656 
 O                    -4.527    -2.433     4.743 
 O                     0.703    -0.927     4.549 
 O                    -0.289     1.996     3.765 
 O                    -2.592     0.945     1.918 
 O                     2.799     0.882     4.393 
 H                     3.179     2.622     0.206 
 H                     3.744     2.519     2.649 
 H                     4.348     0.189     2.625 
 H                     1.564     0.279     2.811 
 H                     1.352     2.918     4.451 
 H                     1.372     4.05      0.727 
 H                    -0.228     2.563    -0.472 
 H                    -0.194     1.337     0.853 
 H                    -0.974     3.335     2.17 
 H                    -3.118    -1.138     3.054 
 H                    -2.633     1.853     3.799 
 H                    -0.341     0.207     2.63 
 H                    -0.193     0.521     5.68 
 H                    -2.933     0.088     5.939 
 H                    -2.808    -2.89      5.657 
 H                    -3.954    -1.909     6.662 
 H                    -5.167    -1.688     4.585 
 H                    -2.348     1.857     1.527 
 H                    -4.854     0.436     3.005 
 H                     2.365     0.115     4.861 
 H                     0.448    -1.881     4.446 
 H                     2.679     0.26      0.204 
 
 ITRead=  0  0  0  0  0  0  0  0  0  0  0  0  0  0  0  0  0  0  0  0
 ITRead=  0  0  0  0  0  0  0  0  0  0  0  0  0  0  0  0  0  0  0  0
 ITRead=  0  0  0  0  0
 MicOpt= -1 -1 -1 -1 -1 -1 -1 -1 -1 -1 -1 -1 -1 -1 -1 -1 -1 -1 -1 -1
 MicOpt= -1 -1 -1 -1 -1 -1 -1 -1 -1 -1 -1 -1 -1 -1 -1 -1 -1 -1 -1 -1
 MicOpt= -1 -1 -1 -1 -1
 NAtoms=     45 NQM=       45 NQMF=       0 NMMI=      0 NMMIF=      0
                NMic=       0 NMicF=      0.
                    Isotopes and Nuclear Properties:
 (Nuclear quadrupole moments (NQMom) in fm**2, nuclear magnetic moments (NMagM)
  in nuclear magnetons)

  Atom         1           2           3           4           5           6           7           8           9          10
 IAtWgt=          16          12          12          16          12          12          16          12          12          16
 AtmWgt=  15.9949146  12.0000000  12.0000000  15.9949146  12.0000000  12.0000000  15.9949146  12.0000000  12.0000000  15.9949146
 NucSpn=           0           0           0           0           0           0           0           0           0           0
 AtZEff=  -0.0000000  -0.0000000  -0.0000000  -0.0000000  -0.0000000  -0.0000000  -0.0000000  -0.0000000  -0.0000000  -0.0000000
 NQMom=    0.0000000   0.0000000   0.0000000   0.0000000   0.0000000   0.0000000   0.0000000   0.0000000   0.0000000   0.0000000
 NMagM=    0.0000000   0.0000000   0.0000000   0.0000000   0.0000000   0.0000000   0.0000000   0.0000000   0.0000000   0.0000000
 AtZNuc=   8.0000000   6.0000000   6.0000000   8.0000000   6.0000000   6.0000000   8.0000000   6.0000000   6.0000000   8.0000000

  Atom        11          12          13          14          15          16          17          18          19          20
 IAtWgt=          16          12          12          12          12          16          12          12          16          16
 AtmWgt=  15.9949146  12.0000000  12.0000000  12.0000000  12.0000000  15.9949146  12.0000000  12.0000000  15.9949146  15.9949146
 NucSpn=           0           0           0           0           0           0           0           0           0           0
 AtZEff=  -0.0000000  -0.0000000  -0.0000000  -0.0000000  -0.0000000  -0.0000000  -0.0000000  -0.0000000  -0.0000000  -0.0000000
 NQMom=    0.0000000   0.0000000   0.0000000   0.0000000   0.0000000   0.0000000   0.0000000   0.0000000   0.0000000   0.0000000
 NMagM=    0.0000000   0.0000000   0.0000000   0.0000000   0.0000000   0.0000000   0.0000000   0.0000000   0.0000000   0.0000000
 AtZNuc=   8.0000000   6.0000000   6.0000000   6.0000000   6.0000000   8.0000000   6.0000000   6.0000000   8.0000000   8.0000000

  Atom        21          22          23          24          25          26          27          28          29          30
 IAtWgt=          16          16          16           1           1           1           1           1           1           1
 AtmWgt=  15.9949146  15.9949146  15.9949146   1.0078250   1.0078250   1.0078250   1.0078250   1.0078250   1.0078250   1.0078250
 NucSpn=           0           0           0           1           1           1           1           1           1           1
 AtZEff=  -0.0000000  -0.0000000  -0.0000000  -0.0000000  -0.0000000  -0.0000000  -0.0000000  -0.0000000  -0.0000000  -0.0000000
 NQMom=    0.0000000   0.0000000   0.0000000   0.0000000   0.0000000   0.0000000   0.0000000   0.0000000   0.0000000   0.0000000
 NMagM=    0.0000000   0.0000000   0.0000000   2.7928460   2.7928460   2.7928460   2.7928460   2.7928460   2.7928460   2.7928460
 AtZNuc=   8.0000000   8.0000000   8.0000000   1.0000000   1.0000000   1.0000000   1.0000000   1.0000000   1.0000000   1.0000000

  Atom        31          32          33          34          35          36          37          38          39          40
 IAtWgt=           1           1           1           1           1           1           1           1           1           1
 AtmWgt=   1.0078250   1.0078250   1.0078250   1.0078250   1.0078250   1.0078250   1.0078250   1.0078250   1.0078250   1.0078250
 NucSpn=           1           1           1           1           1           1           1           1           1           1
 AtZEff=  -0.0000000  -0.0000000  -0.0000000  -0.0000000  -0.0000000  -0.0000000  -0.0000000  -0.0000000  -0.0000000  -0.0000000
 NQMom=    0.0000000   0.0000000   0.0000000   0.0000000   0.0000000   0.0000000   0.0000000   0.0000000   0.0000000   0.0000000
 NMagM=    2.7928460   2.7928460   2.7928460   2.7928460   2.7928460   2.7928460   2.7928460   2.7928460   2.7928460   2.7928460
 AtZNuc=   1.0000000   1.0000000   1.0000000   1.0000000   1.0000000   1.0000000   1.0000000   1.0000000   1.0000000   1.0000000

  Atom        41          42          43          44          45
 IAtWgt=           1           1           1           1           1
 AtmWgt=   1.0078250   1.0078250   1.0078250   1.0078250   1.0078250
 NucSpn=           1           1           1           1           1
 AtZEff=  -0.0000000  -0.0000000  -0.0000000  -0.0000000  -0.0000000
 NQMom=    0.0000000   0.0000000   0.0000000   0.0000000   0.0000000
 NMagM=    2.7928460   2.7928460   2.7928460   2.7928460   2.7928460
 AtZNuc=   1.0000000   1.0000000   1.0000000   1.0000000   1.0000000
 Leave Link  101 at Tue Jun 22 14:21:46 2021, MaxMem=  2147483648 cpu:               2.6 elap:               0.2
 (Enter /home/matma/Programs/gaussian/G16_x86_SSE4/tar/g16/l103.exe)

 GradGradGradGradGradGradGradGradGradGradGradGradGradGradGradGradGradGrad
 Berny optimization.
 Initialization pass.
                           ----------------------------
                           !    Initial Parameters    !
                           ! (Angstroms and Degrees)  !
 --------------------------                            --------------------------
 ! Name  Definition              Value          Derivative Info.                !
 --------------------------------------------------------------------------------
 ! R1    R(1,2)                  1.4342         estimate D2E/DX2                !
 ! R2    R(1,45)                 0.995          estimate D2E/DX2                !
 ! R3    R(2,3)                  1.5464         estimate D2E/DX2                !
 ! R4    R(2,8)                  1.5447         estimate D2E/DX2                !
 ! R5    R(2,24)                 1.114          estimate D2E/DX2                !
 ! R6    R(3,4)                  1.4322         estimate D2E/DX2                !
 ! R7    R(3,5)                  1.5435         estimate D2E/DX2                !
 ! R8    R(3,25)                 1.113          estimate D2E/DX2                !
 ! R9    R(4,26)                 0.99           estimate D2E/DX2                !
 ! R10   R(5,6)                  1.5405         estimate D2E/DX2                !
 ! R11   R(5,23)                 1.4282         estimate D2E/DX2                !
 ! R12   R(5,27)                 1.1181         estimate D2E/DX2                !
 ! R13   R(6,7)                  1.423          estimate D2E/DX2                !
 ! R14   R(6,21)                 1.4337         estimate D2E/DX2                !
 ! R15   R(6,28)                 1.1195         estimate D2E/DX2                !
 ! R16   R(7,8)                  1.4445         estimate D2E/DX2                !
 ! R17   R(8,9)                  1.5354         estimate D2E/DX2                !
 ! R18   R(8,29)                 1.1198         estimate D2E/DX2                !
 ! R19   R(9,10)                 1.44           estimate D2E/DX2                !
 ! R20   R(9,30)                 1.1056         estimate D2E/DX2                !
 ! R21   R(9,31)                 1.1089         estimate D2E/DX2                !
 ! R22   R(10,32)                1.0094         estimate D2E/DX2                !
 ! R23   R(11,12)                1.4385         estimate D2E/DX2                !
 ! R24   R(11,42)                0.99           estimate D2E/DX2                !
 ! R25   R(12,13)                1.545          estimate D2E/DX2                !
 ! R26   R(12,17)                1.5382         estimate D2E/DX2                !
 ! R27   R(12,33)                1.1172         estimate D2E/DX2                !
 ! R28   R(13,14)                1.5459         estimate D2E/DX2                !
 ! R29   R(13,22)                1.4229         estimate D2E/DX2                !
 ! R30   R(13,34)                1.116          estimate D2E/DX2                !
 ! R31   R(14,15)                1.5527         estimate D2E/DX2                !
 ! R32   R(14,21)                1.4434         estimate D2E/DX2                !
 ! R33   R(14,35)                1.1154         estimate D2E/DX2                !
 ! R34   R(15,16)                1.4303         estimate D2E/DX2                !
 ! R35   R(15,20)                1.4261         estimate D2E/DX2                !
 ! R36   R(15,36)                1.1099         estimate D2E/DX2                !
 ! R37   R(16,17)                1.4477         estimate D2E/DX2                !
 ! R38   R(17,18)                1.5446         estimate D2E/DX2                !
 ! R39   R(17,37)                1.1108         estimate D2E/DX2                !
 ! R40   R(18,19)                1.4225         estimate D2E/DX2                !
 ! R41   R(18,38)                1.1113         estimate D2E/DX2                !
 ! R42   R(18,39)                1.1052         estimate D2E/DX2                !
 ! R43   R(19,40)                0.9948         estimate D2E/DX2                !
 ! R44   R(20,44)                0.9928         estimate D2E/DX2                !
 ! R45   R(22,41)                1.0218         estimate D2E/DX2                !
 ! R46   R(23,43)                0.9978         estimate D2E/DX2                !
 ! A1    A(2,1,45)             109.2335         estimate D2E/DX2                !
 ! A2    A(1,2,3)              109.2294         estimate D2E/DX2                !
 ! A3    A(1,2,8)              106.4988         estimate D2E/DX2                !
 ! A4    A(1,2,24)             107.5137         estimate D2E/DX2                !
 ! A5    A(3,2,8)              111.4761         estimate D2E/DX2                !
 ! A6    A(3,2,24)             110.4786         estimate D2E/DX2                !
 ! A7    A(8,2,24)             111.4636         estimate D2E/DX2                !
 ! A8    A(2,3,4)              103.5722         estimate D2E/DX2                !
 ! A9    A(2,3,5)              110.0519         estimate D2E/DX2                !
 ! A10   A(2,3,25)             112.8436         estimate D2E/DX2                !
 ! A11   A(4,3,5)              109.8734         estimate D2E/DX2                !
 ! A12   A(4,3,25)             108.914          estimate D2E/DX2                !
 ! A13   A(5,3,25)             111.2904         estimate D2E/DX2                !
 ! A14   A(3,4,26)             109.2969         estimate D2E/DX2                !
 ! A15   A(3,5,6)              109.3375         estimate D2E/DX2                !
 ! A16   A(3,5,23)             105.1405         estimate D2E/DX2                !
 ! A17   A(3,5,27)             110.5917         estimate D2E/DX2                !
 ! A18   A(6,5,23)             108.1532         estimate D2E/DX2                !
 ! A19   A(6,5,27)             113.1072         estimate D2E/DX2                !
 ! A20   A(23,5,27)            110.1774         estimate D2E/DX2                !
 ! A21   A(5,6,7)              112.9741         estimate D2E/DX2                !
 ! A22   A(5,6,21)             118.1741         estimate D2E/DX2                !
 ! A23   A(5,6,28)             114.0648         estimate D2E/DX2                !
 ! A24   A(7,6,21)             105.1133         estimate D2E/DX2                !
 ! A25   A(7,6,28)             102.0471         estimate D2E/DX2                !
 ! A26   A(21,6,28)            102.6843         estimate D2E/DX2                !
 ! A27   A(6,7,8)              121.0606         estimate D2E/DX2                !
 ! A28   A(2,8,7)              112.3017         estimate D2E/DX2                !
 ! A29   A(2,8,9)              113.3961         estimate D2E/DX2                !
 ! A30   A(2,8,29)             111.1193         estimate D2E/DX2                !
 ! A31   A(7,8,9)              108.8677         estimate D2E/DX2                !
 ! A32   A(7,8,29)              99.3031         estimate D2E/DX2                !
 ! A33   A(9,8,29)             110.9867         estimate D2E/DX2                !
 ! A34   A(8,9,10)             109.0699         estimate D2E/DX2                !
 ! A35   A(8,9,30)             112.4637         estimate D2E/DX2                !
 ! A36   A(8,9,31)             112.5955         estimate D2E/DX2                !
 ! A37   A(10,9,30)            104.6549         estimate D2E/DX2                !
 ! A38   A(10,9,31)            108.4444         estimate D2E/DX2                !
 ! A39   A(30,9,31)            109.2406         estimate D2E/DX2                !
 ! A40   A(9,10,32)            108.7482         estimate D2E/DX2                !
 ! A41   A(12,11,42)           108.8275         estimate D2E/DX2                !
 ! A42   A(11,12,13)           108.6475         estimate D2E/DX2                !
 ! A43   A(11,12,17)           104.3931         estimate D2E/DX2                !
 ! A44   A(11,12,33)           108.8412         estimate D2E/DX2                !
 ! A45   A(13,12,17)           111.6826         estimate D2E/DX2                !
 ! A46   A(13,12,33)           110.88           estimate D2E/DX2                !
 ! A47   A(17,12,33)           112.1087         estimate D2E/DX2                !
 ! A48   A(12,13,14)           112.5025         estimate D2E/DX2                !
 ! A49   A(12,13,22)           102.4659         estimate D2E/DX2                !
 ! A50   A(12,13,34)           111.6665         estimate D2E/DX2                !
 ! A51   A(14,13,22)           109.6307         estimate D2E/DX2                !
 ! A52   A(14,13,34)           110.1735         estimate D2E/DX2                !
 ! A53   A(22,13,34)           110.148          estimate D2E/DX2                !
 ! A54   A(13,14,15)           114.7856         estimate D2E/DX2                !
 ! A55   A(13,14,21)           103.439          estimate D2E/DX2                !
 ! A56   A(13,14,35)           110.5346         estimate D2E/DX2                !
 ! A57   A(15,14,21)           105.0855         estimate D2E/DX2                !
 ! A58   A(15,14,35)           111.382          estimate D2E/DX2                !
 ! A59   A(21,14,35)           111.1938         estimate D2E/DX2                !
 ! A60   A(14,15,16)           115.4895         estimate D2E/DX2                !
 ! A61   A(14,15,20)           108.33           estimate D2E/DX2                !
 ! A62   A(14,15,36)           113.0896         estimate D2E/DX2                !
 ! A63   A(16,15,20)           101.611          estimate D2E/DX2                !
 ! A64   A(16,15,36)           110.5353         estimate D2E/DX2                !
 ! A65   A(20,15,36)           106.7646         estimate D2E/DX2                !
 ! A66   A(15,16,17)           117.1159         estimate D2E/DX2                !
 ! A67   A(12,17,16)           108.2109         estimate D2E/DX2                !
 ! A68   A(12,17,18)           113.2798         estimate D2E/DX2                !
 ! A69   A(12,17,37)           111.3454         estimate D2E/DX2                !
 ! A70   A(16,17,18)           102.928          estimate D2E/DX2                !
 ! A71   A(16,17,37)           108.5465         estimate D2E/DX2                !
 ! A72   A(18,17,37)           112.0266         estimate D2E/DX2                !
 ! A73   A(17,18,19)           112.4413         estimate D2E/DX2                !
 ! A74   A(17,18,38)           110.6618         estimate D2E/DX2                !
 ! A75   A(17,18,39)           110.8702         estimate D2E/DX2                !
 ! A76   A(19,18,38)           103.5542         estimate D2E/DX2                !
 ! A77   A(19,18,39)           109.3294         estimate D2E/DX2                !
 ! A78   A(38,18,39)           109.7346         estimate D2E/DX2                !
 ! A79   A(18,19,40)           110.4209         estimate D2E/DX2                !
 ! A80   A(15,20,44)           110.396          estimate D2E/DX2                !
 ! A81   A(6,21,14)            122.1867         estimate D2E/DX2                !
 ! A82   A(13,22,41)           110.908          estimate D2E/DX2                !
 ! A83   A(5,23,43)            109.63           estimate D2E/DX2                !
 ! D1    D(45,1,2,3)           -46.8097         estimate D2E/DX2                !
 ! D2    D(45,1,2,8)          -167.3213         estimate D2E/DX2                !
 ! D3    D(45,1,2,24)           73.0986         estimate D2E/DX2                !
 ! D4    D(1,2,3,4)             47.7552         estimate D2E/DX2                !
 ! D5    D(1,2,3,5)            -69.657          estimate D2E/DX2                !
 ! D6    D(1,2,3,25)           165.3708         estimate D2E/DX2                !
 ! D7    D(8,2,3,4)            165.1714         estimate D2E/DX2                !
 ! D8    D(8,2,3,5)             47.7592         estimate D2E/DX2                !
 ! D9    D(8,2,3,25)           -77.213          estimate D2E/DX2                !
 ! D10   D(24,2,3,4)           -70.3105         estimate D2E/DX2                !
 ! D11   D(24,2,3,5)           172.2773         estimate D2E/DX2                !
 ! D12   D(24,2,3,25)           47.3051         estimate D2E/DX2                !
 ! D13   D(1,2,8,7)            123.9148         estimate D2E/DX2                !
 ! D14   D(1,2,8,9)             -0.0237         estimate D2E/DX2                !
 ! D15   D(1,2,8,29)          -125.8585         estimate D2E/DX2                !
 ! D16   D(3,2,8,7)              4.8595         estimate D2E/DX2                !
 ! D17   D(3,2,8,9)           -119.0789         estimate D2E/DX2                !
 ! D18   D(3,2,8,29)           115.0862         estimate D2E/DX2                !
 ! D19   D(24,2,8,7)          -119.1039         estimate D2E/DX2                !
 ! D20   D(24,2,8,9)           116.9577         estimate D2E/DX2                !
 ! D21   D(24,2,8,29)           -8.8772         estimate D2E/DX2                !
 ! D22   D(2,3,4,26)          -169.9718         estimate D2E/DX2                !
 ! D23   D(5,3,4,26)           -52.4349         estimate D2E/DX2                !
 ! D24   D(25,3,4,26)           69.7045         estimate D2E/DX2                !
 ! D25   D(2,3,5,6)            -62.2745         estimate D2E/DX2                !
 ! D26   D(2,3,5,23)          -178.188          estimate D2E/DX2                !
 ! D27   D(2,3,5,27)            62.9057         estimate D2E/DX2                !
 ! D28   D(4,3,5,6)           -175.7007         estimate D2E/DX2                !
 ! D29   D(4,3,5,23)            68.3858         estimate D2E/DX2                !
 ! D30   D(4,3,5,27)           -50.5205         estimate D2E/DX2                !
 ! D31   D(25,3,5,6)            63.5833         estimate D2E/DX2                !
 ! D32   D(25,3,5,23)          -52.3302         estimate D2E/DX2                !
 ! D33   D(25,3,5,27)         -171.2365         estimate D2E/DX2                !
 ! D34   D(3,5,6,7)             21.9572         estimate D2E/DX2                !
 ! D35   D(3,5,6,21)           145.2091         estimate D2E/DX2                !
 ! D36   D(3,5,6,28)           -93.9938         estimate D2E/DX2                !
 ! D37   D(23,5,6,7)           135.9338         estimate D2E/DX2                !
 ! D38   D(23,5,6,21)         -100.8143         estimate D2E/DX2                !
 ! D39   D(23,5,6,28)           19.9828         estimate D2E/DX2                !
 ! D40   D(27,5,6,7)          -101.7523         estimate D2E/DX2                !
 ! D41   D(27,5,6,21)           21.4997         estimate D2E/DX2                !
 ! D42   D(27,5,6,28)          142.2967         estimate D2E/DX2                !
 ! D43   D(3,5,23,43)         -147.7614         estimate D2E/DX2                !
 ! D44   D(6,5,23,43)           95.5126         estimate D2E/DX2                !
 ! D45   D(27,5,23,43)         -28.5779         estimate D2E/DX2                !
 ! D46   D(5,6,7,8)             35.1166         estimate D2E/DX2                !
 ! D47   D(21,6,7,8)           -95.1012         estimate D2E/DX2                !
 ! D48   D(28,6,7,8)           158.0285         estimate D2E/DX2                !
 ! D49   D(5,6,21,14)           -8.0198         estimate D2E/DX2                !
 ! D50   D(7,6,21,14)          119.0862         estimate D2E/DX2                !
 ! D51   D(28,6,21,14)        -134.511          estimate D2E/DX2                !
 ! D52   D(6,7,8,2)            -50.0258         estimate D2E/DX2                !
 ! D53   D(6,7,8,9)             76.3965         estimate D2E/DX2                !
 ! D54   D(6,7,8,29)          -167.5306         estimate D2E/DX2                !
 ! D55   D(2,8,9,10)           164.1364         estimate D2E/DX2                !
 ! D56   D(2,8,9,30)           -80.2309         estimate D2E/DX2                !
 ! D57   D(2,8,9,31)            43.7084         estimate D2E/DX2                !
 ! D58   D(7,8,9,10)            38.3464         estimate D2E/DX2                !
 ! D59   D(7,8,9,30)           153.9791         estimate D2E/DX2                !
 ! D60   D(7,8,9,31)           -82.0816         estimate D2E/DX2                !
 ! D61   D(29,8,9,10)          -69.9582         estimate D2E/DX2                !
 ! D62   D(29,8,9,30)           45.6746         estimate D2E/DX2                !
 ! D63   D(29,8,9,31)          169.6139         estimate D2E/DX2                !
 ! D64   D(8,9,10,32)          -37.498          estimate D2E/DX2                !
 ! D65   D(30,9,10,32)        -158.0473         estimate D2E/DX2                !
 ! D66   D(31,9,10,32)          85.4476         estimate D2E/DX2                !
 ! D67   D(42,11,12,13)         60.8637         estimate D2E/DX2                !
 ! D68   D(42,11,12,17)       -179.8502         estimate D2E/DX2                !
 ! D69   D(42,11,12,33)        -59.974          estimate D2E/DX2                !
 ! D70   D(11,12,13,14)        164.1201         estimate D2E/DX2                !
 ! D71   D(11,12,13,22)        -78.2341         estimate D2E/DX2                !
 ! D72   D(11,12,13,34)         39.6319         estimate D2E/DX2                !
 ! D73   D(17,12,13,14)         49.5067         estimate D2E/DX2                !
 ! D74   D(17,12,13,22)        167.1525         estimate D2E/DX2                !
 ! D75   D(17,12,13,34)        -74.9815         estimate D2E/DX2                !
 ! D76   D(33,12,13,14)        -76.3074         estimate D2E/DX2                !
 ! D77   D(33,12,13,22)         41.3384         estimate D2E/DX2                !
 ! D78   D(33,12,13,34)        159.2043         estimate D2E/DX2                !
 ! D79   D(11,12,17,16)       -177.0094         estimate D2E/DX2                !
 ! D80   D(11,12,17,18)         69.5406         estimate D2E/DX2                !
 ! D81   D(11,12,17,37)        -57.7952         estimate D2E/DX2                !
 ! D82   D(13,12,17,16)        -59.7981         estimate D2E/DX2                !
 ! D83   D(13,12,17,18)       -173.248          estimate D2E/DX2                !
 ! D84   D(13,12,17,37)         59.4162         estimate D2E/DX2                !
 ! D85   D(33,12,17,16)         65.3371         estimate D2E/DX2                !
 ! D86   D(33,12,17,18)        -48.1128         estimate D2E/DX2                !
 ! D87   D(33,12,17,37)       -175.4486         estimate D2E/DX2                !
 ! D88   D(12,13,14,15)        -35.364          estimate D2E/DX2                !
 ! D89   D(12,13,14,21)       -149.2599         estimate D2E/DX2                !
 ! D90   D(12,13,14,35)         91.634          estimate D2E/DX2                !
 ! D91   D(22,13,14,15)       -148.6816         estimate D2E/DX2                !
 ! D92   D(22,13,14,21)         97.4224         estimate D2E/DX2                !
 ! D93   D(22,13,14,35)        -21.6837         estimate D2E/DX2                !
 ! D94   D(34,13,14,15)         89.9425         estimate D2E/DX2                !
 ! D95   D(34,13,14,21)        -23.9534         estimate D2E/DX2                !
 ! D96   D(34,13,14,35)       -143.0595         estimate D2E/DX2                !
 ! D97   D(12,13,22,41)        161.0704         estimate D2E/DX2                !
 ! D98   D(14,13,22,41)        -79.2595         estimate D2E/DX2                !
 ! D99   D(34,13,22,41)         42.1317         estimate D2E/DX2                !
 ! D100  D(13,14,15,16)         32.9579         estimate D2E/DX2                !
 ! D101  D(13,14,15,20)        146.0889         estimate D2E/DX2                !
 ! D102  D(13,14,15,36)        -95.7756         estimate D2E/DX2                !
 ! D103  D(21,14,15,16)        145.8872         estimate D2E/DX2                !
 ! D104  D(21,14,15,20)       -100.9818         estimate D2E/DX2                !
 ! D105  D(21,14,15,36)         17.1537         estimate D2E/DX2                !
 ! D106  D(35,14,15,16)        -93.6059         estimate D2E/DX2                !
 ! D107  D(35,14,15,20)         19.5251         estimate D2E/DX2                !
 ! D108  D(35,14,15,36)        137.6606         estimate D2E/DX2                !
 ! D109  D(13,14,21,6)        -156.5036         estimate D2E/DX2                !
 ! D110  D(15,14,21,6)          82.778          estimate D2E/DX2                !
 ! D111  D(35,14,21,6)         -37.8531         estimate D2E/DX2                !
 ! D112  D(14,15,16,17)        -46.5386         estimate D2E/DX2                !
 ! D113  D(20,15,16,17)       -163.5159         estimate D2E/DX2                !
 ! D114  D(36,15,16,17)         83.4416         estimate D2E/DX2                !
 ! D115  D(14,15,20,44)       -105.6417         estimate D2E/DX2                !
 ! D116  D(16,15,20,44)         16.424          estimate D2E/DX2                !
 ! D117  D(36,15,20,44)        132.2669         estimate D2E/DX2                !
 ! D118  D(15,16,17,12)         59.3338         estimate D2E/DX2                !
 ! D119  D(15,16,17,18)        179.4927         estimate D2E/DX2                !
 ! D120  D(15,16,17,37)        -61.6335         estimate D2E/DX2                !
 ! D121  D(12,17,18,19)         -9.083          estimate D2E/DX2                !
 ! D122  D(12,17,18,38)        106.1784         estimate D2E/DX2                !
 ! D123  D(12,17,18,39)       -131.8166         estimate D2E/DX2                !
 ! D124  D(16,17,18,19)       -125.6871         estimate D2E/DX2                !
 ! D125  D(16,17,18,38)        -10.4257         estimate D2E/DX2                !
 ! D126  D(16,17,18,39)        111.5793         estimate D2E/DX2                !
 ! D127  D(37,17,18,19)        117.8954         estimate D2E/DX2                !
 ! D128  D(37,17,18,38)       -126.8433         estimate D2E/DX2                !
 ! D129  D(37,17,18,39)         -4.8382         estimate D2E/DX2                !
 ! D130  D(17,18,19,40)        -54.1385         estimate D2E/DX2                !
 ! D131  D(38,18,19,40)       -173.6283         estimate D2E/DX2                !
 ! D132  D(39,18,19,40)         69.4579         estimate D2E/DX2                !
 --------------------------------------------------------------------------------
 Trust Radius=3.00D-01 FncErr=1.00D-07 GrdErr=1.00D-07 EigMax=2.50D+02 EigMin=1.00D-04
 Number of steps in this run=    270 maximum allowed number of steps=    270.
 GradGradGradGradGradGradGradGradGradGradGradGradGradGradGradGradGradGrad

 Leave Link  103 at Tue Jun 22 14:21:46 2021, MaxMem=  2147483648 cpu:               0.1 elap:               0.0
 (Enter /home/matma/Programs/gaussian/G16_x86_SSE4/tar/g16/l202.exe)
                          Input orientation:                          
 ---------------------------------------------------------------------
 Center     Atomic      Atomic             Coordinates (Angstroms)
 Number     Number       Type             X           Y           Z
 ---------------------------------------------------------------------
      1          8           0        1.965000    0.953000    0.207000
      2          6           0        2.446000    2.124000    0.881000
      3          6           0        3.127000    1.706000    2.205000
      4          8           0        3.988000    0.630000    1.815000
      5          6           0        2.069000    1.195000    3.206000
      6          6           0        1.085000    2.334000    3.534000
      7          8           0        1.055000    3.347000    2.535000
      8          6           0        1.214000    3.020000    1.137000
      9          6           0       -0.098000    2.416000    0.616000
     10          8           0       -1.207000    3.114000    1.213000
     11          8           0       -4.541000    0.136000    3.895000
     12          6           0       -3.173000   -0.295000    3.785000
     13          6           0       -2.315000    0.900000    3.313000
     14          6           0       -0.803000    0.667000    3.535000
     15          6           0       -0.449000   -0.131000    4.819000
     16          8           0       -1.401000   -1.125000    5.208000
     17          6           0       -2.796000   -0.738000    5.209000
     18          6           0       -3.513000   -2.031000    5.656000
     19          8           0       -4.527000   -2.433000    4.743000
     20          8           0        0.703000   -0.927000    4.549000
     21          8           0       -0.289000    1.996000    3.765000
     22          8           0       -2.592000    0.945000    1.918000
     23          8           0        2.799000    0.882000    4.393000
     24          1           0        3.179000    2.622000    0.206000
     25          1           0        3.744000    2.519000    2.649000
     26          1           0        4.348000    0.189000    2.625000
     27          1           0        1.564000    0.279000    2.811000
     28          1           0        1.352000    2.918000    4.451000
     29          1           0        1.372000    4.050000    0.727000
     30          1           0       -0.228000    2.563000   -0.472000
     31          1           0       -0.194000    1.337000    0.853000
     32          1           0       -0.974000    3.335000    2.170000
     33          1           0       -3.118000   -1.138000    3.054000
     34          1           0       -2.633000    1.853000    3.799000
     35          1           0       -0.341000    0.207000    2.630000
     36          1           0       -0.193000    0.521000    5.680000
     37          1           0       -2.933000    0.088000    5.939000
     38          1           0       -2.808000   -2.890000    5.657000
     39          1           0       -3.954000   -1.909000    6.662000
     40          1           0       -5.167000   -1.688000    4.585000
     41          1           0       -2.348000    1.857000    1.527000
     42          1           0       -4.854000    0.436000    3.005000
     43          1           0        2.365000    0.115000    4.861000
     44          1           0        0.448000   -1.881000    4.446000
     45          1           0        2.679000    0.260000    0.204000
 ---------------------------------------------------------------------
                    Distance matrix (angstroms):
                    1          2          3          4          5
     1  O    0.000000
     2  C    1.434182   0.000000
     3  C    2.430896   1.546435   0.000000
     4  O    2.604328   2.341400   1.432200   0.000000
     5  C    3.010545   2.531955   1.543530   2.436528   0.000000
     6  C    3.708165   2.989119   2.516026   3.779681   1.540507
     7  O    3.461058   2.483209   2.663638   4.062386   2.471749
     8  C    2.387758   1.544725   2.554758   3.723823   2.888323
     9  C    2.561956   2.574379   3.664648   4.617661   3.590937
    10  O    3.967813   3.799307   4.663699   5.789705   4.287982
    11  O    7.523089   7.864764   8.007448   8.792854   6.729658
    12  C    6.384249   6.771849   6.796352   7.484414   5.480320
    13  C    5.288520   5.484516   5.611832   6.484189   4.395217
    14  C    4.338111   4.441010   4.277069   5.090526   2.938607
    15  C    5.317236   5.382740   4.795346   5.412033   3.271142
    16  O    6.376366   6.639152   6.126610   6.605588   4.629396
    17  C    7.109614   7.375716   7.076657   7.708003   5.605062
    18  C    8.282774   8.693350   8.364459   8.837375   6.896978
    19  O    8.613150   9.181722   9.064021   9.511066   7.683226
    20  O    4.896939   5.079456   4.278177   4.548651   2.858757
    21  O    4.339093   3.976690   3.766531   4.895016   2.552302
    22  O    4.867631   5.277012   5.776543   6.588341   4.842145
    23  O    4.268863   3.741833   2.360912   2.850142   1.428229
    24  H    2.063821   1.113965   2.199491   2.685410   3.502632
    25  H    3.403022   2.228599   1.113011   2.079282   2.206547
    26  H    3.479815   3.225425   1.992117   0.990041   2.558014
    27  H    2.719539   2.811912   2.201484   2.644049   1.118081
    28  H    4.716835   3.817351   3.108711   4.374007   2.243400
    29  H    3.195850   2.210581   3.280068   4.441126   3.844772
    30  H    2.803995   3.028796   4.376849   5.171220   4.547012
    31  H    2.286056   2.754951   3.604595   4.349071   3.267712
    32  H    4.262043   3.850252   4.412830   5.662552   3.861702
    33  H    6.189877   6.805929   6.914417   7.426721   5.689548
    34  H    5.903733   5.863822   5.978298   7.019233   4.784707
    35  H    3.427110   3.808052   3.801927   4.425313   2.667587
    36  H    5.898925   5.706517   4.949975   5.694811   3.419298
    37  H    7.589101   7.659132   7.299608   8.074737   5.806440
    38  H    8.200773   8.692231   8.262188   8.563701   6.817606
    39  H    9.213720   9.520769   9.114474   9.644444   7.606266
    40  H    8.775374   9.284866   9.272220   9.841750   7.910311
    41  H    4.600172   4.844692   5.518887   6.460137   4.771496
    42  H    7.388833   7.787857   8.120915   8.923828   6.967382
    43  H    4.745731   4.459040   3.188457   3.489623   1.998259
    44  H    5.319959   5.721997   5.006565   5.075321   3.691479
    45  H    0.995015   1.996776   2.509108   2.108483   3.202863
                    6          7          8          9         10
     6  C    0.000000
     7  O    1.423050   0.000000
     8  C    2.496567   1.444512   0.000000
     9  C    3.149752   2.424609   1.535448   0.000000
    10  O    3.353909   2.630326   2.424016   1.439963   0.000000
    11  O    6.050901   6.593583   7.003145   5.974152   5.213172
    12  C    5.010510   5.718623   6.103024   5.181477   4.701236
    13  C    3.696647   4.236743   4.656524   3.806199   3.246453
    14  C    2.518617   3.410948   3.918584   3.475138   3.397456
    15  C    3.174997   4.424382   5.123621   4.927029   4.909972
    16  O    4.576806   5.759831   6.371208   5.943312   5.828103
    17  C    5.225416   6.218336   6.839872   6.190523   5.773287
    18  C    6.685635   7.715578   8.263080   7.539206   7.178364
    19  O    7.461938   8.333210   8.700433   7.756350   7.365630
    20  O    3.436607   4.737845   5.242297   5.223575   5.577336
    21  O    1.433695   2.268135   3.195930   3.182622   2.933488
    22  O    4.249836   4.410318   4.404682   3.174757   2.668297
    23  O    2.404991   3.545409   4.205331   5.001149   5.580525
    24  H    3.942507   3.234384   2.210518   3.308967   4.526932
    25  H    2.808510   2.815901   2.989656   4.347949   5.189270
    26  H    4.009299   4.563432   4.477796   5.363071   6.434858
    27  H    2.230515   3.122160   3.230767   3.485260   4.274257
    28  H    1.119479   1.985776   3.318440   4.130585   4.131772
    29  H    3.302465   1.965595   1.119805   2.200722   2.786312
    30  H    4.221901   3.361963   2.208414   1.105556   2.025159
    31  H    3.133307   2.903313   2.212602   1.108885   2.076896
    32  H    2.664954   2.061604   2.440012   2.006702   1.009445
    33  H    5.472695   6.148050   6.303180   5.262619   5.012056
    34  H    3.758339   4.175054   4.821570   4.107881   3.211073
    35  H    2.715662   3.437651   3.544015   2.999154   3.347909
    36  H    3.086352   4.408492   5.372476   5.407786   5.263643
    37  H    5.193541   6.173527   6.989523   6.464607   5.871186
    38  H    6.852208   7.973069   8.457836   7.804449   7.639395
    39  H    7.292390   8.351512   9.029335   8.374275   7.903679
    40  H    7.507902   8.262385   8.647030   7.634824   7.078926
    41  H    4.005130   3.849230   3.767295   2.490964   1.726420
    42  H    6.257313   6.603870   6.854714   5.678667   4.866575
    43  H    2.885011   4.191921   4.861276   5.420424   5.921240
    44  H    4.359328   5.599317   5.962888   5.781974   6.175867
    45  H    4.234526   4.195296   3.261030   3.539747   4.925890
                   11         12         13         14         15
    11  O    0.000000
    12  C    1.438501   0.000000
    13  C    2.424355   1.544983   0.000000
    14  C    3.792651   2.569989   1.545871   0.000000
    15  C    4.203514   2.918258   2.610163   1.552667   0.000000
    16  O    3.629558   2.419465   2.920111   2.523449   1.430266
    17  C    2.352764   1.538231   2.551318   2.957761   2.455394
    18  C    2.975533   2.574866   3.938986   4.372865   3.701171
    19  O    2.705376   2.705942   4.248145   4.993740   4.683488
    20  O    5.390475   4.000812   3.738175   2.416002   1.426050
    21  O    4.642844   3.683278   2.347381   1.443377   2.379211
    22  O    2.891645   2.315351   1.422947   2.427446   3.763778
    23  O    7.394601   6.117171   5.226827   3.709015   3.428870
    24  H    8.909956   7.852772   6.542383   5.546223   6.482373
    25  H    8.710478   7.553409   6.306627   4.988999   5.414116
    26  H    8.979423   7.625306   6.736055   5.252560   5.284623
    27  H    6.202139   4.870043   3.960339   2.505476   2.872687
    28  H    6.540345   5.589504   4.337540   3.248089   3.560256
    29  H    7.766543   6.991954   5.495804   4.905118   6.127093
    30  H    6.600226   5.912972   4.631130   4.470066   5.941478
    31  H    5.439906   4.487147   3.277379   2.830708   4.236650
    32  H    5.092417   4.541005   3.005654   3.001781   4.393857
    33  H    2.086932   1.117155   2.205750   2.974661   3.354525
    34  H    2.568612   2.214881   1.116033   2.196632   3.121940
    35  H    4.386943   3.099396   2.200776   1.115378   2.217573
    36  H    4.715883   3.624539   3.201439   2.234825   1.109937
    37  H    2.601135   2.200910   2.817294   3.263642   2.733609
    38  H    3.906995   3.220502   4.483468   4.601647   3.725481
    39  H    3.490399   3.389998   4.668255   5.132515   4.340848
    40  H    2.048158   2.560563   4.055815   5.068828   4.973784
    41  H    3.657665   3.226499   2.026508   2.799141   4.289010
    42  H    0.989984   1.992115   2.599362   4.092049   4.797511
    43  H    6.973266   5.656441   4.991486   3.478391   2.825044
    44  H    5.409437   4.007987   4.080664   2.981145   2.001559
    45  H    8.109701   6.883131   5.917391   4.835859   5.588872
                   16         17         18         19         20
    16  O    0.000000
    17  C    1.447686   0.000000
    18  C    2.341385   1.544586   0.000000
    19  O    3.420375   2.467092   1.422452   0.000000
    20  O    2.213662   3.565715   4.496545   5.445968   0.000000
    21  O    3.613784   3.980570   5.494250   6.207509   3.184753
    22  O    4.065400   3.701998   4.865949   4.809962   4.613412
    23  O    4.725704   5.881690   7.065556   8.048727   2.773091
    24  H    7.748317   8.486474   9.804885  10.272285   6.130875
    25  H    6.804281   7.741657   9.077918   9.864917   4.973188
    26  H    6.438128   7.653308   8.712674   9.493494   4.270042
    27  H    4.063010   5.078808   6.261474   6.941747   2.283944
    28  H    4.949536   5.580932   7.043639   7.954942   3.900619
    29  H    7.385764   7.770810   9.226962   9.641356   6.310767
    30  H    6.873112   7.054430   8.333573   8.404620   6.185249
    31  H    5.146292   5.481858   6.740029   6.936850   4.426141
    32  H    5.413259   5.398568   6.884234   7.246652   5.161067
    33  H    2.754628   2.215335   2.779187   2.552455   4.108477
    34  H    3.517327   2.954310   4.394122   4.779976   4.406790
    35  H    3.089322   3.683923   4.922083   5.381168   2.461392
    36  H    2.095558   2.929596   4.187563   5.328005   2.044182
    37  H    2.086325   1.110831   2.215096   3.213517   4.022788
    38  H    2.301407   2.198170   1.111264   1.999801   4.172308
    39  H    3.040819   2.196227   1.105170   2.070137   5.207374
    40  H    3.858478   2.629357   2.000101   0.994781   5.919233
    41  H    4.831034   4.526793   5.789854   5.787469   5.117787
    42  H    4.383279   3.235932   3.861628   3.370272   5.926378
    43  H    3.980046   5.242579   6.307791   7.348870   1.986291
    44  H    2.137985   3.523089   4.144408   5.014333   0.992849
    45  H    6.603381   7.484761   8.562351   8.932033   4.918594
                   21         22         23         24         25
    21  O    0.000000
    22  O    3.133659   0.000000
    23  O    3.342323   5.932325   0.000000
    24  H    5.008531   6.248817   4.550052   0.000000
    25  H    4.217117   6.569378   2.571834   2.509598   0.000000
    26  H    5.105548   7.016765   2.450607   3.624584   2.407134
    27  H    2.700336   4.302713   2.095604   3.857966   3.129895
    28  H    2.003387   5.085662   2.498493   4.630936   3.021269
    29  H    4.025827   5.174244   5.050951   2.361329   3.415323
    30  H    4.275205   3.730753   5.971324   3.474308   5.051669
    31  H    2.987147   2.652978   4.657969   3.667010   4.486712
    32  H    2.192298   2.897159   5.019409   4.648986   4.811946
    33  H    4.281439   2.430239   6.394076   7.867713   7.786188
    34  H    2.348604   2.089092   5.549982   6.876071   6.513999
    35  H    2.119304   2.473578   3.663795   4.909012   4.693925
    36  H    2.419104   4.481922   3.277004   6.763820   5.355272
    37  H    3.918862   4.125430   5.989689   8.754712   7.830466
    38  H    5.813607   5.360411   6.874891   9.794882   9.012993
    39  H    6.088831   5.701394   7.651212  10.634359   9.745284
    40  H    6.167588   4.547109   8.372510  10.363757  10.042553
    41  H    3.044248   1.021842   5.971280   5.733934   6.229735
    42  H    4.883690   2.560721   7.790627   8.783057   8.853882
    43  H    3.432651   5.824259   0.997832   5.349455   3.545956
    44  H    4.004755   4.859903   3.628247   6.761137   5.783842
    45  H    4.950095   5.584842   4.236627   2.414342   3.495044
                   26         27         28         29         30
    26  H    0.000000
    27  H    2.791658   0.000000
    28  H    4.444967   3.114300   0.000000
    29  H    5.231281   4.312814   3.892300   0.000000
    30  H    6.013906   4.382466   5.182505   2.491740   0.000000
    31  H    5.008758   2.836140   4.223184   3.135060   1.805507
    32  H    6.199034   4.023861   3.284376   2.845556   2.851783
    33  H    7.595138   4.897761   6.195454   7.245024   5.872153
    34  H    7.271969   4.590036   4.176069   5.504909   4.952733
    35  H    4.689037   1.914933   3.678561   4.617838   3.896910
    36  H    5.483058   3.372947   3.105330   6.279751   6.482136
    37  H    8.000360   5.481229   5.346426   7.835523   7.385362
    38  H    8.359522   6.103823   7.245198   9.483718   8.599782
    39  H    9.466899   7.075724   7.506137   9.954907   9.207378
    40  H    9.894441   7.233431   7.983142   9.516687   8.248513
    41  H    6.987435   4.409363   4.833787   4.391771   2.998139
    42  H    9.213154   6.422851   6.838543   7.550719   6.165512
    43  H    2.989559   2.207034   3.008501   5.793119   6.415391
    44  H    4.776080   2.929894   4.883405   7.061267   6.662795
    45  H    2.941402   2.835496   5.182943   4.043004   3.769806
                   31         32         33         34         35
    31  H    0.000000
    32  H    2.516921   0.000000
    33  H    4.418122   5.038444   0.000000
    34  H    3.859261   2.757217   3.120309   0.000000
    35  H    2.110980   3.224387   3.114567   3.054364   0.000000
    36  H    4.895486   4.566033   4.266589   3.356484   3.069691
    37  H    5.910120   5.346592   3.140147   2.790130   4.205010
    38  H    6.912231   7.367045   3.152969   5.096944   4.983997
    39  H    7.643206   7.520505   3.782988   4.908610   5.812766
    40  H    6.914418   6.974525   2.616269   4.424662   5.541058
    41  H    2.316116   2.117973   3.448863   2.289809   2.822615
    42  H    5.211382   4.914858   2.343837   2.751575   4.534340
    43  H    4.909769   5.362723   5.907499   5.397082   3.508313
    44  H    4.865936   5.865911   3.899496   4.884048   2.877520
    45  H    3.136122   5.163835   6.609245   6.609010   3.874104
                   36         37         38         39         40
    36  H    0.000000
    37  H    2.786067   0.000000
    38  H    4.298101   2.993933   0.000000
    39  H    4.584141   2.356518   1.812651   0.000000
    40  H    5.551521   3.158836   2.856373   2.415396   0.000000
    41  H    4.865833   4.789293   6.308923   6.567360   5.464902
    42  H    5.374735   3.524160   4.720328   4.436516   2.665660
    43  H    2.716424   5.406627   6.035194   6.875314   7.749710
    44  H    2.775471   4.187741   3.617477   4.928392   5.620035
    45  H    6.188948   8.025855   8.352537   9.508260   9.194976
                   41         42         43         44         45
    41  H    0.000000
    42  H    3.237864   0.000000
    43  H    6.030132   7.460679   0.000000
    44  H    5.505526   5.962900   2.798416   0.000000
    45  H    5.437965   8.038822   4.669825   5.249362   0.000000
 Stoichiometry    C12H22O11
 Framework group  C1[X(C12H22O11)]
 Deg. of freedom   129
 Full point group                 C1      NOp   1
 Largest Abelian subgroup         C1      NOp   1
 Largest concise Abelian subgroup C1      NOp   1
                         Standard orientation:                         
 ---------------------------------------------------------------------
 Center     Atomic      Atomic             Coordinates (Angstroms)
 Number     Number       Type             X           Y           Z
 ---------------------------------------------------------------------
      1          8           0       -3.130256    0.525372    1.939536
      2          6           0       -3.733387    0.459235    0.640022
      3          6           0       -3.565994   -0.969706    0.072953
      4          8           0       -3.972826   -1.811609    1.157796
      5          6           0       -2.083982   -1.233314   -0.268566
      6          6           0       -1.629390   -0.247927   -1.361964
      7          8           0       -2.439703    0.919970   -1.428898
      8          6           0       -3.005752    1.503769   -0.235005
      9          6           0       -1.904254    2.266465    0.515060
     10          8           0       -1.053237    2.925342   -0.441573
     11          8           0        3.995721    1.651108   -0.193547
     12          6           0        3.023163    0.686632    0.246002
     13          6           0        1.633939    1.110797   -0.280413
     14          6           0        0.598206   -0.034400   -0.206258
     15          6           0        1.173144   -1.450690   -0.478919
     16          8           0        2.520220   -1.661765   -0.047068
     17          6           0        3.488299   -0.638597   -0.381350
     18          6           0        4.794109   -1.182495    0.238958
     19          8           0        5.408652   -0.247446    1.117246
     20          8           0        0.462665   -2.386378    0.329368
     21          8           0       -0.280199    0.235141   -1.319401
     22          8           0        1.266419    2.146984    0.622928
     23          8           0       -2.056521   -2.551333   -0.818031
     24          1           0       -4.812845    0.707574    0.758412
     25          1           0       -4.223802   -1.166776   -0.802972
     26          1           0       -3.746963   -2.751725    0.944842
     27          1           0       -1.453612   -1.186756    0.653699
     28          1           0       -1.713551   -0.650689   -2.403085
     29          1           0       -3.733504    2.211814   -0.707247
     30          1           0       -2.307440    3.084073    1.140529
     31          1           0       -1.277252    1.601318    1.142812
     32          1           0       -0.941401    2.324014   -1.244615
     33          1           0        3.031425    0.649032    1.362493
     34          1           0        1.691965    1.510487   -1.320802
     35          1           0        0.044976    0.000492    0.761620
     36          1           0        1.046410   -1.776531   -1.532354
     37          1           0        3.553155   -0.561462   -1.487600
     38          1           0        4.583337   -2.055241    0.893783
     39          1           0        5.513380   -1.471955   -0.548610
     40          1           0        5.550041    0.621937    0.654890
     41          1           0        0.526245    2.729999    0.227459
     42          1           0        3.757988    2.537049    0.178825
     43          1           0       -1.191574   -2.992472   -0.587962
     44          1           0        1.026425   -2.684432    1.090346
     45          1           0       -3.419484   -0.261444    2.475560
 ---------------------------------------------------------------------
 Rotational constants (GHZ):           0.4648586           0.1651445           0.1389392
 Leave Link  202 at Tue Jun 22 14:21:46 2021, MaxMem=  2147483648 cpu:               0.0 elap:               0.0
 (Enter /home/matma/Programs/gaussian/G16_x86_SSE4/tar/g16/l301.exe)
 Standard basis: VSTO-6G (5D, 7F)
 Ernie: Thresh=  0.10000D-02 Tol=  0.10000D-05 Strict=F.
  NNHCO=     0 NNPyr=     0 NCTC=     0               EPep=         0.000000000
    EC=      1207.784742897  ECS=         9.025636989   EG=         0.733543729
   EHC=         0.002716138  EAt=      -175.965002454  AtH=         6.138669069
 EPDDG=         0.000000000  ECC=      1217.546639753 EAtT=       182.103671523
 There are   114 symmetry adapted cartesian basis functions of A   symmetry.
 There are   114 symmetry adapted basis functions of A   symmetry.
   114 basis functions,   684 primitive gaussians,   114 cartesian basis functions
    68 alpha electrons       68 beta electrons
       nuclear repulsion energy      1399.6503112755 Hartrees.
 IExCor=    0 DFT=F Ex=HF Corr=None ExCW=0 ScaHFX=  1.000000
 ScaDFX=  1.000000  1.000000  1.000000  1.000000 ScalE2=  1.000000  1.000000
 IRadAn=  99590 IRanWt=     -1 IRanGd=            0 ICorTp=0 IEmpDi=  4
 Integral buffers will be    131072 words long.
 Regular integral format.
 Two-electron integral symmetry is turned off.
 Leave Link  301 at Tue Jun 22 14:21:46 2021, MaxMem=  2147483648 cpu:               0.2 elap:               0.0
 (Enter /home/matma/Programs/gaussian/G16_x86_SSE4/tar/g16/l302.exe)
 Do NDO integrals.
 NPDir=0 NMtPBC=     1 NCelOv=     1 NCel=       1 NClECP=     1 NCelD=      1
         NCelK=      1 NCelE2=     1 NClLst=     1 CellRange=     0.0.
 One-electron integrals computed using PRISM.
 NBasis=   114 RedAO= F EigKep=  0.00D+00  NBF=   114
 NBsUse=   114 1.00D-04 EigRej=  0.00D+00 NBFU=   114
 Leave Link  302 at Tue Jun 22 14:21:46 2021, MaxMem=  2147483648 cpu:               0.6 elap:               0.1
 (Enter /home/matma/Programs/gaussian/G16_x86_SSE4/tar/g16/l303.exe)
 DipDrv:  MaxL=1.
 Leave Link  303 at Tue Jun 22 14:21:46 2021, MaxMem=  2147483648 cpu:               0.1 elap:               0.0
 (Enter /home/matma/Programs/gaussian/G16_x86_SSE4/tar/g16/l401.exe)
 Simple Huckel Guess.
 JPrj=0 DoOrth=F DoCkMO=F.
 Leave Link  401 at Tue Jun 22 14:21:46 2021, MaxMem=  2147483648 cpu:               0.2 elap:               0.0
 (Enter /home/matma/Programs/gaussian/G16_x86_SSE4/tar/g16/l502.exe)
 Keep J ints in memory in canonical form, NReq=892272.
 FoFCou: FMM=F IPFlag=           0 FMFlag=           0 FMFlg1=           0
         NFxFlg=           0 DoJE=F BraDBF=F KetDBF=F FulRan=T
         wScrn=  0.000000 ICntrl=       600 IOpCl=  2 I1Cent=           0 NGrid=           0
         NMat0=    1 NMatS0=    252 NMatT0=    0 NMatD0=    1 NMtDS0=    0 NMtDT0=    0
 Symmetry not used in FoFCou.
 Two-electron integral symmetry not used.
 Closed shell SCF:
 Using DIIS extrapolation, IDIIS=  1040.
 Overlap will be assumed to be unity.
 NGot=  2147483648 LenX=  2147363403 LenY=  2147349966
 Requested convergence on RMS density matrix=1.00D-08 within 128 cycles.
 Requested convergence on MAX density matrix=1.00D-06.
 Requested convergence on             energy=1.00D-06.
 No special actions if energy rises.

 Cycle   1  Pass 1  IDiag  1:
 E= 0.459844924402205    
 DIIS: error= 5.66D-02 at cycle   1 NSaved=   1.
 NSaved= 1 IEnMin= 1 EnMin= 0.459844924402205     IErMin= 1 ErrMin= 5.66D-02
 ErrMax= 5.66D-02  0.00D+00 EMaxC= 1.00D-01 BMatC= 3.24D-01 BMatP= 3.24D-01
 IDIUse=3 WtCom= 4.34D-01 WtEn= 5.66D-01
 Coeff-Com:  0.100D+01
 Coeff-En:   0.100D+01
 Coeff:      0.100D+01
 GapD=    2.000 DampG=2.000 DampE=0.500 DampFc=1.0000 IDamp=-1.
 RMSDP=8.28D-03 MaxDP=1.26D-01              OVMax= 0.00D+00

 Cycle   2  Pass 1  IDiag  1:
 E=-0.557731341279350     Delta-E=       -1.017576265682 Rises=F Damp=F
 DIIS: error= 1.68D-02 at cycle   2 NSaved=   2.
 NSaved= 2 IEnMin= 2 EnMin=-0.557731341279350     IErMin= 2 ErrMin= 1.68D-02
 ErrMax= 1.68D-02  0.00D+00 EMaxC= 1.00D-01 BMatC= 4.60D-02 BMatP= 3.24D-01
 IDIUse=3 WtCom= 8.32D-01 WtEn= 1.68D-01
 Coeff-Com: -0.435D+00 0.144D+01
 Coeff-En:   0.000D+00 0.100D+01
 Coeff:     -0.362D+00 0.136D+01
 RMSDP=4.77D-03 MaxDP=5.66D-02 DE=-1.02D+00 OVMax= 0.00D+00

 Cycle   3  Pass 1  IDiag  3:
 E=-0.763270243866600     Delta-E=       -0.205538902587 Rises=F Damp=F
 DIIS: error= 5.42D-03 at cycle   3 NSaved=   3.
 NSaved= 3 IEnMin= 3 EnMin=-0.763270243866600     IErMin= 3 ErrMin= 5.42D-03
 ErrMax= 5.42D-03  0.00D+00 EMaxC= 1.00D-01 BMatC= 4.58D-03 BMatP= 4.60D-02
 IDIUse=3 WtCom= 9.46D-01 WtEn= 5.42D-02
 Coeff-Com:  0.270D+00-0.107D+01 0.180D+01
 Coeff-En:   0.000D+00 0.000D+00 0.100D+01
 Coeff:      0.256D+00-0.102D+01 0.176D+01
 Gap=     0.405 Goal=   None    Shift=    0.000
 RMSDP=2.40D-03 MaxDP=3.93D-02 DE=-2.06D-01 OVMax= 2.56D-02

 Cycle   4  Pass 1  IDiag  3:
 E=-0.793676570237722     Delta-E=       -0.030406326371 Rises=F Damp=F
 DIIS: error= 1.05D-03 at cycle   4 NSaved=   4.
 NSaved= 4 IEnMin= 4 EnMin=-0.793676570237722     IErMin= 4 ErrMin= 1.05D-03
 ErrMax= 1.05D-03  0.00D+00 EMaxC= 1.00D-01 BMatC= 2.01D-04 BMatP= 4.58D-03
 IDIUse=3 WtCom= 9.90D-01 WtEn= 1.05D-02
 Coeff-Com: -0.575D-01 0.250D+00-0.614D+00 0.142D+01
 Coeff-En:   0.000D+00 0.000D+00 0.000D+00 0.100D+01
 Coeff:     -0.569D-01 0.247D+00-0.608D+00 0.142D+01
 Gap=     0.403 Goal=   None    Shift=    0.000
 RMSDP=5.71D-04 MaxDP=1.02D-02 DE=-3.04D-02 OVMax= 6.77D-03

 Cycle   5  Pass 1  IDiag  3:
 E=-0.795090083420064     Delta-E=       -0.001413513182 Rises=F Damp=F
 DIIS: error= 2.11D-04 at cycle   5 NSaved=   5.
 NSaved= 5 IEnMin= 5 EnMin=-0.795090083420064     IErMin= 5 ErrMin= 2.11D-04
 ErrMax= 2.11D-04  0.00D+00 EMaxC= 1.00D-01 BMatC= 9.23D-06 BMatP= 2.01D-04
 IDIUse=3 WtCom= 9.98D-01 WtEn= 2.11D-03
 Coeff-Com:  0.940D-03-0.437D-02 0.585D-01-0.369D+00 0.131D+01
 Coeff-En:   0.000D+00 0.000D+00 0.000D+00 0.000D+00 0.100D+01
 Coeff:      0.938D-03-0.436D-02 0.584D-01-0.368D+00 0.131D+01
 Gap=     0.404 Goal=   None    Shift=    0.000
 RMSDP=9.74D-05 MaxDP=1.31D-03 DE=-1.41D-03 OVMax= 1.59D-03

 Cycle   6  Pass 1  IDiag  3:
 E=-0.795144770112756     Delta-E=       -0.000054686693 Rises=F Damp=F
 DIIS: error= 1.07D-04 at cycle   6 NSaved=   6.
 NSaved= 6 IEnMin= 6 EnMin=-0.795144770112756     IErMin= 6 ErrMin= 1.07D-04
 ErrMax= 1.07D-04  0.00D+00 EMaxC= 1.00D-01 BMatC= 6.93D-07 BMatP= 9.23D-06
 IDIUse=3 WtCom= 9.99D-01 WtEn= 1.07D-03
 Coeff-Com:  0.284D-02-0.122D-01 0.779D-02 0.839D-01-0.588D+00 0.151D+01
 Coeff-En:   0.000D+00 0.000D+00 0.000D+00 0.000D+00 0.000D+00 0.100D+01
 Coeff:      0.284D-02-0.122D-01 0.778D-02 0.838D-01-0.588D+00 0.151D+01
 Gap=     0.404 Goal=   None    Shift=    0.000
 RMSDP=3.05D-05 MaxDP=5.80D-04 DE=-5.47D-05 OVMax= 5.22D-04

 Cycle   7  Pass 1  IDiag  3:
 E=-0.795149311577688     Delta-E=       -0.000004541465 Rises=F Damp=F
 DIIS: error= 3.05D-05 at cycle   7 NSaved=   7.
 NSaved= 7 IEnMin= 7 EnMin=-0.795149311577688     IErMin= 7 ErrMin= 3.05D-05
 ErrMax= 3.05D-05  0.00D+00 EMaxC= 1.00D-01 BMatC= 4.16D-08 BMatP= 6.93D-07
 IDIUse=1 WtCom= 1.00D+00 WtEn= 0.00D+00
 Coeff-Com: -0.115D-02 0.519D-02-0.429D-02-0.290D-01 0.235D+00-0.765D+00
 Coeff-Com:  0.156D+01
 Coeff:     -0.115D-02 0.519D-02-0.429D-02-0.290D-01 0.235D+00-0.765D+00
 Coeff:      0.156D+01
 Gap=     0.404 Goal=   None    Shift=    0.000
 RMSDP=7.57D-06 MaxDP=2.02D-04 DE=-4.54D-06 OVMax= 1.17D-04

 Cycle   8  Pass 1  IDiag  3:
 E=-0.795149595476460     Delta-E=       -0.000000283899 Rises=F Damp=F
 DIIS: error= 6.07D-06 at cycle   8 NSaved=   8.
 NSaved= 8 IEnMin= 8 EnMin=-0.795149595476460     IErMin= 8 ErrMin= 6.07D-06
 ErrMax= 6.07D-06  0.00D+00 EMaxC= 1.00D-01 BMatC= 3.08D-09 BMatP= 4.16D-08
 IDIUse=1 WtCom= 1.00D+00 WtEn= 0.00D+00
 Coeff-Com:  0.287D-03-0.145D-02 0.112D-02 0.883D-02-0.738D-01 0.263D+00
 Coeff-Com: -0.747D+00 0.155D+01
 Coeff:      0.287D-03-0.145D-02 0.112D-02 0.883D-02-0.738D-01 0.263D+00
 Coeff:     -0.747D+00 0.155D+01
 Gap=     0.404 Goal=   None    Shift=    0.000
 RMSDP=2.20D-06 MaxDP=5.51D-05 DE=-2.84D-07 OVMax= 2.72D-05

 Cycle   9  Pass 1  IDiag  3:
 E=-0.795149617611287     Delta-E=       -0.000000022135 Rises=F Damp=F
 DIIS: error= 2.10D-06 at cycle   9 NSaved=   9.
 NSaved= 9 IEnMin= 9 EnMin=-0.795149617611287     IErMin= 9 ErrMin= 2.10D-06
 ErrMax= 2.10D-06  0.00D+00 EMaxC= 1.00D-01 BMatC= 2.51D-10 BMatP= 3.08D-09
 IDIUse=1 WtCom= 1.00D+00 WtEn= 0.00D+00
 Coeff-Com: -0.650D-04 0.399D-03-0.335D-03-0.198D-02 0.195D-01-0.763D-01
 Coeff-Com:  0.255D+00-0.754D+00 0.156D+01
 Coeff:     -0.650D-04 0.399D-03-0.335D-03-0.198D-02 0.195D-01-0.763D-01
 Coeff:      0.255D+00-0.754D+00 0.156D+01
 Gap=     0.404 Goal=   None    Shift=    0.000
 RMSDP=6.40D-07 MaxDP=1.81D-05 DE=-2.21D-08 OVMax= 7.33D-06

 Cycle  10  Pass 1  IDiag  3:
 E=-0.795149619436870     Delta-E=       -0.000000001826 Rises=F Damp=F
 DIIS: error= 7.06D-07 at cycle  10 NSaved=  10.
 NSaved=10 IEnMin=10 EnMin=-0.795149619436870     IErMin=10 ErrMin= 7.06D-07
 ErrMax= 7.06D-07  0.00D+00 EMaxC= 1.00D-01 BMatC= 2.52D-11 BMatP= 2.51D-10
 IDIUse=1 WtCom= 1.00D+00 WtEn= 0.00D+00
 Coeff-Com:  0.212D-04-0.134D-03 0.170D-03 0.404D-04-0.317D-02 0.146D-01
 Coeff-Com: -0.555D-01 0.207D+00-0.699D+00 0.154D+01
 Coeff:      0.212D-04-0.134D-03 0.170D-03 0.404D-04-0.317D-02 0.146D-01
 Coeff:     -0.555D-01 0.207D+00-0.699D+00 0.154D+01
 Gap=     0.404 Goal=   None    Shift=    0.000
 RMSDP=2.07D-07 MaxDP=5.46D-06 DE=-1.83D-09 OVMax= 2.27D-06

 Cycle  11  Pass 1  IDiag  3:
 E=-0.795149619619906     Delta-E=       -0.000000000183 Rises=F Damp=F
 DIIS: error= 1.98D-07 at cycle  11 NSaved=  11.
 NSaved=11 IEnMin=11 EnMin=-0.795149619619906     IErMin=11 ErrMin= 1.98D-07
 ErrMax= 1.98D-07  0.00D+00 EMaxC= 1.00D-01 BMatC= 2.33D-12 BMatP= 2.52D-11
 IDIUse=1 WtCom= 1.00D+00 WtEn= 0.00D+00
 Coeff-Com: -0.682D-05 0.410D-04-0.743D-04 0.223D-03-0.389D-03 0.829D-04
 Coeff-Com:  0.346D-02-0.298D-01 0.176D+00-0.667D+00 0.152D+01
 Coeff:     -0.682D-05 0.410D-04-0.743D-04 0.223D-03-0.389D-03 0.829D-04
 Coeff:      0.346D-02-0.298D-01 0.176D+00-0.667D+00 0.152D+01
 Gap=     0.404 Goal=   None    Shift=    0.000
 RMSDP=6.17D-08 MaxDP=1.51D-06 DE=-1.83D-10 OVMax= 6.83D-07

 Cycle  12  Pass 1  IDiag  3:
 E=-0.795149619634231     Delta-E=       -0.000000000014 Rises=F Damp=F
 DIIS: error= 4.72D-08 at cycle  12 NSaved=  12.
 NSaved=12 IEnMin=12 EnMin=-0.795149619634231     IErMin=12 ErrMin= 4.72D-08
 ErrMax= 4.72D-08  0.00D+00 EMaxC= 1.00D-01 BMatC= 2.06D-13 BMatP= 2.33D-12
 IDIUse=1 WtCom= 1.00D+00 WtEn= 0.00D+00
 Coeff-Com:  0.177D-05-0.106D-04 0.248D-04-0.119D-03 0.459D-03-0.120D-02
 Coeff-Com:  0.255D-02-0.170D-02-0.254D-01 0.180D+00-0.725D+00 0.157D+01
 Coeff:      0.177D-05-0.106D-04 0.248D-04-0.119D-03 0.459D-03-0.120D-02
 Coeff:      0.255D-02-0.170D-02-0.254D-01 0.180D+00-0.725D+00 0.157D+01
 Gap=     0.404 Goal=   None    Shift=    0.000
 RMSDP=1.88D-08 MaxDP=4.17D-07 DE=-1.43D-11 OVMax= 1.82D-07

 Cycle  13  Pass 1  IDiag  3:
 E=-0.795149619635367     Delta-E=       -0.000000000001 Rises=F Damp=F
 DIIS: error= 1.29D-08 at cycle  13 NSaved=  13.
 NSaved=13 IEnMin=13 EnMin=-0.795149619635367     IErMin=13 ErrMin= 1.29D-08
 ErrMax= 1.29D-08  0.00D+00 EMaxC= 1.00D-01 BMatC= 1.53D-14 BMatP= 2.06D-13
 IDIUse=1 WtCom= 1.00D+00 WtEn= 0.00D+00
 Coeff-Com: -0.349D-06 0.238D-05-0.788D-05 0.532D-04-0.251D-03 0.739D-03
 Coeff-Com: -0.188D-02 0.365D-02-0.167D-03-0.470D-01 0.275D+00-0.834D+00
 Coeff-Com:  0.160D+01
 Coeff:     -0.349D-06 0.238D-05-0.788D-05 0.532D-04-0.251D-03 0.739D-03
 Coeff:     -0.188D-02 0.365D-02-0.167D-03-0.470D-01 0.275D+00-0.834D+00
 Coeff:      0.160D+01
 Gap=     0.404 Goal=   None    Shift=    0.000
 RMSDP=4.95D-09 MaxDP=1.06D-07 DE=-1.14D-12 OVMax= 5.86D-08

 Cycle  14  Pass 2  IDiag  1:
 SCF Done:  E(RPM6) = -0.795149619635     A.U. after   14 cycles
            NFock= 13  Conv=0.50D-08     -V/T= 0.9974
 KE=-3.045697987785D+02 PE=-2.401304086188D+03 EE= 1.305428424071D+03
 Leave Link  502 at Tue Jun 22 14:21:46 2021, MaxMem=  2147483648 cpu:               0.5 elap:               0.0
 (Enter /home/matma/Programs/gaussian/G16_x86_SSE4/tar/g16/l601.exe)
 Copying SCF densities to generalized density rwf, IOpCl= 0 IROHF=0.

 **********************************************************************

            Population analysis using the SCF Density.

 **********************************************************************

 Orbital symmetries:
       Occupied  (A) (A) (A) (A) (A) (A) (A) (A) (A) (A) (A) (A)
                 (A) (A) (A) (A) (A) (A) (A) (A) (A) (A) (A) (A)
                 (A) (A) (A) (A) (A) (A) (A) (A) (A) (A) (A) (A)
                 (A) (A) (A) (A) (A) (A) (A) (A) (A) (A) (A) (A)
                 (A) (A) (A) (A) (A) (A) (A) (A) (A) (A) (A) (A)
                 (A) (A) (A) (A) (A) (A) (A) (A)
       Virtual   (A) (A) (A) (A) (A) (A) (A) (A) (A) (A) (A) (A)
                 (A) (A) (A) (A) (A) (A) (A) (A) (A) (A) (A) (A)
                 (A) (A) (A) (A) (A) (A) (A) (A) (A) (A) (A) (A)
                 (A) (A) (A) (A) (A) (A) (A) (A) (A) (A)
 The electronic state is 1-A.
 Alpha  occ. eigenvalues --   -1.17734  -1.16430  -1.14674  -1.14128  -1.12778
 Alpha  occ. eigenvalues --   -1.11668  -1.10743  -1.10341  -1.09353  -1.09153
 Alpha  occ. eigenvalues --   -1.07247  -1.02940  -1.00710  -0.99561  -0.98624
 Alpha  occ. eigenvalues --   -0.92586  -0.91700  -0.88583  -0.85345  -0.83600
 Alpha  occ. eigenvalues --   -0.82399  -0.77283  -0.75523  -0.74075  -0.72179
 Alpha  occ. eigenvalues --   -0.70989  -0.70034  -0.68721  -0.68218  -0.66605
 Alpha  occ. eigenvalues --   -0.64977  -0.64834  -0.64313  -0.63172  -0.62302
 Alpha  occ. eigenvalues --   -0.61612  -0.60859  -0.60259  -0.59581  -0.58677
 Alpha  occ. eigenvalues --   -0.56639  -0.56302  -0.55504  -0.55133  -0.54117
 Alpha  occ. eigenvalues --   -0.53109  -0.51893  -0.51387  -0.50271  -0.50161
 Alpha  occ. eigenvalues --   -0.49530  -0.49030  -0.48735  -0.48298  -0.47220
 Alpha  occ. eigenvalues --   -0.47017  -0.45868  -0.45272  -0.43386  -0.42792
 Alpha  occ. eigenvalues --   -0.42474  -0.41617  -0.41483  -0.40756  -0.40449
 Alpha  occ. eigenvalues --   -0.39562  -0.39348  -0.38992
 Alpha virt. eigenvalues --    0.00916   0.02272   0.02974   0.04271   0.05160
 Alpha virt. eigenvalues --    0.05496   0.06117   0.07053   0.07242   0.07267
 Alpha virt. eigenvalues --    0.08059   0.08315   0.08593   0.08876   0.09511
 Alpha virt. eigenvalues --    0.09671   0.09904   0.10297   0.10757   0.11082
 Alpha virt. eigenvalues --    0.11423   0.11902   0.12677   0.13595   0.14467
 Alpha virt. eigenvalues --    0.15514   0.16174   0.16312   0.16524   0.16646
 Alpha virt. eigenvalues --    0.16853   0.17226   0.17377   0.17660   0.17780
 Alpha virt. eigenvalues --    0.17940   0.18145   0.18577   0.18970   0.19054
 Alpha virt. eigenvalues --    0.19122   0.19294   0.19474   0.20204   0.21148
 Alpha virt. eigenvalues --    0.21395
          Condensed to atoms (all electrons):
               1          2          3          4          5          6
     1  O    6.560117   0.000000   0.000000   0.000000   0.000000   0.000000
     2  C    0.000000   3.927236   0.000000   0.000000   0.000000   0.000000
     3  C    0.000000   0.000000   3.916192   0.000000   0.000000   0.000000
     4  O    0.000000   0.000000   0.000000   6.559328   0.000000   0.000000
     5  C    0.000000   0.000000   0.000000   0.000000   4.013196   0.000000
     6  C    0.000000   0.000000   0.000000   0.000000   0.000000   3.681678
     7  O    0.000000   0.000000   0.000000   0.000000   0.000000   0.000000
     8  C    0.000000   0.000000   0.000000   0.000000   0.000000   0.000000
     9  C    0.000000   0.000000   0.000000   0.000000   0.000000   0.000000
    10  O    0.000000   0.000000   0.000000   0.000000   0.000000   0.000000
    11  O    0.000000   0.000000   0.000000   0.000000   0.000000   0.000000
    12  C    0.000000   0.000000   0.000000   0.000000   0.000000   0.000000
    13  C    0.000000   0.000000   0.000000   0.000000   0.000000   0.000000
    14  C    0.000000   0.000000   0.000000   0.000000   0.000000   0.000000
    15  C    0.000000   0.000000   0.000000   0.000000   0.000000   0.000000
    16  O    0.000000   0.000000   0.000000   0.000000   0.000000   0.000000
    17  C    0.000000   0.000000   0.000000   0.000000   0.000000   0.000000
    18  C    0.000000   0.000000   0.000000   0.000000   0.000000   0.000000
    19  O    0.000000   0.000000   0.000000   0.000000   0.000000   0.000000
    20  O    0.000000   0.000000   0.000000   0.000000   0.000000   0.000000
    21  O    0.000000   0.000000   0.000000   0.000000   0.000000   0.000000
    22  O    0.000000   0.000000   0.000000   0.000000   0.000000   0.000000
    23  O    0.000000   0.000000   0.000000   0.000000   0.000000   0.000000
    24  H    0.000000   0.000000   0.000000   0.000000   0.000000   0.000000
    25  H    0.000000   0.000000   0.000000   0.000000   0.000000   0.000000
    26  H    0.000000   0.000000   0.000000   0.000000   0.000000   0.000000
    27  H    0.000000   0.000000   0.000000   0.000000   0.000000   0.000000
    28  H    0.000000   0.000000   0.000000   0.000000   0.000000   0.000000
    29  H    0.000000   0.000000   0.000000   0.000000   0.000000   0.000000
    30  H    0.000000   0.000000   0.000000   0.000000   0.000000   0.000000
    31  H    0.000000   0.000000   0.000000   0.000000   0.000000   0.000000
    32  H    0.000000   0.000000   0.000000   0.000000   0.000000   0.000000
    33  H    0.000000   0.000000   0.000000   0.000000   0.000000   0.000000
    34  H    0.000000   0.000000   0.000000   0.000000   0.000000   0.000000
    35  H    0.000000   0.000000   0.000000   0.000000   0.000000   0.000000
    36  H    0.000000   0.000000   0.000000   0.000000   0.000000   0.000000
    37  H    0.000000   0.000000   0.000000   0.000000   0.000000   0.000000
    38  H    0.000000   0.000000   0.000000   0.000000   0.000000   0.000000
    39  H    0.000000   0.000000   0.000000   0.000000   0.000000   0.000000
    40  H    0.000000   0.000000   0.000000   0.000000   0.000000   0.000000
    41  H    0.000000   0.000000   0.000000   0.000000   0.000000   0.000000
    42  H    0.000000   0.000000   0.000000   0.000000   0.000000   0.000000
    43  H    0.000000   0.000000   0.000000   0.000000   0.000000   0.000000
    44  H    0.000000   0.000000   0.000000   0.000000   0.000000   0.000000
    45  H    0.000000   0.000000   0.000000   0.000000   0.000000   0.000000
               7          8          9         10         11         12
     1  O    0.000000   0.000000   0.000000   0.000000   0.000000   0.000000
     2  C    0.000000   0.000000   0.000000   0.000000   0.000000   0.000000
     3  C    0.000000   0.000000   0.000000   0.000000   0.000000   0.000000
     4  O    0.000000   0.000000   0.000000   0.000000   0.000000   0.000000
     5  C    0.000000   0.000000   0.000000   0.000000   0.000000   0.000000
     6  C    0.000000   0.000000   0.000000   0.000000   0.000000   0.000000
     7  O    6.469351   0.000000   0.000000   0.000000   0.000000   0.000000
     8  C    0.000000   3.933527   0.000000   0.000000   0.000000   0.000000
     9  C    0.000000   0.000000   4.043867   0.000000   0.000000   0.000000
    10  O    0.000000   0.000000   0.000000   6.558191   0.000000   0.000000
    11  O    0.000000   0.000000   0.000000   0.000000   6.561520   0.000000
    12  C    0.000000   0.000000   0.000000   0.000000   0.000000   3.924143
    13  C    0.000000   0.000000   0.000000   0.000000   0.000000   0.000000
    14  C    0.000000   0.000000   0.000000   0.000000   0.000000   0.000000
    15  C    0.000000   0.000000   0.000000   0.000000   0.000000   0.000000
    16  O    0.000000   0.000000   0.000000   0.000000   0.000000   0.000000
    17  C    0.000000   0.000000   0.000000   0.000000   0.000000   0.000000
    18  C    0.000000   0.000000   0.000000   0.000000   0.000000   0.000000
    19  O    0.000000   0.000000   0.000000   0.000000   0.000000   0.000000
    20  O    0.000000   0.000000   0.000000   0.000000   0.000000   0.000000
    21  O    0.000000   0.000000   0.000000   0.000000   0.000000   0.000000
    22  O    0.000000   0.000000   0.000000   0.000000   0.000000   0.000000
    23  O    0.000000   0.000000   0.000000   0.000000   0.000000   0.000000
    24  H    0.000000   0.000000   0.000000   0.000000   0.000000   0.000000
    25  H    0.000000   0.000000   0.000000   0.000000   0.000000   0.000000
    26  H    0.000000   0.000000   0.000000   0.000000   0.000000   0.000000
    27  H    0.000000   0.000000   0.000000   0.000000   0.000000   0.000000
    28  H    0.000000   0.000000   0.000000   0.000000   0.000000   0.000000
    29  H    0.000000   0.000000   0.000000   0.000000   0.000000   0.000000
    30  H    0.000000   0.000000   0.000000   0.000000   0.000000   0.000000
    31  H    0.000000   0.000000   0.000000   0.000000   0.000000   0.000000
    32  H    0.000000   0.000000   0.000000   0.000000   0.000000   0.000000
    33  H    0.000000   0.000000   0.000000   0.000000   0.000000   0.000000
    34  H    0.000000   0.000000   0.000000   0.000000   0.000000   0.000000
    35  H    0.000000   0.000000   0.000000   0.000000   0.000000   0.000000
    36  H    0.000000   0.000000   0.000000   0.000000   0.000000   0.000000
    37  H    0.000000   0.000000   0.000000   0.000000   0.000000   0.000000
    38  H    0.000000   0.000000   0.000000   0.000000   0.000000   0.000000
    39  H    0.000000   0.000000   0.000000   0.000000   0.000000   0.000000
    40  H    0.000000   0.000000   0.000000   0.000000   0.000000   0.000000
    41  H    0.000000   0.000000   0.000000   0.000000   0.000000   0.000000
    42  H    0.000000   0.000000   0.000000   0.000000   0.000000   0.000000
    43  H    0.000000   0.000000   0.000000   0.000000   0.000000   0.000000
    44  H    0.000000   0.000000   0.000000   0.000000   0.000000   0.000000
    45  H    0.000000   0.000000   0.000000   0.000000   0.000000   0.000000
              13         14         15         16         17         18
     1  O    0.000000   0.000000   0.000000   0.000000   0.000000   0.000000
     2  C    0.000000   0.000000   0.000000   0.000000   0.000000   0.000000
     3  C    0.000000   0.000000   0.000000   0.000000   0.000000   0.000000
     4  O    0.000000   0.000000   0.000000   0.000000   0.000000   0.000000
     5  C    0.000000   0.000000   0.000000   0.000000   0.000000   0.000000
     6  C    0.000000   0.000000   0.000000   0.000000   0.000000   0.000000
     7  O    0.000000   0.000000   0.000000   0.000000   0.000000   0.000000
     8  C    0.000000   0.000000   0.000000   0.000000   0.000000   0.000000
     9  C    0.000000   0.000000   0.000000   0.000000   0.000000   0.000000
    10  O    0.000000   0.000000   0.000000   0.000000   0.000000   0.000000
    11  O    0.000000   0.000000   0.000000   0.000000   0.000000   0.000000
    12  C    0.000000   0.000000   0.000000   0.000000   0.000000   0.000000
    13  C    3.912606   0.000000   0.000000   0.000000   0.000000   0.000000
[...]
 004457,0.00001438,0.00009989,0.00069579,-0.00047969,-0.00102428,0.0003
 0787,-0.00109611,-0.00561301,0.00191186,0.00131334,0.00045010,0.000014
 78,0.00015381,-0.00043776,-0.00032391,-0.00000080,0.00022592,-0.000366
 34,0.00007465,0.00061824,0.00018874,-0.00004376,0.00130730,0.00060690,
 -0.00080670,0.00009486,-0.00005330,0.00008318,-0.00001994,-0.00002003,
 0.00001874,-0.00001376,-0.00001942,-0.00001650,-0.00005263,0.00001372,
 -0.00002056,-0.00004380,-0.00000624,0.00001342,0.00005097,-0.00001149,
 -0.00007743,0.00000246,-0.00005202,0.00000766,0.00000722,-0.00001407,0
 .00006783,-0.00003405,-0.00002638,0.00005110,-0.00009081,-0.00016886,0
 .00006525,0.00020429,0.00138973,0.00033586,-0.00040660,-0.00057027,-0.
 00024667,-0.00000118,0.00004843,0.00011769,-0.00001037,-0.00007661,0.0
 0001426,0.00004268,-0.00010501,0.00026302,-0.00006438,0.00004561,-0.00
 003189,-0.00003112,0.00003057,-0.00009282,0.00089397,0.00087623,0.0001
 2834,-0.00036417,-0.00090660,0.00069459,0.08691007,0.00003036,-0.00009
 304,-0.00000378,0.00000700,0.00004699,0.00001887,-0.00002296,0.0000169
 7,-0.00000700,0.00002946,-0.00005953,0.00002190,-0.00002041,0.00001803
 ,-0.00005303,-0.00002186,0.00002472,-0.00013022,0.00010108,-0.00005962
 ,0.00006765,-0.00000989,-0.00002480,-0.00001226,-0.00018632,0.00009074
 ,0.00012372,0.00040392,-0.00005348,-0.00022983,0.02594809,-0.02202296,
 0.04585501,0.01266638,-0.00820931,0.01338516,-0.00280594,0.00138611,-0
 .00116581,0.00033654,-0.00038902,0.00016592,0.00043489,0.00051430,-0.0
 0028482,-0.00052846,-0.00041090,0.00032340,0.00204843,-0.00040412,-0.0
 0037068,0.00029731,0.00017327,0.00029298,-0.00034643,0.00004528,-0.000
 98413,-0.00016806,-0.00019987,0.00007878,-0.00016027,-0.00026704,0.000
 08342,0.00189742,-0.00140433,0.00003315,0.00001217,-0.00008702,0.00007
 458,-0.00000143,-0.00000678,0.00000219,-0.00000311,0.00000105,0.000000
 69,-0.00000019,0.00002319,-0.00001896,0.00001517,0.00003599,-0.0000002
 0,-0.00001925,0.00000332,0.00000377,-0.00001089,0.00000635,0.00000599,
 -0.00000177,0.00000214,0.00001041,0.00001119,0.00004596,-0.00001117,-0
 .00018595,0.00001014,0.00002106,0.00164237,-0.00054351,0.00009962,-0.0
 0065292,-0.00001017,-0.00001607,0.00006683,0.00005204,0.00003096,-0.00
 001690,0.00000095,0.00004939,-0.00008702,0.00020960,-0.00006637,0.0000
 2501,-0.00010112,0.00001322,-0.00002965,-0.00004458,0.00006209,0.00005
 759,-0.00002593,0.00146580,-0.00079027,0.00016971,0.00019240,-0.040088
 54,0.03135617,-0.00000581,-0.00002349,-0.00012730,0.00003181,0.0000304
 6,0.00003975,-0.00008567,0.00002727,0.00005878,0.00009315,-0.00002418,
 -0.00006351,0.00004122,0.00005651,-0.00001009,-0.00056056,-0.00037464,
 0.00055549,0.00001998,0.00022594,-0.00046415,-0.00002762,0.00011513,0.
 00020025,0.00008254,-0.00006087,-0.00015938,-0.00037616,-0.00009196,-0
 .00013492,-0.05777071,0.05754961,-0.17456327,-0.01138022,0.00208198,-0
 .00079323,0.00113365,-0.00141025,0.00304432,-0.00024267,-0.00012087,-0
 .00052968,-0.00119045,-0.00033766,0.00021668,0.00196286,-0.00000792,0.
 00074465,0.00017434,0.00023403,-0.00174976,0.00061407,0.00027438,0.000
 05456,-0.00053809,-0.00065581,0.00003354,0.00055297,-0.00023786,-0.000
 17549,0.00079801,0.00060994,-0.00024786,-0.00275570,0.00053361,-0.0017
 5655,0.00009538,0.00006251,-0.00007180,-0.00001725,-0.00001250,0.00000
 924,-0.00000482,-0.00000992,-0.00001570,-0.00004680,-0.00000748,0.0000
 1527,-0.00005471,-0.00003594,0.00003946,0.00006308,0.00001037,-0.00005
 873,0.00000630,-0.00004182,-0.00001485,0.00003485,0.00001625,0.0000554
 3,0.00002075,-0.00002168,0.00007511,0.00010297,-0.00004879,0.00023296,
 0.00233905,0.00038079,0.00147985,-0.00016935,-0.00031541,-0.00017285,-
 0.00003044,0.00001925,0.00019056,-0.00002113,-0.00005570,-0.00009810,0
 .00013166,-0.00016495,-0.00019928,-0.00009018,0.00010175,-0.00001875,-
 0.00004001,-0.00006374,-0.00011727,0.00049409,0.00097434,-0.00053873,0
 .00052629,-0.00014775,-0.00002080,0.06633076,-0.05910463,0.17490843,-0
 .00015613,-0.00018716,-0.00035053,0.00054133,0.00031120,-0.00014915,-0
 .00187676,-0.00012747,-0.00180738,-0.00004680,0.00047752,-0.00021593,0
 .00816347,0.01755990,-0.01020623,0.00093784,0.00170714,-0.00428669,-0.
 00088402,0.00066189,0.00055542,0.00022564,-0.00017012,-0.00000530,0.00
 023487,-0.00010185,-0.00009240,-0.00043588,-0.00011860,0.00024072,0.00
 026501,-0.00012718,0.00020360,-0.00019694,0.00006110,-0.00005317,-0.00
 037146,-0.00010421,-0.00037131,0.00063522,0.00112592,0.00010207,-0.005
 00511,0.00144563,0.00006855,0.00212322,0.00027581,0.00010376,-0.000866
 84,0.00040280,-0.00035345,-0.00007623,-0.00016988,-0.00011632,0.000349
 72,0.00006434,0.00009919,-0.00279297,-0.00113153,-0.00045720,-0.001811
 36,-0.00152213,0.00092258,0.00006519,-0.00038008,0.00065952,-0.0594600
 3,-0.07848251,0.03235959,-0.00017220,0.00000323,-0.00009904,-0.0002366
 8,-0.00019375,0.00001707,-0.00033029,-0.00045199,0.00057280,0.00089275
 ,0.00096927,-0.00103928,-0.00019033,0.00003807,-0.00030698,-0.00000342
 ,-0.00005590,0.00005422,0.00002017,0.00000098,0.00002399,0.00005883,0.
 00007205,-0.00001693,0.00013124,0.00008255,-0.00010228,-0.00001523,-0.
 00005302,-0.00005134,0.00004604,0.00008090,0.00001744,0.00012429,-0.00
 008192,-0.00026171,-0.00023986,0.00001701,0.00048144,0.00004469,0.0000
 2832,0.00006184,-0.00001070,-0.00005941,0.00002834,-0.00000926,0.00002
 759,0.00004819,-0.00012015,0.00004540,0.00000057,0.00024176,0.00041865
 ,-0.00019687,-0.00004621,0.00004418,-0.00013619,0.05843678,-0.00002385
 ,-0.00077363,-0.00055098,0.00077849,0.00060164,0.00018636,-0.00190759,
 0.00183998,-0.00049173,0.00093352,-0.00141663,0.00015469,0.00113437,-0
 .01550217,0.01640190,0.00371668,-0.00172234,0.00073665,-0.00069133,0.0
 0032801,-0.00066462,0.00021684,0.00023685,0.00032906,0.00023297,-0.000
 11433,-0.00020313,-0.00050444,-0.00014012,0.00009330,0.00001794,-0.000
 17519,0.00016478,-0.00001574,0.00011510,-0.00013101,-0.00019116,-0.000
 17747,-0.00007699,0.00094965,0.00109239,0.00019575,-0.00283835,0.00388
 025,0.00023013,0.00159045,-0.00052470,0.00022745,-0.00062845,0.0001865
 9,-0.00036641,0.00002066,-0.00011122,-0.00005585,0.00020343,-0.0000332
 6,0.00008368,0.00299107,-0.00298313,-0.00035569,-0.00215906,-0.0013870
 8,0.00006003,-0.00008377,-0.00035895,0.00036547,-0.06290108,-0.1194964
 4,0.07570193,-0.00023408,-0.00004548,-0.00007603,-0.00011969,-0.000230
 87,-0.00021941,-0.00033624,0.00092379,-0.00034707,-0.00010007,0.003198
 86,-0.00147050,-0.00006260,-0.00039933,-0.00001038,0.00000719,-0.00016
 268,-0.00004290,0.00001517,0.00000793,0.00009239,0.00004659,0.00010939
 ,0.00002916,0.00025535,0.00005081,0.00006360,-0.00002690,0.00000461,-0
 .00000268,0.00003127,0.00005731,-0.00000091,0.00015248,0.00002183,-0.0
 0008983,0.00054329,0.00008535,0.00028114,0.00008579,0.00004222,0.00005
 487,-0.00005806,0.00001206,0.00001910,-0.00001717,0.00001731,0.0000231
 4,-0.00006617,0.00007970,-0.00003069,0.00029605,0.00038432,-0.00013779
 ,0.00002172,0.00006760,-0.00007421,0.05840152,0.13211355,0.00002164,-0
 .00020095,0.00035202,0.00070357,0.00030129,-0.00056846,-0.00213973,0.0
 0163623,-0.00551118,-0.00065433,-0.00017688,0.00092907,0.00883202,0.03
 540346,-0.03419382,-0.00154672,0.00062315,-0.00000397,0.00037233,-0.00
 076430,0.00025338,-0.00002862,-0.00002585,-0.00013839,-0.00011279,0.00
 003954,0.00013281,0.00024240,-0.00000923,-0.00005262,0.00008780,0.0000
 5041,-0.00008467,-0.00008542,-0.00006037,0.00004185,0.00002013,0.00003
 859,-0.00005206,-0.00016419,-0.00055936,-0.00021991,0.00056583,-0.0002
 9932,0.00088162,-0.00028222,-0.00002349,-0.00044128,0.00025187,-0.0000
 3466,0.00007623,0.00002911,0.00002818,0.00002615,-0.00006557,0.0000350
 3,-0.00009324,-0.00348043,-0.00222763,-0.00216578,0.00132900,0.0003268
 2,-0.00062347,0.00011836,0.00011549,-0.00013207,0.01217717,0.05606686,
 -0.05643426,-0.00006387,0.00008511,-0.00016575,-0.00020268,-0.00000315
 ,0.00018625,0.00079340,0.00015097,-0.00042762,-0.00028159,-0.00059406,
 -0.00046102,0.00021310,-0.00002583,0.00036646,0.00001044,0.00007343,-0
 .00001797,-0.00000830,0.00000222,-0.00005410,-0.00003503,0.00000774,-0
 .00003866,-0.00014027,0.00002931,-0.00003088,-0.00000724,0.00001272,0.
 00000778,0.00000497,0.00000277,0.00003720,-0.00024075,0.00014609,0.000
 01221,0.00036190,0.00007864,0.00024275,-0.00001153,0.00001234,0.000024
 94,0.00002701,-0.00000421,0.00002395,0.00001227,-0.00000190,0.00001200
 ,0.00000733,-0.00004641,0.00003490,-0.00016016,-0.00012728,0.00004304,
 -0.00002653,-0.00002173,0.00002294,-0.01639207,-0.09029418,0.09829027,
 -0.00005167,0.00006255,-0.00004293,-0.00001537,-0.00001229,0.00000546,
 0.00009151,-0.00013241,-0.00002630,-0.00005505,0.00025063,-0.00009687,
 -0.00008373,-0.00001713,-0.00006264,-0.00007413,-0.00004423,0.00006069
 ,-0.00003376,0.00002698,-0.00005090,0.00001838,0.00000773,0.00001297,0
 .00002789,-0.00001681,-0.00001749,-0.00008610,-0.00005427,0.00000827,0
 .00005757,-0.00033312,0.00021778,0.00016224,0.00028462,-0.00020924,0.0
 0031257,0.00017955,0.00003704,-0.00282939,0.00173434,0.00045199,0.0060
 0695,0.04248752,0.00569187,-0.00075699,-0.00229477,-0.00000042,-0.0013
 3955,-0.00026059,0.00001353,0.00002171,-0.00016230,-0.00009744,0.00035
 701,-0.00006548,0.00000714,-0.04934127,-0.05896079,-0.00286048,0.00007
 585,-0.00001106,-0.00034349,-0.00015267,-0.00017938,-0.00022564,-0.000
 38661,-0.00020899,0.00041540,-0.00000340,-0.00000377,0.00000290,-0.000
 01022,-0.00000666,0.00000708,-0.00004119,-0.00016773,0.00009089,0.0000
 7126,-0.00016146,-0.00006561,-0.00000892,0.00000909,0.00000042,-0.0000
 0184,-0.00000717,-0.00000197,0.00000649,0.00000310,0.00000447,0.000016
 33,0.00002461,-0.00000336,0.00002815,0.00001510,0.00003006,-0.00012623
 ,0.00012785,-0.00000432,-0.00007394,-0.00003693,0.00004766,0.00009836,
 0.00020697,0.00016340,-0.00413439,0.00261626,0.00065749,0.00029271,0.0
 0007203,0.00003835,-0.00026104,-0.00000155,0.00017916,-0.00001573,-0.0
 0001692,0.00008166,-0.00013436,0.00011644,-0.00001028,0.00003483,0.000
 08745,-0.00002094,0.00003477,0.00009589,-0.00009013,0.00179623,0.00050
 849,-0.00002178,0.05047079,0.00013177,-0.00029702,-0.00026435,0.000114
 36,0.00016065,0.00012814,-0.00039734,0.00027574,0.00021551,0.00043447,
 -0.00041507,-0.00004998,-0.00001969,0.00013087,-0.00011466,-0.00109932
 ,-0.00091932,0.00095802,0.00016251,0.00039979,-0.00080132,-0.00008011,
 0.00024647,0.00030867,-0.00005902,0.00001494,-0.00012781,0.00004112,0.
 00012311,-0.00023981,-0.00055879,-0.00014691,-0.00012751,0.00055193,0.
 00005808,-0.00007969,0.00080141,0.00000568,0.00051892,-0.00074997,-0.0
 0179848,0.00061149,0.01310218,-0.04023691,-0.00763456,0.00185987,-0.00
 091307,-0.00222912,0.00054284,-0.00147503,0.00067169,0.00012847,0.0001
 6216,0.00012169,-0.00027340,-0.00040750,-0.00008225,-0.02832724,-0.181
 99717,-0.02226407,0.00098252,0.00139466,-0.00028099,-0.00047597,0.0001
 9219,-0.00088179,0.00047227,-0.00012901,-0.00003358,-0.00005513,-0.000
 03877,0.00002015,-0.00000227,-0.00003871,-0.00006897,-0.00016702,0.000
 17199,-0.00006602,-0.00040511,-0.00033786,0.00036802,0.00002826,-0.000
 05146,-0.00012391,0.00000472,-0.00009511,-0.00002780,0.00000199,0.0000
 1067,0.00009070,-0.00000561,-0.00001616,0.00011391,0.00007159,-0.00014
 839,0.00019712,-0.00005625,0.00027494,0.00014551,-0.00006355,-0.000122
 79,-0.00006328,0.00008650,0.00004151,0.00056704,0.00024267,-0.00106657
 ,-0.00101005,0.00001512,-0.00004339,-0.00009822,-0.00046331,0.00035366
 ,0.00009709,-0.00005088,-0.00007685,-0.00001606,0.00007633,0.00014043,
 -0.00008305,0.00001163,-0.00026632,0.00017247,0.00012583,0.00007167,0.
 00014851,-0.00086302,-0.00007450,0.00015132,0.01429994,0.22669557,-0.0
 0003734,-0.00040233,0.00007903,0.00004672,0.00019218,0.00010245,-0.000
 00203,0.00008500,-0.00006171,-0.00015220,-0.00023601,0.00000199,0.0001
 7750,-0.00007741,0.00007129,-0.00033423,-0.00015954,0.00007634,0.00006
 756,-0.00002834,-0.00016756,-0.00002303,0.00002495,0.00011165,-0.00010
 013,0.00000013,0.00004705,0.00011158,-0.00007806,-0.00012817,0.0000854
 9,0.00001076,-0.00024027,-0.00023883,-0.00002651,0.00009965,0.00010694
 ,0.00018218,-0.00030220,-0.00248884,0.00101423,-0.00031278,0.00390476,
 -0.01419826,-0.00289123,-0.00013418,-0.00022753,-0.00214504,0.00101873
 ,0.00017001,0.00010030,0.00015887,0.00015154,0.00012803,-0.00022790,0.
 00003883,-0.00027118,-0.00106110,-0.01711042,-0.00115122,0.00021201,-0
 .00002488,-0.00016665,0.00002176,-0.00002171,-0.00032162,-0.00011451,-
 0.00004885,-0.00049644,0.00001353,-0.00000390,-0.00002257,0.00001839,0
 .00003752,0.00001698,0.00015186,0.00009855,0.00005236,0.00016681,0.000
 58121,0.00020930,0.00002757,0.00002252,0.00003970,0.00000254,0.0000197
 1,-0.00002231,-0.00000615,0.00001753,-0.00001313,-0.00001420,0.0001141
 3,-0.00000730,-0.00001571,0.00000594,0.00007246,-0.00013720,0.00017294
 ,0.00012451,0.00000403,-0.00003349,0.00002125,-0.00041866,0.00077134,0
 .00010744,0.00305336,-0.00217945,-0.00088258,-0.00018983,-0.00005050,-
 0.00004205,0.00012652,0.00002122,0.00009204,0.00004203,-0.00002140,-0.
 00001912,0.00004210,-0.00008913,0.00005180,-0.00008893,-0.00003474,0.0
 0002595,-0.00002070,0.00000598,0.00006284,0.00022548,0.00005698,0.0002
 0794,-0.00403472,0.03107193,0.00788860,-0.12148648,0.10085711,-0.00611
 420,0.01028999,-0.00543601,0.00394157,0.00277153,-0.00379308,-0.001646
 99,-0.00220298,0.00100434,0.00132982,-0.00018019,-0.00016608,0.0006888
 0,-0.00050589,-0.00070879,0.00064920,0.00059155,-0.00002876,-0.0010753
 0,-0.00207686,-0.00191884,-0.00048339,-0.00069942,0.00015418,0.0000409
 6,0.00042013,0.00000300,-0.00012821,0.00014007,0.00001374,-0.00000496,
 -0.00011506,-0.00001549,0.00001814,-0.00003849,0.00001986,0.00003352,0
 .00001119,-0.00017955,-0.00009656,0.00003406,-0.00026441,0.00016192,0.
 00007906,0.00010891,-0.00011781,-0.00001561,0.00002208,0.00002594,-0.0
 0004709,-0.00002319,-0.00002362,0.00006342,0.00004410,-0.00001856,-0.0
 0013389,0.00022510,-0.00012773,0.00028054,0.00029662,-0.00016000,0.000
 18458,0.00007520,-0.00011638,-0.00039485,0.00050206,-0.00042566,-0.000
 07069,-0.00210218,-0.00205006,-0.00029427,0.00059004,0.00003299,0.0005
 7185,0.00093525,0.00056889,0.00007326,0.00004352,0.00041112,0.00004472
 ,0.00014727,0.00002449,0.00032872,0.00008839,-0.00013648,-0.00000229,-
 0.00000888,-0.00011904,-0.00008579,0.00013665,-0.00000304,-0.00013109,
 0.00003972,0.00008068,-0.00000454,-0.00001193,-0.00000329,-0.00001067,
 0.00001175,0.00002019,-0.00010778,0.00002896,0.00016816,-0.00000837,0.
 00003476,0.00000298,-0.00000804,0.00000511,0.00001013,0.00000923,-0.00
 001913,0.00000840,0.00000134,0.00000346,0.00001514,-0.00003300,-0.0000
 2318,0.00002495,-0.00019663,-0.00011142,0.00006495,-0.00004363,-0.0000
 1231,-0.00001507,0.00002110,-0.00018491,-0.00003037,0.00003653,-0.0001
 1636,0.00005407,0.11294132,0.07116904,-0.10600260,-0.01441587,0.022990
 38,-0.04579712,-0.01018912,-0.00107632,0.00154971,-0.00269123,-0.00204
 700,-0.00323341,-0.00295729,0.00007437,-0.00008423,-0.00053038,0.00062
 409,0.00075428,-0.00071398,-0.00003851,-0.00046848,0.00116879,-0.00094
 526,-0.00359363,-0.00272787,0.00054300,-0.00015658,-0.00034869,-0.0008
 5952,0.00006753,0.00052486,-0.00006217,-0.00007740,0.00001782,0.000052
 38,0.00002236,-0.00002909,-0.00004137,-0.00004660,-0.00010872,0.000153
 29,0.00035557,0.00000346,-0.00020818,0.00036369,-0.00002952,0.00002202
 ,-0.00014110,0.00002767,-0.00005032,-0.00001339,-0.00002514,0.00005637
 ,0.00000378,0.00001780,-0.00001442,-0.00004494,-0.00001171,0.00021235,
 -0.00052394,-0.00023610,-0.00057499,-0.00057636,0.00018365,-0.00011362
 ,-0.00030463,0.00021179,0.00005481,-0.00071973,0.00042413,-0.00089752,
 -0.00145144,0.00044737,0.00026863,-0.00058217,0.00033753,-0.00003181,0
 .00062614,0.00001490,0.00001184,0.00051718,0.00017662,-0.00003071,-0.0
 0014816,-0.00000038,0.00021703,-0.00031794,0.00007801,0.00015344,-0.00
 002384,0.00011589,0.00029465,0.00018037,-0.00006205,0.00005188,0.00003
 149,-0.00025265,-0.00002118,0.00004548,0.00003980,0.00001565,0.0000168
 0,-0.00001128,-0.00003380,0.00014145,0.00003664,0.00003264,-0.00001407
 ,0.00002147,0.00000790,0.00000785,0.00000133,-0.00002150,0.00002481,0.
 00001033,-0.00000543,-0.00000202,-0.00000294,0.00000389,0.00003172,-0.
 00001340,0.00030360,0.00037977,-0.00016248,0.00002935,0.00004475,-0.00
 000169,0.00005842,0.00037204,0.00008345,-0.00006146,0.00018760,0.00018
 487,-0.09026719,0.15859977,-0.01868885,-0.00406736,-0.01018700,0.01472
 493,-0.01959968,-0.00554994,0.00016585,-0.00506326,-0.00344346,-0.0006
 7544,0.00025459,-0.00121399,-0.00002231,0.00023467,-0.00046155,0.00050
 096,-0.00104240,0.00062069,0.00024044,0.00017331,-0.00121108,-0.001010
 11,-0.00355018,-0.00089395,-0.00013754,-0.00007342,-0.00032615,0.00003
 469,0.00004529,-0.00017340,-0.00016481,0.00002333,-0.00005887,0.000112
 31,0.00001262,-0.00002296,0.00015571,-0.00004742,0.00023668,-0.0001047
 3,0.00004314,0.00002159,0.00047504,0.00000155,-0.00020017,-0.00034604,
 -0.00010606,0.00008124,0.00016093,-0.00006723,0.00002509,0.00004701,0.
 00004559,0.00003795,-0.00010947,-0.00002445,-0.00002509,-0.00039968,0.
 00002323,0.00035128,-0.00034553,0.00025905,0.00005592,-0.00011182,0.00
 012662,-0.00027770,-0.00019471,0.00009372,0.00068313,0.00022453,0.0004
 8721,0.00117307,-0.00015349,-0.00015111,0.00008330,-0.00016047,0.00094
 838,-0.00025839,0.00039390,-0.00011402,-0.00066457,-0.00010438,0.00009
 430,-0.00010219,0.00035907,-0.00018689,-0.00002185,-0.00003155,0.00001
 465,0.00013610,0.00006327,-0.00010951,0.00013769,0.00004485,-0.0000750
 9,0.00014572,0.00000876,0.00001594,0.00002386,-0.00001125,-0.00002604,
 -0.00002477,0.00019370,-0.00006540,-0.00008545,-0.00001293,-0.00000294
 ,-0.00002856,-0.00000173,-0.00000492,-0.00001421,0.00000529,0.00001094
 ,-0.00000812,0.00000178,-0.00000748,-0.00001461,0.00004460,-0.00000298
 ,-0.00000340,-0.00001383,-0.00013909,0.00010847,0.00003927,-0.00000754
 ,0.00006212,0.00022146,0.00014132,-0.00029460,0.00006146,0.00009162,-0
 .00012546,0.00452108,0.03139331,0.02170780\\0.00007923,-0.00012484,-0.
 00002272,0.00003638,0.00002713,0.00000273,0.00001355,-0.00006925,0.000
 02241,-0.00001727,0.00002025,0.00000848,0.00001975,0.00001776,0.000038
 95,-0.00007837,-0.00002496,-0.00001410,-0.00002152,-0.00001682,0.00002
 468,-0.00000059,0.00002441,0.00004483,-0.00000465,-0.00000297,-0.00002
 310,0.00000235,0.00000993,0.00014717,-0.00003518,0.00001893,-0.0000671
 7,0.00000868,0.00002471,-0.00008760,0.00001935,0.00003712,-0.00002322,
 0.00001698,0.00003251,-0.00000942,0.00004509,0.00004292,-0.00000119,0.
 00000617,-0.00001981,0.00000228,0.00004329,0.00006504,0.00006232,-0.00
 006267,-0.00008260,-0.00000415,-0.00001221,0.00004662,0.00001925,0.000
 03578,0.00005284,0.00001540,0.00003699,-0.00002639,-0.00000646,-0.0000
 1698,-0.00002642,0.00001876,-0.00003883,-0.00001828,-0.00002116,0.0000
 0849,-0.00001253,-0.00000063,0.00000282,0.00001383,0.00000732,-0.00000
 709,0.00000901,-0.00000562,-0.00000456,-0.00000786,0.00001161,-0.00000
 166,-0.00000222,-0.00000300,-0.00000698,0.00003390,-0.00000640,0.00000
 237,-0.00000635,-0.00003183,-0.00000800,0.00000698,0.00001695,0.000006
 54,-0.00003114,-0.00008988,-0.00000582,0.00000643,-0.00000908,-0.00000
 722,0.00000423,-0.00000266,0.00001367,0.00000004,-0.00000375,-0.000004
 24,-0.00000511,-0.00001099,0.00000682,-0.00000959,0.00000101,-0.000009
 76,-0.00000081,-0.00000609,-0.00001066,0.00000158,0.00000586,0.0000377
 4,-0.00005502,0.00002262,-0.00000243,0.00000013,0.00002153,0.00001802,
 -0.00000916,0.00004945,-0.00002690,0.00004817,-0.00006985,-0.00000985,
 -0.00003893,-0.00000896,-0.00006662,0.00004663,-0.00001456\\\@


 Ideas are like rabbits. You get a couple and learn
 how to handle them, and pretty soon you have a dozen.
                                    -- John Steinbeck
 Job cpu time:       0 days  0 hours  0 minutes 11.2 seconds.
 Elapsed time:       0 days  0 hours  0 minutes  1.0 seconds.
 File lengths (MBytes):  RWF=    217 Int=      0 D2E=      0 Chk=      4 Scr=      1
 Normal termination of Gaussian 16 at Tue Jun 22 14:21:50 2021.
