 Entering Gaussian System, Link 0=g16
 Input=input.com
 Output=input.log
 Initial command:
 /home/matma/Programs/gaussian/G16_x86_SSE4/tar/g16/l1.exe "/scratch-data/gaussian/Gau-29109.inp" -scrdir="/scratch-data/gaussian/"
 Entering Link 1 = /home/matma/Programs/gaussian/G16_x86_SSE4/tar/g16/l1.exe PID=     29111.
  
 Copyright (c) 1988-2017, Gaussian, Inc.  All Rights Reserved.
  
 This is part of the Gaussian(R) 16 program.  It is based on
 the Gaussian(R) 09 system (copyright 2009, Gaussian, Inc.),
 the Gaussian(R) 03 system (copyright 2003, Gaussian, Inc.),
 the Gaussian(R) 98 system (copyright 1998, Gaussian, Inc.),
 the Gaussian(R) 94 system (copyright 1995, Gaussian, Inc.),
 the Gaussian 92(TM) system (copyright 1992, Gaussian, Inc.),
 the Gaussian 90(TM) system (copyright 1990, Gaussian, Inc.),
 the Gaussian 88(TM) system (copyright 1988, Gaussian, Inc.),
 the Gaussian 86(TM) system (copyright 1986, Carnegie Mellon
 University), and the Gaussian 82(TM) system (copyright 1983,
 Carnegie Mellon University). Gaussian is a federally registered
 trademark of Gaussian, Inc.
  
 This software contains proprietary and confidential information,
 including trade secrets, belonging to Gaussian, Inc.
  
 This software is provided under written license and may be
 used, copied, transmitted, or stored only in accord with that
 written license.
  
 The following legend is applicable only to US Government
 contracts under FAR:
  
                    RESTRICTED RIGHTS LEGEND
  
 Use, reproduction and disclosure by the US Government is
 subject to restrictions as set forth in subparagraphs (a)
 and (c) of the Commercial Computer Software - Restricted
 Rights clause in FAR 52.227-19.
  
 Gaussian, Inc.
 340 Quinnipiac St., Bldg. 40, Wallingford CT 06492
  
  
 ---------------------------------------------------------------
 Warning -- This program may not be used in any manner that
 competes with the business of Gaussian, Inc. or will provide
 assistance to any competitor of Gaussian, Inc.  The licensee
 of this program is prohibited from giving any competitor of
 Gaussian, Inc. access to this program.  By using this program,
 the user acknowledges that Gaussian, Inc. is engaged in the
 business of creating and licensing software in the field of
 computational chemistry and represents and warrants to the
 licensee that it is not a competitor of Gaussian, Inc. and that
 it will not use this program in any manner prohibited above.
 ---------------------------------------------------------------
  

 Cite this work as:
 Gaussian 16, Revision B.01,
 M. J. Frisch, G. W. Trucks, H. B. Schlegel, G. E. Scuseria, 
 M. A. Robb, J. R. Cheeseman, G. Scalmani, V. Barone, 
 G. A. Petersson, H. Nakatsuji, X. Li, M. Caricato, A. V. Marenich, 
 J. Bloino, B. G. Janesko, R. Gomperts, B. Mennucci, H. P. Hratchian, 
 J. V. Ortiz, A. F. Izmaylov, J. L. Sonnenberg, D. Williams-Young, 
 F. Ding, F. Lipparini, F. Egidi, J. Goings, B. Peng, A. Petrone, 
 T. Henderson, D. Ranasinghe, V. G. Zakrzewski, J. Gao, N. Rega, 
 G. Zheng, W. Liang, M. Hada, M. Ehara, K. Toyota, R. Fukuda, 
 J. Hasegawa, M. Ishida, T. Nakajima, Y. Honda, O. Kitao, H. Nakai, 
 T. Vreven, K. Throssell, J. A. Montgomery, Jr., J. E. Peralta, 
 F. Ogliaro, M. J. Bearpark, J. J. Heyd, E. N. Brothers, K. N. Kudin, 
 V. N. Staroverov, T. A. Keith, R. Kobayashi, J. Normand, 
 K. Raghavachari, A. P. Rendell, J. C. Burant, S. S. Iyengar, 
 J. Tomasi, M. Cossi, J. M. Millam, M. Klene, C. Adamo, R. Cammi, 
 J. W. Ochterski, R. L. Martin, K. Morokuma, O. Farkas, 
 J. B. Foresman, and D. J. Fox, Gaussian, Inc., Wallingford CT, 2016.
 
 ******************************************
 Gaussian 16:  ES64L-G16RevB.01 20-Dec-2017
                28-Jun-2021 
 ******************************************
 %nproc=12
 Will use up to   12 processors via shared memory.
 %mem=16GB
 --------------------------------------
 #P pm6 opt=loose freq int=(grid=99590)
 --------------------------------------
 1/7=-1,18=20,19=15,26=1,38=1/1,3;
 2/9=110,12=2,17=6,18=5,40=1/2;
 3/5=2,25=1,41=3900000,71=1,75=99590/1,2,3;
 4/35=1/1;
 5/5=2,35=1,38=5/2;
 6/7=2,8=2,9=2,10=2,28=1/1;
 7//1,2,3,16;
 1/7=-1,18=20,19=15,26=1/3(2);
 2/9=110/2;
 99//99;
 2/9=110/2;
 3/5=2,25=1,41=3900000,71=1,75=99590,135=20/1,2,3;
 4/5=5,16=3,35=1/1;
 5/5=2,35=1,38=5/2;
 7//1,2,3,16;
 1/7=-1,18=20,19=15,26=1/3(-5);
 2/9=110/2;
 6/7=2,8=2,9=2,10=2,19=2,28=1/1;
 99/9=1/99;
 Leave Link    1 at Mon Jun 28 19:27:48 2021, MaxMem=  2147483648 cpu:               0.2 elap:               0.0
 (Enter /home/matma/Programs/gaussian/G16_x86_SSE4/tar/g16/l101.exe)
 ------------
 offspring-06
 ------------
 Symbolic Z-matrix:
 Charge =  1 Multiplicity = 1
 C                     3.352     3.029    -0.086 
 H                     3.605     3.924    -0.695 
 O                     3.601     3.221     1.296 
 H                     4.519     3.541     1.461 
 C                     4.153     0.71      0.006 
 H                     4.426     0.793     1.083 
 O                     4.24      2.037    -0.585 
 C                     1.866     2.577    -0.18 
 H                     1.597     2.475    -1.277 
 N                     0.981     3.579     0.433 
 H                     1.296     4.001     1.307 
 C                    -0.289     3.787    -0.114 
 O                    -0.579     3.161    -1.139 
 C                    -1.193     4.742     0.572 
 H                    -2.065     4.192     0.996 
 H                    -1.619     5.468    -0.144 
 H                    -0.745     5.321     1.39 
 C                     1.748     1.204     0.517 
 H                     1.93      1.272     1.621 
 O                     0.381     0.699     0.47 
 H                     0.384    -0.505     0.434 
 C                     2.704     0.214    -0.172 
 H                     2.461     0.064    -1.252 
 O                     2.518    -1.015     0.563 
 C                     5.194    -0.113    -0.77 
 H                     5.606    -0.924    -0.135 
 H                     6.017     0.536    -1.129 
 O                     4.594    -0.816    -1.86 
 H                     4.569    -0.25     -2.665 
 C                     2.341    -2.182    -0.267 
 H                     3.158    -2.268    -1.021 
 C                     0.018    -2.763    -0.811 
 H                     0.312    -3.789    -1.16 
 O                     1.159    -1.892    -1.027 
 C                     2.248    -3.344     0.752 
 H                     3.026    -3.205     1.545 
 O                     2.441    -4.555     0.02 
 H                     3.388    -4.834     0.03 
 C                     0.864    -3.535     1.422 
 H                     0.649    -4.627     1.52 
 O                     0.988    -2.909     2.709 
 H                     0.5      -3.421     3.4 
 C                    -0.282    -2.792     0.694 
 H                    -1.3      -3.201     0.911 
 O                    -0.352    -1.424     1.206 
 H                     0.209    -1.372     2.073 
 C                    -1.07     -2.176    -1.72 
 H                    -1.331    -2.871    -2.542 
 H                    -0.744    -1.202    -2.143 
 O                    -2.263    -2.045    -0.909 
 C                    -3.039    -0.87     -1.209 
 H                    -3.099    -0.685    -2.3 
 C                    -5.31     -0.209    -0.7 
 H                    -5.38      0.206    -1.73 
 O                    -4.31     -1.273    -0.687 
 C                    -2.448     0.321    -0.408 
 H                    -1.939    -0.051     0.518 
 O                    -1.375     0.806    -1.271 
 H                    -1.546     1.778    -1.556 
 C                    -3.454     1.437    -0.073 
 H                    -3.515     2.189    -0.896 
 O                    -2.95      2.181     1.033 
 H                    -3.249     1.757     1.893 
 C                    -4.844     0.862     0.308 
 H                    -5.593     1.681     0.434 
 O                    -4.708     0.331     1.627 
 H                    -4.407    -0.618     1.578 
 C                    -6.582    -0.917    -0.284 
 H                    -6.597    -1.95     -0.672 
 H                    -7.477    -0.411    -0.666 
 H                    -6.687    -0.993     0.809 
 H                    -0.169     0.975    -0.486 
 
 Add virtual bond connecting atoms H72        and O20        Dist= 2.15D+00.
 Add virtual bond connecting atoms H21        and O20        Dist= 2.28D+00.
 ITRead=  0  0  0  0  0  0  0  0  0  0  0  0  0  0  0  0  0  0  0  0
 ITRead=  0  0  0  0  0  0  0  0  0  0  0  0  0  0  0  0  0  0  0  0
 ITRead=  0  0  0  0  0  0  0  0  0  0  0  0  0  0  0  0  0  0  0  0
 ITRead=  0  0  0  0  0  0  0  0  0  0  0  0
 MicOpt= -1 -1 -1 -1 -1 -1 -1 -1 -1 -1 -1 -1 -1 -1 -1 -1 -1 -1 -1 -1
 MicOpt= -1 -1 -1 -1 -1 -1 -1 -1 -1 -1 -1 -1 -1 -1 -1 -1 -1 -1 -1 -1
 MicOpt= -1 -1 -1 -1 -1 -1 -1 -1 -1 -1 -1 -1 -1 -1 -1 -1 -1 -1 -1 -1
 MicOpt= -1 -1 -1 -1 -1 -1 -1 -1 -1 -1 -1 -1
 NAtoms=     72 NQM=       72 NQMF=       0 NMMI=      0 NMMIF=      0
                NMic=       0 NMicF=      0.
                    Isotopes and Nuclear Properties:
 (Nuclear quadrupole moments (NQMom) in fm**2, nuclear magnetic moments (NMagM)
  in nuclear magnetons)

  Atom         1           2           3           4           5           6           7           8           9          10
 IAtWgt=          12           1          16           1          12           1          16          12           1          14
 AtmWgt=  12.0000000   1.0078250  15.9949146   1.0078250  12.0000000   1.0078250  15.9949146  12.0000000   1.0078250  14.0030740
 NucSpn=           0           1           0           1           0           1           0           0           1           2
 AtZEff=  -0.0000000  -0.0000000  -0.0000000  -0.0000000  -0.0000000  -0.0000000  -0.0000000  -0.0000000  -0.0000000  -0.0000000
 NQMom=    0.0000000   0.0000000   0.0000000   0.0000000   0.0000000   0.0000000   0.0000000   0.0000000   0.0000000   2.0440000
 NMagM=    0.0000000   2.7928460   0.0000000   2.7928460   0.0000000   2.7928460   0.0000000   0.0000000   2.7928460   0.4037610
 AtZNuc=   6.0000000   1.0000000   8.0000000   1.0000000   6.0000000   1.0000000   8.0000000   6.0000000   1.0000000   7.0000000

  Atom        11          12          13          14          15          16          17          18          19          20
 IAtWgt=           1          12          16          12           1           1           1          12           1          16
 AtmWgt=   1.0078250  12.0000000  15.9949146  12.0000000   1.0078250   1.0078250   1.0078250  12.0000000   1.0078250  15.9949146
 NucSpn=           1           0           0           0           1           1           1           0           1           0
 AtZEff=  -0.0000000  -0.0000000  -0.0000000  -0.0000000  -0.0000000  -0.0000000  -0.0000000  -0.0000000  -0.0000000  -0.0000000
 NQMom=    0.0000000   0.0000000   0.0000000   0.0000000   0.0000000   0.0000000   0.0000000   0.0000000   0.0000000   0.0000000
 NMagM=    2.7928460   0.0000000   0.0000000   0.0000000   2.7928460   2.7928460   2.7928460   0.0000000   2.7928460   0.0000000
 AtZNuc=   1.0000000   6.0000000   8.0000000   6.0000000   1.0000000   1.0000000   1.0000000   6.0000000   1.0000000   8.0000000

  Atom        21          22          23          24          25          26          27          28          29          30
 IAtWgt=           1          12           1          16          12           1           1          16           1          12
 AtmWgt=   1.0078250  12.0000000   1.0078250  15.9949146  12.0000000   1.0078250   1.0078250  15.9949146   1.0078250  12.0000000
 NucSpn=           1           0           1           0           0           1           1           0           1           0
 AtZEff=  -0.0000000  -0.0000000  -0.0000000  -0.0000000  -0.0000000  -0.0000000  -0.0000000  -0.0000000  -0.0000000  -0.0000000
 NQMom=    0.0000000   0.0000000   0.0000000   0.0000000   0.0000000   0.0000000   0.0000000   0.0000000   0.0000000   0.0000000
 NMagM=    2.7928460   0.0000000   2.7928460   0.0000000   0.0000000   2.7928460   2.7928460   0.0000000   2.7928460   0.0000000
 AtZNuc=   1.0000000   6.0000000   1.0000000   8.0000000   6.0000000   1.0000000   1.0000000   8.0000000   1.0000000   6.0000000

  Atom        31          32          33          34          35          36          37          38          39          40
 IAtWgt=           1          12           1          16          12           1          16           1          12           1
 AtmWgt=   1.0078250  12.0000000   1.0078250  15.9949146  12.0000000   1.0078250  15.9949146   1.0078250  12.0000000   1.0078250
 NucSpn=           1           0           1           0           0           1           0           1           0           1
 AtZEff=  -0.0000000  -0.0000000  -0.0000000  -0.0000000  -0.0000000  -0.0000000  -0.0000000  -0.0000000  -0.0000000  -0.0000000
 NQMom=    0.0000000   0.0000000   0.0000000   0.0000000   0.0000000   0.0000000   0.0000000   0.0000000   0.0000000   0.0000000
 NMagM=    2.7928460   0.0000000   2.7928460   0.0000000   0.0000000   2.7928460   0.0000000   2.7928460   0.0000000   2.7928460
 AtZNuc=   1.0000000   6.0000000   1.0000000   8.0000000   6.0000000   1.0000000   8.0000000   1.0000000   6.0000000   1.0000000

  Atom        41          42          43          44          45          46          47          48          49          50
 IAtWgt=          16           1          12           1          16           1          12           1           1          16
 AtmWgt=  15.9949146   1.0078250  12.0000000   1.0078250  15.9949146   1.0078250  12.0000000   1.0078250   1.0078250  15.9949146
 NucSpn=           0           1           0           1           0           1           0           1           1           0
 AtZEff=  -0.0000000  -0.0000000  -0.0000000  -0.0000000  -0.0000000  -0.0000000  -0.0000000  -0.0000000  -0.0000000  -0.0000000
 NQMom=    0.0000000   0.0000000   0.0000000   0.0000000   0.0000000   0.0000000   0.0000000   0.0000000   0.0000000   0.0000000
 NMagM=    0.0000000   2.7928460   0.0000000   2.7928460   0.0000000   2.7928460   0.0000000   2.7928460   2.7928460   0.0000000
 AtZNuc=   8.0000000   1.0000000   6.0000000   1.0000000   8.0000000   1.0000000   6.0000000   1.0000000   1.0000000   8.0000000

  Atom        51          52          53          54          55          56          57          58          59          60
 IAtWgt=          12           1          12           1          16          12           1          16           1          12
 AtmWgt=  12.0000000   1.0078250  12.0000000   1.0078250  15.9949146  12.0000000   1.0078250  15.9949146   1.0078250  12.0000000
 NucSpn=           0           1           0           1           0           0           1           0           1           0
 AtZEff=  -0.0000000  -0.0000000  -0.0000000  -0.0000000  -0.0000000  -0.0000000  -0.0000000  -0.0000000  -0.0000000  -0.0000000
 NQMom=    0.0000000   0.0000000   0.0000000   0.0000000   0.0000000   0.0000000   0.0000000   0.0000000   0.0000000   0.0000000
 NMagM=    0.0000000   2.7928460   0.0000000   2.7928460   0.0000000   0.0000000   2.7928460   0.0000000   2.7928460   0.0000000
 AtZNuc=   6.0000000   1.0000000   6.0000000   1.0000000   8.0000000   6.0000000   1.0000000   8.0000000   1.0000000   6.0000000

  Atom        61          62          63          64          65          66          67          68          69          70
 IAtWgt=           1          16           1          12           1          16           1          12           1           1
 AtmWgt=   1.0078250  15.9949146   1.0078250  12.0000000   1.0078250  15.9949146   1.0078250  12.0000000   1.0078250   1.0078250
 NucSpn=           1           0           1           0           1           0           1           0           1           1
 AtZEff=  -0.0000000  -0.0000000  -0.0000000  -0.0000000  -0.0000000  -0.0000000  -0.0000000  -0.0000000  -0.0000000  -0.0000000
 NQMom=    0.0000000   0.0000000   0.0000000   0.0000000   0.0000000   0.0000000   0.0000000   0.0000000   0.0000000   0.0000000
 NMagM=    2.7928460   0.0000000   2.7928460   0.0000000   2.7928460   0.0000000   2.7928460   0.0000000   2.7928460   2.7928460
 AtZNuc=   1.0000000   8.0000000   1.0000000   6.0000000   1.0000000   8.0000000   1.0000000   6.0000000   1.0000000   1.0000000

  Atom        71          72
 IAtWgt=           1           1
 AtmWgt=   1.0078250   1.0078250
 NucSpn=           1           1
 AtZEff=  -0.0000000  -0.0000000
 NQMom=    0.0000000   0.0000000
 NMagM=    2.7928460   2.7928460
 AtZNuc=   1.0000000   1.0000000
 Leave Link  101 at Mon Jun 28 19:27:48 2021, MaxMem=  2147483648 cpu:               3.4 elap:               0.3
 (Enter /home/matma/Programs/gaussian/G16_x86_SSE4/tar/g16/l103.exe)

 GradGradGradGradGradGradGradGradGradGradGradGradGradGradGradGradGradGrad
 Berny optimization.
 Initialization pass.
                           ----------------------------
                           !    Initial Parameters    !
                           ! (Angstroms and Degrees)  !
 --------------------------                            --------------------------
 ! Name  Definition              Value          Derivative Info.                !
 --------------------------------------------------------------------------------
 ! R1    R(1,2)                  1.1117         estimate D2E/DX2                !
 ! R2    R(1,3)                  1.4173         estimate D2E/DX2                !
 ! R3    R(1,7)                  1.4218         estimate D2E/DX2                !
 ! R4    R(1,8)                  1.5561         estimate D2E/DX2                !
 ! R5    R(3,4)                  0.9861         estimate D2E/DX2                !
 ! R6    R(5,6)                  1.1142         estimate D2E/DX2                !
 ! R7    R(5,7)                  1.4553         estimate D2E/DX2                !
 ! R8    R(5,22)                 1.5418         estimate D2E/DX2                !
 ! R9    R(5,25)                 1.5373         estimate D2E/DX2                !
 ! R10   R(8,9)                  1.1341         estimate D2E/DX2                !
 ! R11   R(8,10)                 1.4707         estimate D2E/DX2                !
 ! R12   R(8,18)                 1.5443         estimate D2E/DX2                !
 ! R13   R(10,11)                1.0204         estimate D2E/DX2                !
 ! R14   R(10,12)                1.3983         estimate D2E/DX2                !
 ! R15   R(12,13)                1.2356         estimate D2E/DX2                !
 ! R16   R(12,14)                1.4832         estimate D2E/DX2                !
 ! R17   R(14,15)                1.1147         estimate D2E/DX2                !
 ! R18   R(14,16)                1.1051         estimate D2E/DX2                !
 ! R19   R(14,17)                1.0978         estimate D2E/DX2                !
 ! R20   R(18,19)                1.121          estimate D2E/DX2                !
 ! R21   R(18,20)                1.4581         estimate D2E/DX2                !
 ! R22   R(18,22)                1.5391         estimate D2E/DX2                !
 ! R23   R(20,21)                1.2045         estimate D2E/DX2                !
 ! R24   R(20,72)                1.1369         estimate D2E/DX2                !
 ! R25   R(22,23)                1.1171         estimate D2E/DX2                !
 ! R26   R(22,24)                1.444          estimate D2E/DX2                !
 ! R27   R(24,30)                1.443          estimate D2E/DX2                !
 ! R28   R(25,26)                1.1094         estimate D2E/DX2                !
 ! R29   R(25,27)                1.1079         estimate D2E/DX2                !
 ! R30   R(25,28)                1.4291         estimate D2E/DX2                !
 ! R31   R(28,29)                0.9844         estimate D2E/DX2                !
 ! R32   R(30,31)                1.1151         estimate D2E/DX2                !
 ! R33   R(30,34)                1.4349         estimate D2E/DX2                !
 ! R34   R(30,35)                1.5483         estimate D2E/DX2                !
 ! R35   R(32,33)                1.1229         estimate D2E/DX2                !
 ! R36   R(32,34)                1.4516         estimate D2E/DX2                !
 ! R37   R(32,43)                1.5349         estimate D2E/DX2                !
 ! R38   R(32,47)                1.5345         estimate D2E/DX2                !
 ! R39   R(35,36)                1.1196         estimate D2E/DX2                !
 ! R40   R(35,37)                1.4281         estimate D2E/DX2                !
 ! R41   R(35,39)                1.5495         estimate D2E/DX2                !
 ! R42   R(37,38)                0.9873         estimate D2E/DX2                !
 ! R43   R(39,40)                1.1173         estimate D2E/DX2                !
 ! R44   R(39,41)                1.4365         estimate D2E/DX2                !
 ! R45   R(39,43)                1.5477         estimate D2E/DX2                !
 ! R46   R(41,42)                0.9888         estimate D2E/DX2                !
 ! R47   R(43,44)                1.1183         estimate D2E/DX2                !
 ! R48   R(43,45)                1.4624         estimate D2E/DX2                !
 ! R49   R(45,46)                1.034          estimate D2E/DX2                !
 ! R50   R(47,48)                1.1076         estimate D2E/DX2                !
 ! R51   R(47,49)                1.1108         estimate D2E/DX2                !
 ! R52   R(47,50)                1.4485         estimate D2E/DX2                !
 ! R53   R(50,51)                1.4397         estimate D2E/DX2                !
 ! R54   R(51,52)                1.1082         estimate D2E/DX2                !
 ! R55   R(51,55)                1.4319         estimate D2E/DX2                !
 ! R56   R(51,56)                1.5522         estimate D2E/DX2                !
 ! R57   R(53,54)                1.1127         estimate D2E/DX2                !
 ! R58   R(53,55)                1.4602         estimate D2E/DX2                !
 ! R59   R(53,64)                1.5428         estimate D2E/DX2                !
 ! R60   R(53,68)                1.514          estimate D2E/DX2                !
 ! R61   R(56,57)                1.1202         estimate D2E/DX2                !
 ! R62   R(56,58)                1.4599         estimate D2E/DX2                !
 ! R63   R(56,60)                1.5394         estimate D2E/DX2                !
 ! R64   R(58,59)                1.0273         estimate D2E/DX2                !
 ! R65   R(60,61)                1.1165         estimate D2E/DX2                !
 ! R66   R(60,62)                1.4251         estimate D2E/DX2                !
 ! R67   R(60,64)                1.5517         estimate D2E/DX2                !
 ! R68   R(62,63)                1.0044         estimate D2E/DX2                !
 ! R69   R(64,65)                1.117          estimate D2E/DX2                !
 ! R70   R(64,66)                1.4284         estimate D2E/DX2                !
 ! R71   R(66,67)                0.9968         estimate D2E/DX2                !
 ! R72   R(68,69)                1.1036         estimate D2E/DX2                !
 ! R73   R(68,70)                1.0968         estimate D2E/DX2                !
 ! R74   R(68,71)                1.1007         estimate D2E/DX2                !
 ! A1    A(2,1,3)              112.6506         estimate D2E/DX2                !
 ! A2    A(2,1,7)              103.1381         estimate D2E/DX2                !
 ! A3    A(2,1,8)              114.7139         estimate D2E/DX2                !
 ! A4    A(3,1,7)              109.0869         estimate D2E/DX2                !
 ! A5    A(3,1,8)              105.428          estimate D2E/DX2                !
 ! A6    A(7,1,8)              111.8737         estimate D2E/DX2                !
 ! A7    A(1,3,4)              111.7573         estimate D2E/DX2                !
 ! A8    A(6,5,7)              108.0587         estimate D2E/DX2                !
 ! A9    A(6,5,22)             111.4588         estimate D2E/DX2                !
 ! A10   A(6,5,25)             111.2177         estimate D2E/DX2                !
 ! A11   A(7,5,22)             107.6161         estimate D2E/DX2                !
 ! A12   A(7,5,25)             104.0457         estimate D2E/DX2                !
 ! A13   A(22,5,25)            113.9474         estimate D2E/DX2                !
 ! A14   A(1,7,5)              117.1509         estimate D2E/DX2                !
 ! A15   A(1,8,9)              108.1238         estimate D2E/DX2                !
 ! A16   A(1,8,10)             110.5836         estimate D2E/DX2                !
 ! A17   A(1,8,18)             107.6956         estimate D2E/DX2                !
 ! A18   A(9,8,10)             108.7667         estimate D2E/DX2                !
 ! A19   A(9,8,18)             109.7847         estimate D2E/DX2                !
 ! A20   A(10,8,18)            111.8162         estimate D2E/DX2                !
 ! A21   A(8,10,11)            116.937          estimate D2E/DX2                !
 ! A22   A(8,10,12)            119.0004         estimate D2E/DX2                !
 ! A23   A(11,10,12)           123.6359         estimate D2E/DX2                !
 ! A24   A(10,12,13)           117.5369         estimate D2E/DX2                !
 ! A25   A(10,12,14)           117.9309         estimate D2E/DX2                !
 ! A26   A(13,12,14)           124.5321         estimate D2E/DX2                !
 ! A27   A(12,14,15)           109.5733         estimate D2E/DX2                !
 ! A28   A(12,14,16)           110.9954         estimate D2E/DX2                !
 ! A29   A(12,14,17)           115.8183         estimate D2E/DX2                !
 ! A30   A(15,14,16)           105.6064         estimate D2E/DX2                !
 ! A31   A(15,14,17)           107.2201         estimate D2E/DX2                !
 ! A32   A(16,14,17)           107.0742         estimate D2E/DX2                !
 ! A33   A(8,18,19)            112.2202         estimate D2E/DX2                !
 ! A34   A(8,18,20)            111.409          estimate D2E/DX2                !
 ! A35   A(8,18,22)            108.8069         estimate D2E/DX2                !
 ! A36   A(19,18,20)           101.8282         estimate D2E/DX2                !
 ! A37   A(19,18,22)           112.2758         estimate D2E/DX2                !
 ! A38   A(20,18,22)           110.1905         estimate D2E/DX2                !
 ! A39   A(18,20,21)           110.1711         estimate D2E/DX2                !
 ! A40   A(18,20,72)           113.3641         estimate D2E/DX2                !
 ! A41   A(21,20,72)           102.6341         estimate D2E/DX2                !
 ! A42   A(5,22,18)            108.974          estimate D2E/DX2                !
 ! A43   A(5,22,23)            111.0529         estimate D2E/DX2                !
 ! A44   A(5,22,24)            109.6379         estimate D2E/DX2                !
 ! A45   A(18,22,23)           112.5849         estimate D2E/DX2                !
 ! A46   A(18,22,24)           103.8621         estimate D2E/DX2                !
 ! A47   A(23,22,24)           110.4738         estimate D2E/DX2                !
 ! A48   A(22,24,30)           114.2893         estimate D2E/DX2                !
 ! A49   A(5,25,26)            110.7278         estimate D2E/DX2                !
 ! A50   A(5,25,27)            110.6709         estimate D2E/DX2                !
 ! A51   A(5,25,28)            111.3499         estimate D2E/DX2                !
 ! A52   A(26,25,27)           109.7456         estimate D2E/DX2                !
 ! A53   A(26,25,28)           103.4671         estimate D2E/DX2                !
 ! A54   A(27,25,28)           110.6648         estimate D2E/DX2                !
 ! A55   A(25,28,29)           110.5822         estimate D2E/DX2                !
 ! A56   A(24,30,31)           111.1892         estimate D2E/DX2                !
 ! A57   A(24,30,34)           104.02           estimate D2E/DX2                !
 ! A58   A(24,30,35)           103.6371         estimate D2E/DX2                !
 ! A59   A(31,30,34)           105.1294         estimate D2E/DX2                !
 ! A60   A(31,30,35)           115.5406         estimate D2E/DX2                !
 ! A61   A(34,30,35)           116.7949         estimate D2E/DX2                !
 ! A62   A(33,32,34)           107.2294         estimate D2E/DX2                !
 ! A63   A(33,32,43)           109.7953         estimate D2E/DX2                !
 ! A64   A(33,32,47)           110.552          estimate D2E/DX2                !
 ! A65   A(34,32,43)           108.1118         estimate D2E/DX2                !
 ! A66   A(34,32,47)           103.8653         estimate D2E/DX2                !
 ! A67   A(43,32,47)           116.7114         estimate D2E/DX2                !
 ! A68   A(30,34,32)           116.5782         estimate D2E/DX2                !
 ! A69   A(30,35,36)           109.3443         estimate D2E/DX2                !
 ! A70   A(30,35,37)           106.9142         estimate D2E/DX2                !
 ! A71   A(30,35,39)           115.515          estimate D2E/DX2                !
 ! A72   A(36,35,37)           111.9879         estimate D2E/DX2                !
 ! A73   A(36,35,39)           109.2522         estimate D2E/DX2                !
 ! A74   A(37,35,39)           103.7576         estimate D2E/DX2                !
 ! A75   A(35,37,38)           111.3496         estimate D2E/DX2                !
 ! A76   A(35,39,40)           109.2865         estimate D2E/DX2                !
 ! A77   A(35,39,41)           104.8672         estimate D2E/DX2                !
 ! A78   A(35,39,43)           113.504          estimate D2E/DX2                !
 ! A79   A(40,39,41)           111.3425         estimate D2E/DX2                !
 ! A80   A(40,39,43)           111.5912         estimate D2E/DX2                !
 ! A81   A(41,39,43)           106.0294         estimate D2E/DX2                !
 ! A82   A(39,41,42)           110.9672         estimate D2E/DX2                !
 ! A83   A(32,43,39)           108.9998         estimate D2E/DX2                !
 ! A84   A(32,43,44)           112.0296         estimate D2E/DX2                !
 ! A85   A(32,43,45)           109.5717         estimate D2E/DX2                !
 ! A86   A(39,43,44)           114.0277         estimate D2E/DX2                !
 ! A87   A(39,43,45)           108.6539         estimate D2E/DX2                !
 ! A88   A(44,43,45)           103.3332         estimate D2E/DX2                !
 ! A89   A(43,45,46)           108.3399         estimate D2E/DX2                !
 ! A90   A(32,47,48)           111.5105         estimate D2E/DX2                !
 ! A91   A(32,47,49)           110.6663         estimate D2E/DX2                !
 ! A92   A(32,47,50)           106.6724         estimate D2E/DX2                !
 ! A93   A(48,47,49)           109.6785         estimate D2E/DX2                !
 ! A94   A(48,47,50)           106.1518         estimate D2E/DX2                !
 ! A95   A(49,47,50)           112.063          estimate D2E/DX2                !
 ! A96   A(47,50,51)           113.6448         estimate D2E/DX2                !
 ! A97   A(50,51,52)           111.7504         estimate D2E/DX2                !
 ! A98   A(50,51,55)            99.9489         estimate D2E/DX2                !
 ! A99   A(50,51,56)           108.2679         estimate D2E/DX2                !
 ! A100  A(52,51,55)           110.9663         estimate D2E/DX2                !
 ! A101  A(52,51,56)           113.6128         estimate D2E/DX2                !
 ! A102  A(55,51,56)           111.4563         estimate D2E/DX2                !
 ! A103  A(54,53,55)           108.8503         estimate D2E/DX2                !
 ! A104  A(54,53,64)           111.4013         estimate D2E/DX2                !
 ! A105  A(54,53,68)           112.0804         estimate D2E/DX2                !
 ! A106  A(55,53,64)           107.0471         estimate D2E/DX2                !
 ! A107  A(55,53,68)           103.4246         estimate D2E/DX2                !
 ! A108  A(64,53,68)           113.5071         estimate D2E/DX2                !
 ! A109  A(51,55,53)           113.5502         estimate D2E/DX2                !
 ! A110  A(51,56,57)           110.1674         estimate D2E/DX2                !
 ! A111  A(51,56,58)           103.2793         estimate D2E/DX2                !
 ! A112  A(51,56,60)           114.818          estimate D2E/DX2                !
 ! A113  A(57,56,58)           105.3672         estimate D2E/DX2                !
 ! A114  A(57,56,60)           110.9642         estimate D2E/DX2                !
 ! A115  A(58,56,60)           111.5993         estimate D2E/DX2                !
 ! A116  A(56,58,59)           110.8548         estimate D2E/DX2                !
 ! A117  A(56,60,61)           111.3203         estimate D2E/DX2                !
 ! A118  A(56,60,62)           108.437          estimate D2E/DX2                !
 ! A119  A(56,60,64)           111.7271         estimate D2E/DX2                !
 ! A120  A(61,60,62)           103.8731         estimate D2E/DX2                !
 ! A121  A(61,60,64)           112.4346         estimate D2E/DX2                !
 ! A122  A(62,60,64)           108.6453         estimate D2E/DX2                !
 ! A123  A(60,62,63)           109.8074         estimate D2E/DX2                !
 ! A124  A(53,64,60)           111.554          estimate D2E/DX2                !
 ! A125  A(53,64,65)           112.3436         estimate D2E/DX2                !
 ! A126  A(53,64,66)           111.9638         estimate D2E/DX2                !
 ! A127  A(60,64,65)           110.8955         estimate D2E/DX2                !
 ! A128  A(60,64,66)           106.2123         estimate D2E/DX2                !
 ! A129  A(65,64,66)           103.4302         estimate D2E/DX2                !
 ! A130  A(64,66,67)           109.7116         estimate D2E/DX2                !
 ! A131  A(53,68,69)           110.6427         estimate D2E/DX2                !
 ! A132  A(53,68,70)           111.9705         estimate D2E/DX2                !
 ! A133  A(53,68,71)           112.6615         estimate D2E/DX2                !
 ! A134  A(69,68,70)           107.3553         estimate D2E/DX2                !
 ! A135  A(69,68,71)           106.4519         estimate D2E/DX2                !
 ! A136  A(70,68,71)           107.4498         estimate D2E/DX2                !
 ! D1    D(2,1,3,4)            -52.2956         estimate D2E/DX2                !
 ! D2    D(7,1,3,4)             61.5967         estimate D2E/DX2                !
 ! D3    D(8,1,3,4)           -178.1075         estimate D2E/DX2                !
 ! D4    D(2,1,7,5)           -179.3249         estimate D2E/DX2                !
 ! D5    D(3,1,7,5)             60.7259         estimate D2E/DX2                !
 ! D6    D(8,1,7,5)            -55.5221         estimate D2E/DX2                !
 ! D7    D(2,1,8,9)             51.829          estimate D2E/DX2                !
 ! D8    D(2,1,8,10)           -67.1518         estimate D2E/DX2                !
 ! D9    D(2,1,8,18)           170.4019         estimate D2E/DX2                !
 ! D10   D(3,1,8,9)            176.3565         estimate D2E/DX2                !
 ! D11   D(3,1,8,10)            57.3757         estimate D2E/DX2                !
 ! D12   D(3,1,8,18)           -65.0706         estimate D2E/DX2                !
 ! D13   D(7,1,8,9)            -65.1973         estimate D2E/DX2                !
 ! D14   D(7,1,8,10)           175.822          estimate D2E/DX2                !
 ! D15   D(7,1,8,18)            53.3756         estimate D2E/DX2                !
 ! D16   D(6,5,7,1)            -63.3348         estimate D2E/DX2                !
 ! D17   D(22,5,7,1)            57.1461         estimate D2E/DX2                !
 ! D18   D(25,5,7,1)           178.3732         estimate D2E/DX2                !
 ! D19   D(6,5,22,18)           59.4459         estimate D2E/DX2                !
 ! D20   D(6,5,22,23)         -175.9773         estimate D2E/DX2                !
 ! D21   D(6,5,22,24)          -53.6133         estimate D2E/DX2                !
 ! D22   D(7,5,22,18)          -58.8667         estimate D2E/DX2                !
 ! D23   D(7,5,22,23)           65.7101         estimate D2E/DX2                !
 ! D24   D(7,5,22,24)         -171.9259         estimate D2E/DX2                !
 ! D25   D(25,5,22,18)        -173.6788         estimate D2E/DX2                !
 ! D26   D(25,5,22,23)         -49.102          estimate D2E/DX2                !
 ! D27   D(25,5,22,24)          73.262          estimate D2E/DX2                !
 ! D28   D(6,5,25,26)           34.5687         estimate D2E/DX2                !
 ! D29   D(6,5,25,27)          -87.3595         estimate D2E/DX2                !
 ! D30   D(6,5,25,28)          149.1052         estimate D2E/DX2                !
 ! D31   D(7,5,25,26)          150.6665         estimate D2E/DX2                !
 ! D32   D(7,5,25,27)           28.7384         estimate D2E/DX2                !
 ! D33   D(7,5,25,28)          -94.7969         estimate D2E/DX2                !
 ! D34   D(22,5,25,26)         -92.4319         estimate D2E/DX2                !
 ! D35   D(22,5,25,27)         145.64           estimate D2E/DX2                !
 ! D36   D(22,5,25,28)          22.1046         estimate D2E/DX2                !
 ! D37   D(1,8,10,11)          -41.4091         estimate D2E/DX2                !
 ! D38   D(1,8,10,12)          145.8122         estimate D2E/DX2                !
 ! D39   D(9,8,10,11)         -159.9996         estimate D2E/DX2                !
 ! D40   D(9,8,10,12)           27.2218         estimate D2E/DX2                !
 ! D41   D(18,8,10,11)          78.5954         estimate D2E/DX2                !
 ! D42   D(18,8,10,12)         -94.1833         estimate D2E/DX2                !
 ! D43   D(1,8,18,19)           66.8225         estimate D2E/DX2                !
 ! D44   D(1,8,18,20)         -179.7245         estimate D2E/DX2                !
 ! D45   D(1,8,18,22)          -58.0456         estimate D2E/DX2                !
 ! D46   D(9,8,18,19)         -175.6757         estimate D2E/DX2                !
 ! D47   D(9,8,18,20)          -62.2227         estimate D2E/DX2                !
 ! D48   D(9,8,18,22)           59.4561         estimate D2E/DX2                !
 ! D49   D(10,8,18,19)         -54.8606         estimate D2E/DX2                !
 ! D50   D(10,8,18,20)          58.5924         estimate D2E/DX2                !
 ! D51   D(10,8,18,22)        -179.7288         estimate D2E/DX2                !
 ! D52   D(8,10,12,13)          -3.7637         estimate D2E/DX2                !
 ! D53   D(8,10,12,14)         176.3114         estimate D2E/DX2                !
 ! D54   D(11,10,12,13)       -176.0282         estimate D2E/DX2                !
 ! D55   D(11,10,12,14)          4.047          estimate D2E/DX2                !
 ! D56   D(10,12,14,15)       -113.4552         estimate D2E/DX2                !
 ! D57   D(10,12,14,16)        130.295          estimate D2E/DX2                !
 ! D58   D(10,12,14,17)          7.9485         estimate D2E/DX2                !
 ! D59   D(13,12,14,15)         66.6257         estimate D2E/DX2                !
 ! D60   D(13,12,14,16)        -49.6241         estimate D2E/DX2                !
 ! D61   D(13,12,14,17)       -171.9706         estimate D2E/DX2                !
 ! D62   D(8,18,20,21)         149.0065         estimate D2E/DX2                !
 ! D63   D(8,18,20,72)          34.643          estimate D2E/DX2                !
 ! D64   D(19,18,20,21)        -91.184          estimate D2E/DX2                !
 ! D65   D(19,18,20,72)        154.4525         estimate D2E/DX2                !
 ! D66   D(22,18,20,21)         28.1343         estimate D2E/DX2                !
 ! D67   D(22,18,20,72)        -86.2292         estimate D2E/DX2                !
 ! D68   D(8,18,22,5)           62.7031         estimate D2E/DX2                !
 ! D69   D(8,18,22,23)         -60.9686         estimate D2E/DX2                !
 ! D70   D(8,18,22,24)         179.5039         estimate D2E/DX2                !
 ! D71   D(19,18,22,5)         -62.1323         estimate D2E/DX2                !
 ! D72   D(19,18,22,23)        174.196          estimate D2E/DX2                !
 ! D73   D(19,18,22,24)         54.6684         estimate D2E/DX2                !
 ! D74   D(20,18,22,5)        -174.8787         estimate D2E/DX2                !
 ! D75   D(20,18,22,23)         61.4496         estimate D2E/DX2                !
 ! D76   D(20,18,22,24)        -58.0779         estimate D2E/DX2                !
 ! D77   D(5,22,24,30)        -110.7119         estimate D2E/DX2                !
 ! D78   D(18,22,24,30)        132.9524         estimate D2E/DX2                !
 ! D79   D(23,22,24,30)         11.9963         estimate D2E/DX2                !
 ! D80   D(22,24,30,31)         52.1402         estimate D2E/DX2                !
 ! D81   D(22,24,30,34)        -60.5231         estimate D2E/DX2                !
 ! D82   D(22,24,30,35)        176.8819         estimate D2E/DX2                !
 ! D83   D(5,25,28,29)          87.3572         estimate D2E/DX2                !
 ! D84   D(26,25,28,29)       -153.6725         estimate D2E/DX2                !
 ! D85   D(27,25,28,29)        -36.1817         estimate D2E/DX2                !
 ! D86   D(24,30,34,32)       -116.5405         estimate D2E/DX2                !
 ! D87   D(31,30,34,32)        126.4953         estimate D2E/DX2                !
 ! D88   D(35,30,34,32)         -3.0657         estimate D2E/DX2                !
 ! D89   D(24,30,35,36)        -42.9487         estimate D2E/DX2                !
 ! D90   D(24,30,35,37)       -164.3823         estimate D2E/DX2                !
 ! D91   D(24,30,35,39)         80.7469         estimate D2E/DX2                !
 ! D92   D(31,30,35,36)         78.9315         estimate D2E/DX2                !
 ! D93   D(31,30,35,37)        -42.502          estimate D2E/DX2                !
 ! D94   D(31,30,35,39)       -157.3728         estimate D2E/DX2                !
 ! D95   D(34,30,35,36)       -156.6394         estimate D2E/DX2                !
 ! D96   D(34,30,35,37)         81.927          estimate D2E/DX2                !
 ! D97   D(34,30,35,39)        -32.9437         estimate D2E/DX2                !
 ! D98   D(33,32,34,30)        -64.4619         estimate D2E/DX2                !
 ! D99   D(43,32,34,30)         53.8641         estimate D2E/DX2                !
 ! D100  D(47,32,34,30)        178.465          estimate D2E/DX2                !
 ! D101  D(33,32,43,39)         47.889          estimate D2E/DX2                !
 ! D102  D(33,32,43,44)        -79.2593         estimate D2E/DX2                !
 ! D103  D(33,32,43,45)        166.6685         estimate D2E/DX2                !
 ! D104  D(34,32,43,39)        -68.7864         estimate D2E/DX2                !
 ! D105  D(34,32,43,44)        164.0653         estimate D2E/DX2                !
 ! D106  D(34,32,43,45)         49.9931         estimate D2E/DX2                !
 ! D107  D(47,32,43,39)        174.6725         estimate D2E/DX2                !
 ! D108  D(47,32,43,44)         47.5243         estimate D2E/DX2                !
 ! D109  D(47,32,43,45)        -66.548          estimate D2E/DX2                !
 ! D110  D(33,32,47,48)         -1.0066         estimate D2E/DX2                !
 ! D111  D(33,32,47,49)       -123.3848         estimate D2E/DX2                !
 ! D112  D(33,32,47,50)        114.4716         estimate D2E/DX2                !
 ! D113  D(34,32,47,48)        113.7249         estimate D2E/DX2                !
 ! D114  D(34,32,47,49)         -8.6533         estimate D2E/DX2                !
 ! D115  D(34,32,47,50)       -130.7969         estimate D2E/DX2                !
 ! D116  D(43,32,47,48)       -127.4158         estimate D2E/DX2                !
 ! D117  D(43,32,47,49)        110.206          estimate D2E/DX2                !
 ! D118  D(43,32,47,50)        -11.9376         estimate D2E/DX2                !
 ! D119  D(30,35,37,38)         93.5527         estimate D2E/DX2                !
 ! D120  D(36,35,37,38)        -26.194          estimate D2E/DX2                !
 ! D121  D(39,35,37,38)       -143.9014         estimate D2E/DX2                !
 ! D122  D(30,35,39,40)        140.8447         estimate D2E/DX2                !
 ! D123  D(30,35,39,41)        -99.6942         estimate D2E/DX2                !
 ! D124  D(30,35,39,43)         15.5826         estimate D2E/DX2                !
 ! D125  D(36,35,39,40)        -95.4113         estimate D2E/DX2                !
 ! D126  D(36,35,39,41)         24.0498         estimate D2E/DX2                !
 ! D127  D(36,35,39,43)        139.3266         estimate D2E/DX2                !
 ! D128  D(37,35,39,40)         24.1803         estimate D2E/DX2                !
 ! D129  D(37,35,39,41)        143.6414         estimate D2E/DX2                !
 ! D130  D(37,35,39,43)       -101.0817         estimate D2E/DX2                !
 ! D131  D(35,39,41,42)       -142.3937         estimate D2E/DX2                !
 ! D132  D(40,39,41,42)        -24.319          estimate D2E/DX2                !
 ! D133  D(43,39,41,42)         97.236          estimate D2E/DX2                !
 ! D134  D(35,39,43,32)         32.5665         estimate D2E/DX2                !
 ! D135  D(35,39,43,44)        158.5701         estimate D2E/DX2                !
 ! D136  D(35,39,43,45)        -86.7852         estimate D2E/DX2                !
 ! D137  D(40,39,43,32)        -91.4523         estimate D2E/DX2                !
 ! D138  D(40,39,43,44)         34.5513         estimate D2E/DX2                !
 ! D139  D(40,39,43,45)        149.196          estimate D2E/DX2                !
 ! D140  D(41,39,43,32)        147.1524         estimate D2E/DX2                !
 ! D141  D(41,39,43,44)        -86.844          estimate D2E/DX2                !
 ! D142  D(41,39,43,45)         27.8007         estimate D2E/DX2                !
 ! D143  D(32,43,45,46)       -132.9848         estimate D2E/DX2                !
 ! D144  D(39,43,45,46)        -13.9915         estimate D2E/DX2                !
 ! D145  D(44,43,45,46)        107.4526         estimate D2E/DX2                !
 ! D146  D(32,47,50,51)        143.2078         estimate D2E/DX2                !
 ! D147  D(48,47,50,51)        -97.7647         estimate D2E/DX2                !
 ! D148  D(49,47,50,51)         21.9488         estimate D2E/DX2                !
 ! D149  D(47,50,51,52)         41.2047         estimate D2E/DX2                !
 ! D150  D(47,50,51,55)        158.6634         estimate D2E/DX2                !
 ! D151  D(47,50,51,56)        -84.6578         estimate D2E/DX2                !
 ! D152  D(50,51,55,53)        173.2226         estimate D2E/DX2                !
 ! D153  D(52,51,55,53)        -68.7359         estimate D2E/DX2                !
 ! D154  D(56,51,55,53)         58.9621         estimate D2E/DX2                !
 ! D155  D(50,51,56,57)        -26.7154         estimate D2E/DX2                !
 ! D156  D(50,51,56,58)         85.4172         estimate D2E/DX2                !
 ! D157  D(50,51,56,60)       -152.8571         estimate D2E/DX2                !
 ! D158  D(52,51,56,57)       -151.4791         estimate D2E/DX2                !
 ! D159  D(52,51,56,58)        -39.3465         estimate D2E/DX2                !
 ! D160  D(52,51,56,60)         82.3791         estimate D2E/DX2                !
 ! D161  D(55,51,56,57)         82.2638         estimate D2E/DX2                !
 ! D162  D(55,51,56,58)       -165.6036         estimate D2E/DX2                !
 ! D163  D(55,51,56,60)        -43.8779         estimate D2E/DX2                !
 ! D164  D(54,53,55,51)         53.5283         estimate D2E/DX2                !
 ! D165  D(64,53,55,51)        -67.0013         estimate D2E/DX2                !
 ! D166  D(68,53,55,51)        172.8597         estimate D2E/DX2                !
 ! D167  D(54,53,64,60)        -59.2154         estimate D2E/DX2                !
 ! D168  D(54,53,64,65)         66.0218         estimate D2E/DX2                !
 ! D169  D(54,53,64,66)       -178.0958         estimate D2E/DX2                !
 ! D170  D(55,53,64,60)         59.6757         estimate D2E/DX2                !
 ! D171  D(55,53,64,65)       -175.0871         estimate D2E/DX2                !
 ! D172  D(55,53,64,66)        -59.2046         estimate D2E/DX2                !
 ! D173  D(68,53,64,60)        173.1403         estimate D2E/DX2                !
 ! D174  D(68,53,64,65)        -61.6225         estimate D2E/DX2                !
 ! D175  D(68,53,64,66)         54.26           estimate D2E/DX2                !
 ! D176  D(54,53,68,69)         82.7314         estimate D2E/DX2                !
 ! D177  D(54,53,68,70)        -36.9849         estimate D2E/DX2                !
 ! D178  D(54,53,68,71)       -158.2397         estimate D2E/DX2                !
 ! D179  D(55,53,68,69)        -34.3522         estimate D2E/DX2                !
 ! D180  D(55,53,68,70)       -154.0685         estimate D2E/DX2                !
 ! D181  D(55,53,68,71)         84.6767         estimate D2E/DX2                !
 ! D182  D(64,53,68,69)       -149.9778         estimate D2E/DX2                !
 ! D183  D(64,53,68,70)         90.306          estimate D2E/DX2                !
 ! D184  D(64,53,68,71)        -30.9489         estimate D2E/DX2                !
 ! D185  D(51,56,58,59)        118.7673         estimate D2E/DX2                !
 ! D186  D(57,56,58,59)       -125.6234         estimate D2E/DX2                !
 ! D187  D(60,56,58,59)         -5.1005         estimate D2E/DX2                !
 ! D188  D(51,56,60,61)        -87.4921         estimate D2E/DX2                !
 ! D189  D(51,56,60,62)        158.8405         estimate D2E/DX2                !
 ! D190  D(51,56,60,64)         39.1294         estimate D2E/DX2                !
 ! D191  D(57,56,60,61)        146.7786         estimate D2E/DX2                !
 ! D192  D(57,56,60,62)         33.1112         estimate D2E/DX2                !
 ! D193  D(57,56,60,64)        -86.5999         estimate D2E/DX2                !
 ! D194  D(58,56,60,61)         29.5903         estimate D2E/DX2                !
 ! D195  D(58,56,60,62)        -84.0771         estimate D2E/DX2                !
 ! D196  D(58,56,60,64)        156.2118         estimate D2E/DX2                !
 ! D197  D(56,60,62,63)        -87.9242         estimate D2E/DX2                !
 ! D198  D(61,60,62,63)        153.5793         estimate D2E/DX2                !
 ! D199  D(64,60,62,63)         33.6981         estimate D2E/DX2                !
 ! D200  D(56,60,64,53)        -47.469          estimate D2E/DX2                !
 ! D201  D(56,60,64,65)       -173.5067         estimate D2E/DX2                !
 ! D202  D(56,60,64,66)         74.7832         estimate D2E/DX2                !
 ! D203  D(61,60,64,53)         78.5437         estimate D2E/DX2                !
 ! D204  D(61,60,64,65)        -47.494          estimate D2E/DX2                !
 ! D205  D(61,60,64,66)       -159.2041         estimate D2E/DX2                !
 ! D206  D(62,60,64,53)       -167.0574         estimate D2E/DX2                !
 ! D207  D(62,60,64,65)         66.9049         estimate D2E/DX2                !
 ! D208  D(62,60,64,66)        -44.8052         estimate D2E/DX2                !
 ! D209  D(53,64,66,67)         33.5097         estimate D2E/DX2                !
 ! D210  D(60,64,66,67)        -88.4819         estimate D2E/DX2                !
 ! D211  D(65,64,66,67)        154.6904         estimate D2E/DX2                !
 --------------------------------------------------------------------------------
 Trust Radius=3.00D-01 FncErr=1.00D-07 GrdErr=1.00D-07 EigMax=2.50D+02 EigMin=1.00D-04
 Number of steps in this run=    431 maximum allowed number of steps=    432.
 GradGradGradGradGradGradGradGradGradGradGradGradGradGradGradGradGradGrad

 Leave Link  103 at Mon Jun 28 19:27:48 2021, MaxMem=  2147483648 cpu:               0.1 elap:               0.0
 (Enter /home/matma/Programs/gaussian/G16_x86_SSE4/tar/g16/l202.exe)
 Stoichiometry    C20H36NO15(1+)
 Framework group  C1[X(C20H36NO15)]
 Deg. of freedom   210
 Full point group                 C1      NOp   1
 Largest Abelian subgroup         C1      NOp   1
 Largest concise Abelian subgroup C1      NOp   1
                         Standard orientation:                         
 ---------------------------------------------------------------------
 Center     Atomic      Atomic             Coordinates (Angstroms)
 Number     Number       Type             X           Y           Z
 ---------------------------------------------------------------------
      1          6           0        3.351962    3.029057   -0.085982
      2          1           0        3.604950    3.924060   -0.694982
      3          8           0        3.600959    3.221060    1.296018
      4          1           0        4.518955    3.541073    1.461018
      5          6           0        4.152994    0.710068    0.006018
      6          1           0        4.425993    0.793071    1.083018
      7          8           0        4.239976    2.037069   -0.584982
      8          6           0        1.865968    2.577036   -0.179982
      9          1           0        1.596970    2.475033   -1.276982
     10          7           0        0.980954    3.579024    0.433018
     11          1           0        1.295949    4.001028    1.307018
     12          6           0       -0.289048    3.787007   -0.113982
     13          8           0       -0.579040    3.161003   -1.138982
     14          6           0       -1.193062    4.741994    0.572018
     15          1           0       -2.065054    4.191982    0.996018
     16          1           0       -1.619072    5.467988   -0.143982
     17          1           0       -0.745070    5.321000    1.390018
     18          6           0        1.747987    1.204035    0.517018
     19          1           0        1.929986    1.272037    1.621018
     20          8           0        0.380994    0.699016    0.470018
     21          1           0        0.384010   -0.504984    0.434018
     22          6           0        2.704001    0.214048   -0.171982
     23          1           0        2.461003    0.064044   -1.251982
     24          8           0        2.518017   -1.014955    0.563018
     25          6           0        5.194005   -0.112918   -0.769982
     26          1           0        5.606016   -0.923912   -0.134982
     27          1           0        6.016996    0.536093   -1.128982
     28          8           0        4.594015   -0.815926   -1.859982
     29          1           0        4.569007   -0.249927   -2.664982
     30          6           0        2.341033   -2.181957   -0.266982
     31          1           0        3.158035   -2.267946   -1.020982
     32          6           0        0.018041   -2.762989   -0.810982
     33          1           0        0.312056   -3.788985   -1.159982
     34          8           0        1.159030   -1.891973   -1.026982
     35          6           0        2.248049   -3.343959    0.752018
     36          1           0        3.026048   -3.204948    1.545018
     37          8           0        2.441066   -4.554956    0.020018
     38          1           0        3.388070   -4.833943    0.030018
     39          6           0        0.864052   -3.534978    1.422018
     40          1           0        0.649067   -4.626980    1.520018
     41          8           0        0.988043   -2.908976    2.709018
     42          1           0        0.500051   -3.420983    3.400018
     43          6           0       -0.281958   -2.791993    0.694018
     44          1           0       -1.299953   -3.201007    0.911018
     45          8           0       -0.351977   -1.423994    1.206018
     46          1           0        0.209022   -1.371987    2.073018
     47          6           0       -1.069967   -2.176004   -1.719982
     48          1           0       -1.330957   -2.871008   -2.541982
     49          1           0       -0.743980   -1.202000   -2.142982
     50          8           0       -2.262968   -2.045020   -0.908982
     51          6           0       -3.038985   -0.870031   -1.208982
     52          1           0       -3.098987   -0.685032   -2.299982
     53          6           0       -5.309994   -0.209062   -0.699982
     54          1           0       -5.379999    0.205937   -1.729982
     55          8           0       -4.309979   -1.273049   -0.686982
     56          6           0       -2.448001    0.320977   -0.407982
     57          1           0       -1.938996   -0.051016    0.518018
     58          8           0       -1.375008    0.805992   -1.270982
     59          1           0       -1.546021    1.777989   -1.555982
     60          6           0       -3.454016    1.436963   -0.072982
     61          1           0       -3.515027    2.188962   -0.895982
     62          8           0       -2.950026    2.180970    1.033018
     63          1           0       -3.249021    1.756966    1.893018
     64          6           0       -4.844008    0.861944    0.308018
     65          1           0       -5.593020    1.680934    0.434018
     66          8           0       -4.708001    0.330946    1.627018
     67          1           0       -4.406988   -0.618050    1.578018
     68          6           0       -6.581984   -0.917080   -0.283982
     69          1           0       -6.596970   -1.950080   -0.671982
     70          1           0       -7.476991   -0.411092   -0.665982
     71          1           0       -6.686983   -0.993081    0.809018
     72          1           0       -0.169010    0.975008   -0.485982
 ---------------------------------------------------------------------
 Rotational constants (GHZ):           0.1450734           0.0917578           0.0646184
 Leave Link  202 at Mon Jun 28 19:27:48 2021, MaxMem=  2147483648 cpu:               0.0 elap:               0.0
 (Enter /home/matma/Programs/gaussian/G16_x86_SSE4/tar/g16/l301.exe)
 Standard basis: VSTO-6G (5D, 7F)
 Ernie: Thresh=  0.10000D-02 Tol=  0.10000D-05 Strict=F.
  NNHCO=     0 NNPyr=     1 NCTC=     0               EPep=        -0.000739617
    EC=      2538.322950055  ECS=        14.423193745   EG=         1.185021398
   EHC=         0.003771082  EAt=      -264.256368941  AtH=        10.039461169
 EPDDG=         0.000000000  ECC=      2553.934196663 EAtT=       274.295830110
 There are   180 symmetry adapted cartesian basis functions of A   symmetry.
 There are   180 symmetry adapted basis functions of A   symmetry.
   180 basis functions,  1080 primitive gaussians,   180 cartesian basis functions
   105 alpha electrons      105 beta electrons
       nuclear repulsion energy      2828.2300267724 Hartrees.
 IExCor=    0 DFT=F Ex=HF Corr=None ExCW=0 ScaHFX=  1.000000
 ScaDFX=  1.000000  1.000000  1.000000  1.000000 ScalE2=  1.000000  1.000000
 IRadAn=  99590 IRanWt=     -1 IRanGd=            0 ICorTp=0 IEmpDi=  4
 Integral buffers will be    131072 words long.
 Regular integral format.
 Two-electron integral symmetry is turned off.
 Leave Link  301 at Mon Jun 28 19:27:48 2021, MaxMem=  2147483648 cpu:               0.2 elap:               0.0
 (Enter /home/matma/Programs/gaussian/G16_x86_SSE4/tar/g16/l302.exe)
 Do NDO integrals.
 NPDir=0 NMtPBC=     1 NCelOv=     1 NCel=       1 NClECP=     1 NCelD=      1
         NCelK=      1 NCelE2=     1 NClLst=     1 CellRange=     0.0.
 One-electron integrals computed using PRISM.
 NBasis=   180 RedAO= F EigKep=  0.00D+00  NBF=   180
 NBsUse=   180 1.00D-04 EigRej=  0.00D+00 NBFU=   180
 Leave Link  302 at Mon Jun 28 19:27:48 2021, MaxMem=  2147483648 cpu:               1.0 elap:               0.1
 (Enter /home/matma/Programs/gaussian/G16_x86_SSE4/tar/g16/l303.exe)
 DipDrv:  MaxL=1.
 Leave Link  303 at Mon Jun 28 19:27:48 2021, MaxMem=  2147483648 cpu:               0.1 elap:               0.0
 (Enter /home/matma/Programs/gaussian/G16_x86_SSE4/tar/g16/l401.exe)
 Simple Huckel Guess.
 JPrj=0 DoOrth=F DoCkMO=F.
 Leave Link  401 at Mon Jun 28 19:27:48 2021, MaxMem=  2147483648 cpu:               0.4 elap:               0.0
 (Enter /home/matma/Programs/gaussian/G16_x86_SSE4/tar/g16/l502.exe)
 Keep J ints in memory in canonical form, NReq=939849.
 FoFCou: FMM=F IPFlag=           0 FMFlag=           0 FMFlg1=        2000
         NFxFlg=           0 DoJE=F BraDBF=F KetDBF=F FulRan=T
         wScrn=  0.000000 ICntrl=       600 IOpCl=  2 I1Cent=           0 NGrid=           0
         NMat0=    1 NMatS0=    396 NMatT0=    0 NMatD0=    1 NMtDS0=    0 NMtDT0=    0
 Symmetry not used in FoFCou.
 Two-electron integral symmetry not used.
 Closed shell SCF:
 Using DIIS extrapolation, IDIIS=  1040.
 Overlap will be assumed to be unity.
 NGot=  2147483648 LenX=  2147275908 LenY=  2147243067
 Requested convergence on RMS density matrix=1.00D-08 within 128 cycles.
 Requested convergence on MAX density matrix=1.00D-06.
 Requested convergence on             energy=1.00D-06.
 No special actions if energy rises.

 Cycle   1  Pass 1  IDiag  1:
 E=  1.06507850635489    
 DIIS: error= 5.87D-02 at cycle   1 NSaved=   1.
 NSaved= 1 IEnMin= 1 EnMin=  1.06507850635489     IErMin= 1 ErrMin= 5.87D-02
 ErrMax= 5.87D-02  0.00D+00 EMaxC= 1.00D-01 BMatC= 5.16D-01 BMatP= 5.16D-01
 IDIUse=3 WtCom= 4.13D-01 WtEn= 5.87D-01
 Coeff-Com:  0.100D+01
 Coeff-En:   0.100D+01
 Coeff:      0.100D+01
 GapD=    2.000 DampG=2.000 DampE=0.500 DampFc=1.0000 IDamp=-1.
 RMSDP=6.65D-03 MaxDP=1.42D-01              OVMax= 0.00D+00

 Cycle   2  Pass 1  IDiag  1:
 E=-0.534879344799720     Delta-E=       -1.599957851155 Rises=F Damp=F
 DIIS: error= 1.70D-02 at cycle   2 NSaved=   2.
 NSaved= 2 IEnMin= 2 EnMin=-0.534879344799720     IErMin= 2 ErrMin= 1.70D-02
 ErrMax= 1.70D-02  0.00D+00 EMaxC= 1.00D-01 BMatC= 6.75D-02 BMatP= 5.16D-01
 IDIUse=3 WtCom= 8.30D-01 WtEn= 1.70D-01
 Coeff-Com: -0.398D+00 0.140D+01
 Coeff-En:   0.000D+00 0.100D+01
 Coeff:     -0.330D+00 0.133D+01
 RMSDP=3.58D-03 MaxDP=5.96D-02 DE=-1.60D+00 OVMax= 0.00D+00

 Cycle   3  Pass 1  IDiag  3:
 E=-0.830547330016998     Delta-E=       -0.295667985217 Rises=F Damp=F
 DIIS: error= 6.03D-03 at cycle   3 NSaved=   3.
 NSaved= 3 IEnMin= 3 EnMin=-0.830547330016998     IErMin= 3 ErrMin= 6.03D-03
 ErrMax= 6.03D-03  0.00D+00 EMaxC= 1.00D-01 BMatC= 6.78D-03 BMatP= 6.75D-02
 IDIUse=3 WtCom= 9.40D-01 WtEn= 6.03D-02
 Coeff-Com:  0.199D+00-0.894D+00 0.169D+01
 Coeff-En:   0.000D+00 0.000D+00 0.100D+01
 Coeff:      0.187D+00-0.840D+00 0.165D+01
 Gap=     0.370 Goal=   None    Shift=    0.000
 RMSDP=1.76D-03 MaxDP=4.02D-02 DE=-2.96D-01 OVMax= 2.20D-02

 Cycle   4  Pass 1  IDiag  3:
 E=-0.873975284003336     Delta-E=       -0.043427953986 Rises=F Damp=F
 DIIS: error= 1.33D-03 at cycle   4 NSaved=   4.
 NSaved= 4 IEnMin= 4 EnMin=-0.873975284003336     IErMin= 4 ErrMin= 1.33D-03
 ErrMax= 1.33D-03  0.00D+00 EMaxC= 1.00D-01 BMatC= 3.87D-04 BMatP= 6.78D-03
 IDIUse=3 WtCom= 9.87D-01 WtEn= 1.33D-02
 Coeff-Com: -0.416D-01 0.223D+00-0.643D+00 0.146D+01
 Coeff-En:   0.000D+00 0.000D+00 0.000D+00 0.100D+01
 Coeff:     -0.411D-01 0.220D+00-0.634D+00 0.146D+01
 Gap=     0.372 Goal=   None    Shift=    0.000
 RMSDP=4.90D-04 MaxDP=1.20D-02 DE=-4.34D-02 OVMax= 7.93D-03

 Cycle   5  Pass 1  IDiag  3:
 E=-0.876721621415527     Delta-E=       -0.002746337412 Rises=F Damp=F
 DIIS: error= 3.39D-04 at cycle   5 NSaved=   5.
 NSaved= 5 IEnMin= 5 EnMin=-0.876721621415527     IErMin= 5 ErrMin= 3.39D-04
 ErrMax= 3.39D-04  0.00D+00 EMaxC= 1.00D-01 BMatC= 2.18D-05 BMatP= 3.87D-04
 IDIUse=3 WtCom= 9.97D-01 WtEn= 3.39D-03
 Coeff-Com:  0.451D-02-0.298D-01 0.134D+00-0.531D+00 0.142D+01
 Coeff-En:   0.000D+00 0.000D+00 0.000D+00 0.000D+00 0.100D+01
 Coeff:      0.449D-02-0.297D-01 0.133D+00-0.529D+00 0.142D+01
 Gap=     0.372 Goal=   None    Shift=    0.000
 RMSDP=1.05D-04 MaxDP=1.92D-03 DE=-2.75D-03 OVMax= 1.73D-03

 Cycle   6  Pass 1  IDiag  3:
 E=-0.876861649597686     Delta-E=       -0.000140028182 Rises=F Damp=F
 DIIS: error= 1.43D-04 at cycle   6 NSaved=   6.
 NSaved= 6 IEnMin= 6 EnMin=-0.876861649597686     IErMin= 6 ErrMin= 1.43D-04
 ErrMax= 1.43D-04  0.00D+00 EMaxC= 1.00D-01 BMatC= 1.58D-06 BMatP= 2.18D-05
 IDIUse=3 WtCom= 9.99D-01 WtEn= 1.43D-03
 Coeff-Com:  0.564D-03 0.229D-03-0.230D-01 0.155D+00-0.647D+00 0.151D+01
 Coeff-En:   0.000D+00 0.000D+00 0.000D+00 0.000D+00 0.000D+00 0.100D+01
 Coeff:      0.563D-03 0.229D-03-0.230D-01 0.154D+00-0.646D+00 0.151D+01
 Gap=     0.372 Goal=   None    Shift=    0.000
 RMSDP=2.85D-05 MaxDP=8.00D-04 DE=-1.40D-04 OVMax= 4.59D-04

 Cycle   7  Pass 1  IDiag  3:
 E=-0.876872078535143     Delta-E=       -0.000010428937 Rises=F Damp=F
 DIIS: error= 5.17D-05 at cycle   7 NSaved=   7.
 NSaved= 7 IEnMin= 7 EnMin=-0.876872078535143     IErMin= 7 ErrMin= 5.17D-05
 ErrMax= 5.17D-05  0.00D+00 EMaxC= 1.00D-01 BMatC= 1.33D-07 BMatP= 1.58D-06
 IDIUse=1 WtCom= 1.00D+00 WtEn= 0.00D+00
 Coeff-Com: -0.351D-03 0.589D-03 0.698D-02-0.551D-01 0.257D+00-0.798D+00
 Coeff-Com:  0.159D+01
 Coeff:     -0.351D-03 0.589D-03 0.698D-02-0.551D-01 0.257D+00-0.798D+00
 Coeff:      0.159D+01
 Gap=     0.372 Goal=   None    Shift=    0.000
 RMSDP=8.67D-06 MaxDP=3.64D-04 DE=-1.04D-05 OVMax= 1.32D-04

 Cycle   8  Pass 1  IDiag  3:
 E=-0.876873039495422     Delta-E=       -0.000000960960 Rises=F Damp=F
 DIIS: error= 1.49D-05 at cycle   8 NSaved=   8.
 NSaved= 8 IEnMin= 8 EnMin=-0.876873039495422     IErMin= 8 ErrMin= 1.49D-05
 ErrMax= 1.49D-05  0.00D+00 EMaxC= 1.00D-01 BMatC= 1.36D-08 BMatP= 1.33D-07
 IDIUse=1 WtCom= 1.00D+00 WtEn= 0.00D+00
 Coeff-Com:  0.872D-04-0.160D-03-0.187D-02 0.150D-01-0.719D-01 0.263D+00
 Coeff-Com: -0.826D+00 0.162D+01
 Coeff:      0.872D-04-0.160D-03-0.187D-02 0.150D-01-0.719D-01 0.263D+00
 Coeff:     -0.826D+00 0.162D+01
 Gap=     0.372 Goal=   None    Shift=    0.000
 RMSDP=3.15D-06 MaxDP=1.39D-04 DE=-9.61D-07 OVMax= 6.36D-05

 Cycle   9  Pass 1  IDiag  3:
 E=-0.876873144255114     Delta-E=       -0.000000104760 Rises=F Damp=F
 DIIS: error= 3.51D-06 at cycle   9 NSaved=   9.
 NSaved= 9 IEnMin= 9 EnMin=-0.876873144255114     IErMin= 9 ErrMin= 3.51D-06
 ErrMax= 3.51D-06  0.00D+00 EMaxC= 1.00D-01 BMatC= 8.60D-10 BMatP= 1.36D-08
 IDIUse=1 WtCom= 1.00D+00 WtEn= 0.00D+00
 Coeff-Com: -0.141D-04 0.264D-04 0.360D-03-0.282D-02 0.140D-01-0.583D-01
 Coeff-Com:  0.231D+00-0.662D+00 0.148D+01
 Coeff:     -0.141D-04 0.264D-04 0.360D-03-0.282D-02 0.140D-01-0.583D-01
 Coeff:      0.231D+00-0.662D+00 0.148D+01
 Gap=     0.372 Goal=   None    Shift=    0.000
 RMSDP=7.45D-07 MaxDP=3.03D-05 DE=-1.05D-07 OVMax= 1.71D-05

 Cycle  10  Pass 1  IDiag  3:
 E=-0.876873150674783     Delta-E=       -0.000000006420 Rises=F Damp=F
 DIIS: error= 1.01D-06 at cycle  10 NSaved=  10.
 NSaved=10 IEnMin=10 EnMin=-0.876873150674783     IErMin=10 ErrMin= 1.01D-06
 ErrMax= 1.01D-06  0.00D+00 EMaxC= 1.00D-01 BMatC= 7.27D-11 BMatP= 8.60D-10
 IDIUse=1 WtCom= 1.00D+00 WtEn= 0.00D+00
 Coeff-Com:  0.600D-05-0.244D-04 0.116D-04 0.166D-03-0.120D-02 0.668D-02
 Coeff-Com: -0.350D-01 0.139D+00-0.576D+00 0.147D+01
 Coeff:      0.600D-05-0.244D-04 0.116D-04 0.166D-03-0.120D-02 0.668D-02
 Coeff:     -0.350D-01 0.139D+00-0.576D+00 0.147D+01
 Gap=     0.372 Goal=   None    Shift=    0.000
 RMSDP=2.11D-07 MaxDP=9.57D-06 DE=-6.42D-09 OVMax= 4.77D-06

 Cycle  11  Pass 1  IDiag  3:
 E=-0.876873151222753     Delta-E=       -0.000000000548 Rises=F Damp=F
 DIIS: error= 2.71D-07 at cycle  11 NSaved=  11.
 NSaved=11 IEnMin=11 EnMin=-0.876873151222753     IErMin=11 ErrMin= 2.71D-07
 ErrMax= 2.71D-07  0.00D+00 EMaxC= 1.00D-01 BMatC= 6.73D-12 BMatP= 7.27D-11
 IDIUse=1 WtCom= 1.00D+00 WtEn= 0.00D+00
 Coeff-Com: -0.202D-05 0.102D-04-0.268D-04 0.855D-04-0.259D-03 0.386D-03
 Coeff-Com:  0.167D-02-0.176D-01 0.133D+00-0.592D+00 0.147D+01
 Coeff:     -0.202D-05 0.102D-04-0.268D-04 0.855D-04-0.259D-03 0.386D-03
 Coeff:      0.167D-02-0.176D-01 0.133D+00-0.592D+00 0.147D+01
 Gap=     0.372 Goal=   None    Shift=    0.000
 RMSDP=6.18D-08 MaxDP=2.91D-06 DE=-5.48D-10 OVMax= 1.18D-06

 Cycle  12  Pass 1  IDiag  3:
 E=-0.876873151211839     Delta-E=        0.000000000011 Rises=F Damp=F
 DIIS: error= 1.21D-07 at cycle  12 NSaved=  12.
 NSaved=12 IEnMin=11 EnMin=-0.876873151222753     IErMin=12 ErrMin= 1.21D-07
 ErrMax= 1.21D-07  0.00D+00 EMaxC= 1.00D-01 BMatC= 8.58D-13 BMatP= 6.73D-12
 IDIUse=1 WtCom= 1.00D+00 WtEn= 0.00D+00
 Coeff-Com:  0.591D-06-0.344D-05 0.118D-04-0.471D-04 0.180D-03-0.503D-03
 Coeff-Com:  0.103D-02 0.288D-04-0.246D-01 0.176D+00-0.768D+00 0.162D+01
 Coeff:      0.591D-06-0.344D-05 0.118D-04-0.471D-04 0.180D-03-0.503D-03
 Coeff:      0.103D-02 0.288D-04-0.246D-01 0.176D+00-0.768D+00 0.162D+01
 Gap=     0.372 Goal=   None    Shift=    0.000
 RMSDP=2.47D-08 MaxDP=1.10D-06 DE= 1.09D-11 OVMax= 4.11D-07

 Cycle  13  Pass 1  IDiag  3:
 E=-0.876873151200925     Delta-E=        0.000000000011 Rises=F Damp=F
 DIIS: error= 4.17D-08 at cycle  13 NSaved=  13.
 NSaved=13 IEnMin=11 EnMin=-0.876873151222753     IErMin=13 ErrMin= 4.17D-08
 ErrMax= 4.17D-08  0.00D+00 EMaxC= 1.00D-01 BMatC= 8.55D-14 BMatP= 8.58D-13
 IDIUse=1 WtCom= 1.00D+00 WtEn= 0.00D+00
 Coeff-Com: -0.631D-07 0.592D-06-0.346D-05 0.183D-04-0.811D-04 0.268D-03
 Coeff-Com: -0.749D-03 0.141D-02 0.198D-02-0.363D-01 0.229D+00-0.783D+00
 Coeff-Com:  0.159D+01
 Coeff:     -0.631D-07 0.592D-06-0.346D-05 0.183D-04-0.811D-04 0.268D-03
 Coeff:     -0.749D-03 0.141D-02 0.198D-02-0.363D-01 0.229D+00-0.783D+00
 Coeff:      0.159D+01
 Gap=     0.372 Goal=   None    Shift=    0.000
 RMSDP=8.27D-09 MaxDP=3.78D-07 DE= 1.09D-11 OVMax= 1.32D-07

 Cycle  14  Pass 2  IDiag  1:
 SCF Done:  E(RPM6) = -0.876873151201     A.U. after   14 cycles
            NFock= 13  Conv=0.83D-08     -V/T= 0.9981
 KE=-4.555234875444D+02 PE=-5.035661159201D+03 EE= 2.662077746822D+03
 Leave Link  502 at Mon Jun 28 19:27:48 2021, MaxMem=  2147483648 cpu:               1.1 elap:               0.1
 (Enter /home/matma/Programs/gaussian/G16_x86_SSE4/tar/g16/l601.exe)
 Copying SCF densities to generalized density rwf, IOpCl= 0 IROHF=0.

 **********************************************************************

            Population analysis using the SCF Density.

 **********************************************************************

 Orbital symmetries:
       Occupied  (A) (A) (A) (A) (A) (A) (A) (A) (A) (A) (A) (A)
                 (A) (A) (A) (A) (A) (A) (A) (A) (A) (A) (A) (A)
                 (A) (A) (A) (A) (A) (A) (A) (A) (A) (A) (A) (A)
                 (A) (A) (A) (A) (A) (A) (A) (A) (A) (A) (A) (A)
                 (A) (A) (A) (A) (A) (A) (A) (A) (A) (A) (A) (A)
                 (A) (A) (A) (A) (A) (A) (A) (A) (A) (A) (A) (A)
                 (A) (A) (A) (A) (A) (A) (A) (A) (A) (A) (A) (A)
                 (A) (A) (A) (A) (A) (A) (A) (A) (A) (A) (A) (A)
                 (A) (A) (A) (A) (A) (A) (A) (A) (A)
       Virtual   (A) (A) (A) (A) (A) (A) (A) (A) (A) (A) (A) (A)
                 (A) (A) (A) (A) (A) (A) (A) (A) (A) (A) (A) (A)
                 (A) (A) (A) (A) (A) (A) (A) (A) (A) (A) (A) (A)
                 (A) (A) (A) (A) (A) (A) (A) (A) (A) (A) (A) (A)
                 (A) (A) (A) (A) (A) (A) (A) (A) (A) (A) (A) (A)
                 (A) (A) (A) (A) (A) (A) (A) (A) (A) (A) (A) (A)
                 (A) (A) (A)
 The electronic state is 1-A.
 Alpha  occ. eigenvalues --   -1.32169  -1.28515  -1.26382  -1.26021  -1.24486
 Alpha  occ. eigenvalues --   -1.23825  -1.22834  -1.22472  -1.21941  -1.21385
 Alpha  occ. eigenvalues --   -1.20609  -1.20578  -1.19197  -1.19110  -1.18493
 Alpha  occ. eigenvalues --   -1.16868  -1.13419  -1.12415  -1.11735  -1.10408
 Alpha  occ. eigenvalues --   -1.08807  -1.08077  -1.06792  -1.02627  -1.00835
 Alpha  occ. eigenvalues --   -1.00505  -0.98195  -0.95839  -0.94976  -0.92897
 Alpha  occ. eigenvalues --   -0.92361  -0.90573  -0.89637  -0.87236  -0.86794
 Alpha  occ. eigenvalues --   -0.85659  -0.84177  -0.82314  -0.81416  -0.79905
 Alpha  occ. eigenvalues --   -0.79529  -0.78810  -0.78265  -0.77898  -0.77070
 Alpha  occ. eigenvalues --   -0.76314  -0.75719  -0.75253  -0.74958  -0.73935
 Alpha  occ. eigenvalues --   -0.73692  -0.73232  -0.72958  -0.71943  -0.71329
 Alpha  occ. eigenvalues --   -0.70624  -0.70394  -0.69781  -0.68117  -0.67736
 Alpha  occ. eigenvalues --   -0.67402  -0.66765  -0.66211  -0.66032  -0.65437
 Alpha  occ. eigenvalues --   -0.64584  -0.64464  -0.63870  -0.63041  -0.62934
 Alpha  occ. eigenvalues --   -0.62263  -0.62127  -0.61846  -0.61532  -0.60965
 Alpha  occ. eigenvalues --   -0.60640  -0.60350  -0.60205  -0.59339  -0.58658
 Alpha  occ. eigenvalues --   -0.58607  -0.57800  -0.57616  -0.57394  -0.57064
 Alpha  occ. eigenvalues --   -0.56348  -0.56214  -0.56033  -0.55767  -0.54783
 Alpha  occ. eigenvalues --   -0.54179  -0.53312  -0.53264  -0.53021  -0.52745
 Alpha  occ. eigenvalues --   -0.51833  -0.51494  -0.51317  -0.50583  -0.50277
 Alpha  occ. eigenvalues --   -0.49819  -0.49668  -0.48416  -0.48219  -0.46979
 Alpha virt. eigenvalues --   -0.10369  -0.08044  -0.08031  -0.07892  -0.07067
 Alpha virt. eigenvalues --   -0.06291  -0.05966  -0.05123  -0.04857  -0.04113
 Alpha virt. eigenvalues --   -0.03324  -0.03101  -0.02958  -0.02484  -0.02380
 Alpha virt. eigenvalues --   -0.02194  -0.02039  -0.01617  -0.01510  -0.01388
 Alpha virt. eigenvalues --   -0.01241  -0.00705  -0.00479  -0.00070   0.00208
 Alpha virt. eigenvalues --    0.00501   0.00790   0.01074   0.01150   0.01811
 Alpha virt. eigenvalues --    0.01981   0.02009   0.02167   0.02962   0.03112
 Alpha virt. eigenvalues --    0.03318   0.03657   0.04431   0.04855   0.05773
 Alpha virt. eigenvalues --    0.05951   0.06085   0.06392   0.06416   0.06522
 Alpha virt. eigenvalues --    0.06660   0.06761   0.06865   0.06928   0.07305
 Alpha virt. eigenvalues --    0.07456   0.07647   0.07831   0.07987   0.08123
 Alpha virt. eigenvalues --    0.08390   0.08565   0.08629   0.08664   0.08789
 Alpha virt. eigenvalues --    0.08966   0.09014   0.09323   0.09509   0.09580
 Alpha virt. eigenvalues --    0.09847   0.10064   0.10472   0.10891   0.11424
 Alpha virt. eigenvalues --    0.12240   0.12388   0.12457   0.13594   0.15914
          Condensed to atoms (all electrons):
 Mulliken charges:
               1
     1  C    0.347479
     2  H    0.159091
     3  O   -0.580423
     4  H    0.345219
     5  C    0.062633
     6  H    0.156714
     7  O   -0.487792
     8  C   -0.069849
     9  H    0.197456
    10  N   -0.492984
    11  H    0.303277
    12  C    0.695999
    13  O   -0.653335
    14  C   -0.617540
    15  H    0.236689
    16  H    0.218481
    17  H    0.198530
    18  C    0.061295
    19  H    0.191070
    20  O   -0.479519
    21  H    0.424629
    22  C    0.041264
    23  H    0.175777
    24  O   -0.491319
    25  C   -0.028355
    26  H    0.163418
    27  H    0.157394
    28  O   -0.546744
    29  H    0.326487
    30  C    0.312067
    31  H    0.182293
    32  C    0.093112
    33  H    0.170357
    34  O   -0.508124
    35  C    0.043072
    36  H    0.178980
    37  O   -0.532065
    38  H    0.335575
    39  C    0.058726
    40  H    0.173516
    41  O   -0.540254
    42  H    0.338476
    43  C    0.035193
    44  H    0.192680
    45  O   -0.481906
    46  H    0.366269
    47  C   -0.050412
    48  H    0.160590
    49  H    0.167310
    50  O   -0.450781
    51  C    0.345203
    52  H    0.127770
    53  C    0.145725
    54  H    0.127805
    55  O   -0.460325
    56  C   -0.046069
    57  H    0.192531
    58  O   -0.541108
    59  H    0.379020
    60  C    0.058974
    61  H    0.161478
    62  O   -0.554933
    63  H    0.347687
    64  C    0.020042
    65  H    0.179920
    66  O   -0.529343
    67  H    0.334247
    68  C   -0.510941
    69  H    0.195228
    70  H    0.178724
    71  H    0.185532
    72  H    0.403113
 Sum of Mulliken charges =   1.00000
 Mulliken charges with hydrogens summed into heavy atoms:
               1
     1  C    0.506571
     3  O   -0.235204
     5  C    0.219347
     7  O   -0.487792
     8  C    0.127607
    10  N   -0.189707
    12  C    0.695999
    13  O   -0.653335
    14  C    0.036161
    18  C    0.252365
    20  O    0.348223
    22  C    0.217041
    24  O   -0.491319
    25  C    0.292457
    28  O   -0.220257
    30  C    0.494360
    32  C    0.263469
    34  O   -0.508124
    35  C    0.222052
    37  O   -0.196489
    39  C    0.232243
    41  O   -0.201779
    43  C    0.227873
    45  O   -0.115638
    47  C    0.277488
    50  O   -0.450781
    51  C    0.472973
    53  C    0.273531
    55  O   -0.460325
    56  C    0.146462
    58  O   -0.162088
    60  C    0.220452
    62  O   -0.207246
    64  C    0.199962
    66  O   -0.195095
    68  C    0.048543
 Charge=              1.0000 electrons
 Dipole moment (field-independent basis, Debye):
    X=              2.6510    Y=              0.6265    Z=              1.5156  Tot=              3.1173
 N-N= 2.828230026772D+03 E-N=-5.035661159622D+03  KE=-4.555234875444D+02
 Leave Link  601 at Mon Jun 28 19:27:48 2021, MaxMem=  2147483648 cpu:               0.2 elap:               0.0
 (Enter /home/matma/Programs/gaussian/G16_x86_SSE4/tar/g16/l701.exe)
 ... and contract with generalized density number  0.
 Compute integral first derivatives.
 Leave Link  701 at Mon Jun 28 19:27:48 2021, MaxMem=  2147483648 cpu:               1.0 elap:               0.1
 (Enter /home/matma/Programs/gaussian/G16_x86_SSE4/tar/g16/l702.exe)
 L702 exits ... SP integral derivatives will be done elsewhere.
 Leave Link  702 at Mon Jun 28 19:27:49 2021, MaxMem=  2147483648 cpu:               0.1 elap:               0.0
 (Enter /home/matma/Programs/gaussian/G16_x86_SSE4/tar/g16/l703.exe)
 Integral derivatives from FoFJK, PRISM(SPDF).
 Compute integral first derivatives, UseDBF=F ICtDFT=           0.
 Calling FoFJK, ICntrl=      2127 FMM=F ISym2X=0 I1Cent= 0 IOpClX= 0 NMat=1 NMatS=1 NMatT=0.
 FoFJK:  IHMeth=40 ICntrl=    2127 DoSepK=F KAlg= 0 I1Cent=           0 FoldK=F
 IRaf=         0 NMat=       1 IRICut=       1 DoRegI=T DoRafI=F ISym2E= 0 IDoP0=3 IntGTp=3.
 FoFCou: FMM=F IPFlag=           0 FMFlag=      100000 FMFlg1=        2800
         NFxFlg=           0 DoJE=F BraDBF=F KetDBF=F FulRan=T
         wScrn=  0.000000 ICntrl=      2127 IOpCl=  0 I1Cent=           0 NGrid=           0
         NMat0=    1 NMatS0=      1 NMatT0=    0 NMatD0=    1 NMtDS0=    0 NMtDT0=    0
 Symmetry not used in FoFCou.
 Leave Link  703 at Mon Jun 28 19:27:49 2021, MaxMem=  2147483648 cpu:               0.2 elap:               0.0
 (Enter /home/matma/Programs/gaussian/G16_x86_SSE4/tar/g16/l716.exe)
 Dipole        = 1.04297727D+00 2.46503335D-01 5.96295228D-01
 ***** Axes restored to original set *****
 -------------------------------------------------------------------
 Center     Atomic                   Forces (Hartrees/Bohr)
 Number     Number              X              Y              Z
 -------------------------------------------------------------------
      1        6           0.000124119    0.000210784    0.000114931
      2        1           0.000024506    0.000032609    0.000018622
      3        8          -0.000223517   -0.000034154   -0.000078414
      4        1           0.000166939    0.000054541    0.000002543
      5        6           0.000342154    0.000118253   -0.000313970
      6        1           0.000036463   -0.000025791    0.000156852
      7        8          -0.000057472   -0.000159569    0.000004126
      8        6          -0.000029707   -0.000087506   -0.000078942
      9        1          -0.000043202    0.000071197    0.000156246
[...]
 ,-0.00002915,-0.00001814,0.00001075,-0.00000162,-0.00000629,0.00000085
 ,-0.00000255,0.00000003,0.00000539,0.00002025,0.00000772,-0.00000009,0
 .00000314,0.00000946,0.00000851,-0.00000262,-0.00000011,-0.00000050,-0
 .00000308,-0.00000251,0.00000078,0.00000716,-0.00000329,-0.00001759,-0
 .00000375,-0.00000078,0.00001002,-0.00002017,0.00000424,-0.00001921,-0
 .00000556,0.00000003,0.00000994,0.00000090,-0.00002477,-0.00002164,-0.
 00000015,0.00001349,0.00001154,0.00004538,-0.00000763,-0.00000134,-0.0
 0000420,0.00001577,0.00001335,-0.00000360,-0.00000108,-0.00000329,0.00
 001997,-0.00002105,-0.00001069,-0.00001150,0.00000663,0.00000201,-0.00
 000812,-0.00000236,-0.00000003,0.00000050,0.00000701,0.00000176,0.0000
 1946,-0.00001359,0.00000157,-0.00000955,0.00000597,-0.00000131,0.00000
 735,0.00002533,0.00000084,-0.00001337,0.00000563,0.00000019,0.00002854
 ,-0.00000669,-0.00000857,-0.00001842,0.00000531,-0.00000626,-0.0000468
 3,-0.00003000,0.00009293,0.00002297,0.00001763,0.00002750,-0.00000653,
 -0.00000677,0.00001972,0.00026261,-0.00006159,-0.00022903,0.00002701,-
 0.00039628,0.00039769,0.00003170,-0.00000743,0.00010355,0.00333527,-0.
 00108571,0.00516896,0.00088787,0.00011466,0.00030609,0.00113362,0.0004
 7601,-0.00085882,-0.00008032,-0.00005790,-0.00001730,-0.00002310,0.000
 00215,-0.00001489,0.00013988,0.00012015,-0.00008343,0.00000756,-0.0000
 6521,0.00004528,0.00011846,-0.00002885,-0.00009438,0.00003177,-0.00003
 787,0.00004972,0.00008240,0.00006800,0.00001058,-0.00006193,-0.0000304
 7,0.00000906,-0.00027960,-0.00021815,-0.00009836,-0.00012972,-0.000123
 42,0.00005377,0.00028014,0.00003241,-0.00020676,-0.00011639,0.00005991
 ,0.00000729,-0.05421527,0.03100917,-0.05668102,0.00389744,-0.00330741,
 0.00553377,0.06218435,-0.03893590,0.06113462,-0.00003859,-0.00000074,-
 0.00001683,0.00000078,-0.00000789,0.00000757,0.00003243,0.00001936,0.0
 0001656,-0.00001608,-0.00001035,-0.00000534,-0.00000952,-0.00002045,0.
 00000334,-0.00000227,0.00000086,-0.00000508,0.00002514,0.00001305,-0.0
 0000251,0.00000832,-0.00000190,0.00000808,-0.00000632,-0.00000347,0.00
 000540,0.00006862,0.00003776,0.00001128,-0.00001366,-0.00002486,-0.000
 00454,-0.00009453,-0.00008404,-0.00006403,0.00006389,0.00010950,0.0000
 3422,0.00002766,0.00008230,-0.00000365,-0.00001686,-0.00004347,0.00000
 083,0.00000201,-0.00002437,0.00000747,-0.00000368,-0.00001880,-0.00000
 553,-0.00008118,-0.00003383,0.00001127,0.00000310,0.00000128,-0.000010
 13,0.00013137,0.00003893,0.00005812,-0.00005446,-0.00004463,0.00001680
 ,-0.00000203,-0.00001298,0.00000696,-0.00000632,-0.00000128,0.00000303
 ,0.00004056,0.00002728,0.00001090,0.00000438,0.00001114,0.00000583,-0.
 00000608,0.00000120,-0.00000193,-0.00000661,-0.00000422,0.00000083,0.0
 0002031,-0.00000453,-0.00001478,-0.00001056,0.00000040,0.00000994,-0.0
 0005766,-0.00000265,-0.00005659,-0.00000842,0.00000017,0.00001654,-0.0
 0003494,-0.00004033,-0.00000811,-0.00000458,0.00001963,0.00001035,0.00
 009833,-0.00000345,0.00001285,-0.00000079,0.00002769,0.00002713,-0.000
 00892,-0.00000230,-0.00001048,0.00003677,-0.00003854,-0.00000878,-0.00
 002218,0.00001433,-0.00000131,-0.00001871,-0.00000780,-0.00002562,-0.0
 0000015,0.00001419,0.00000097,0.00003272,-0.00002704,0.00004227,-0.000
 01064,0.00001619,-0.00002118,0.00002373,0.00003276,-0.00000083,-0.0000
 4874,0.00000722,-0.00000209,0.00006854,0.00000612,0.00000253,-0.000041
 83,0.00000897,-0.00003344,-0.00010774,0.00004083,0.00005536,0.00001409
 ,0.00001092,0.00001823,-0.00000364,-0.00000632,0.00000821,0.00018543,-
 0.00011484,-0.00010388,-0.00055983,0.00000996,0.00009549,0.00008146,0.
 00000738,0.00001066,-0.01011759,-0.00823339,0.02678968,-0.00179446,-0.
 00149257,0.00065430,0.00036311,-0.00018784,-0.00027065,-0.00010647,-0.
 00001338,0.00007944,-0.00004800,0.00000035,-0.00000861,0.00022312,0.00
 016138,-0.00008816,-0.00001793,-0.00010312,0.00003658,0.00010991,0.000
 14257,-0.00003539,0.00005508,-0.00003913,0.00005055,0.00015716,0.00015
 895,0.00005386,-0.00010956,-0.00013083,-0.00004292,-0.00117247,-0.0015
 1008,0.00097915,0.00021138,-0.00020604,-0.00002273,0.00023588,0.000608
 53,-0.00024253,-0.00135701,-0.00023555,-0.00057150,-0.03584339,-0.0004
 8086,0.01406890,0.00393484,0.00062287,0.00158609,0.00003785,0.00303178
 ,-0.01745630,0.04571808,-0.00003312,0.00001559,0.00001279,0.00000127,-
 0.00000134,-0.00000025,0.00001762,-0.00000733,-0.00000179,-0.00000726,
 0.00000262,-0.00000190,0.00000199,0.00000988,-0.00000835,-0.00000121,0
 .00000115,-0.00000082,0.00001970,-0.00002787,-0.00000106,-0.00000836,0
 .00002291,0.00001194,-0.00000581,0.00000148,0.00000271,0.00009542,-0.0
 0001965,0.00001133,-0.00000728,-0.00000779,-0.00000102,-0.00016311,0.0
 0000710,-0.00004262,0.00007153,0.00001451,0.00001153,0.00009448,0.0000
 2773,-0.00001333,-0.00004646,-0.00003041,0.00000344,-0.00001861,-0.000
 01169,0.00000157,-0.00001182,-0.00000839,-0.00000178,-0.00001155,-0.00
 001745,0.00000484,-0.00000050,0.00000473,-0.00000224,0.00004679,-0.000
 08152,0.00003799,0.00001959,0.00012990,-0.00003183,0.00000152,0.000027
 36,-0.00001165,-0.00000007,0.00000260,0.00000229,-0.00000460,-0.000053
 30,-0.00000206,0.00000249,0.00000094,0.00001205,-0.00000050,0.00000279
 ,-0.00000263,-0.00000128,0.00000038,-0.00000095,0.00000009,-0.00000928
 ,-0.00000778,-0.00000246,0.00000285,0.00000190,0.00001390,0.00003233,0
 .00002708,0.00000113,-0.00000014,-0.00000237,0.00003636,0.00001192,-0.
 00001779,0.00000376,0.00000910,0.00000217,-0.00003106,-0.00003296,-0.0
 0000612,-0.00000384,0.00001253,-0.00000455,0.00000142,0.00000133,0.000
 00119,-0.00000279,-0.00001838,0.00000106,0.00000094,0.00000303,-0.0000
 0197,0.00000321,-0.00001658,0.00000438,0.00000921,0.00001225,0.0000001
 0,-0.00001010,-0.00002280,0.00000831,0.00001581,0.00001184,-0.00000628
 ,-0.00002915,0.00004337,0.00003121,0.00005512,0.00001641,-0.00001029,-
 0.00003113,-0.00010572,0.00001874,0.00000017,0.00002367,-0.00000588,-0
 .00001386,-0.00005090,0.00002710,0.00000690,0.00001375,0.00000337,-0.0
 0000326,0.00002015,0.00000483,0.00006482,-0.00011131,-0.00004318,0.000
 01049,-0.00003628,0.00017169,-0.00005865,-0.00004030,0.00000215,-0.009
 14951,-0.00045555,0.01540497,-0.00143511,-0.00059615,0.00055512,0.0007
 1246,-0.00043895,-0.00018425,-0.00005476,0.00000119,0.00007667,-0.0000
 1982,0.00002551,-0.00002266,0.00013124,-0.00007695,-0.00005359,-0.0000
 4790,0.00002423,0.00002369,0.00007161,0.00008006,0.00000478,0.00002931
 ,-0.00002665,0.00003068,0.00023770,0.00002881,-0.00000189,-0.00015973,
 -0.00002715,-0.00002961,-0.00163084,-0.00163354,0.00075881,-0.00032062
 ,-0.00036225,0.00003877,0.00081969,-0.00040208,0.00004659,-0.00040842,
 0.00079660,-0.00011261,-0.00020825,-0.03419450,0.01001576,0.00059555,-
 0.00196578,-0.02093269,0.00290297,0.00167110,0.01248638,0.00793769,0.0
 3775345,0.00002252,0.00001050,0.00002798,-0.00000043,0.00000209,-0.000
 00285,-0.00002134,-0.00001200,-0.00002651,0.00000980,0.00000574,0.0000
 0569,0.00000603,0.00000768,-0.00000458,0.00000120,-0.00000051,0.000006
 62,-0.00001152,-0.00001018,-0.00000766,-0.00000655,-0.00000316,-0.0000
 0940,0.00000628,0.00000258,0.00000566,-0.00005241,-0.00001202,-0.00004
 053,0.00000313,0.00001096,0.00001693,0.00007019,0.00006617,0.00012528,
 -0.00005703,-0.00009803,-0.00009272,0.00000293,-0.00003155,-0.00005010
 ,-0.00000369,0.00001013,0.00002090,0.00000013,0.00000859,0.00000827,-0
 .00000145,0.00000609,0.00001434,0.00003596,0.00002116,-0.00001966,-0.0
 0000499,-0.00000164,0.00001820,-0.00009585,0.00002616,-0.00009767,0.00
 000095,-0.00004964,0.00004817,-0.00000021,0.00000365,-0.00000817,0.000
 00640,0.00000265,0.00000562,-0.00002235,-0.00002716,-0.00002793,-0.000
 00080,0.00000095,0.00000488,0.00000348,-0.00000216,0.00000217,0.000003
 25,0.00000117,0.00000026,-0.00001489,0.00000123,-0.00000802,0.00000770
 ,-0.00000182,0.00000221,0.00006651,0.00000700,0.00007305,-0.00000169,0
 .00000119,-0.00001037,0.00001258,0.00002831,0.00003933,0.00000142,-0.0
 0001016,-0.00001060,-0.00008429,0.00000997,-0.00005546,-0.00000888,-0.
 00001354,-0.00001180,0.00000525,0.00000177,0.00000809,-0.00001032,0.00
 002001,-0.00001196,0.00000756,-0.00000808,0.00000571,0.00000612,0.0000
 1562,0.00005657,-0.00000576,-0.00001011,0.00000373,0.00002336,0.000010
 73,-0.00009578,-0.00003556,-0.00001095,0.00003795,0.00000324,0.0000209
 1,0.00001465,-0.00001854,-0.00000937,0.00003301,0.00000461,0.00001720,
 -0.00011512,0.00000203,-0.00000997,0.00006658,0.00010523,-0.00000170,-
 0.00012400,-0.00000112,-0.00000696,-0.00000408,0.00002152,0.00000589,-
 0.00000255,-0.00035929,0.00010319,0.00007063,0.00083893,0.00025847,-0.
 00011805,-0.00004168,-0.00001630,-0.00005023,0.01435525,0.00791624,-0.
 01408247,0.00042145,0.00024522,-0.00039737,-0.00095628,-0.00027035,-0.
 00011615,0.00002190,0.00003670,-0.00009648,0.00001354,-0.00004180,0.00
 007741,-0.00022965,-0.00015783,-0.00003305,0.00002919,0.00009206,0.000
 01195,0.00018088,0.00017519,-0.00016438,0.00005400,0.00003659,0.000007
 02,-0.00012640,-0.00015758,-0.00044464,-0.00017107,-0.00015264,0.00022
 348,-0.00013716,-0.00054678,0.00170789,-0.00006068,0.00011702,0.000067
 42,0.00125303,0.00133247,-0.00093855,-0.00078191,-0.00005888,0.0003715
 5,0.01686500,0.01289327,-0.21540511,0.00080648,-0.00824344,-0.01500762
 ,-0.00657357,0.00467656,-0.01463400,-0.02557044,-0.01823527,0.25897349
 ,-0.00120505,0.00019915,-0.00101624,0.00026198,-0.00032047,0.00034329,
 0.00072905,0.00099060,0.00055929,-0.00036751,-0.00040264,-0.00010008,-
 0.00039787,-0.00147642,0.00011255,0.00000392,0.00007312,-0.00019151,0.
 00054463,0.00090373,-0.00018062,0.00015062,-0.00474520,-0.00200047,0.0
 0010857,-0.00043403,0.00120077,-0.00737630,0.00343799,-0.00303015,-0.0
 0042452,-0.00035642,0.00009883,0.01171371,0.00158188,0.01084213,-0.007
 12516,-0.00736825,-0.00691490,-0.00191611,-0.00050936,-0.00112359,0.00
 052867,0.00054906,0.00022247,0.00017834,0.00023502,0.00016224,0.000217
 44,-0.00001474,0.00007154,-0.02983514,-0.00300621,-0.01404911,-0.00101
 083,-0.00040019,-0.00155019,-0.00779797,-0.01440348,-0.00260454,0.0066
 4066,0.02242095,-0.00230184,-0.00150196,0.00136114,-0.00140907,-0.0002
 8911,0.00014906,0.00086936,0.00118771,-0.00332772,-0.00052745,0.000283
 24,0.00068442,0.00067403,-0.00014955,0.00008602,-0.00011131,-0.0001609
 1,-0.00017976,-0.00002453,0.00036180,-0.00039084,-0.00095346,-0.000200
 74,-0.00001815,0.00050804,0.00133089,0.00283182,0.00248294,-0.00038236
 ,-0.00002951,-0.00000654,0.00199765,0.00104120,0.00032627,-0.00011582,
 0.00004350,-0.00008748,-0.00235309,-0.00219191,-0.00233102,-0.00030632
 ,0.00079119,-0.00002229,-0.00009644,0.00004790,-0.00006759,0.00036338,
 -0.00093536,-0.00025907,-0.00029584,0.00016247,0.00000551,0.00002105,-
 0.00037986,0.00000220,0.00007802,0.00024649,0.00006096,-0.00007784,-0.
 00077732,0.00040348,0.00015607,0.00019037,-0.00034669,-0.00170243,0.00
 207772,0.00196008,0.00084713,-0.00039668,-0.00003533,-0.00435842,-0.00
 802468,0.00213994,0.00025823,0.00157981,-0.00097552,0.00187523,0.00002
 980,-0.00081711,-0.00011272,-0.00003609,-0.00012946,0.00046139,-0.0011
 3740,0.00006448,-0.00327214,0.00355190,0.00010835,-0.00021677,-0.00653
 310,-0.00040464,-0.00006175,0.00056597,-0.00021094,-0.00091518,0.00059
 408,-0.00030069,-0.00018669,-0.00000479,-0.00009814,0.00299145,0.00167
 000,-0.00040508,-0.02115417,-0.00703115,0.01128279,0.00058001,-0.00183
 801,0.00310492,0.00780801,-0.00328260,-0.01126807,0.00100810,0.0146073
 0,-0.00254303,0.00075202,0.00229667,0.00220118,-0.00013880,0.00023557,
 -0.00034026,-0.00010271,-0.00118912,-0.00360858,-0.00006525,-0.0002942
 9,0.00143227,-0.00017066,-0.00185606,0.00116994,-0.00008125,0.00048799
 ,-0.00001681,0.00006290,0.00112350,-0.00152131,0.00004877,-0.00057052,
 0.00045763,0.00087726,0.00025162,-0.00005933,-0.00015483,-0.00023029,-
 0.00003293,-0.00020679,0.00002043,-0.00007405,-0.00015146,-0.00009096,
 0.00018857,0.05201175,-0.00096311,0.00035821,0.00047981,0.00005698,-0.
 00001525,-0.00003518,0.00045474,-0.00032504,0.00002930,-0.00010079,0.0
 0010381,0.00002100,0.00013468,0.00080015,-0.00037364,-0.00003378,-0.00
 002488,0.00003510,0.00052507,-0.00099964,0.00003951,-0.00226041,0.0006
 0242,-0.00006932,-0.00086782,-0.00013778,0.00035547,0.00334031,-0.0000
 5668,0.00068964,-0.00019403,-0.00035611,-0.00036805,-0.00318909,-0.006
 73041,-0.00618563,0.00005020,0.00586886,0.00164061,-0.00059262,0.00082
 594,0.00083957,0.00033965,0.00000504,-0.00014227,0.00018580,-0.0002304
 8,0.00012106,-0.00006435,-0.00013929,-0.00014516,0.00163393,0.00374602
 ,-0.00961469,-0.00258906,-0.00046314,-0.00000408,0.00582558,-0.0324979
 7,0.03087582,0.00584279,-0.00285997,0.01318224,0.00059392,0.00023862,0
 .00016320,0.00030547,0.00010451,-0.00019131,-0.00053085,-0.00034923,-0
 .00025892,-0.00002982,-0.00020979,0.00002731,0.00004384,0.00000262,-0.
 00001231,0.00001966,0.00005966,-0.00000846,-0.00015119,-0.00003526,0.0
 0009441,0.00004633,0.00005117,-0.00008240,0.00084270,-0.00017714,0.000
 51636,0.00007547,-0.00000694,-0.00015625,-0.00033733,-0.00018826,0.000
 07319,0.00003875,-0.00010809,-0.00003416,-0.00072072,0.00105500,0.0001
 6833,-0.00004639,-0.00024400,-0.00016171,0.00006574,0.00003000,0.00004
 669,-0.00017938,0.00027478,0.00005900,0.00012730,-0.00007046,0.0000019
 7,0.00002855,0.00015112,0.00017059,-0.00002944,-0.00008059,-0.00001176
 ,-0.00002366,0.00018067,-0.00032146,-0.00005507,-0.00006440,0.00013722
 ,-0.00022607,-0.00047583,0.00005587,-0.00014606,-0.00013058,-0.0000236
 8,-0.00014305,-0.00094868,-0.00038144,-0.00008919,-0.00020722,0.000572
 40,-0.00023229,0.00020740,0.00025840,0.00001948,-0.00003491,-0.0001597
 9,-0.00027041,-0.00034580,-0.00047100,0.00097963,-0.00030659,0.0000954
 0,-0.00123678,0.00055481,0.00004352,0.00000209,-0.00000361,-0.00005147
 ,-0.00019156,0.00026527,0.00007579,0.00001030,-0.00000272,-0.00001305,
 0.00027625,-0.00034759,-0.00010489,-0.00158929,-0.00066029,-0.00171048
 ,-0.00110338,0.00036875,0.00033683,-0.01808966,-0.01130474,-0.00866805
 ,0.00737367,0.00173223,0.00560220,0.00035135,0.00044246,0.00045618,0.0
 0022650,0.00001993,-0.00008082,-0.00070533,-0.00036656,0.00003171,0.00
 008407,0.00011437,-0.00016935,0.00008205,-0.00009943,-0.00017254,-0.00
 000412,0.00001736,-0.00000242,-0.00002023,-0.00024134,0.00010856,-0.00
 008036,0.00013230,0.00000016,0.00006469,-0.00011831,-0.00001665,-0.000
 02057,0.00001930,0.00000037,0.00000046,0.00001932,-0.00000313,-0.00000
 593,0.00002368,0.00000234,0.00706498,0.04358929,-0.00063297,0.00030336
 ,-0.00019117,0.00021520,-0.00026766,0.00030518,0.00045316,0.00099414,0
 .00012150,-0.00026493,-0.00035258,-0.00015500,-0.00011527,-0.00192426,
 -0.00022911,-0.00012175,0.00006752,-0.00012324,0.00019568,0.00074252,-
 0.00045137,-0.00021243,-0.00377088,-0.00116618,0.00093129,0.00042498,0
 .00135363,-0.00569771,0.00367570,-0.00361440,-0.00044752,-0.00060656,0
 .00036227,0.00891554,0.00102182,0.01176863,-0.00422375,-0.00845521,-0.
 00829085,-0.00104772,-0.00004038,-0.00164132,0.00033445,0.00006640,0.0
 0024416,0.00004133,0.00015431,0.00017314,0.00017409,-0.00010446,0.0001
 2860,-0.01767150,-0.01322780,0.00713865,0.00312409,0.00160592,-0.00127
 371,-0.03120890,0.02192293,-0.09672930,0.00714309,0.02256342,-0.000817
 53,0.00145277,0.00195511,-0.00027609,0.00040834,0.00008288,0.00120977,
 0.00114928,-0.00257488,-0.00112222,0.00039563,0.00081248,0.00074855,-0
 .00009922,0.00005362,-0.00009721,-0.00009268,-0.00020132,-0.00002456,0
 .00000420,-0.00026836,-0.00105811,0.00001344,-0.00011305,0.00049948,0.
 00160096,0.00242622,0.00252733,-0.00036076,-0.00008878,-0.00002197,0.0
 0114734,0.00053467,0.00053531,-0.00002538,0.00009298,-0.00010739,-0.00
 181039,-0.00100206,-0.00259395,-0.00037913,0.00062368,-0.00000161,-0.0
 0007245,0.00007022,-0.00005931,0.00038080,-0.00073198,-0.00028685,-0.0
 0026295,0.00012156,0.00001729,-0.00009159,-0.00040499,0.00004060,0.000
 10002,0.00023284,0.00008452,0.00011894,-0.00088668,0.00032028,0.000105
 20,0.00018721,-0.00032465,-0.00168211,0.00261980,0.00235501,0.00075400
 ,-0.00047806,-0.00014740,-0.00428078,-0.00991778,0.00289750,-0.0002472
 5,0.00134916,-0.00106128,0.00121569,0.00043675,-0.00051775,-0.00011199
 ,-0.00004774,-0.00013931,-0.00003644,-0.00149003,0.00011336,-0.0021827
 4,0.00231033,-0.00020243,0.00090090,-0.00403490,-0.00165604,-0.0001966
 8,0.00015687,-0.00024984,-0.00078090,0.00064889,-0.00017527,-0.0001484
 7,-0.00002136,-0.00005652,0.00250181,0.00142694,-0.00024982,-0.0042877
 4,-0.00365438,0.01594504,0.00184178,-0.00045076,0.00248893,0.02072549,
 0.00124197,-0.01582590,0.00032023,0.01049496,0.00040207,0.00196674,0.0
 0237665,0.00131767,-0.00009238,0.00021892,-0.00013500,-0.00125367,-0.0
 0039792,-0.00281913,0.00036609,-0.00037980,0.00091253,-0.00006137,-0.0
 0160930,0.00090171,-0.00001505,0.00036317,-0.00000783,-0.00024006,0.00
 080368,-0.00126112,0.00016340,-0.00038166,0.00040463,0.00066535,0.0001
 0518,-0.00011802,-0.00012268,-0.00016734,-0.00000674,-0.00014120,0.000
 02304,-0.00004526,-0.00010095,-0.00005692,0.00016331,0.02099613,-0.027
 20251,0.08985247\\0.00000010,-0.00000820,0.00001293,0.00000128,-0.0000
 1019,0.00000343,-0.00001468,-0.00000401,-0.00002031,0.00001121,0.00000
 295,0.00000618,0.00000546,0.00002916,-0.00004933,-0.00000755,0.0000037
 9,0.00001250,-0.00002578,-0.00002473,0.00002361,0.00003910,0.00000546,
 -0.00001204,0.00001349,-0.00000874,-0.00002308,-0.00000441,0.00000102,
 -0.00000425,0.00001242,0.00002813,0.00003974,0.00000057,0.00002628,0.0
 0002450,-0.00002741,-0.00000875,-0.00000240,0.00001717,-0.00000589,0.0
 0000624,0.00001715,0.00002458,0.00001208,0.00000041,0.00001004,-0.0000
 0846,-0.00000970,-0.00000828,-0.00000932,0.00000620,0.00004577,0.00002
 572,0.00000863,0.00001518,0.00001286,-0.00010618,0.00008074,-0.0001269
 4,-0.00000941,-0.00005824,0.00001596,0.00003087,-0.00002626,0.00003639
 ,0.00001025,-0.00000213,-0.00001410,0.00000025,0.00001196,-0.00005471,
 -0.00000686,-0.00000946,0.00003537,0.00000073,0.00000511,-0.00001728,0
 .00000681,0.00000103,-0.00001325,0.00000278,-0.00000813,-0.00000071,0.
 00000259,0.00000488,-0.00000418,-0.00007381,-0.00001247,0.00004249,0.0
 0003147,0.00001242,-0.00004034,0.00002354,0.00000398,-0.00001547,-0.00
 000937,-0.00000740,0.00000495,0.00008483,0.00001010,-0.00000289,0.0000
 1941,0.00002105,0.00000559,0.00000163,-0.00000246,-0.00000188,0.000022
 24,-0.00001899,-0.00000815,-0.00001964,0.00000182,0.00000225,-0.000003
 20,-0.00003901,0.00002375,0.00000519,0.00003725,-0.00000322,-0.0000102
 9,-0.00000074,0.00001205,0.00001064,0.00000475,-0.00001175,-0.00007718
 ,-0.00004320,0.00004169,0.00003071,0.00001875,-0.00000513,0.00002333,-
 0.00002493,-0.00000481,-0.00000176,-0.00001950,-0.00001239,-0.00000479
 ,-0.00000026,0.00002816,0.00000223,-0.00000895,-0.00001625,0.00000671,
 0.00000079,-0.00001739,0.00001559,-0.00004504,-0.00000253,-0.00007092,
 0.00001524,-0.00001631,-0.00000729,0.00000373,0.00003432,0.00000478,-0
 .00000554,-0.00000954,0.00001136,-0.00000549,0.00001583,-0.00001924,0.
 00001721,-0.00001272,0.00002611,0.00006920,-0.00005314,-0.00003809,0.0
 0000588,0.00003034,0.00006106,0.00008856,0.00012639,-0.00003032,-0.000
 02213,-0.00006609,0.00000699,0.00001396,0.00001414,-0.00000019,-0.0000
 2373,-0.00001325,-0.00001733,-0.00006265,-0.00004436,0.00000287,0.0000
 0373,0.00002228,-0.00001720,-0.00001563,0.00003063,0.00002482,-0.00002
 239,-0.00000465,0.00000079,0.00000154,-0.00002008,-0.00000407,0.000023
 42,-0.00001644,0.00004576,0.00001400,0.00004191,-0.00000187,-0.0000205
 1,-0.00000750,-0.00002223,0.00001454,-0.00001453,-0.00000096,0.0000001
 7,-0.00001302,-0.00000779,-0.00009413,0.00004989\\\@


 THOSE WHO TRY TO PASS CHEMISTRY OFF AS A NEW SCIENCE
 SHOW HOW LITTLE KNOWLEDGE THEY HAVE OF THE CHARACTER
 AND LITERATURE OF THE ANCIENTS.
   -- NICOLAS LEFEVRE
 "COURS DE CHYMIE" J.-N.LELOUP, PARIS, 1751
 Job cpu time:       0 days  0 hours  0 minutes 28.0 seconds.
 Elapsed time:       0 days  0 hours  0 minutes  2.4 seconds.
 File lengths (MBytes):  RWF=    873 Int=      0 D2E=      0 Chk=      8 Scr=      1
 Normal termination of Gaussian 16 at Mon Jun 28 19:27:58 2021.
