 Entering Gaussian System, Link 0=g09
 Initial command:
 /share/apps//g09/l1.exe "/scratch/Gau-22787.inp" -scrdir="/scratch/"
 Entering Link 1 = /share/apps//g09/l1.exe PID=     22788.
  
 Copyright (c) 1988,1990,1992,1993,1995,1998,2003,2009,2013,
            Gaussian, Inc.  All Rights Reserved.
  
 This is part of the Gaussian(R) 09 program.  It is based on
 the Gaussian(R) 03 system (copyright 2003, Gaussian, Inc.),
 the Gaussian(R) 98 system (copyright 1998, Gaussian, Inc.),
 the Gaussian(R) 94 system (copyright 1995, Gaussian, Inc.),
 the Gaussian 92(TM) system (copyright 1992, Gaussian, Inc.),
 the Gaussian 90(TM) system (copyright 1990, Gaussian, Inc.),
 the Gaussian 88(TM) system (copyright 1988, Gaussian, Inc.),
 the Gaussian 86(TM) system (copyright 1986, Carnegie Mellon
 University), and the Gaussian 82(TM) system (copyright 1983,
 Carnegie Mellon University). Gaussian is a federally registered
 trademark of Gaussian, Inc.
  
 This software contains proprietary and confidential information,
 including trade secrets, belonging to Gaussian, Inc.
  
 This software is provided under written license and may be
 used, copied, transmitted, or stored only in accord with that
 written license.
  
 The following legend is applicable only to US Government
 contracts under FAR:
  
                    RESTRICTED RIGHTS LEGEND
  
 Use, reproduction and disclosure by the US Government is
 subject to restrictions as set forth in subparagraphs (a)
 and (c) of the Commercial Computer Software - Restricted
 Rights clause in FAR 52.227-19.
  
 Gaussian, Inc.
 340 Quinnipiac St., Bldg. 40, Wallingford CT 06492
  
  
 ---------------------------------------------------------------
 Warning -- This program may not be used in any manner that
 competes with the business of Gaussian, Inc. or will provide
 assistance to any competitor of Gaussian, Inc.  The licensee
 of this program is prohibited from giving any competitor of
 Gaussian, Inc. access to this program.  By using this program,
 the user acknowledges that Gaussian, Inc. is engaged in the
 business of creating and licensing software in the field of
 computational chemistry and represents and warrants to the
 licensee that it is not a competitor of Gaussian, Inc. and that
 it will not use this program in any manner prohibited above.
 ---------------------------------------------------------------
  

 Cite this work as:
 Gaussian 09, Revision D.01,
 M. J. Frisch, G. W. Trucks, H. B. Schlegel, G. E. Scuseria, 
 M. A. Robb, J. R. Cheeseman, G. Scalmani, V. Barone, B. Mennucci, 
 G. A. Petersson, H. Nakatsuji, M. Caricato, X. Li, H. P. Hratchian, 
 A. F. Izmaylov, J. Bloino, G. Zheng, J. L. Sonnenberg, M. Hada, 
 M. Ehara, K. Toyota, R. Fukuda, J. Hasegawa, M. Ishida, T. Nakajima, 
 Y. Honda, O. Kitao, H. Nakai, T. Vreven, J. A. Montgomery, Jr., 
 J. E. Peralta, F. Ogliaro, M. Bearpark, J. J. Heyd, E. Brothers, 
 K. N. Kudin, V. N. Staroverov, T. Keith, R. Kobayashi, J. Normand, 
 K. Raghavachari, A. Rendell, J. C. Burant, S. S. Iyengar, J. Tomasi, 
 M. Cossi, N. Rega, J. M. Millam, M. Klene, J. E. Knox, J. B. Cross, 
 V. Bakken, C. Adamo, J. Jaramillo, R. Gomperts, R. E. Stratmann, 
 O. Yazyev, A. J. Austin, R. Cammi, C. Pomelli, J. W. Ochterski, 
 R. L. Martin, K. Morokuma, V. G. Zakrzewski, G. A. Voth, 
 P. Salvador, J. J. Dannenberg, S. Dapprich, A. D. Daniels, 
 O. Farkas, J. B. Foresman, J. V. Ortiz, J. Cioslowski, 
 and D. J. Fox, Gaussian, Inc., Wallingford CT, 2013.
 
 ******************************************
 Gaussian 09:  EM64L-G09RevD.01 24-Apr-2013
                26-Apr-2016 
 ******************************************
 %nproc=20
 Will use up to   20 processors via shared memory.
 %mem=80GB
 %chk=Tri_A131_of.chk
 ----------------------------------------------------------------------
 #P PBE1PBE/6-311+G(d,p) opt=ModRedundant freq optcyc=999 EmpiricalDisp
 ersion=GD3
 ----------------------------------------------------------------------
 1/6=999,14=-1,18=120,19=15,26=3,38=1/1,3;
 2/9=110,12=2,17=6,18=5,40=1/2;
 3/5=4,6=6,7=111,11=2,16=1,25=1,30=1,71=1,74=-13,124=31/1,2,3;
 4//1;
 5/5=2,38=5/2;
 6/7=2,8=2,9=2,10=2,28=1/1;
 7//1,2,3,16;
 1/6=999,14=-1,18=20,19=15,26=3/3(2);
 2/9=110/2;
 99//99;
 2/9=110/2;
 3/5=4,6=6,7=111,11=2,16=1,25=1,30=1,71=1,74=-13,124=31/1,2,3;
 4/5=5,16=3,69=1/1;
 5/5=2,38=5/2;
 7//1,2,3,16;
 1/6=999,14=-1,18=20,19=15,26=3/3(-5);
 2/9=110/2;
 6/7=2,8=2,9=2,10=2,19=2,28=1/1;
 99/9=1/99;
 Leave Link    1 at Tue Apr 26 22:57:48 2016, MaxMem= 10737418240 cpu:         2.5
 (Enter /share/apps//g09/l101.exe)
 -----
 trich
 -----
 Symbolic Z-matrix:
 Charge =  1 Multiplicity = 1
 O                     0.04655  -1.43943   8.24036 
 C                    -0.16548  -0.453     7.2643 
 C                     0.86983  -0.49078   6.12566 
 C                     0.96974  -1.90621   5.53256 
 C                     1.20658  -2.9331    6.64237 
 C                     0.12467  -2.78684   7.72531 
 H                    -0.12027   0.50566   7.79946 
 H                     1.84502  -0.2056    6.54496 
 H                     0.04397  -2.14281   4.98751 
 H                     1.10988  -3.95195   6.21312 
 H                    -0.8389   -3.06401   7.25809 
 O                     2.54665  -2.7061    7.07841 
 O                     2.02449  -1.99639   4.55502 
 O                     0.53536   0.48092   5.13148 
 O                    -1.43948  -0.5745    6.59994 
 C                     0.30401  -3.7194    8.91293 
 H                    -0.45803  -3.47112   9.66988 
 H                     0.13726  -4.75487   8.56724 
 O                     1.62739  -3.56658   9.45509 
 H                     1.731    -4.15627   10.2194 
 H                     2.61704  -3.04953   7.99622 
 H                     2.85292  -2.11682   5.06416 
 H                    -0.42644   0.35574   4.99014 
 O                    -3.78258   0.05591   5.03085 
 C                    -4.31513  -1.08875   5.6971 
 C                    -3.69299  -1.26847   7.12232 
 C                    -2.58292  -0.24585   7.40771 
 C                    -3.08088   1.18619   7.13103 
 C                    -3.87314   1.26789   5.78752 
 H                    -5.4075   -0.96454   5.82629 
 H                    -3.27097  -2.28103   7.19667 
 H                    -2.31119  -0.33771   8.47003 
 H                    -3.76582   1.44836   7.95072 
 H                    -4.93805   1.46536   6.02433 
 O                    -1.94049   2.07862   7.15554 
 O                    -4.68685  -1.04513   8.13207 
 O                    -4.19082  -2.18393   4.8284 
 C                    -3.39209   2.36543   4.84264 
 H                    -4.02645   2.36423   3.94615 
 H                    -3.482     3.35281   5.32224 
 O                    -2.04616   2.14495   4.3889 
 H                    -1.49099   2.2519    5.19197 
 H                    -2.14641   2.82753   7.73752 
 H                    -5.24066  -1.84123   8.19992 
 O                    -1.40067  -2.96537   2.53955 
 C                    -1.39311  -4.3979    2.68303 
 C                    -1.49948  -4.73888   4.1672 
 C                    -2.73208  -4.09008   4.79654 
 C                    -2.85831  -2.60024   4.46095 
 C                    -2.65832  -2.39524   2.93981 
 H                    -2.24743  -4.82182   2.11063 
 H                    -0.58797  -4.33719   4.64738 
 H                    -3.63097  -4.59767   4.39606 
 H                    -3.49104  -2.90862   2.41515 
 H                    -2.10912  -2.01197   5.01008 
 O                    -2.69224  -4.2479    6.22183 
 O                    -1.61986  -6.14023   4.40573 
 O                    -0.17593  -4.88818   2.2287 
 C                    -2.66432  -0.95406   2.44851 
 H                    -2.59499  -0.97513   1.34866 
 H                    -3.61052  -0.47983   2.73449 
 O                    -1.55539  -0.19723   2.95981 
 H                    -1.87863   0.60187   3.4513 
 H                    -2.66421  -5.20825   6.38549 
 H                    -0.82919  -6.56978   4.03217 
 C                    -0.00107  -4.85055   0.78863 
 H                    -0.22458  -5.8507    0.38247 
 H                    -0.71542  -4.13408   0.35504 
 C                     1.43752  -4.45436   0.48059 
 H                     1.56373  -4.46567  -0.6151 
 H                     2.10794  -5.23281   0.87656 
 C                     1.86028  -3.09619   1.06117 
 H                     1.71221  -3.13472   2.15165 
 H                     2.94275  -2.96865   0.89497 
 C                     1.11668  -1.89614   0.45851 
 H                     1.28629  -1.86093  -0.62996 
 H                     0.02992  -2.00358   0.60325 
 C                     1.55083  -0.54499   1.01921 
 H                     1.09024   0.27933   0.45854 
 H                     2.64238  -0.42092   0.97178 
 N                     1.13999  -0.37683   2.45289 
 H                     1.41902   0.5329    2.84161 
 H                     1.5679   -1.08127   3.10199 
 H                     0.08835  -0.41686   2.57589 
 
 The following ModRedundant input section has been read:
 B      45      84 B                                                           
 B      58      84 B                                                           
 B      56      84 B                                                           
 B      41      82 B                                                           
 B      62      82 B                                                           
 B      35      82 B                                                           
 B      13      83 B                                                           
 B      19      83 B                                                           
 B      14      83 B                                                           
 
 NAtoms=     84 NQM=       84 NQMF=       0 NMMI=      0 NMMIF=      0
                NMic=       0 NMicF=      0.
                    Isotopes and Nuclear Properties:
 (Nuclear quadrupole moments (NQMom) in fm**2, nuclear magnetic moments (NMagM)
  in nuclear magnetons)

  Atom         1           2           3           4           5           6           7           8           9          10
 IAtWgt=          16          12          12          12          12          12           1           1           1           1
 AtmWgt=  15.9949146  12.0000000  12.0000000  12.0000000  12.0000000  12.0000000   1.0078250   1.0078250   1.0078250   1.0078250
 NucSpn=           0           0           0           0           0           0           1           1           1           1
 AtZEff=   0.0000000   0.0000000   0.0000000   0.0000000   0.0000000   0.0000000   0.0000000   0.0000000   0.0000000   0.0000000
 NQMom=    0.0000000   0.0000000   0.0000000   0.0000000   0.0000000   0.0000000   0.0000000   0.0000000   0.0000000   0.0000000
 NMagM=    0.0000000   0.0000000   0.0000000   0.0000000   0.0000000   0.0000000   2.7928460   2.7928460   2.7928460   2.7928460
 AtZNuc=   8.0000000   6.0000000   6.0000000   6.0000000   6.0000000   6.0000000   1.0000000   1.0000000   1.0000000   1.0000000

  Atom        11          12          13          14          15          16          17          18          19          20
 IAtWgt=           1          16          16          16          16          12           1           1          16           1
 AtmWgt=   1.0078250  15.9949146  15.9949146  15.9949146  15.9949146  12.0000000   1.0078250   1.0078250  15.9949146   1.0078250
 NucSpn=           1           0           0           0           0           0           1           1           0           1
 AtZEff=   0.0000000   0.0000000   0.0000000   0.0000000   0.0000000   0.0000000   0.0000000   0.0000000   0.0000000   0.0000000
 NQMom=    0.0000000   0.0000000   0.0000000   0.0000000   0.0000000   0.0000000   0.0000000   0.0000000   0.0000000   0.0000000
 NMagM=    2.7928460   0.0000000   0.0000000   0.0000000   0.0000000   0.0000000   2.7928460   2.7928460   0.0000000   2.7928460
 AtZNuc=   1.0000000   8.0000000   8.0000000   8.0000000   8.0000000   6.0000000   1.0000000   1.0000000   8.0000000   1.0000000

  Atom        21          22          23          24          25          26          27          28          29          30
 IAtWgt=           1           1           1          16          12          12          12          12          12           1
 AtmWgt=   1.0078250   1.0078250   1.0078250  15.9949146  12.0000000  12.0000000  12.0000000  12.0000000  12.0000000   1.0078250
 NucSpn=           1           1           1           0           0           0           0           0           0           1
 AtZEff=   0.0000000   0.0000000   0.0000000   0.0000000   0.0000000   0.0000000   0.0000000   0.0000000   0.0000000   0.0000000
 NQMom=    0.0000000   0.0000000   0.0000000   0.0000000   0.0000000   0.0000000   0.0000000   0.0000000   0.0000000   0.0000000
 NMagM=    2.7928460   2.7928460   2.7928460   0.0000000   0.0000000   0.0000000   0.0000000   0.0000000   0.0000000   2.7928460
 AtZNuc=   1.0000000   1.0000000   1.0000000   8.0000000   6.0000000   6.0000000   6.0000000   6.0000000   6.0000000   1.0000000

  Atom        31          32          33          34          35          36          37          38          39          40
 IAtWgt=           1           1           1           1          16          16          16          12           1           1
 AtmWgt=   1.0078250   1.0078250   1.0078250   1.0078250  15.9949146  15.9949146  15.9949146  12.0000000   1.0078250   1.0078250
 NucSpn=           1           1           1           1           0           0           0           0           1           1
 AtZEff=   0.0000000   0.0000000   0.0000000   0.0000000   0.0000000   0.0000000   0.0000000   0.0000000   0.0000000   0.0000000
 NQMom=    0.0000000   0.0000000   0.0000000   0.0000000   0.0000000   0.0000000   0.0000000   0.0000000   0.0000000   0.0000000
 NMagM=    2.7928460   2.7928460   2.7928460   2.7928460   0.0000000   0.0000000   0.0000000   0.0000000   2.7928460   2.7928460
 AtZNuc=   1.0000000   1.0000000   1.0000000   1.0000000   8.0000000   8.0000000   8.0000000   6.0000000   1.0000000   1.0000000

  Atom        41          42          43          44          45          46          47          48          49          50
 IAtWgt=          16           1           1           1          16          12          12          12          12          12
 AtmWgt=  15.9949146   1.0078250   1.0078250   1.0078250  15.9949146  12.0000000  12.0000000  12.0000000  12.0000000  12.0000000
 NucSpn=           0           1           1           1           0           0           0           0           0           0
 AtZEff=   0.0000000   0.0000000   0.0000000   0.0000000   0.0000000   0.0000000   0.0000000   0.0000000   0.0000000   0.0000000
 NQMom=    0.0000000   0.0000000   0.0000000   0.0000000   0.0000000   0.0000000   0.0000000   0.0000000   0.0000000   0.0000000
 NMagM=    0.0000000   2.7928460   2.7928460   2.7928460   0.0000000   0.0000000   0.0000000   0.0000000   0.0000000   0.0000000
 AtZNuc=   8.0000000   1.0000000   1.0000000   1.0000000   8.0000000   6.0000000   6.0000000   6.0000000   6.0000000   6.0000000

  Atom        51          52          53          54          55          56          57          58          59          60
 IAtWgt=           1           1           1           1           1          16          16          16          12           1
 AtmWgt=   1.0078250   1.0078250   1.0078250   1.0078250   1.0078250  15.9949146  15.9949146  15.9949146  12.0000000   1.0078250
 NucSpn=           1           1           1           1           1           0           0           0           0           1
 AtZEff=   0.0000000   0.0000000   0.0000000   0.0000000   0.0000000   0.0000000   0.0000000   0.0000000   0.0000000   0.0000000
 NQMom=    0.0000000   0.0000000   0.0000000   0.0000000   0.0000000   0.0000000   0.0000000   0.0000000   0.0000000   0.0000000
 NMagM=    2.7928460   2.7928460   2.7928460   2.7928460   2.7928460   0.0000000   0.0000000   0.0000000   0.0000000   2.7928460
 AtZNuc=   1.0000000   1.0000000   1.0000000   1.0000000   1.0000000   8.0000000   8.0000000   8.0000000   6.0000000   1.0000000

  Atom        61          62          63          64          65          66          67          68          69          70
 IAtWgt=           1          16           1           1           1          12           1           1          12           1
 AtmWgt=   1.0078250  15.9949146   1.0078250   1.0078250   1.0078250  12.0000000   1.0078250   1.0078250  12.0000000   1.0078250
 NucSpn=           1           0           1           1           1           0           1           1           0           1
 AtZEff=   0.0000000   0.0000000   0.0000000   0.0000000   0.0000000   0.0000000   0.0000000   0.0000000   0.0000000   0.0000000
 NQMom=    0.0000000   0.0000000   0.0000000   0.0000000   0.0000000   0.0000000   0.0000000   0.0000000   0.0000000   0.0000000
 NMagM=    2.7928460   0.0000000   2.7928460   2.7928460   2.7928460   0.0000000   2.7928460   2.7928460   0.0000000   2.7928460
 AtZNuc=   1.0000000   8.0000000   1.0000000   1.0000000   1.0000000   6.0000000   1.0000000   1.0000000   6.0000000   1.0000000

  Atom        71          72          73          74          75          76          77          78          79          80
 IAtWgt=           1          12           1           1          12           1           1          12           1           1
 AtmWgt=   1.0078250  12.0000000   1.0078250   1.0078250  12.0000000   1.0078250   1.0078250  12.0000000   1.0078250   1.0078250
 NucSpn=           1           0           1           1           0           1           1           0           1           1
 AtZEff=   0.0000000   0.0000000   0.0000000   0.0000000   0.0000000   0.0000000   0.0000000   0.0000000   0.0000000   0.0000000
 NQMom=    0.0000000   0.0000000   0.0000000   0.0000000   0.0000000   0.0000000   0.0000000   0.0000000   0.0000000   0.0000000
 NMagM=    2.7928460   0.0000000   2.7928460   2.7928460   0.0000000   2.7928460   2.7928460   0.0000000   2.7928460   2.7928460
 AtZNuc=   1.0000000   6.0000000   1.0000000   1.0000000   6.0000000   1.0000000   1.0000000   6.0000000   1.0000000   1.0000000

  Atom        81          82          83          84
 IAtWgt=          14           1           1           1
 AtmWgt=  14.0030740   1.0078250   1.0078250   1.0078250
 NucSpn=           2           1           1           1
 AtZEff=   0.0000000   0.0000000   0.0000000   0.0000000
 NQMom=    2.0440000   0.0000000   0.0000000   0.0000000
 NMagM=    0.4037610   2.7928460   2.7928460   2.7928460
 AtZNuc=   7.0000000   1.0000000   1.0000000   1.0000000
 Leave Link  101 at Tue Apr 26 22:57:49 2016, MaxMem= 10737418240 cpu:         5.6
 (Enter /share/apps//g09/l103.exe)

 GradGradGradGradGradGradGradGradGradGradGradGradGradGradGradGradGradGrad
 Berny optimization.
 Initialization pass.
                           ----------------------------
                           !    Initial Parameters    !
                           ! (Angstroms and Degrees)  !
 --------------------------                            --------------------------
 ! Name  Definition              Value          Derivative Info.                !
 --------------------------------------------------------------------------------
 ! R1    R(1,2)                  1.4038         estimate D2E/DX2                !
 ! R2    R(1,6)                  1.4446         estimate D2E/DX2                !
 ! R3    R(2,3)                  1.5394         estimate D2E/DX2                !
 ! R4    R(2,7)                  1.0988         estimate D2E/DX2                !
 ! R5    R(2,15)                 1.4419         estimate D2E/DX2                !
 ! R6    R(3,4)                  1.5379         estimate D2E/DX2                !
 ! R7    R(3,8)                  1.0992         estimate D2E/DX2                !
 ! R8    R(3,14)                 1.4298         estimate D2E/DX2                !
 ! R9    R(4,5)                  1.5304         estimate D2E/DX2                !
 ! R10   R(4,9)                  1.1            estimate D2E/DX2                !
 ! R11   R(4,13)                 1.4409         estimate D2E/DX2                !
 ! R12   R(5,6)                  1.5378         estimate D2E/DX2                !
 ! R13   R(5,10)                 1.1098         estimate D2E/DX2                !
 ! R14   R(5,12)                 1.4274         estimate D2E/DX2                !
 ! R15   R(6,11)                 1.1062         estimate D2E/DX2                !
 ! R16   R(6,16)                 1.5206         estimate D2E/DX2                !
 ! R17   R(12,21)                0.9825         estimate D2E/DX2                !
 ! R18   R(13,22)                0.9798         estimate D2E/DX2                !
 ! R19   R(13,83)                1.7769         estimate D2E/DX2                !
 ! R20   R(14,23)                0.9802         estimate D2E/DX2                !
 ! R21   R(14,83)                2.7614         estimate D2E/DX2                !
 ! R22   R(15,27)                1.438          estimate D2E/DX2                !
 ! R23   R(16,17)                1.1024         estimate D2E/DX2                !
 ! R24   R(16,18)                1.1043         estimate D2E/DX2                !
 ! R25   R(16,19)                1.4383         estimate D2E/DX2                !
 ! R26   R(19,20)                0.9709         estimate D2E/DX2                !
 ! R27   R(19,83)                6.8222         estimate D2E/DX2                !
 ! R28   R(24,25)                1.4275         estimate D2E/DX2                !
 ! R29   R(24,29)                1.4317         estimate D2E/DX2                !
 ! R30   R(25,26)                1.5654         estimate D2E/DX2                !
 ! R31   R(25,30)                1.107          estimate D2E/DX2                !
 ! R32   R(25,37)                1.4034         estimate D2E/DX2                !
 ! R33   R(26,27)                1.5361         estimate D2E/DX2                !
 ! R34   R(26,31)                1.0995         estimate D2E/DX2                !
 ! R35   R(26,36)                1.4343         estimate D2E/DX2                !
 ! R36   R(27,28)                1.5412         estimate D2E/DX2                !
 ! R37   R(27,32)                1.1004         estimate D2E/DX2                !
 ! R38   R(28,29)                1.5618         estimate D2E/DX2                !
 ! R39   R(28,33)                1.0999         estimate D2E/DX2                !
 ! R40   R(28,35)                1.4483         estimate D2E/DX2                !
 ! R41   R(29,34)                1.1087         estimate D2E/DX2                !
 ! R42   R(29,38)                1.526          estimate D2E/DX2                !
 ! R43   R(35,43)                0.9706         estimate D2E/DX2                !
 ! R44   R(35,82)                5.682          estimate D2E/DX2                !
 ! R45   R(36,44)                0.9722         estimate D2E/DX2                !
 ! R46   R(37,49)                1.4436         estimate D2E/DX2                !
 ! R47   R(38,39)                1.0982         estimate D2E/DX2                !
 ! R48   R(38,40)                1.1014         estimate D2E/DX2                !
 ! R49   R(38,41)                1.4374         estimate D2E/DX2                !
 ! R50   R(41,42)                0.9821         estimate D2E/DX2                !
 ! R51   R(41,82)                4.1231         estimate D2E/DX2                !
 ! R52   R(45,46)                1.4397         estimate D2E/DX2                !
 ! R53   R(45,50)                1.4377         estimate D2E/DX2                !
 ! R54   R(45,84)                2.9518         estimate D2E/DX2                !
 ! R55   R(46,47)                1.5265         estimate D2E/DX2                !
 ! R56   R(46,51)                1.1123         estimate D2E/DX2                !
 ! R57   R(46,58)                1.3886         estimate D2E/DX2                !
 ! R58   R(47,48)                1.5285         estimate D2E/DX2                !
 ! R59   R(47,52)                1.1058         estimate D2E/DX2                !
 ! R60   R(47,57)                1.4266         estimate D2E/DX2                !
 ! R61   R(48,49)                1.5324         estimate D2E/DX2                !
 ! R62   R(48,53)                1.1073         estimate D2E/DX2                !
 ! R63   R(48,56)                1.4346         estimate D2E/DX2                !
 ! R64   R(49,50)                1.5479         estimate D2E/DX2                !
 ! R65   R(49,55)                1.0995         estimate D2E/DX2                !
 ! R66   R(50,54)                1.1101         estimate D2E/DX2                !
 ! R67   R(50,59)                1.5226         estimate D2E/DX2                !
 ! R68   R(56,64)                0.9746         estimate D2E/DX2                !
 ! R69   R(56,84)                5.9751         estimate D2E/DX2                !
 ! R70   R(57,65)                0.9743         estimate D2E/DX2                !
 ! R71   R(58,66)                1.4511         estimate D2E/DX2                !
 ! R72   R(58,84)                4.4926         estimate D2E/DX2                !
 ! R73   R(59,60)                1.1022         estimate D2E/DX2                !
 ! R74   R(59,61)                1.0963         estimate D2E/DX2                !
 ! R75   R(59,62)                1.4366         estimate D2E/DX2                !
 ! R76   R(62,63)                0.9923         estimate D2E/DX2                !
 ! R77   R(62,82)                3.065          estimate D2E/DX2                !
 ! R78   R(66,67)                1.1024         estimate D2E/DX2                !
 ! R79   R(66,68)                1.1007         estimate D2E/DX2                !
 ! R80   R(66,69)                1.5236         estimate D2E/DX2                !
 ! R81   R(69,70)                1.103          estimate D2E/DX2                !
 ! R82   R(69,71)                1.101          estimate D2E/DX2                !
 ! R83   R(69,72)                1.5364         estimate D2E/DX2                !
 ! R84   R(72,73)                1.1012         estimate D2E/DX2                !
 ! R85   R(72,74)                1.1026         estimate D2E/DX2                !
 ! R86   R(72,75)                1.535          estimate D2E/DX2                !
 ! R87   R(75,76)                1.1022         estimate D2E/DX2                !
 ! R88   R(75,77)                1.1016         estimate D2E/DX2                !
 ! R89   R(75,78)                1.5259         estimate D2E/DX2                !
 ! R90   R(78,79)                1.0982         estimate D2E/DX2                !
 ! R91   R(78,80)                1.0996         estimate D2E/DX2                !
 ! R92   R(78,81)                1.5008         estimate D2E/DX2                !
 ! R93   R(81,82)                1.0279         estimate D2E/DX2                !
 ! R94   R(81,83)                1.0491         estimate D2E/DX2                !
 ! R95   R(81,84)                1.0596         estimate D2E/DX2                !
 ! A1    A(2,1,6)              114.5617         estimate D2E/DX2                !
 ! A2    A(1,2,3)              113.2943         estimate D2E/DX2                !
 ! A3    A(1,2,7)              105.5571         estimate D2E/DX2                !
 ! A4    A(1,2,15)             113.2401         estimate D2E/DX2                !
 ! A5    A(3,2,7)              110.7302         estimate D2E/DX2                !
 ! A6    A(3,2,15)             104.5572         estimate D2E/DX2                !
 ! A7    A(7,2,15)             109.527          estimate D2E/DX2                !
 ! A8    A(2,3,4)              110.5808         estimate D2E/DX2                !
 ! A9    A(2,3,8)              107.9482         estimate D2E/DX2                !
 ! A10   A(2,3,14)             109.8946         estimate D2E/DX2                !
 ! A11   A(4,3,8)              109.1637         estimate D2E/DX2                !
 ! A12   A(4,3,14)             111.8704         estimate D2E/DX2                !
 ! A13   A(8,3,14)             107.2451         estimate D2E/DX2                !
 ! A14   A(3,4,5)              110.3608         estimate D2E/DX2                !
 ! A15   A(3,4,9)              109.5336         estimate D2E/DX2                !
 ! A16   A(3,4,13)             111.5177         estimate D2E/DX2                !
 ! A17   A(5,4,9)              110.1951         estimate D2E/DX2                !
 ! A18   A(5,4,13)             109.6751         estimate D2E/DX2                !
 ! A19   A(9,4,13)             105.452          estimate D2E/DX2                !
 ! A20   A(4,5,6)              109.754          estimate D2E/DX2                !
 ! A21   A(4,5,10)             108.7854         estimate D2E/DX2                !
 ! A22   A(4,5,12)             105.0759         estimate D2E/DX2                !
 ! A23   A(6,5,10)             107.3615         estimate D2E/DX2                !
 ! A24   A(6,5,12)             115.4846         estimate D2E/DX2                !
 ! A25   A(10,5,12)            110.24           estimate D2E/DX2                !
 ! A26   A(1,6,5)              112.2001         estimate D2E/DX2                !
 ! A27   A(1,6,11)             109.7062         estimate D2E/DX2                !
 ! A28   A(1,6,16)             107.4537         estimate D2E/DX2                !
 ! A29   A(5,6,11)             106.9529         estimate D2E/DX2                !
 ! A30   A(5,6,16)             114.1237         estimate D2E/DX2                !
 ! A31   A(11,6,16)            106.1977         estimate D2E/DX2                !
 ! A32   A(5,12,21)            107.2801         estimate D2E/DX2                !
 ! A33   A(4,13,22)            105.9069         estimate D2E/DX2                !
 ! A34   A(4,13,83)            109.539          estimate D2E/DX2                !
 ! A35   A(22,13,83)           134.8698         estimate D2E/DX2                !
 ! A36   A(3,14,23)            104.0643         estimate D2E/DX2                !
 ! A37   A(3,14,83)             92.2403         estimate D2E/DX2                !
 ! A38   A(23,14,83)           100.876          estimate D2E/DX2                !
 ! A39   A(2,15,27)            115.1168         estimate D2E/DX2                !
 ! A40   A(6,16,17)            108.4587         estimate D2E/DX2                !
 ! A41   A(6,16,18)            108.2252         estimate D2E/DX2                !
 ! A42   A(6,16,19)            109.7405         estimate D2E/DX2                !
 ! A43   A(17,16,18)           108.768          estimate D2E/DX2                !
 ! A44   A(17,16,19)           110.6876         estimate D2E/DX2                !
 ! A45   A(18,16,19)           110.8894         estimate D2E/DX2                !
 ! A46   A(16,19,20)           109.2932         estimate D2E/DX2                !
 ! A47   A(16,19,83)            71.3159         estimate D2E/DX2                !
 ! A48   A(20,19,83)           162.8016         estimate D2E/DX2                !
 ! A49   A(25,24,29)           114.1137         estimate D2E/DX2                !
 ! A50   A(24,25,26)           111.6363         estimate D2E/DX2                !
 ! A51   A(24,25,30)           109.429          estimate D2E/DX2                !
 ! A52   A(24,25,37)           107.6866         estimate D2E/DX2                !
 ! A53   A(26,25,30)           107.386          estimate D2E/DX2                !
 ! A54   A(26,25,37)           116.0248         estimate D2E/DX2                !
 ! A55   A(30,25,37)           104.3127         estimate D2E/DX2                !
 ! A56   A(25,26,27)           112.3293         estimate D2E/DX2                !
 ! A57   A(25,26,31)           108.6528         estimate D2E/DX2                !
 ! A58   A(25,26,36)           110.3456         estimate D2E/DX2                !
 ! A59   A(27,26,31)           108.8538         estimate D2E/DX2                !
 ! A60   A(27,26,36)           105.4438         estimate D2E/DX2                !
 ! A61   A(31,26,36)           111.2081         estimate D2E/DX2                !
 ! A62   A(15,27,26)           108.549          estimate D2E/DX2                !
 ! A63   A(15,27,28)           111.6185         estimate D2E/DX2                !
 ! A64   A(15,27,32)           109.0784         estimate D2E/DX2                !
 ! A65   A(26,27,28)           110.5941         estimate D2E/DX2                !
 ! A66   A(26,27,32)           107.5931         estimate D2E/DX2                !
 ! A67   A(28,27,32)           109.3098         estimate D2E/DX2                !
 ! A68   A(27,28,29)           111.5263         estimate D2E/DX2                !
 ! A69   A(27,28,33)           106.7918         estimate D2E/DX2                !
 ! A70   A(27,28,35)           108.3674         estimate D2E/DX2                !
 ! A71   A(29,28,33)           108.2225         estimate D2E/DX2                !
 ! A72   A(29,28,35)           112.4417         estimate D2E/DX2                !
 ! A73   A(33,28,35)           109.3207         estimate D2E/DX2                !
 ! A74   A(24,29,28)           112.2267         estimate D2E/DX2                !
 ! A75   A(24,29,34)           108.9317         estimate D2E/DX2                !
 ! A76   A(24,29,38)           105.1687         estimate D2E/DX2                !
 ! A77   A(28,29,34)           108.2293         estimate D2E/DX2                !
 ! A78   A(28,29,38)           114.2258         estimate D2E/DX2                !
 ! A79   A(34,29,38)           107.8751         estimate D2E/DX2                !
 ! A80   A(28,35,43)           108.5762         estimate D2E/DX2                !
 ! A81   A(28,35,82)           106.5636         estimate D2E/DX2                !
 ! A82   A(43,35,82)           142.2431         estimate D2E/DX2                !
 ! A83   A(26,36,44)           108.4429         estimate D2E/DX2                !
 ! A84   A(25,37,49)           117.6698         estimate D2E/DX2                !
 ! A85   A(29,38,39)           108.8181         estimate D2E/DX2                !
 ! A86   A(29,38,40)           110.4515         estimate D2E/DX2                !
 ! A87   A(29,38,41)           112.3529         estimate D2E/DX2                !
 ! A88   A(39,38,40)           108.0165         estimate D2E/DX2                !
 ! A89   A(39,38,41)           106.4406         estimate D2E/DX2                !
 ! A90   A(40,38,41)           110.5742         estimate D2E/DX2                !
 ! A91   A(38,41,42)           104.7433         estimate D2E/DX2                !
 ! A92   A(38,41,82)           164.8833         estimate D2E/DX2                !
 ! A93   A(42,41,82)            82.7823         estimate D2E/DX2                !
 ! A94   A(46,45,50)           111.8038         estimate D2E/DX2                !
 ! A95   A(46,45,84)           148.7791         estimate D2E/DX2                !
 ! A96   A(50,45,84)            95.4781         estimate D2E/DX2                !
 ! A97   A(45,46,47)           108.589          estimate D2E/DX2                !
 ! A98   A(45,46,51)           108.8989         estimate D2E/DX2                !
 ! A99   A(45,46,58)           108.8626         estimate D2E/DX2                !
 ! A100  A(47,46,51)           111.2031         estimate D2E/DX2                !
 ! A101  A(47,46,58)           107.4761         estimate D2E/DX2                !
 ! A102  A(51,46,58)           111.7343         estimate D2E/DX2                !
 ! A103  A(46,47,48)           111.2038         estimate D2E/DX2                !
 ! A104  A(46,47,52)           106.4757         estimate D2E/DX2                !
 ! A105  A(46,47,57)           112.8211         estimate D2E/DX2                !
 ! A106  A(48,47,52)           109.3746         estimate D2E/DX2                !
 ! A107  A(48,47,57)           106.2642         estimate D2E/DX2                !
 ! A108  A(52,47,57)           110.7189         estimate D2E/DX2                !
 ! A109  A(47,48,49)           112.8888         estimate D2E/DX2                !
 ! A110  A(47,48,53)           108.1286         estimate D2E/DX2                !
 ! A111  A(47,48,56)           109.876          estimate D2E/DX2                !
 ! A112  A(49,48,53)           107.4342         estimate D2E/DX2                !
 ! A113  A(49,48,56)           109.0766         estimate D2E/DX2                !
 ! A114  A(53,48,56)           109.3575         estimate D2E/DX2                !
 ! A115  A(37,49,48)           107.4982         estimate D2E/DX2                !
 ! A116  A(37,49,50)           109.3425         estimate D2E/DX2                !
 ! A117  A(37,49,55)           110.3371         estimate D2E/DX2                !
 ! A118  A(48,49,50)           109.4716         estimate D2E/DX2                !
 ! A119  A(48,49,55)           110.7737         estimate D2E/DX2                !
 ! A120  A(50,49,55)           109.3851         estimate D2E/DX2                !
 ! A121  A(45,50,49)           109.518          estimate D2E/DX2                !
 ! A122  A(45,50,54)           109.9518         estimate D2E/DX2                !
 ! A123  A(45,50,59)           106.7958         estimate D2E/DX2                !
 ! A124  A(49,50,54)           107.8366         estimate D2E/DX2                !
 ! A125  A(49,50,59)           116.2277         estimate D2E/DX2                !
 ! A126  A(54,50,59)           106.3961         estimate D2E/DX2                !
 ! A127  A(48,56,64)           106.0243         estimate D2E/DX2                !
 ! A128  A(48,56,84)            48.4047         estimate D2E/DX2                !
 ! A129  A(64,56,84)           136.1272         estimate D2E/DX2                !
 ! A130  A(47,57,65)           107.4876         estimate D2E/DX2                !
 ! A131  A(46,58,66)           114.907          estimate D2E/DX2                !
 ! A132  A(46,58,84)            71.0273         estimate D2E/DX2                !
 ! A133  A(66,58,84)            92.51           estimate D2E/DX2                !
 ! A134  A(50,59,60)           107.6755         estimate D2E/DX2                !
 ! A135  A(50,59,61)           109.1869         estimate D2E/DX2                !
 ! A136  A(50,59,62)           112.3799         estimate D2E/DX2                !
 ! A137  A(60,59,61)           108.8347         estimate D2E/DX2                !
 ! A138  A(60,59,62)           108.4603         estimate D2E/DX2                !
 ! A139  A(61,59,62)           110.2105         estimate D2E/DX2                !
 ! A140  A(59,62,63)           110.4312         estimate D2E/DX2                !
 ! A141  A(59,62,82)           149.4116         estimate D2E/DX2                !
 ! A142  A(63,62,82)            98.2441         estimate D2E/DX2                !
 ! A143  A(58,66,67)           108.5223         estimate D2E/DX2                !
 ! A144  A(58,66,68)           109.2435         estimate D2E/DX2                !
 ! A145  A(58,66,69)           108.7327         estimate D2E/DX2                !
 ! A146  A(67,66,68)           108.2901         estimate D2E/DX2                !
 ! A147  A(67,66,69)           110.6629         estimate D2E/DX2                !
 ! A148  A(68,66,69)           111.3377         estimate D2E/DX2                !
 ! A149  A(66,69,70)           107.8311         estimate D2E/DX2                !
 ! A150  A(66,69,71)           108.5643         estimate D2E/DX2                !
 ! A151  A(66,69,72)           114.4114         estimate D2E/DX2                !
 ! A152  A(70,69,71)           106.2802         estimate D2E/DX2                !
 ! A153  A(70,69,72)           110.6689         estimate D2E/DX2                !
 ! A154  A(71,69,72)           108.7576         estimate D2E/DX2                !
 ! A155  A(69,72,73)           107.836          estimate D2E/DX2                !
 ! A156  A(69,72,74)           108.3881         estimate D2E/DX2                !
 ! A157  A(69,72,75)           114.1701         estimate D2E/DX2                !
 ! A158  A(73,72,74)           106.5794         estimate D2E/DX2                !
 ! A159  A(73,72,75)           110.5495         estimate D2E/DX2                !
 ! A160  A(74,72,75)           109.0252         estimate D2E/DX2                !
 ! A161  A(72,75,76)           109.7647         estimate D2E/DX2                !
 ! A162  A(72,75,77)           110.4913         estimate D2E/DX2                !
 ! A163  A(72,75,78)           114.2142         estimate D2E/DX2                !
 ! A164  A(76,75,77)           106.5401         estimate D2E/DX2                !
 ! A165  A(76,75,78)           106.9065         estimate D2E/DX2                !
 ! A166  A(77,75,78)           108.5879         estimate D2E/DX2                !
 ! A167  A(75,78,79)           110.9602         estimate D2E/DX2                !
 ! A168  A(75,78,80)           111.4993         estimate D2E/DX2                !
 ! A169  A(75,78,81)           111.8596         estimate D2E/DX2                !
 ! A170  A(79,78,80)           108.0366         estimate D2E/DX2                !
 ! A171  A(79,78,81)           106.7854         estimate D2E/DX2                !
 ! A172  A(80,78,81)           107.4755         estimate D2E/DX2                !
 ! A173  A(78,81,82)           112.7123         estimate D2E/DX2                !
 ! A174  A(78,81,83)           113.837          estimate D2E/DX2                !
 ! A175  A(78,81,84)           112.2316         estimate D2E/DX2                !
 ! A176  A(82,81,83)           104.4519         estimate D2E/DX2                !
 ! A177  A(82,81,84)           105.0086         estimate D2E/DX2                !
 ! A178  A(83,81,84)           107.9165         estimate D2E/DX2                !
 ! A179  A(35,82,41)            27.3554         estimate D2E/DX2                !
 ! A180  A(35,82,62)            57.4352         estimate D2E/DX2                !
 ! A181  A(35,82,81)           111.5541         estimate D2E/DX2                !
 ! A182  A(41,82,62)            42.5303         estimate D2E/DX2                !
 ! A183  A(41,82,81)           105.0586         estimate D2E/DX2                !
 ! A184  A(62,82,81)            62.6334         estimate D2E/DX2                !
 ! A185  A(13,83,14)            77.6688         estimate D2E/DX2                !
 ! A186  A(13,83,19)            17.9383         estimate D2E/DX2                !
 ! A187  A(13,83,81)           163.0517         estimate D2E/DX2                !
 ! A188  A(14,83,19)            61.6367         estimate D2E/DX2                !
 ! A189  A(14,83,81)            85.5464         estimate D2E/DX2                !
 ! A190  A(19,83,81)           145.5204         estimate D2E/DX2                !
 ! A191  A(45,84,56)            38.6664         estimate D2E/DX2                !
 ! A192  A(45,84,58)            27.1387         estimate D2E/DX2                !
 ! A193  A(45,84,81)           122.1307         estimate D2E/DX2                !
 ! A194  A(56,84,58)            51.8036         estimate D2E/DX2                !
 ! A195  A(56,84,81)           123.8446         estimate D2E/DX2                !
 ! A196  A(58,84,81)            94.992          estimate D2E/DX2                !
 ! D1    D(6,1,2,3)            -54.3105         estimate D2E/DX2                !
 ! D2    D(6,1,2,7)           -175.6362         estimate D2E/DX2                !
 ! D3    D(6,1,2,15)            64.552          estimate D2E/DX2                !
 ! D4    D(2,1,6,5)             55.7767         estimate D2E/DX2                !
 ! D5    D(2,1,6,11)           -62.954          estimate D2E/DX2                !
 ! D6    D(2,1,6,16)          -177.992          estimate D2E/DX2                !
 ! D7    D(1,2,3,4)             52.1678         estimate D2E/DX2                !
 ! D8    D(1,2,3,8)            -67.1869         estimate D2E/DX2                !
 ! D9    D(1,2,3,14)           176.1575         estimate D2E/DX2                !
 ! D10   D(7,2,3,4)            170.5379         estimate D2E/DX2                !
 ! D11   D(7,2,3,8)             51.1832         estimate D2E/DX2                !
 ! D12   D(7,2,3,14)           -65.4724         estimate D2E/DX2                !
 ! D13   D(15,2,3,4)           -71.5883         estimate D2E/DX2                !
 ! D14   D(15,2,3,8)           169.0569         estimate D2E/DX2                !
 ! D15   D(15,2,3,14)           52.4014         estimate D2E/DX2                !
 ! D16   D(1,2,15,27)           70.5264         estimate D2E/DX2                !
 ! D17   D(3,2,15,27)         -165.6825         estimate D2E/DX2                !
 ! D18   D(7,2,15,27)          -46.9892         estimate D2E/DX2                !
 ! D19   D(2,3,4,5)            -52.1843         estimate D2E/DX2                !
 ! D20   D(2,3,4,9)             69.3075         estimate D2E/DX2                !
 ! D21   D(2,3,4,13)          -174.3485         estimate D2E/DX2                !
 ! D22   D(8,3,4,5)             66.4339         estimate D2E/DX2                !
 ! D23   D(8,3,4,9)           -172.0742         estimate D2E/DX2                !
 ! D24   D(8,3,4,13)           -55.7303         estimate D2E/DX2                !
 ! D25   D(14,3,4,5)          -175.0315         estimate D2E/DX2                !
 ! D26   D(14,3,4,9)           -53.5397         estimate D2E/DX2                !
 ! D27   D(14,3,4,13)           62.8043         estimate D2E/DX2                !
 ! D28   D(2,3,14,23)          -46.0681         estimate D2E/DX2                !
 ! D29   D(2,3,14,83)         -147.8662         estimate D2E/DX2                !
 ! D30   D(4,3,14,23)           77.168          estimate D2E/DX2                !
 ! D31   D(4,3,14,83)          -24.6301         estimate D2E/DX2                !
 ! D32   D(8,3,14,23)         -163.1637         estimate D2E/DX2                !
 ! D33   D(8,3,14,83)           95.0382         estimate D2E/DX2                !
 ! D34   D(3,4,5,6)             53.6947         estimate D2E/DX2                !
 ! D35   D(3,4,5,10)           170.8915         estimate D2E/DX2                !
 ! D36   D(3,4,5,12)           -71.0697         estimate D2E/DX2                !
 ! D37   D(9,4,5,6)            -67.404          estimate D2E/DX2                !
 ! D38   D(9,4,5,10)            49.7928         estimate D2E/DX2                !
 ! D39   D(9,4,5,12)           167.8316         estimate D2E/DX2                !
 ! D40   D(13,4,5,6)           176.9375         estimate D2E/DX2                !
 ! D41   D(13,4,5,10)          -65.8658         estimate D2E/DX2                !
 ! D42   D(13,4,5,12)           52.1731         estimate D2E/DX2                !
 ! D43   D(3,4,13,22)           81.4591         estimate D2E/DX2                !
 ! D44   D(3,4,13,83)          -70.1293         estimate D2E/DX2                !
 ! D45   D(5,4,13,22)          -41.0994         estimate D2E/DX2                !
 ! D46   D(5,4,13,83)          167.3123         estimate D2E/DX2                !
 ! D47   D(9,4,13,22)         -159.7332         estimate D2E/DX2                !
 ! D48   D(9,4,13,83)           48.6785         estimate D2E/DX2                !
 ! D49   D(4,5,6,1)            -54.7142         estimate D2E/DX2                !
 ! D50   D(4,5,6,11)            65.6265         estimate D2E/DX2                !
 ! D51   D(4,5,6,16)          -177.2416         estimate D2E/DX2                !
 ! D52   D(10,5,6,1)          -172.7984         estimate D2E/DX2                !
 ! D53   D(10,5,6,11)          -52.4577         estimate D2E/DX2                !
 ! D54   D(10,5,6,16)           64.6742         estimate D2E/DX2                !
 ! D55   D(12,5,6,1)            63.7964         estimate D2E/DX2                !
 ! D56   D(12,5,6,11)         -175.8629         estimate D2E/DX2                !
 ! D57   D(12,5,6,16)          -58.731          estimate D2E/DX2                !
 ! D58   D(4,5,12,21)          156.5401         estimate D2E/DX2                !
 ! D59   D(6,5,12,21)           35.4655         estimate D2E/DX2                !
 ! D60   D(10,5,12,21)         -86.4095         estimate D2E/DX2                !
 ! D61   D(1,6,16,17)           49.5383         estimate D2E/DX2                !
 ! D62   D(1,6,16,18)          167.3787         estimate D2E/DX2                !
 ! D63   D(1,6,16,19)          -71.4905         estimate D2E/DX2                !
 ! D64   D(5,6,16,17)          174.6225         estimate D2E/DX2                !
 ! D65   D(5,6,16,18)          -67.5371         estimate D2E/DX2                !
 ! D66   D(5,6,16,19)           53.5937         estimate D2E/DX2                !
 ! D67   D(11,6,16,17)         -67.811          estimate D2E/DX2                !
 ! D68   D(11,6,16,18)          50.0294         estimate D2E/DX2                !
 ! D69   D(11,6,16,19)         171.1603         estimate D2E/DX2                !
 ! D70   D(4,13,83,14)          36.8955         estimate D2E/DX2                !
 ! D71   D(4,13,83,19)          11.5299         estimate D2E/DX2                !
 ! D72   D(4,13,83,81)          28.7883         estimate D2E/DX2                !
 ! D73   D(22,13,83,14)       -102.8896         estimate D2E/DX2                !
 ! D74   D(22,13,83,19)       -128.2552         estimate D2E/DX2                !
 ! D75   D(22,13,83,81)       -110.9968         estimate D2E/DX2                !
 ! D76   D(3,14,83,13)          -6.2669         estimate D2E/DX2                !
 ! D77   D(3,14,83,19)           2.3566         estimate D2E/DX2                !
 ! D78   D(3,14,83,81)         171.3698         estimate D2E/DX2                !
 ! D79   D(23,14,83,13)       -111.0501         estimate D2E/DX2                !
 ! D80   D(23,14,83,19)       -102.4265         estimate D2E/DX2                !
 ! D81   D(23,14,83,81)         66.5867         estimate D2E/DX2                !
 ! D82   D(2,15,27,26)        -138.7288         estimate D2E/DX2                !
 ! D83   D(2,15,27,28)          99.1259         estimate D2E/DX2                !
 ! D84   D(2,15,27,32)         -21.7668         estimate D2E/DX2                !
 ! D85   D(6,16,19,20)         179.2846         estimate D2E/DX2                !
 ! D86   D(6,16,19,83)         -18.9005         estimate D2E/DX2                !
 ! D87   D(17,16,19,20)         59.6093         estimate D2E/DX2                !
 ! D88   D(17,16,19,83)       -138.5758         estimate D2E/DX2                !
 ! D89   D(18,16,19,20)        -61.203          estimate D2E/DX2                !
 ! D90   D(18,16,19,83)        100.6119         estimate D2E/DX2                !
 ! D91   D(16,19,83,13)       -129.4008         estimate D2E/DX2                !
 ! D92   D(16,19,83,14)         78.9979         estimate D2E/DX2                !
 ! D93   D(16,19,83,81)         59.3867         estimate D2E/DX2                !
 ! D94   D(20,19,83,13)        -34.4082         estimate D2E/DX2                !
 ! D95   D(20,19,83,14)        173.9905         estimate D2E/DX2                !
 ! D96   D(20,19,83,81)        154.3793         estimate D2E/DX2                !
 ! D97   D(29,24,25,26)        -53.0931         estimate D2E/DX2                !
 ! D98   D(29,24,25,30)         65.6433         estimate D2E/DX2                !
 ! D99   D(29,24,25,37)        178.4502         estimate D2E/DX2                !
 ! D100  D(25,24,29,28)         61.0694         estimate D2E/DX2                !
 ! D101  D(25,24,29,34)        -58.7597         estimate D2E/DX2                !
 ! D102  D(25,24,29,38)       -174.1764         estimate D2E/DX2                !
 ! D103  D(24,25,26,27)         -4.8092         estimate D2E/DX2                !
 ! D104  D(24,25,26,31)       -125.2976         estimate D2E/DX2                !
 ! D105  D(24,25,26,36)        112.5353         estimate D2E/DX2                !
 ! D106  D(30,25,26,27)       -124.7552         estimate D2E/DX2                !
 ! D107  D(30,25,26,31)        114.7564         estimate D2E/DX2                !
 ! D108  D(30,25,26,36)         -7.4107         estimate D2E/DX2                !
 ! D109  D(37,25,26,27)        119.0667         estimate D2E/DX2                !
 ! D110  D(37,25,26,31)         -1.4217         estimate D2E/DX2                !
 ! D111  D(37,25,26,36)       -123.5889         estimate D2E/DX2                !
 ! D112  D(24,25,37,49)         63.7647         estimate D2E/DX2                !
 ! D113  D(26,25,37,49)        -62.1355         estimate D2E/DX2                !
 ! D114  D(30,25,37,49)        179.9761         estimate D2E/DX2                !
 ! D115  D(25,26,27,15)        -70.6882         estimate D2E/DX2                !
 ! D116  D(25,26,27,28)         52.0789         estimate D2E/DX2                !
 ! D117  D(25,26,27,32)        171.4018         estimate D2E/DX2                !
 ! D118  D(31,26,27,15)         49.684          estimate D2E/DX2                !
 ! D119  D(31,26,27,28)        172.4511         estimate D2E/DX2                !
 ! D120  D(31,26,27,32)        -68.226          estimate D2E/DX2                !
 ! D121  D(36,26,27,15)        169.0855         estimate D2E/DX2                !
 ! D122  D(36,26,27,28)        -68.1474         estimate D2E/DX2                !
 ! D123  D(36,26,27,32)         51.1754         estimate D2E/DX2                !
 ! D124  D(25,26,36,44)         78.4009         estimate D2E/DX2                !
 ! D125  D(27,26,36,44)       -160.0766         estimate D2E/DX2                !
 ! D126  D(31,26,36,44)        -42.2486         estimate D2E/DX2                !
 ! D127  D(15,27,28,29)         76.4186         estimate D2E/DX2                !
 ! D128  D(15,27,28,33)       -165.5371         estimate D2E/DX2                !
 ! D129  D(15,27,28,35)        -47.8699         estimate D2E/DX2                !
 ! D130  D(26,27,28,29)        -44.5426         estimate D2E/DX2                !
 ! D131  D(26,27,28,33)         73.5017         estimate D2E/DX2                !
 ! D132  D(26,27,28,35)       -168.8311         estimate D2E/DX2                !
 ! D133  D(32,27,28,29)       -162.8237         estimate D2E/DX2                !
 ! D134  D(32,27,28,33)        -44.7793         estimate D2E/DX2                !
 ! D135  D(32,27,28,35)         72.8879         estimate D2E/DX2                !
 ! D136  D(27,28,29,24)         -8.8141         estimate D2E/DX2                !
 ! D137  D(27,28,29,34)        111.4234         estimate D2E/DX2                !
 ! D138  D(27,28,29,38)       -128.4068         estimate D2E/DX2                !
 ! D139  D(33,28,29,24)       -125.9957         estimate D2E/DX2                !
 ! D140  D(33,28,29,34)         -5.7581         estimate D2E/DX2                !
 ! D141  D(33,28,29,38)        114.4116         estimate D2E/DX2                !
 ! D142  D(35,28,29,24)        113.1511         estimate D2E/DX2                !
 ! D143  D(35,28,29,34)       -126.6114         estimate D2E/DX2                !
 ! D144  D(35,28,29,38)         -6.4416         estimate D2E/DX2                !
 ! D145  D(27,28,35,43)       -129.9375         estimate D2E/DX2                !
 ! D146  D(27,28,35,82)         64.1007         estimate D2E/DX2                !
 ! D147  D(29,28,35,43)        106.3217         estimate D2E/DX2                !
 ! D148  D(29,28,35,82)        -59.6401         estimate D2E/DX2                !
 ! D149  D(33,28,35,43)        -13.8988         estimate D2E/DX2                !
 ! D150  D(33,28,35,82)       -179.8606         estimate D2E/DX2                !
 ! D151  D(24,29,38,39)         58.2872         estimate D2E/DX2                !
 ! D152  D(24,29,38,40)        176.7001         estimate D2E/DX2                !
 ! D153  D(24,29,38,41)        -59.3215         estimate D2E/DX2                !
 ! D154  D(28,29,38,39)       -178.2249         estimate D2E/DX2                !
 ! D155  D(28,29,38,40)        -59.812          estimate D2E/DX2                !
 ! D156  D(28,29,38,41)         64.1665         estimate D2E/DX2                !
 ! D157  D(34,29,38,39)        -57.8574         estimate D2E/DX2                !
 ! D158  D(34,29,38,40)         60.5555         estimate D2E/DX2                !
 ! D159  D(34,29,38,41)       -175.466          estimate D2E/DX2                !
 ! D160  D(28,35,82,41)         68.519          estimate D2E/DX2                !
 ! D161  D(28,35,82,62)         20.4646         estimate D2E/DX2                !
 ! D162  D(28,35,82,81)        -12.5308         estimate D2E/DX2                !
 ! D163  D(43,35,82,41)        -89.425          estimate D2E/DX2                !
 ! D164  D(43,35,82,62)       -137.4794         estimate D2E/DX2                !
 ! D165  D(43,35,82,81)       -170.4748         estimate D2E/DX2                !
 ! D166  D(25,37,49,48)        125.5277         estimate D2E/DX2                !
 ! D167  D(25,37,49,50)       -115.7158         estimate D2E/DX2                !
 ! D168  D(25,37,49,55)          4.6331         estimate D2E/DX2                !
 ! D169  D(29,38,41,42)        -67.2024         estimate D2E/DX2                !
 ! D170  D(29,38,41,82)         51.2206         estimate D2E/DX2                !
 ! D171  D(39,38,41,42)        173.7863         estimate D2E/DX2                !
 ! D172  D(39,38,41,82)        -67.7907         estimate D2E/DX2                !
 ! D173  D(40,38,41,42)         56.7078         estimate D2E/DX2                !
 ! D174  D(40,38,41,82)        175.1309         estimate D2E/DX2                !
 ! D175  D(38,41,82,35)       -100.7756         estimate D2E/DX2                !
 ! D176  D(38,41,82,62)         11.2046         estimate D2E/DX2                !
 ! D177  D(38,41,82,81)          7.1573         estimate D2E/DX2                !
 ! D178  D(42,41,82,35)         20.2101         estimate D2E/DX2                !
 ! D179  D(42,41,82,62)        132.1903         estimate D2E/DX2                !
 ! D180  D(42,41,82,81)        128.143          estimate D2E/DX2                !
 ! D181  D(50,45,46,47)        -65.7489         estimate D2E/DX2                !
 ! D182  D(50,45,46,51)         55.4806         estimate D2E/DX2                !
 ! D183  D(50,45,46,58)        177.5252         estimate D2E/DX2                !
 ! D184  D(84,45,46,47)         83.3863         estimate D2E/DX2                !
 ! D185  D(84,45,46,51)       -155.3842         estimate D2E/DX2                !
 ! D186  D(84,45,46,58)        -33.3395         estimate D2E/DX2                !
 ! D187  D(46,45,50,49)         66.2009         estimate D2E/DX2                !
 ! D188  D(46,45,50,54)        -52.1199         estimate D2E/DX2                !
 ! D189  D(46,45,50,59)       -167.1602         estimate D2E/DX2                !
 ! D190  D(84,45,50,49)        -98.3053         estimate D2E/DX2                !
 ! D191  D(84,45,50,54)        143.3739         estimate D2E/DX2                !
 ! D192  D(84,45,50,59)         28.3336         estimate D2E/DX2                !
 ! D193  D(46,45,84,56)        -84.9301         estimate D2E/DX2                !
 ! D194  D(46,45,84,58)         20.6356         estimate D2E/DX2                !
 ! D195  D(46,45,84,81)         20.6014         estimate D2E/DX2                !
 ! D196  D(50,45,84,56)         66.4825         estimate D2E/DX2                !
 ! D197  D(50,45,84,58)        172.0483         estimate D2E/DX2                !
 ! D198  D(50,45,84,81)        172.014          estimate D2E/DX2                !
 ! D199  D(45,46,47,48)         55.4735         estimate D2E/DX2                !
 ! D200  D(45,46,47,52)        -63.5918         estimate D2E/DX2                !
 ! D201  D(45,46,47,57)        174.7591         estimate D2E/DX2                !
 ! D202  D(51,46,47,48)        -64.3291         estimate D2E/DX2                !
 ! D203  D(51,46,47,52)        176.6056         estimate D2E/DX2                !
 ! D204  D(51,46,47,57)         54.9566         estimate D2E/DX2                !
 ! D205  D(58,46,47,48)        173.0859         estimate D2E/DX2                !
 ! D206  D(58,46,47,52)         54.0206         estimate D2E/DX2                !
 ! D207  D(58,46,47,57)        -67.6284         estimate D2E/DX2                !
 ! D208  D(45,46,58,66)        -72.3506         estimate D2E/DX2                !
 ! D209  D(45,46,58,84)         11.4161         estimate D2E/DX2                !
 ! D210  D(47,46,58,66)        170.2149         estimate D2E/DX2                !
 ! D211  D(47,46,58,84)       -106.0184         estimate D2E/DX2                !
 ! D212  D(51,46,58,66)         47.9588         estimate D2E/DX2                !
 ! D213  D(51,46,58,84)        131.7256         estimate D2E/DX2                !
 ! D214  D(46,47,48,49)        -48.8638         estimate D2E/DX2                !
 ! D215  D(46,47,48,53)         69.8497         estimate D2E/DX2                !
 ! D216  D(46,47,48,56)       -170.8603         estimate D2E/DX2                !
 ! D217  D(52,47,48,49)         68.4517         estimate D2E/DX2                !
 ! D218  D(52,47,48,53)       -172.8348         estimate D2E/DX2                !
 ! D219  D(52,47,48,56)        -53.5448         estimate D2E/DX2                !
 ! D220  D(57,47,48,49)       -171.9941         estimate D2E/DX2                !
 ! D221  D(57,47,48,53)        -53.2806         estimate D2E/DX2                !
 ! D222  D(57,47,48,56)         66.0094         estimate D2E/DX2                !
 ! D223  D(46,47,57,65)         59.4085         estimate D2E/DX2                !
 ! D224  D(48,47,57,65)       -178.483          estimate D2E/DX2                !
 ! D225  D(52,47,57,65)        -59.8095         estimate D2E/DX2                !
 ! D226  D(47,48,49,37)        166.5789         estimate D2E/DX2                !
 ! D227  D(47,48,49,50)         47.9054         estimate D2E/DX2                !
 ! D228  D(47,48,49,55)        -72.8016         estimate D2E/DX2                !
 ! D229  D(53,48,49,37)         47.4622         estimate D2E/DX2                !
 ! D230  D(53,48,49,50)        -71.2113         estimate D2E/DX2                !
 ! D231  D(53,48,49,55)        168.0817         estimate D2E/DX2                !
 ! D232  D(56,48,49,37)        -70.9761         estimate D2E/DX2                !
 ! D233  D(56,48,49,50)        170.3505         estimate D2E/DX2                !
 ! D234  D(56,48,49,55)         49.6434         estimate D2E/DX2                !
 ! D235  D(47,48,56,64)        -58.9536         estimate D2E/DX2                !
 ! D236  D(47,48,56,84)         79.4597         estimate D2E/DX2                !
 ! D237  D(49,48,56,64)        176.8081         estimate D2E/DX2                !
 ! D238  D(49,48,56,84)        -44.7786         estimate D2E/DX2                !
 ! D239  D(53,48,56,64)         59.5814         estimate D2E/DX2                !
 ! D240  D(53,48,56,84)       -162.0053         estimate D2E/DX2                !
 ! D241  D(37,49,50,45)       -172.6555         estimate D2E/DX2                !
 ! D242  D(37,49,50,54)        -53.0272         estimate D2E/DX2                !
 ! D243  D(37,49,50,59)         66.2534         estimate D2E/DX2                !
 ! D244  D(48,49,50,45)        -55.1326         estimate D2E/DX2                !
 ! D245  D(48,49,50,54)         64.4957         estimate D2E/DX2                !
 ! D246  D(48,49,50,59)       -176.2237         estimate D2E/DX2                !
 ! D247  D(55,49,50,45)         66.415          estimate D2E/DX2                !
 ! D248  D(55,49,50,54)       -173.9567         estimate D2E/DX2                !
 ! D249  D(55,49,50,59)        -54.6761         estimate D2E/DX2                !
 ! D250  D(45,50,59,60)         62.0059         estimate D2E/DX2                !
 ! D251  D(45,50,59,61)       -179.9823         estimate D2E/DX2                !
 ! D252  D(45,50,59,62)        -57.3756         estimate D2E/DX2                !
 ! D253  D(49,50,59,60)       -175.4636         estimate D2E/DX2                !
 ! D254  D(49,50,59,61)        -57.4518         estimate D2E/DX2                !
 ! D255  D(49,50,59,62)         65.1549         estimate D2E/DX2                !
 ! D256  D(54,50,59,60)        -55.4043         estimate D2E/DX2                !
 ! D257  D(54,50,59,61)         62.6075         estimate D2E/DX2                !
 ! D258  D(54,50,59,62)       -174.7858         estimate D2E/DX2                !
 ! D259  D(48,56,84,45)        -15.7953         estimate D2E/DX2                !
 ! D260  D(48,56,84,58)        -49.7908         estimate D2E/DX2                !
 ! D261  D(48,56,84,81)       -116.568          estimate D2E/DX2                !
 ! D262  D(64,56,84,45)         51.2043         estimate D2E/DX2                !
 ! D263  D(64,56,84,58)         17.2088         estimate D2E/DX2                !
 ! D264  D(64,56,84,81)        -49.5685         estimate D2E/DX2                !
 ! D265  D(46,58,66,67)        -98.6514         estimate D2E/DX2                !
 ! D266  D(46,58,66,68)         19.2216         estimate D2E/DX2                !
 ! D267  D(46,58,66,69)        140.9125         estimate D2E/DX2                !
 ! D268  D(84,58,66,67)       -168.8692         estimate D2E/DX2                !
 ! D269  D(84,58,66,68)        -50.9961         estimate D2E/DX2                !
 ! D270  D(84,58,66,69)         70.6948         estimate D2E/DX2                !
 ! D271  D(46,58,84,45)        -11.553          estimate D2E/DX2                !
 ! D272  D(46,58,84,56)         38.4286         estimate D2E/DX2                !
 ! D273  D(46,58,84,81)        168.4179         estimate D2E/DX2                !
 ! D274  D(66,58,84,45)        103.9588         estimate D2E/DX2                !
 ! D275  D(66,58,84,56)        153.9405         estimate D2E/DX2                !
 ! D276  D(66,58,84,81)        -76.0703         estimate D2E/DX2                !
 ! D277  D(50,59,62,63)       -122.9099         estimate D2E/DX2                !
 ! D278  D(50,59,62,82)         78.5173         estimate D2E/DX2                !
 ! D279  D(60,59,62,63)        118.1676         estimate D2E/DX2                !
 ! D280  D(60,59,62,82)        -40.4051         estimate D2E/DX2                !
 ! D281  D(61,59,62,63)         -0.8826         estimate D2E/DX2                !
 ! D282  D(61,59,62,82)       -159.4553         estimate D2E/DX2                !
 ! D283  D(59,62,82,35)       -168.6576         estimate D2E/DX2                !
 ! D284  D(59,62,82,41)        160.9715         estimate D2E/DX2                !
 ! D285  D(59,62,82,81)        -23.43           estimate D2E/DX2                !
 ! D286  D(63,62,82,35)         31.58           estimate D2E/DX2                !
 ! D287  D(63,62,82,41)          1.2091         estimate D2E/DX2                !
 ! D288  D(63,62,82,81)        176.8075         estimate D2E/DX2                !
 ! D289  D(58,66,69,70)        177.9988         estimate D2E/DX2                !
 ! D290  D(58,66,69,71)         63.248          estimate D2E/DX2                !
 ! D291  D(58,66,69,72)        -58.4164         estimate D2E/DX2                !
 ! D292  D(67,66,69,70)         58.8948         estimate D2E/DX2                !
 ! D293  D(67,66,69,71)        -55.856          estimate D2E/DX2                !
 ! D294  D(67,66,69,72)       -177.5204         estimate D2E/DX2                !
 ! D295  D(68,66,69,70)        -61.5966         estimate D2E/DX2                !
 ! D296  D(68,66,69,71)       -176.3474         estimate D2E/DX2                !
 ! D297  D(68,66,69,72)         61.9882         estimate D2E/DX2                !
 ! D298  D(66,69,72,73)         57.7259         estimate D2E/DX2                !
 ! D299  D(66,69,72,74)        172.7398         estimate D2E/DX2                !
 ! D300  D(66,69,72,75)        -65.5433         estimate D2E/DX2                !
 ! D301  D(70,69,72,73)        179.7736         estimate D2E/DX2                !
 ! D302  D(70,69,72,74)        -65.2124         estimate D2E/DX2                !
 ! D303  D(70,69,72,75)         56.5045         estimate D2E/DX2                !
 ! D304  D(71,69,72,73)        -63.8325         estimate D2E/DX2                !
 ! D305  D(71,69,72,74)         51.1815         estimate D2E/DX2                !
 ! D306  D(71,69,72,75)        172.8984         estimate D2E/DX2                !
 ! D307  D(69,72,75,76)        -59.0886         estimate D2E/DX2                !
 ! D308  D(69,72,75,77)         58.1195         estimate D2E/DX2                !
 ! D309  D(69,72,75,78)       -179.1163         estimate D2E/DX2                !
 ! D310  D(73,72,75,76)        179.1235         estimate D2E/DX2                !
 ! D311  D(73,72,75,77)        -63.6684         estimate D2E/DX2                !
 ! D312  D(73,72,75,78)         59.0958         estimate D2E/DX2                !
 ! D313  D(74,72,75,76)         62.2768         estimate D2E/DX2                !
 ! D314  D(74,72,75,77)        179.4849         estimate D2E/DX2                !
 ! D315  D(74,72,75,78)        -57.7509         estimate D2E/DX2                !
 ! D316  D(72,75,78,79)        172.1697         estimate D2E/DX2                !
 ! D317  D(72,75,78,80)         51.689          estimate D2E/DX2                !
 ! D318  D(72,75,78,81)        -68.6942         estimate D2E/DX2                !
 ! D319  D(76,75,78,79)         50.5541         estimate D2E/DX2                !
 ! D320  D(76,75,78,80)        -69.9266         estimate D2E/DX2                !
 ! D321  D(76,75,78,81)        169.6902         estimate D2E/DX2                !
 ! D322  D(77,75,78,79)        -64.0369         estimate D2E/DX2                !
 ! D323  D(77,75,78,80)        175.4824         estimate D2E/DX2                !
 ! D324  D(77,75,78,81)         55.0992         estimate D2E/DX2                !
 ! D325  D(75,78,81,82)       -179.5041         estimate D2E/DX2                !
 ! D326  D(75,78,81,83)         61.7643         estimate D2E/DX2                !
 ! D327  D(75,78,81,84)        -61.1864         estimate D2E/DX2                !
 ! D328  D(79,78,81,82)        -57.9304         estimate D2E/DX2                !
 ! D329  D(79,78,81,83)       -176.662          estimate D2E/DX2                !
 ! D330  D(79,78,81,84)         60.3873         estimate D2E/DX2                !
 ! D331  D(80,78,81,82)         57.7925         estimate D2E/DX2                !
 ! D332  D(80,78,81,83)        -60.9391         estimate D2E/DX2                !
 ! D333  D(80,78,81,84)        176.1101         estimate D2E/DX2                !
 ! D334  D(78,81,82,35)        154.7121         estimate D2E/DX2                !
 ! D335  D(78,81,82,41)        126.6742         estimate D2E/DX2                !
 ! D336  D(78,81,82,62)        123.5946         estimate D2E/DX2                !
 ! D337  D(83,81,82,35)        -81.2116         estimate D2E/DX2                !
 ! D338  D(83,81,82,41)       -109.2494         estimate D2E/DX2                !
 ! D339  D(83,81,82,62)       -112.329          estimate D2E/DX2                !
 ! D340  D(84,81,82,35)         32.2417         estimate D2E/DX2                !
 ! D341  D(84,81,82,41)          4.2039         estimate D2E/DX2                !
 ! D342  D(84,81,82,62)          1.1243         estimate D2E/DX2                !
 ! D343  D(78,81,83,13)        178.3499         estimate D2E/DX2                !
 ! D344  D(78,81,83,14)        170.4069         estimate D2E/DX2                !
 ! D345  D(78,81,83,19)       -172.3614         estimate D2E/DX2                !
 ! D346  D(82,81,83,13)         54.9986         estimate D2E/DX2                !
 ! D347  D(82,81,83,14)         47.0555         estimate D2E/DX2                !
 ! D348  D(82,81,83,19)         64.2873         estimate D2E/DX2                !
 ! D349  D(84,81,83,13)        -56.3708         estimate D2E/DX2                !
 ! D350  D(84,81,83,14)        -64.3139         estimate D2E/DX2                !
 ! D351  D(84,81,83,19)        -47.0821         estimate D2E/DX2                !
 ! D352  D(78,81,84,45)         77.3522         estimate D2E/DX2                !
 ! D353  D(78,81,84,56)        123.803          estimate D2E/DX2                !
 ! D354  D(78,81,84,58)         77.3366         estimate D2E/DX2                !
 ! D355  D(82,81,84,45)       -159.8668         estimate D2E/DX2                !
 ! D356  D(82,81,84,56)       -113.416          estimate D2E/DX2                !
 ! D357  D(82,81,84,58)       -159.8825         estimate D2E/DX2                !
 ! D358  D(83,81,84,45)        -48.8751         estimate D2E/DX2                !
 ! D359  D(83,81,84,56)         -2.4243         estimate D2E/DX2                !
 ! D360  D(83,81,84,58)        -48.8908         estimate D2E/DX2                !
 --------------------------------------------------------------------------------
 Trust Radius=3.00D-01 FncErr=1.00D-07 GrdErr=1.00D-06
 Number of steps in this run=    504 maximum allowed number of steps=    504.
 GradGradGradGradGradGradGradGradGradGradGradGradGradGradGradGradGradGrad

 Leave Link  103 at Tue Apr 26 22:57:49 2016, MaxMem= 10737418240 cpu:         0.7
 (Enter /share/apps//g09/l202.exe)
 Stoichiometry    C23H44NO16(1+)
 Framework group  C1[X(C23H44NO16)]
 Deg. of freedom   246
 Full point group                 C1      NOp   1
 Largest Abelian subgroup         C1      NOp   1
 Largest concise Abelian subgroup C1      NOp   1
                         Standard orientation:                         
 ---------------------------------------------------------------------
 Center     Atomic      Atomic             Coordinates (Angstroms)
 Number     Number       Type             X           Y           Z
 ---------------------------------------------------------------------
      1          8           0       -2.164013    2.569309   -1.044011
      2          6           0       -2.026243    1.262175   -1.537077
      3          6           0       -0.702511    1.031234   -2.288206
      4          6           0        0.492200    1.473691   -1.426760
      5          6           0        0.286206    2.905008   -0.925588
      6          6           0       -1.071080    3.015270   -0.211238
      7          1           0       -2.884744    1.107221   -2.205236
      8          1           0       -0.725953    1.631940   -3.208390
      9          1           0        0.606680    0.786122   -0.575730
     10          1           0        1.073328    3.139023   -0.179037
     11          1           0       -1.010873    2.383776    0.694949
     12          8           0        0.440866    3.728796   -2.080967
     13          8           0        1.730976    1.389237   -2.157867
     14          8           0       -0.598039   -0.340003   -2.679690
     15          8           0       -2.034742    0.259387   -0.500952
     16          6           0       -1.407656    4.417689    0.270643
     17          1           0       -2.432136    4.410411    0.677717
     18          1           0       -0.705337    4.682388    1.080697
     19          8           0       -1.302127    5.345599   -0.823192
     20          1           0       -1.529206    6.236496   -0.511141
     21          1           0       -0.038496    4.568557   -1.906932
     22          1           0        1.779089    2.204153   -2.699735
     23          1           0       -0.855598   -0.837597   -1.875470
     24          8           0       -2.220079   -2.293459    0.840021
     25          6           0       -2.377464   -1.471275    1.996303
     26          6           0       -3.072214   -0.112358    1.648057
     27          6           0       -3.305999    0.053681    0.139007
     28          6           0       -4.038201   -1.175196   -0.434575
     29          6           0       -3.430342   -2.508456    0.106069
     30          1           0       -3.018975   -1.991395    2.733412
     31          1           0       -2.433359    0.709863    2.001219
     32          1           0       -3.929869    0.948677   -0.004408
     33          1           0       -5.082202   -1.110372   -0.094536
     34          1           0       -4.176467   -2.984011    0.774090
     35          8           0       -3.999295   -1.095990   -1.880166
     36          8           0       -4.374752   -0.050731    2.245411
     37          8           0       -1.127489   -1.379742    2.627728
     38          6           0       -3.064890   -3.515924   -0.980325
     39          1           0       -2.678112   -4.426466   -0.503435
     40          1           0       -3.956227   -3.790488   -1.566117
     41          8           0       -2.021592   -3.034348   -1.843825
     42          1           0       -2.426916   -2.284202   -2.331233
     43          1           0       -4.898572   -1.226102   -2.221257
     44          1           0       -4.271175    0.166501    3.187306
     45          8           0        2.200621   -1.101660    1.052683
     46          6           0        2.815224   -0.202701    1.994449
     47          6           0        1.835220    0.927359    2.299242
     48          6           0        0.496777    0.379897    2.794386
     49          6           0       -0.056157   -0.737813    1.903787
     50          6           0        1.060905   -1.770674    1.618727
     51          1           0        3.075532   -0.768896    2.915793
     52          1           0        1.679939    1.472435    1.349738
     53          1           0        0.651440   -0.046607    3.804440
     54          1           0        1.340097   -2.244417    2.583024
     55          1           0       -0.428029   -0.330576    0.952599
     56          8           0       -0.466562    1.440297    2.868396
     57          8           0        2.306913    1.809542    3.316311
     58          8           0        3.937234    0.365713    1.405963
     59          6           0        0.701348   -2.906195    0.670191
     60          1           0        1.560587   -3.595549    0.632508
     61          1           0       -0.167549   -3.444934    1.066108
     62          8           0        0.432250   -2.441398   -0.662286
     63          1           0       -0.476772   -2.717696   -0.948548
     64          1           0       -0.094566    2.099341    3.482498
     65          1           0        3.149761    2.188326    3.007524
     66          6           0        5.066769   -0.531924    1.250422
     67          1           0        5.771255   -0.355266    2.079708
     68          1           0        4.714195   -1.572820    1.312476
     69          6           0        5.733619   -0.251480   -0.090495
     70          1           0        6.610031   -0.915529   -0.177296
     71          1           0        6.125806    0.777251   -0.078593
     72          6           0        4.808103   -0.413334   -1.306081
     73          1           0        3.950876    0.264292   -1.169918
     74          1           0        5.346586   -0.063295   -2.202261
     75          6           0        4.325970   -1.851461   -1.541874
     76          1           0        5.192893   -2.515299   -1.691998
     77          1           0        3.791476   -2.229170   -0.655763
     78          6           0        3.423796   -2.017086   -2.761353
     79          1           0        3.223925   -3.078323   -2.960915
     80          1           0        3.879699   -1.581252   -3.662089
     81          7           0        2.091495   -1.354591   -2.564930
     82          1           0        1.469856   -1.465151   -3.376046
     83          1           0        2.151059   -0.317204   -2.420177
     84          1           0        1.554920   -1.767176   -1.749738
 ---------------------------------------------------------------------
 Rotational constants (GHZ):      0.1116214      0.0820931      0.0735982
 Leave Link  202 at Tue Apr 26 22:57:50 2016, MaxMem= 10737418240 cpu:         0.9
 (Enter /share/apps//g09/l301.exe)
[...]
 00325,0.00001079,-0.00000710,0.00000730,0.00000132,-0.00001671,-0.0000
 5509,0.00003907,-0.00010859,-0.00003730,0.00000216,-0.00006295,0.00010
 554,-0.00005684,-0.00021868,-0.00015348,0.00000550,0.00005027,0.000001
 84,0.00001126,-0.00000832,0.00002335,-0.00001724,-0.00001399,0.0001373
 9,-0.00010634,-0.00016394,-0.00001462,0.00000250,0.00009987,0.00002125
 ,-0.00001312,0.00002358,0.00000536,-0.00000881,0.00002681,0.00057750,0
 .00071925,-0.00005813,0.00023676,-0.00088388,0.00007850,0.00009965,-0.
 00000614,0.00014281,0.00000487,-0.00008851,0.00018726,-0.00007993,0.00
 000757,0.00013963,-0.00047693,0.00022246,0.00017161,0.00002510,0.00014
 328,-0.00003058,0.00000785,-0.00001196,0.00002752,-0.00002129,0.000003
 17,-0.00002055,0.00011891,0.00000526,-0.00002621,0.00002956,-0.0000165
 1,0.00008063,-0.00008170,0.00005421,-0.00024115,-0.00006264,0.00014558
 ,-0.00018988,-0.00016898,0.00024046,0.00003884,-0.00031345,-0.00023088
 ,0.00002661,0.00003207,0.00004402,-0.00001976,0.00003287,-0.00000450,0
 .00002800,-0.00043723,-0.00074963,0.00042321,-0.00000044,0.00018609,0.
 00034416,0.00003474,-0.00000175,0.00002635,0.00005543,-0.00001818,0.00
 007637,0.00008114,-0.00016512,-0.00010559,-0.00004659,0.00003060,0.000
 01326,-0.00008306,-0.00002080,-0.00003500,-0.00025576,0.00025921,-0.00
 022737,-0.00001993,-0.00010846,-0.00005004,0.00001994,0.00014456,0.000
 03484,0.00018848,-0.00043725,0.00021521,0.00078377,0.00038767,0.000075
 67,-0.00039843,0.00013018,0.00047116,-0.00008924,-0.00014585,-0.000814
 32,-0.00013828,0.00016570,0.00001773,-0.00017748,0.00000881,-0.0002263
 9,0.00794459,-0.01307761,0.00546244,-0.00081344,0.00065496,0.00393725,
 -0.00017509,-0.00074873,0.00063921,-0.11412633,0.08779373,-0.07164773,
 0.00515644,-0.00917113,0.00828036,0.12030819,0.00018248,-0.00076154,0.
 00026568,-0.00051891,-0.00033516,-0.00028199,-0.00015514,0.00250119,-0
 .00283263,-0.00603106,0.00186360,0.00281671,0.00086970,-0.00072684,-0.
 00081065,-0.00064279,0.00095803,0.00000264,0.00018674,-0.00000398,-0.0
 0019455,0.00002890,0.00001612,0.00013100,0.00013127,0.00005696,0.00011
 629,0.00003506,-0.00012030,0.00014616,-0.00004947,-0.00004477,-0.00003
 394,0.00003069,0.00018944,-0.00107202,-0.00193267,-0.00519376,-0.00204
 923,-0.00046997,-0.00054872,0.00333459,0.00049711,-0.00032792,0.000225
 79,0.00018671,-0.00022418,-0.00008224,0.00000552,0.00006148,-0.0001492
 2,-0.00000459,-0.00002271,0.00003793,0.00005115,0.00006095,-0.00027244
 ,0.00005524,0.00000266,0.00005051,0.00017033,-0.00006709,0.00036582,0.
 00303679,0.00094612,-0.00256993,0.00041379,-0.00003517,-0.00041783,-0.
 00009401,-0.00024627,0.00022572,0.00003925,0.00035348,-0.00012944,-0.0
 0004088,-0.00000781,-0.00001451,-0.00016443,0.00011980,0.00010489,0.00
 003383,0.00008374,-0.00007592,-0.00005166,0.00001528,-0.00003258,-0.00
 000584,-0.00003393,0.00001518,-0.00002589,-0.00000613,0.00001702,-0.00
 001527,0.00000420,0.00001828,0.00000073,-0.00002192,0.00001021,-0.0000
 0858,-0.00001201,0.00002037,0.00000709,-0.00013600,0.00015472,0.000080
 76,-0.00003821,0.00003370,0.00019641,-0.00020505,0.00003463,0.00033211
 ,-0.00000093,-0.00011596,-0.00001084,-0.00001108,0.00001216,-0.0000517
 2,0.00002026,0.00002922,-0.00032567,0.00017856,0.00029826,0.00006838,0
 .00000521,-0.00016908,-0.00001890,0.00002593,-0.00002590,-0.00002099,0
 .00001881,-0.00002118,0.00062336,-0.00071424,0.00031493,-0.00055212,0.
 00034429,-0.00008919,-0.00035079,-0.00025657,-0.00019664,-0.00011647,0
 .00014067,0.00000679,-0.00012712,-0.00003250,-0.00014157,-0.00040425,0
 .00040490,-0.00002135,0.00008494,-0.00001376,0.00007204,0.00006775,-0.
 00000130,0.00012010,0.00006073,-0.00000386,0.00000428,0.00008678,-0.00
 008817,0.00001426,-0.00003381,0.00010888,-0.00002840,0.00019727,-0.000
 08882,0.00008314,0.00018681,0.00011621,0.00010673,0.00045015,0.0000915
 6,0.00023291,0.00060904,0.00104359,0.00046083,-0.00000774,-0.00006704,
 -0.00004107,-0.00020476,-0.00017891,-0.00011050,-0.00282753,-0.0004507
 1,0.00083066,-0.00003854,-0.00036413,-0.00036511,-0.00007661,-0.000020
 41,0.00002234,-0.00005658,-0.00007273,-0.00005200,-0.00015211,0.000035
 23,-0.00034074,0.00005854,0.00000786,0.00003845,0.00010966,-0.00001392
 ,0.00005751,-0.00015591,-0.00056669,0.00097989,0.00010663,0.00039943,0
 .00021953,-0.00001065,-0.00014129,-0.00005655,0.00035168,0.00107414,-0
 .00200043,0.00004286,-0.00263530,0.00012111,-0.00005172,-0.00002401,0.
 00014891,-0.00023618,0.00146341,-0.00091916,0.00007000,-0.00068886,0.0
 0017617,0.00004367,-0.00012391,-0.00008250,-0.00772066,0.00973721,-0.0
 0012492,0.00070220,0.00010027,-0.00376975,0.00004275,-0.00014560,-0.00
 003968,0.08259317,-0.19882753,0.11416672,0.01579064,-0.02432521,0.0189
 9357,-0.08798207,0.21237292,-0.00055211,0.00038866,0.00012428,0.001420
 90,0.00062741,-0.00016912,0.00001589,-0.00153344,0.00010169,0.00847210
 ,-0.00012421,-0.00740325,-0.00108539,0.00097190,0.00085029,0.00096601,
 -0.00088114,0.00015107,-0.00029385,-0.00003596,0.00022807,-0.00010622,
 -0.00014336,-0.00017138,-0.00040687,0.00022315,0.00037363,0.00002731,-
 0.00005870,-0.00014690,0.00007401,0.00006052,0.00004773,0.00005940,-0.
 00051020,0.00164223,0.00406764,-0.00145370,0.00312962,-0.00141615,0.00
 198910,-0.00173273,-0.00157609,0.00022593,0.00012101,-0.00028463,0.000
 35867,0.00008591,-0.00000709,-0.00007919,0.00022718,0.00002572,-0.0000
 1667,-0.00004726,-0.00005340,-0.00017673,0.00045714,-0.00010039,0.0000
 2265,-0.00007991,-0.00027169,0.00017540,-0.00061012,-0.00415837,-0.002
 03796,0.00161234,0.00060036,-0.00029762,0.00081584,-0.00002987,0.00010
 071,-0.00040740,0.00005333,-0.00006671,0.00041310,0.00010935,0.0000830
 7,0.00005065,0.00065476,-0.00032280,-0.00038105,0.00005454,-0.00003560
 ,0.00014891,0.00013721,0.00005628,0.00015287,-0.00000682,0.00001677,-0
 .00003918,0.00003857,0.00004790,0.00000722,-0.00002533,0.00000604,0.00
 000472,-0.00003295,0.00005619,-0.00002164,-0.00000969,0.00000220,-0.00
 003962,-0.00021520,0.00019016,-0.00022499,-0.00024799,-0.00002365,-0.0
 0005226,-0.00006406,-0.00006536,-0.00043296,-0.00026886,-0.00002496,0.
 00007154,-0.00002849,0.00002556,-0.00002590,0.00004555,-0.00003006,-0.
 00001425,0.00008230,-0.00008352,-0.00052712,0.00019382,-0.00027765,0.0
 0027049,0.00002470,-0.00007633,0.00003710,0.00003371,-0.00000558,0.000
 03814,0.00028234,0.00055617,-0.00077662,-0.00035403,-0.00042971,0.0005
 7487,0.00055418,0.00028432,0.00039067,0.00005218,-0.00011962,0.0002568
 8,0.00012249,0.00020225,0.00040742,-0.00014326,0.00001898,0.00039352,0
 .00004205,0.00005261,-0.00009857,-0.00012201,0.00001627,-0.00007073,-0
 .00009254,-0.00002885,-0.00003354,0.00001579,0.00007683,-0.00007809,0.
 00011762,-0.00009089,0.00007222,-0.00025545,0.00002892,-0.00047625,-0.
 00018888,-0.00013805,-0.00042243,0.00047081,0.00019127,-0.00088430,-0.
 00048559,-0.00091202,-0.00056552,-0.00005854,0.00007886,-0.00002904,0.
 00021582,0.00014395,0.00014644,0.00321407,0.00036565,-0.00150195,0.000
 08753,0.00049148,0.00089743,0.00009488,0.00004427,0.00003401,0.0000608
 0,0.00002773,0.00024452,-0.00030995,-0.00007778,0.00070252,0.00010124,
 0.00010238,-0.00012239,-0.00012558,-0.00005325,-0.00010189,-0.00026316
 ,-0.00034469,0.00022249,0.00012595,0.00017984,0.00004497,0.00000767,0.
 00028090,0.00004376,0.00058025,0.00006821,-0.00046453,0.00013916,-0.00
 118076,0.00194363,-0.00000642,-0.00000808,0.00001542,-0.00114506,-0.00
 029561,0.00029293,0.00011137,0.00056876,0.00050241,-0.00012299,-0.0001
 8260,-0.00018595,-0.01064841,0.01818765,-0.02034692,0.00192353,-0.0011
 2963,-0.00285469,-0.00000014,0.00045135,0.00150895,-0.07077131,0.12035
 364,-0.16136623,0.00728117,-0.00992619,0.01153610,0.06787610,-0.119836
 60,0.16657702,-0.00065037,0.00023982,0.00002694,0.00175711,-0.00008334
 ,0.00026821,-0.00063982,0.00031690,-0.00038546,0.00251916,-0.00004673,
 -0.00172217,-0.00004981,0.00022632,0.00017009,0.00045372,-0.00026710,0
 .00001131,-0.00012215,-0.00004543,0.00000845,-0.00007353,0.00001164,-0
 .00015065,0.00011337,-0.00012611,-0.00002536,0.00001802,-0.00005290,-0
 .00003182,0.00003457,0.00000779,0.00006097,-0.00031501,-0.00014583,0.0
 0043367,-0.00032280,-0.00165059,0.00349307,-0.00163905,0.00065534,0.00
 203374,-0.00156119,0.00002746,-0.00031880,0.00007033,0.00007431,0.0001
 2560,-0.00001663,-0.00002720,0.00009050,0.00000422,-0.00001448,-0.0000
 1928,-0.00022825,-0.00001930,0.00004183,0.00000162,-0.00001063,-0.0000
 0914,0.00000979,0.00003931,-0.00020546,-0.00041558,0.00002402,-0.00000
 260,0.00222052,0.00014373,0.00184253,0.00068034,0.00002281,-0.00155444
 ,-0.00043215,-0.00067437,0.00104917,-0.00005049,0.00009763,0.00034032,
 0.00039222,-0.00025619,-0.00018146,0.00028815,0.00009289,0.00031015,0.
 00004014,0.00086893,0.00059712,0.00013480,0.00008495,-0.00011886,0.000
 02336,-0.00000353,-0.00002574,-0.00004034,0.00000469,-0.00004762,-0.00
 005534,0.00001388,-0.00008093,0.00011122,-0.00009798,-0.00016262,-0.00
 046001,-0.00012594,-0.00050810,0.00002484,0.00000993,-0.00046079,0.000
 11276,0.00031331,-0.00072770,-0.00100268,0.00021873,0.00035608,-0.0000
 7057,0.00018887,-0.00003075,0.00019649,-0.00015704,-0.00018396,-0.0003
 4779,-0.00248355,-0.00192540,0.00085989,-0.00026119,0.00025578,0.00009
 824,0.00006610,0.00009326,-0.00003860,-0.00006198,0.00015370,-0.002239
 49,0.00327119,0.00002815,0.00205009,-0.00258953,-0.00037530,0.00040865
 ,-0.00006627,0.00023112,0.00038052,-0.00068477,0.00025321,-0.00045651,
 0.00013479,0.00073527,0.00164020,-0.00186207,0.00057079,-0.00010770,0.
 00021848,-0.00012652,-0.00006022,0.00001656,-0.00008879,-0.00008260,0.
 00004698,-0.00004642,-0.00020206,0.00082643,-0.00008559,0.00013253,-0.
 00021638,0.00044385,-0.00034829,0.00053977,-0.00056456,-0.00035332,0.0
 0052408,-0.00016803,-0.00195853,0.00050738,0.00124785,-0.00557864,-0.0
 1015311,-0.00736039,0.00058421,0.00094592,0.00101377,0.00232782,0.0018
 7174,0.00124521,0.00467171,-0.00333264,-0.00279738,0.00481316,0.007779
 13,0.00460506,0.00010008,-0.00006119,-0.00002939,0.00014094,-0.0000074
 6,-0.00002508,0.00058076,-0.00007994,-0.00103939,-0.00014185,-0.000092
 06,0.00015977,0.00012350,0.00007579,-0.00000314,0.00029328,0.00021330,
 0.00013501,-0.00014502,-0.00008625,-0.00003994,-0.00008512,-0.00026954
 ,-0.00003489,-0.00083040,-0.00017119,-0.00000558,0.00011536,0.00047703
 ,-0.00024663,-0.00016800,0.00007600,-0.00001762,0.00191508,0.00162933,
 -0.00090097,-0.00006644,-0.00087778,-0.00041652,-0.00023234,-0.0000316
 9,0.00019768,-0.00047399,0.00143903,0.01045986,0.00061601,-0.00016877,
 -0.00125417,0.00187207,-0.00048247,-0.00278644,-0.32224194,-0.02167750
 ,0.01972687,-0.00640424,-0.00151654,-0.00187875,-0.01089987,0.00282622
 ,-0.00429939,0.32867791,-0.00001617,-0.00026327,0.00013068,0.00001765,
 0.00000435,-0.00009161,-0.00046681,0.00084985,-0.00012679,0.00062796,0
 .00010550,0.00058286,-0.00012907,-0.00013463,0.00012381,-0.00001687,0.
 00016298,0.00009567,0.00001624,-0.00000076,-0.00003626,0.00003919,-0.0
 0012237,0.00005960,-0.00022300,-0.00014141,0.00025379,0.00001727,-0.00
 005462,0.00001128,-0.00001752,0.00000068,0.00000413,-0.00008584,-0.000
 00231,-0.00020794,-0.00062784,-0.00064661,0.00061761,0.00070653,-0.001
 14859,0.00112971,0.00005769,-0.00015853,0.00005742,0.00000027,-0.00000
 689,0.00000481,0.00000331,0.00000496,-0.00001247,0.00000423,-0.0000180
 5,0.00000744,0.00000587,-0.00001118,-0.00003408,0.00000099,0.00000770,
 0.00000866,-0.00003262,0.00000664,0.00004135,0.00005906,0.00002959,-0.
 00004596,0.00025549,0.00046810,-0.00108455,-0.00013369,-0.00029080,0.0
 0014229,0.00008189,0.00050634,0.00002137,-0.00001124,-0.00000209,0.000
 00664,-0.00002341,0.00005546,-0.00000123,0.00002383,0.00005758,-0.0000
 6181,-0.00005141,0.00007404,0.00002428,-0.00001085,-0.00004796,-0.0000
 0722,-0.00000647,0.00000649,0.00002963,0.00000176,-0.00001032,0.000003
 22,-0.00000174,-0.00000433,0.00000803,-0.00001694,-0.00002906,0.000018
 30,-0.00002762,-0.00007242,0.00011492,0.00000326,-0.00004321,0.0000139
 7,0.00031318,-0.00033030,-0.00024010,0.00045129,0.00000964,-0.00006325
 ,-0.00001271,-0.00000426,-0.00000387,-0.00008151,0.00002233,0.00005036
 ,-0.00066726,0.00002975,0.00021959,0.00004190,-0.00004247,-0.00023059,
 -0.00001092,-0.00000620,-0.00001701,-0.00000590,0.00001476,-0.00000588
 ,0.00114606,0.00153612,-0.00028487,0.00058003,-0.00112940,0.00003017,-
 0.00009925,-0.00004286,0.00016846,-0.00012659,0.00004036,0.00020465,-0
 .00017435,-0.00002441,0.00004954,-0.00223786,0.00060262,0.00020975,0.0
 0006969,0.00030496,-0.00000711,0.00003215,-0.00000591,0.00003969,0.000
 01202,-0.00000103,-0.00000307,0.00033685,-0.00019788,-0.00001001,-0.00
 000636,0.00007403,0.00009099,0.00008533,-0.00006419,-0.00016395,0.0000
 5611,0.00020267,-0.00021362,-0.00007936,0.00019338,0.00012230,-0.00091
 832,0.00221037,0.00259768,-0.00005156,0.00001223,-0.00031962,-0.000501
 76,-0.00053281,-0.00031752,-0.00351346,-0.01051685,-0.00381253,0.00310
 703,0.00045397,-0.00003131,-0.00003003,-0.00000415,0.00004004,0.000020
 37,-0.00006299,0.00004791,0.00005984,-0.00012424,-0.00018236,-0.000012
 14,0.00005602,0.00000867,-0.00005699,-0.00002084,-0.00004229,-0.000000
 04,-0.00005464,0.00002265,0.00000231,0.00001104,0.00002159,-0.00000714
 ,0.00002142,-0.00000592,-0.00011387,-0.00039293,-0.00007452,0.00026962
 ,-0.00006828,0.00012167,-0.00017817,0.00012456,0.00012001,0.00197813,0
 .00040632,-0.00014106,-0.00040978,-0.00005084,0.00015907,-0.00062085,-
 0.00001945,-0.00053504,0.00377102,-0.00009185,0.00015136,-0.00076160,-
 0.00023974,0.00070185,0.00027297,0.00032872,-0.00061710,-0.01542169,-0
 .06345821,0.00109694,-0.03641344,-0.00170509,0.00289294,0.02601359,0.0
 0405457,-0.00528515,0.02387005,0.06935114,-0.00004340,-0.00035858,0.00
 030235,0.00004669,-0.00002009,-0.00032471,-0.00045176,0.00098806,-0.00
 115475,-0.00164434,0.00013103,0.00027495,0.00021719,0.00010742,-0.0003
 7450,-0.00004056,0.00023375,-0.00001718,0.00002542,-0.00000548,-0.0000
 2015,0.00008070,-0.00005957,0.00021385,0.00023697,0.00031897,-0.000146
 26,0.00002308,-0.00009156,0.00005802,0.00001049,0.00000561,-0.00001569
 ,0.00023429,-0.00013774,0.00015709,0.00104261,0.00091286,-0.00187617,0
 .00100409,0.00045618,0.00204766,-0.00019120,-0.00005329,0.00036097,-0.
 00003616,0.00001615,-0.00006277,0.00000600,0.00000969,-0.00000461,0.00
 000887,-0.00001349,0.00000741,0.00006806,-0.00003906,0.00006448,-0.000
 01532,0.00001247,-0.00001175,0.00001842,0.00003286,-0.00003279,-0.0000
 0786,-0.00007819,0.00009960,0.00096287,-0.00104042,-0.00284763,-0.0001
 2298,-0.00001305,0.00010466,0.00013254,0.00011215,-0.00010507,0.000063
 86,0.00003166,-0.00005519,0.00023965,-0.00006453,-0.00010414,-0.000005
 88,0.00000942,-0.00001974,0.00003187,-0.00011876,-0.00004934,-0.000031
 33,-0.00000818,0.00001334,-0.00000091,0.00002014,0.00000580,-0.0000315
 6,0.00001059,0.00003282,-0.00001035,0.00001659,0.00000526,-0.00003206,
 0.00000372,0.00002228,-0.00001662,0.00006216,0.00007006,-0.00009788,-0
 .00002545,0.00008845,-0.00009919,-0.00012435,0.00000819,0.00029134,-0.
 00001773,-0.00006260,-0.00002953,-0.00002582,-0.00000100,-0.00005874,0
 .00002874,0.00004982,-0.00033401,0.00043713,0.00011908,0.00006740,-0.0
 0020572,-0.00006623,-0.00002208,-0.00003996,-0.00001210,0.00001709,0.0
 0001617,-0.00002425,0.00019599,-0.00064656,-0.00052467,-0.00040650,0.0
 0039276,0.00010504,0.00003640,0.00014238,0.00008139,-0.00008849,0.0001
 1948,-0.00002530,0.00022572,0.00015340,0.00004234,-0.00018321,0.000328
 76,0.00017978,0.00002390,-0.00005884,0.00000147,-0.00003852,0.00000482
 ,-0.00000754,-0.00000593,-0.00003578,0.00000281,0.00002054,-0.00015531
 ,-0.00001407,0.00004671,0.00006842,-0.00018553,0.00003110,-0.00010940,
 -0.00000144,0.00004125,-0.00014355,-0.00009489,0.00046832,-0.00007344,
 -0.00046462,-0.00110272,0.00313600,0.00216185,-0.00052121,-0.00025368,
 -0.00040590,-0.00075468,-0.00067402,-0.00056490,-0.00159649,-0.0036042
 2,-0.00724280,0.00078137,-0.00016460,-0.00105715,-0.00001069,0.0000258
 6,0.00001060,-0.00002123,0.00000217,0.00005781,-0.00009846,-0.00007113
 ,0.00041161,0.00002084,0.00005293,-0.00006805,-0.00008798,-0.00002426,
 -0.00003816,-0.00010529,-0.00009476,-0.00007773,0.00005081,0.00000047,
 -0.00000008,0.00001646,0.00010616,0.00001039,-0.00002996,-0.00022029,0
 .00021667,-0.00007942,-0.00003424,0.00005203,-0.00014025,0.00021289,-0
 .00010687,0.00082847,0.00052942,0.00148340,-0.00040549,0.00050565,0.00
 029104,-0.00096463,-0.00098611,-0.00038367,0.03519230,0.00242821,-0.00
 376314,0.00000822,0.00077441,0.00076392,0.00077642,-0.00069014,-0.0059
 2685,0.02107650,0.00151871,-0.06483957,-0.01444448,0.00053754,0.001657
 47,-0.02091546,-0.00607091,0.00493572,-0.01934599,0.00163831,0.0766100
 8\\-0.00000716,0.00002637,-0.00002260,0.00000926,-0.00002120,0.0000421
 1,-0.00000475,-0.00001640,-0.00002194,0.00001185,0.00002506,-0.0000227
 8,-0.00000153,-0.00000583,0.00002032,0.00001359,-0.00001181,-0.0000007
 8,0.00000026,0.00001039,-0.00000569,0.00000264,0.00000370,-0.00000244,
 -0.00000024,-0.00000168,0.00000095,0.00000447,0.00000153,-0.00000579,-
 0.00000296,0.00000082,-0.00000142,-0.00000946,-0.00000604,0.00000630,-
 0.00000398,-0.00001236,0.00001826,-0.00000268,0.00000939,0.00001001,-0
 .00001541,0.00000137,-0.00000586,-0.00001436,0.00000033,-0.00001390,0.
 00000320,0.00000454,0.00000128,0.00000488,0.00000275,0.00000082,0.0000
 3737,0.00001091,0.00001077,-0.00001492,-0.00000879,-0.00000274,0.00000
 195,0.00001135,-0.00001407,0.00000395,0.00000373,-0.00000883,0.0000050
 7,-0.00000313,-0.00000505,0.00000641,-0.00000147,0.00000809,0.00000140
 ,-0.00000735,-0.00001879,0.00000422,-0.00000559,-0.00001333,0.00001077
 ,-0.00000031,0.00000566,-0.00002083,-0.00001017,-0.00000812,0.00001023
 ,-0.00001021,0.00000462,-0.00000331,-0.00000367,0.00000678,0.00000208,
 -0.00000347,0.00000344,0.00000239,-0.00000043,0.00000045,0.00000326,0.
 00000151,0.00000194,-0.00000590,0.00000047,0.00000111,0.00001679,0.000
 01087,-0.00000261,-0.00000436,0.00000271,0.00000556,-0.00000611,0.0000
 1312,0.00001193,-0.00000509,-0.00000136,0.00000827,-0.00000163,-0.0000
 0110,0.00000093,0.00000221,-0.00000230,-0.00000024,0.00000531,0.000011
 06,-0.00001355,-0.00000179,-0.00000050,-0.00000469,0.00000297,-0.00000
 155,0.00000349,0.00000297,0.00000189,0.00000409,0.00001227,-0.00000230
 ,0.00002050,0.00002849,-0.00000895,-0.00001248,-0.00001164,0.00000523,
 0.00000857,0.00001231,-0.00000037,-0.00000921,0.00001175,-0.00001742,-
 0.00000484,-0.00001270,0.00001671,0.00001534,-0.00000339,-0.00000068,-
 0.00000353,-0.00000050,0.00000390,0.00000122,-0.00000364,0.00000291,0.
 00000487,-0.00000214,-0.00000140,-0.00000340,0.00000482,0.00000367,0.0
 0000475,-0.00000307,-0.00000734,0.00000521,0.00000443,-0.00000245,0.00
 000222,-0.00001939,-0.00000022,0.00000484,0.00000550,-0.00000585,-0.00
 000667,-0.00000183,-0.00000324,0.,-0.00000195,-0.00000209,0.00000387,-
 0.00000817,0.00002368,0.00000840,-0.00000326,-0.00000885,-0.00000229,0
 .00000129,0.00000411,0.00000395,-0.00000248,0.00000265,0.00000068,0.00
 000214,-0.00000046,-0.00000388,-0.00000041,-0.00000027,0.00000252,-0.0
 0000293,-0.00000216,0.00000272,-0.00000463,0.00000108,0.00000207,0.000
 00063,-0.00000104,-0.00000212,-0.00000255,-0.00000279,-0.00000167,0.00
 000039,-0.00000521,-0.00000045,0.00000022,-0.00000075,-0.00000175,-0.0
 0000020,0.00000041,0.00000119,-0.00000533,0.00000187,-0.00001245,-0.00
 000327,-0.00000270,0.00000051,-0.00000232,-0.00000133,0.00000145,-0.00
 000561,0.00000672,0.00001595,-0.00000211,-0.00000059,-0.00000207,0.000
 00039,-0.00000015,-0.00000794,0.00002924,-0.00006531,-0.00004457,-0.00
 002377,-0.00000636,0.00001202,-0.00001653,0.00003034,0.00002503,-0.000
 01308,0.00002986,-0.00001049\\\@


 MARY HAD A LITTLE LAMB
      HIS FEET WERE BLACK AS SOOT,
           AND EVERYWHERE THAT MARY WENT
                HIS SOOTY FOOT HE PUT.

                    -- NONAME
 Job cpu time:      22 days 20 hours  9 minutes 16.8 seconds.
 File lengths (MBytes):  RWF=  17288 Int=      0 D2E=      0 Chk=    104 Scr=      1
 Normal termination of Gaussian 09 at Thu Apr 28 18:41:04 2016.
