 Entering Gaussian System, Link 0=g09
 Initial command:
 /share/apps//g09/l1.exe "/scratch/Gau-14804.inp" -scrdir="/scratch/"
 Entering Link 1 = /share/apps//g09/l1.exe PID=     14805.
  
 Copyright (c) 1988,1990,1992,1993,1995,1998,2003,2009,2013,
            Gaussian, Inc.  All Rights Reserved.
  
 This is part of the Gaussian(R) 09 program.  It is based on
 the Gaussian(R) 03 system (copyright 2003, Gaussian, Inc.),
 the Gaussian(R) 98 system (copyright 1998, Gaussian, Inc.),
 the Gaussian(R) 94 system (copyright 1995, Gaussian, Inc.),
 the Gaussian 92(TM) system (copyright 1992, Gaussian, Inc.),
 the Gaussian 90(TM) system (copyright 1990, Gaussian, Inc.),
 the Gaussian 88(TM) system (copyright 1988, Gaussian, Inc.),
 the Gaussian 86(TM) system (copyright 1986, Carnegie Mellon
 University), and the Gaussian 82(TM) system (copyright 1983,
 Carnegie Mellon University). Gaussian is a federally registered
 trademark of Gaussian, Inc.
  
 This software contains proprietary and confidential information,
 including trade secrets, belonging to Gaussian, Inc.
  
 This software is provided under written license and may be
 used, copied, transmitted, or stored only in accord with that
 written license.
  
 The following legend is applicable only to US Government
 contracts under FAR:
  
                    RESTRICTED RIGHTS LEGEND
  
 Use, reproduction and disclosure by the US Government is
 subject to restrictions as set forth in subparagraphs (a)
 and (c) of the Commercial Computer Software - Restricted
 Rights clause in FAR 52.227-19.
  
 Gaussian, Inc.
 340 Quinnipiac St., Bldg. 40, Wallingford CT 06492
  
  
 ---------------------------------------------------------------
 Warning -- This program may not be used in any manner that
 competes with the business of Gaussian, Inc. or will provide
 assistance to any competitor of Gaussian, Inc.  The licensee
 of this program is prohibited from giving any competitor of
 Gaussian, Inc. access to this program.  By using this program,
 the user acknowledges that Gaussian, Inc. is engaged in the
 business of creating and licensing software in the field of
 computational chemistry and represents and warrants to the
 licensee that it is not a competitor of Gaussian, Inc. and that
 it will not use this program in any manner prohibited above.
 ---------------------------------------------------------------
  

 Cite this work as:
 Gaussian 09, Revision D.01,
 M. J. Frisch, G. W. Trucks, H. B. Schlegel, G. E. Scuseria, 
 M. A. Robb, J. R. Cheeseman, G. Scalmani, V. Barone, B. Mennucci, 
 G. A. Petersson, H. Nakatsuji, M. Caricato, X. Li, H. P. Hratchian, 
 A. F. Izmaylov, J. Bloino, G. Zheng, J. L. Sonnenberg, M. Hada, 
 M. Ehara, K. Toyota, R. Fukuda, J. Hasegawa, M. Ishida, T. Nakajima, 
 Y. Honda, O. Kitao, H. Nakai, T. Vreven, J. A. Montgomery, Jr., 
 J. E. Peralta, F. Ogliaro, M. Bearpark, J. J. Heyd, E. Brothers, 
 K. N. Kudin, V. N. Staroverov, T. Keith, R. Kobayashi, J. Normand, 
 K. Raghavachari, A. Rendell, J. C. Burant, S. S. Iyengar, J. Tomasi, 
 M. Cossi, N. Rega, J. M. Millam, M. Klene, J. E. Knox, J. B. Cross, 
 V. Bakken, C. Adamo, J. Jaramillo, R. Gomperts, R. E. Stratmann, 
 O. Yazyev, A. J. Austin, R. Cammi, C. Pomelli, J. W. Ochterski, 
 R. L. Martin, K. Morokuma, V. G. Zakrzewski, G. A. Voth, 
 P. Salvador, J. J. Dannenberg, S. Dapprich, A. D. Daniels, 
 O. Farkas, J. B. Foresman, J. V. Ortiz, J. Cioslowski, 
 and D. J. Fox, Gaussian, Inc., Wallingford CT, 2013.
 
 ******************************************
 Gaussian 09:  EM64L-G09RevD.01 24-Apr-2013
                30-Apr-2016 
 ******************************************
 %nproc=20
 Will use up to   20 processors via shared memory.
 %mem=80GB
 %chk=Tri_A131_of.chk
 ----------------------------------------------------------------------
 #P PBE1PBE/6-311+G(d,p) opt=ModRedundant freq optcyc=999 EmpiricalDisp
 ersion=GD3
 ----------------------------------------------------------------------
 1/6=999,14=-1,18=120,19=15,26=3,38=1/1,3;
 2/9=110,12=2,17=6,18=5,40=1/2;
 3/5=4,6=6,7=111,11=2,16=1,25=1,30=1,71=1,74=-13,124=31/1,2,3;
 4//1;
 5/5=2,38=5/2;
 6/7=2,8=2,9=2,10=2,28=1/1;
 7//1,2,3,16;
 1/6=999,14=-1,18=20,19=15,26=3/3(2);
 2/9=110/2;
 99//99;
 2/9=110/2;
 3/5=4,6=6,7=111,11=2,16=1,25=1,30=1,71=1,74=-13,124=31/1,2,3;
 4/5=5,16=3,69=1/1;
 5/5=2,38=5/2;
 7//1,2,3,16;
 1/6=999,14=-1,18=20,19=15,26=3/3(-5);
 2/9=110/2;
 6/7=2,8=2,9=2,10=2,19=2,28=1/1;
 99/9=1/99;
 Leave Link    1 at Sat Apr 30 09:04:33 2016, MaxMem= 10737418240 cpu:         2.5
 (Enter /share/apps//g09/l101.exe)
 -----
 trich
 -----
 Symbolic Z-matrix:
 Charge =  1 Multiplicity = 1
 O                    -0.7203   -0.28055   7.31116 
 C                    -1.30657  -0.8008    6.14091 
 C                    -0.28899  -1.00609   5.00705 
 C                     0.87938  -1.87584   5.50447 
 C                     1.48634  -1.26985   6.77311 
 C                     0.38468  -1.05587   7.82406 
 H                    -2.07309  -0.06456   5.85418 
 H                     0.1092   -0.01399   4.74482 
 H                     0.526    -2.89883   5.70149 
 H                     2.21806  -1.98767   7.19849 
 H                     0.02804  -2.05988   8.12354 
 O                     2.15525  -0.08685   6.33845 
 O                     1.90138  -2.00876   4.49987 
 O                    -0.89999  -1.53985   3.83385 
 O                    -1.9093   -2.08798   6.3344 
 C                     0.86356  -0.38146   9.1005 
 H                    -0.00886  -0.20177   9.75041 
 H                     1.55484  -1.07143   9.61564 
 O                     1.5193    0.85663   8.77759 
 H                     1.845     1.26841   9.59462 
 H                     2.20866   0.51959   7.10972 
 H                     2.42098  -1.17871   4.52749 
 H                    -1.68068  -2.07997   4.09486 
 O                    -3.34064  -4.39963   5.88965 
 C                    -3.1577   -4.67094   7.29407 
 C                    -2.92929  -3.35314   8.10106 
 C                    -3.05933  -2.11844   7.19782 
 C                    -4.37279  -2.19486   6.40742 
 C                    -4.47078  -3.54171   5.62202 
 H                    -4.07354  -5.1532    7.68295 
 H                    -1.91815  -3.36624   8.52822 
 H                    -3.0625   -1.22648   7.84348 
 H                    -5.18524  -2.17027   7.15015 
 H                    -5.38264  -4.07629   5.95239 
 O                    -4.51746  -1.07594   5.507 
 O                    -3.913    -3.22165   9.13284 
 O                    -2.15594  -5.64254   7.43632 
 C                    -4.55818  -3.38952   4.10552 
 H                    -4.49897  -4.39034   3.65442 
 H                    -5.53549  -2.95613   3.84295 
 O                    -3.49318  -2.61659   3.53976 
 H                    -3.70742  -1.69113   3.77582 
 H                    -5.06766  -0.40004   5.93379 
 H                    -3.62022  -3.7406    9.90108 
 O                     0.94612  -5.91144   5.47513 
 C                     1.93309  -6.16132   6.49959 
 C                     1.62073  -5.25566   7.69369 
 C                     0.16083  -5.41347   8.15845 
 C                    -0.82793  -5.28426   6.99832 
 C                    -0.38332  -6.25678   5.88372 
 H                     1.86926  -7.24042   6.78113 
 H                     1.77666  -4.22201   7.3484 
 H                     0.02576  -6.42641   8.59235 
 H                    -0.40467  -7.28974   6.29062 
 H                    -0.82182  -4.25491   6.60673 
 O                    -0.11692  -4.42879   9.1578 
 O                     2.49947  -5.40741   8.80939 
 O                     3.17542  -5.83291   5.99653 
 C                    -1.25653  -6.25542   4.63654 
 H                    -0.81619  -6.94662   3.90407 
 H                    -2.26251  -6.61576   4.89475 
 O                    -1.34036  -4.97214   4.00372 
 H                    -2.01201  -4.4587    4.5078 
 H                     0.62277  -4.48702   9.79326 
 H                     2.62406  -6.35753   8.99207 
 C                     3.67673  -6.73921   4.97944 
 H                     4.39923  -7.42406   5.45325 
 H                     2.84403  -7.33678   4.57731 
 C                     4.35567  -5.92861   3.88168 
 H                     4.77124  -6.64034   3.14844 
 H                     5.21556  -5.40033   4.32146 
 C                     3.45043  -4.90006   3.18641 
 H                     3.06494  -4.21555   3.9572 
 H                     4.07493  -4.29096   2.5118 
 C                     2.29493  -5.51218   2.38158 
 H                     2.69495  -6.19109   1.61075 
 H                     1.65485  -6.12402   3.03642 
 C                     1.42087  -4.49036   1.65781 
 H                     0.68331  -4.98871   1.01474 
 H                     2.02443  -3.82135   1.02758 
 N                     0.65315  -3.62763   2.61651 
 H                     0.06264  -2.9283    2.14725 
 H                     1.27129  -3.06283   3.2498 
 H                    -0.00893  -4.19025   3.21783 
 
 The following ModRedundant input section has been read:
 B      45      84 B                                                           
 B      58      84 B                                                           
 B      56      84 B                                                           
 B      41      82 B                                                           
 B      62      82 B                                                           
 B      35      82 B                                                           
 B      13      83 B                                                           
 B      19      83 B                                                           
 B      14      83 B                                                           
 
 NAtoms=     84 NQM=       84 NQMF=       0 NMMI=      0 NMMIF=      0
                NMic=       0 NMicF=      0.
                    Isotopes and Nuclear Properties:
 (Nuclear quadrupole moments (NQMom) in fm**2, nuclear magnetic moments (NMagM)
  in nuclear magnetons)

  Atom         1           2           3           4           5           6           7           8           9          10
 IAtWgt=          16          12          12          12          12          12           1           1           1           1
 AtmWgt=  15.9949146  12.0000000  12.0000000  12.0000000  12.0000000  12.0000000   1.0078250   1.0078250   1.0078250   1.0078250
 NucSpn=           0           0           0           0           0           0           1           1           1           1
 AtZEff=   0.0000000   0.0000000   0.0000000   0.0000000   0.0000000   0.0000000   0.0000000   0.0000000   0.0000000   0.0000000
 NQMom=    0.0000000   0.0000000   0.0000000   0.0000000   0.0000000   0.0000000   0.0000000   0.0000000   0.0000000   0.0000000
 NMagM=    0.0000000   0.0000000   0.0000000   0.0000000   0.0000000   0.0000000   2.7928460   2.7928460   2.7928460   2.7928460
 AtZNuc=   8.0000000   6.0000000   6.0000000   6.0000000   6.0000000   6.0000000   1.0000000   1.0000000   1.0000000   1.0000000

  Atom        11          12          13          14          15          16          17          18          19          20
 IAtWgt=           1          16          16          16          16          12           1           1          16           1
 AtmWgt=   1.0078250  15.9949146  15.9949146  15.9949146  15.9949146  12.0000000   1.0078250   1.0078250  15.9949146   1.0078250
 NucSpn=           1           0           0           0           0           0           1           1           0           1
 AtZEff=   0.0000000   0.0000000   0.0000000   0.0000000   0.0000000   0.0000000   0.0000000   0.0000000   0.0000000   0.0000000
 NQMom=    0.0000000   0.0000000   0.0000000   0.0000000   0.0000000   0.0000000   0.0000000   0.0000000   0.0000000   0.0000000
 NMagM=    2.7928460   0.0000000   0.0000000   0.0000000   0.0000000   0.0000000   2.7928460   2.7928460   0.0000000   2.7928460
 AtZNuc=   1.0000000   8.0000000   8.0000000   8.0000000   8.0000000   6.0000000   1.0000000   1.0000000   8.0000000   1.0000000

  Atom        21          22          23          24          25          26          27          28          29          30
 IAtWgt=           1           1           1          16          12          12          12          12          12           1
 AtmWgt=   1.0078250   1.0078250   1.0078250  15.9949146  12.0000000  12.0000000  12.0000000  12.0000000  12.0000000   1.0078250
 NucSpn=           1           1           1           0           0           0           0           0           0           1
 AtZEff=   0.0000000   0.0000000   0.0000000   0.0000000   0.0000000   0.0000000   0.0000000   0.0000000   0.0000000   0.0000000
 NQMom=    0.0000000   0.0000000   0.0000000   0.0000000   0.0000000   0.0000000   0.0000000   0.0000000   0.0000000   0.0000000
 NMagM=    2.7928460   2.7928460   2.7928460   0.0000000   0.0000000   0.0000000   0.0000000   0.0000000   0.0000000   2.7928460
 AtZNuc=   1.0000000   1.0000000   1.0000000   8.0000000   6.0000000   6.0000000   6.0000000   6.0000000   6.0000000   1.0000000

  Atom        31          32          33          34          35          36          37          38          39          40
 IAtWgt=           1           1           1           1          16          16          16          12           1           1
 AtmWgt=   1.0078250   1.0078250   1.0078250   1.0078250  15.9949146  15.9949146  15.9949146  12.0000000   1.0078250   1.0078250
 NucSpn=           1           1           1           1           0           0           0           0           1           1
 AtZEff=   0.0000000   0.0000000   0.0000000   0.0000000   0.0000000   0.0000000   0.0000000   0.0000000   0.0000000   0.0000000
 NQMom=    0.0000000   0.0000000   0.0000000   0.0000000   0.0000000   0.0000000   0.0000000   0.0000000   0.0000000   0.0000000
 NMagM=    2.7928460   2.7928460   2.7928460   2.7928460   0.0000000   0.0000000   0.0000000   0.0000000   2.7928460   2.7928460
 AtZNuc=   1.0000000   1.0000000   1.0000000   1.0000000   8.0000000   8.0000000   8.0000000   6.0000000   1.0000000   1.0000000

  Atom        41          42          43          44          45          46          47          48          49          50
 IAtWgt=          16           1           1           1          16          12          12          12          12          12
 AtmWgt=  15.9949146   1.0078250   1.0078250   1.0078250  15.9949146  12.0000000  12.0000000  12.0000000  12.0000000  12.0000000
 NucSpn=           0           1           1           1           0           0           0           0           0           0
 AtZEff=   0.0000000   0.0000000   0.0000000   0.0000000   0.0000000   0.0000000   0.0000000   0.0000000   0.0000000   0.0000000
 NQMom=    0.0000000   0.0000000   0.0000000   0.0000000   0.0000000   0.0000000   0.0000000   0.0000000   0.0000000   0.0000000
 NMagM=    0.0000000   2.7928460   2.7928460   2.7928460   0.0000000   0.0000000   0.0000000   0.0000000   0.0000000   0.0000000
 AtZNuc=   8.0000000   1.0000000   1.0000000   1.0000000   8.0000000   6.0000000   6.0000000   6.0000000   6.0000000   6.0000000

  Atom        51          52          53          54          55          56          57          58          59          60
 IAtWgt=           1           1           1           1           1          16          16          16          12           1
 AtmWgt=   1.0078250   1.0078250   1.0078250   1.0078250   1.0078250  15.9949146  15.9949146  15.9949146  12.0000000   1.0078250
 NucSpn=           1           1           1           1           1           0           0           0           0           1
 AtZEff=   0.0000000   0.0000000   0.0000000   0.0000000   0.0000000   0.0000000   0.0000000   0.0000000   0.0000000   0.0000000
 NQMom=    0.0000000   0.0000000   0.0000000   0.0000000   0.0000000   0.0000000   0.0000000   0.0000000   0.0000000   0.0000000
 NMagM=    2.7928460   2.7928460   2.7928460   2.7928460   2.7928460   0.0000000   0.0000000   0.0000000   0.0000000   2.7928460
 AtZNuc=   1.0000000   1.0000000   1.0000000   1.0000000   1.0000000   8.0000000   8.0000000   8.0000000   6.0000000   1.0000000

  Atom        61          62          63          64          65          66          67          68          69          70
 IAtWgt=           1          16           1           1           1          12           1           1          12           1
 AtmWgt=   1.0078250  15.9949146   1.0078250   1.0078250   1.0078250  12.0000000   1.0078250   1.0078250  12.0000000   1.0078250
 NucSpn=           1           0           1           1           1           0           1           1           0           1
 AtZEff=   0.0000000   0.0000000   0.0000000   0.0000000   0.0000000   0.0000000   0.0000000   0.0000000   0.0000000   0.0000000
 NQMom=    0.0000000   0.0000000   0.0000000   0.0000000   0.0000000   0.0000000   0.0000000   0.0000000   0.0000000   0.0000000
 NMagM=    2.7928460   0.0000000   2.7928460   2.7928460   2.7928460   0.0000000   2.7928460   2.7928460   0.0000000   2.7928460
 AtZNuc=   1.0000000   8.0000000   1.0000000   1.0000000   1.0000000   6.0000000   1.0000000   1.0000000   6.0000000   1.0000000

  Atom        71          72          73          74          75          76          77          78          79          80
 IAtWgt=           1          12           1           1          12           1           1          12           1           1
 AtmWgt=   1.0078250  12.0000000   1.0078250   1.0078250  12.0000000   1.0078250   1.0078250  12.0000000   1.0078250   1.0078250
 NucSpn=           1           0           1           1           0           1           1           0           1           1
 AtZEff=   0.0000000   0.0000000   0.0000000   0.0000000   0.0000000   0.0000000   0.0000000   0.0000000   0.0000000   0.0000000
 NQMom=    0.0000000   0.0000000   0.0000000   0.0000000   0.0000000   0.0000000   0.0000000   0.0000000   0.0000000   0.0000000
 NMagM=    2.7928460   0.0000000   2.7928460   2.7928460   0.0000000   2.7928460   2.7928460   0.0000000   2.7928460   2.7928460
 AtZNuc=   1.0000000   6.0000000   1.0000000   1.0000000   6.0000000   1.0000000   1.0000000   6.0000000   1.0000000   1.0000000

  Atom        81          82          83          84
 IAtWgt=          14           1           1           1
 AtmWgt=  14.0030740   1.0078250   1.0078250   1.0078250
 NucSpn=           2           1           1           1
 AtZEff=   0.0000000   0.0000000   0.0000000   0.0000000
 NQMom=    2.0440000   0.0000000   0.0000000   0.0000000
 NMagM=    0.4037610   2.7928460   2.7928460   2.7928460
 AtZNuc=   7.0000000   1.0000000   1.0000000   1.0000000
 Leave Link  101 at Sat Apr 30 09:04:34 2016, MaxMem= 10737418240 cpu:         5.2
 (Enter /share/apps//g09/l103.exe)

 GradGradGradGradGradGradGradGradGradGradGradGradGradGradGradGradGradGrad
 Berny optimization.
 Initialization pass.
                           ----------------------------
                           !    Initial Parameters    !
                           ! (Angstroms and Degrees)  !
 --------------------------                            --------------------------
 ! Name  Definition              Value          Derivative Info.                !
 --------------------------------------------------------------------------------
 ! R1    R(1,2)                  1.4085         estimate D2E/DX2                !
 ! R2    R(1,6)                  1.444          estimate D2E/DX2                !
 ! R3    R(2,3)                  1.5373         estimate D2E/DX2                !
 ! R4    R(2,7)                  1.1008         estimate D2E/DX2                !
 ! R5    R(2,15)                 1.4344         estimate D2E/DX2                !
 ! R6    R(3,4)                  1.5391         estimate D2E/DX2                !
 ! R7    R(3,8)                  1.1007         estimate D2E/DX2                !
 ! R8    R(3,14)                 1.4264         estimate D2E/DX2                !
 ! R9    R(4,5)                  1.5314         estimate D2E/DX2                !
 ! R10   R(4,9)                  1.1001         estimate D2E/DX2                !
 ! R11   R(4,13)                 1.4392         estimate D2E/DX2                !
 ! R12   R(5,6)                  1.5375         estimate D2E/DX2                !
 ! R13   R(5,10)                 1.1098         estimate D2E/DX2                !
 ! R14   R(5,12)                 1.4268         estimate D2E/DX2                !
 ! R15   R(6,11)                 1.1068         estimate D2E/DX2                !
 ! R16   R(6,16)                 1.521          estimate D2E/DX2                !
 ! R17   R(12,21)                0.9826         estimate D2E/DX2                !
 ! R18   R(13,22)                0.9797         estimate D2E/DX2                !
 ! R19   R(13,83)                1.7524         estimate D2E/DX2                !
 ! R20   R(14,23)                0.9845         estimate D2E/DX2                !
 ! R21   R(14,83)                2.7157         estimate D2E/DX2                !
 ! R22   R(15,27)                1.4384         estimate D2E/DX2                !
 ! R23   R(16,17)                1.1026         estimate D2E/DX2                !
 ! R24   R(16,18)                1.1042         estimate D2E/DX2                !
 ! R25   R(16,19)                1.4378         estimate D2E/DX2                !
 ! R26   R(19,20)                0.9712         estimate D2E/DX2                !
 ! R27   R(19,83)                6.7809         estimate D2E/DX2                !
 ! R28   R(24,25)                1.442          estimate D2E/DX2                !
 ! R29   R(24,29)                1.4439         estimate D2E/DX2                !
 ! R30   R(25,26)                1.5621         estimate D2E/DX2                !
 ! R31   R(25,30)                1.1057         estimate D2E/DX2                !
 ! R32   R(25,37)                1.4028         estimate D2E/DX2                !
 ! R33   R(26,27)                1.5353         estimate D2E/DX2                !
 ! R34   R(26,31)                1.0977         estimate D2E/DX2                !
 ! R35   R(26,36)                1.4316         estimate D2E/DX2                !
 ! R36   R(27,28)                1.5348         estimate D2E/DX2                !
 ! R37   R(27,32)                1.1011         estimate D2E/DX2                !
 ! R38   R(28,29)                1.5622         estimate D2E/DX2                !
 ! R39   R(28,33)                1.1011         estimate D2E/DX2                !
 ! R40   R(28,35)                1.4435         estimate D2E/DX2                !
 ! R41   R(29,34)                1.1074         estimate D2E/DX2                !
 ! R42   R(29,38)                1.5266         estimate D2E/DX2                !
 ! R43   R(35,43)                0.9704         estimate D2E/DX2                !
 ! R44   R(35,82)                5.9747         estimate D2E/DX2                !
 ! R45   R(36,44)                0.9722         estimate D2E/DX2                !
 ! R46   R(37,49)                1.4435         estimate D2E/DX2                !
 ! R47   R(38,39)                1.0994         estimate D2E/DX2                !
 ! R48   R(38,40)                1.1009         estimate D2E/DX2                !
 ! R49   R(38,41)                1.4324         estimate D2E/DX2                !
 ! R50   R(41,42)                0.9788         estimate D2E/DX2                !
 ! R51   R(41,82)                3.8315         estimate D2E/DX2                !
 ! R52   R(45,46)                1.4443         estimate D2E/DX2                !
 ! R53   R(45,50)                1.433          estimate D2E/DX2                !
 ! R54   R(45,84)                2.995          estimate D2E/DX2                !
 ! R55   R(46,47)                1.5309         estimate D2E/DX2                !
 ! R56   R(46,51)                1.117          estimate D2E/DX2                !
 ! R57   R(46,58)                1.38           estimate D2E/DX2                !
 ! R58   R(47,48)                1.5402         estimate D2E/DX2                !
 ! R59   R(47,52)                1.1009         estimate D2E/DX2                !
 ! R60   R(47,57)                1.4283         estimate D2E/DX2                !
 ! R61   R(48,49)                1.5298         estimate D2E/DX2                !
 ! R62   R(48,53)                1.1102         estimate D2E/DX2                !
 ! R63   R(48,56)                1.4302         estimate D2E/DX2                !
 ! R64   R(49,50)                1.5446         estimate D2E/DX2                !
 ! R65   R(49,55)                1.1013         estimate D2E/DX2                !
 ! R66   R(50,54)                1.1104         estimate D2E/DX2                !
 ! R67   R(50,59)                1.5225         estimate D2E/DX2                !
 ! R68   R(56,64)                0.9769         estimate D2E/DX2                !
 ! R69   R(56,84)                5.9457         estimate D2E/DX2                !
 ! R70   R(57,65)                0.9755         estimate D2E/DX2                !
 ! R71   R(58,66)                1.4516         estimate D2E/DX2                !
 ! R72   R(58,84)                4.5343         estimate D2E/DX2                !
 ! R73   R(59,60)                1.0992         estimate D2E/DX2                !
 ! R74   R(59,61)                1.0993         estimate D2E/DX2                !
 ! R75   R(59,62)                1.4333         estimate D2E/DX2                !
 ! R76   R(62,63)                0.9843         estimate D2E/DX2                !
 ! R77   R(62,82)                3.0971         estimate D2E/DX2                !
 ! R78   R(66,67)                1.1025         estimate D2E/DX2                !
 ! R79   R(66,68)                1.101          estimate D2E/DX2                !
 ! R80   R(66,69)                1.5242         estimate D2E/DX2                !
 ! R81   R(69,70)                1.1031         estimate D2E/DX2                !
 ! R82   R(69,71)                1.1009         estimate D2E/DX2                !
 ! R83   R(69,72)                1.5365         estimate D2E/DX2                !
 ! R84   R(72,73)                1.1006         estimate D2E/DX2                !
 ! R85   R(72,74)                1.1028         estimate D2E/DX2                !
 ! R86   R(72,75)                1.5355         estimate D2E/DX2                !
 ! R87   R(75,76)                1.1023         estimate D2E/DX2                !
 ! R88   R(75,77)                1.1013         estimate D2E/DX2                !
 ! R89   R(75,78)                1.5271         estimate D2E/DX2                !
 ! R90   R(78,79)                1.0981         estimate D2E/DX2                !
 ! R91   R(78,80)                1.0996         estimate D2E/DX2                !
 ! R92   R(78,81)                1.5009         estimate D2E/DX2                !
 ! R93   R(81,82)                1.0286         estimate D2E/DX2                !
 ! R94   R(81,83)                1.0498         estimate D2E/DX2                !
 ! R95   R(81,84)                1.0566         estimate D2E/DX2                !
 ! A1    A(2,1,6)              114.5384         estimate D2E/DX2                !
 ! A2    A(1,2,3)              112.7441         estimate D2E/DX2                !
 ! A3    A(1,2,7)              105.0231         estimate D2E/DX2                !
 ! A4    A(1,2,15)             113.2209         estimate D2E/DX2                !
 ! A5    A(3,2,7)              110.9843         estimate D2E/DX2                !
 ! A6    A(3,2,15)             104.9394         estimate D2E/DX2                !
 ! A7    A(7,2,15)             110.0418         estimate D2E/DX2                !
 ! A8    A(2,3,4)              109.8505         estimate D2E/DX2                !
 ! A9    A(2,3,8)              107.1461         estimate D2E/DX2                !
 ! A10   A(2,3,14)             111.9055         estimate D2E/DX2                !
 ! A11   A(4,3,8)              108.1621         estimate D2E/DX2                !
 ! A12   A(4,3,14)             112.3038         estimate D2E/DX2                !
 ! A13   A(8,3,14)             107.2347         estimate D2E/DX2                !
 ! A14   A(3,4,5)              110.1812         estimate D2E/DX2                !
 ! A15   A(3,4,9)              109.8473         estimate D2E/DX2                !
 ! A16   A(3,4,13)             111.4473         estimate D2E/DX2                !
 ! A17   A(5,4,9)              110.3            estimate D2E/DX2                !
 ! A18   A(5,4,13)             109.4726         estimate D2E/DX2                !
 ! A19   A(9,4,13)             105.4997         estimate D2E/DX2                !
 ! A20   A(4,5,6)              109.7154         estimate D2E/DX2                !
 ! A21   A(4,5,10)             108.8392         estimate D2E/DX2                !
 ! A22   A(4,5,12)             105.1613         estimate D2E/DX2                !
 ! A23   A(6,5,10)             107.4844         estimate D2E/DX2                !
 ! A24   A(6,5,12)             115.3882         estimate D2E/DX2                !
 ! A25   A(10,5,12)            110.117          estimate D2E/DX2                !
 ! A26   A(1,6,5)              112.348          estimate D2E/DX2                !
 ! A27   A(1,6,11)             109.6701         estimate D2E/DX2                !
 ! A28   A(1,6,16)             107.5137         estimate D2E/DX2                !
 ! A29   A(5,6,11)             106.8339         estimate D2E/DX2                !
 ! A30   A(5,6,16)             114.1891         estimate D2E/DX2                !
 ! A31   A(11,6,16)            106.0577         estimate D2E/DX2                !
 ! A32   A(5,12,21)            107.3423         estimate D2E/DX2                !
 ! A33   A(4,13,22)            106.1827         estimate D2E/DX2                !
 ! A34   A(4,13,83)            107.3472         estimate D2E/DX2                !
 ! A35   A(22,13,83)           136.094          estimate D2E/DX2                !
 ! A36   A(3,14,23)            109.0805         estimate D2E/DX2                !
 ! A37   A(3,14,83)             92.5369         estimate D2E/DX2                !
 ! A38   A(23,14,83)           112.5407         estimate D2E/DX2                !
 ! A39   A(2,15,27)            115.8442         estimate D2E/DX2                !
 ! A40   A(6,16,17)            108.5295         estimate D2E/DX2                !
 ! A41   A(6,16,18)            108.153          estimate D2E/DX2                !
 ! A42   A(6,16,19)            109.6904         estimate D2E/DX2                !
 ! A43   A(17,16,18)           108.7951         estimate D2E/DX2                !
 ! A44   A(17,16,19)           110.6654         estimate D2E/DX2                !
 ! A45   A(18,16,19)           110.9361         estimate D2E/DX2                !
 ! A46   A(16,19,20)           109.216          estimate D2E/DX2                !
 ! A47   A(16,19,83)            70.6499         estimate D2E/DX2                !
 ! A48   A(20,19,83)           160.5894         estimate D2E/DX2                !
 ! A49   A(25,24,29)           113.054          estimate D2E/DX2                !
 ! A50   A(24,25,26)           111.2828         estimate D2E/DX2                !
 ! A51   A(24,25,30)           108.6335         estimate D2E/DX2                !
 ! A52   A(24,25,37)           108.643          estimate D2E/DX2                !
 ! A53   A(26,25,30)           107.9012         estimate D2E/DX2                !
 ! A54   A(26,25,37)           115.3099         estimate D2E/DX2                !
 ! A55   A(30,25,37)           104.6993         estimate D2E/DX2                !
 ! A56   A(25,26,27)           111.231          estimate D2E/DX2                !
 ! A57   A(25,26,31)           109.0051         estimate D2E/DX2                !
 ! A58   A(25,26,36)           110.4471         estimate D2E/DX2                !
 ! A59   A(27,26,31)           108.4536         estimate D2E/DX2                !
 ! A60   A(27,26,36)           106.9737         estimate D2E/DX2                !
 ! A61   A(31,26,36)           110.7059         estimate D2E/DX2                !
 ! A62   A(15,27,26)           107.6048         estimate D2E/DX2                !
 ! A63   A(15,27,28)           112.0944         estimate D2E/DX2                !
 ! A64   A(15,27,32)           109.7016         estimate D2E/DX2                !
 ! A65   A(26,27,28)           109.5969         estimate D2E/DX2                !
 ! A66   A(26,27,32)           107.8613         estimate D2E/DX2                !
 ! A67   A(28,27,32)           109.8664         estimate D2E/DX2                !
 ! A68   A(27,28,29)           110.8246         estimate D2E/DX2                !
 ! A69   A(27,28,33)           106.4369         estimate D2E/DX2                !
 ! A70   A(27,28,35)           111.6169         estimate D2E/DX2                !
 ! A71   A(29,28,33)           108.1863         estimate D2E/DX2                !
 ! A72   A(29,28,35)           110.3896         estimate D2E/DX2                !
 ! A73   A(33,28,35)           109.2392         estimate D2E/DX2                !
 ! A74   A(24,29,28)           111.7143         estimate D2E/DX2                !
 ! A75   A(24,29,34)           107.5995         estimate D2E/DX2                !
 ! A76   A(24,29,38)           106.7481         estimate D2E/DX2                !
 ! A77   A(28,29,34)           108.5326         estimate D2E/DX2                !
 ! A78   A(28,29,38)           114.6493         estimate D2E/DX2                !
 ! A79   A(34,29,38)           107.297          estimate D2E/DX2                !
 ! A80   A(28,35,43)           108.8069         estimate D2E/DX2                !
 ! A81   A(28,35,82)            91.9266         estimate D2E/DX2                !
 ! A82   A(43,35,82)           153.8822         estimate D2E/DX2                !
 ! A83   A(26,36,44)           108.2728         estimate D2E/DX2                !
 ! A84   A(25,37,49)           117.0198         estimate D2E/DX2                !
 ! A85   A(29,38,39)           108.2863         estimate D2E/DX2                !
 ! A86   A(29,38,40)           109.0869         estimate D2E/DX2                !
 ! A87   A(29,38,41)           113.8026         estimate D2E/DX2                !
 ! A88   A(39,38,40)           107.9588         estimate D2E/DX2                !
 ! A89   A(39,38,41)           106.8054         estimate D2E/DX2                !
 ! A90   A(40,38,41)           110.697          estimate D2E/DX2                !
 ! A91   A(38,41,42)           104.6077         estimate D2E/DX2                !
 ! A92   A(38,41,82)           142.1552         estimate D2E/DX2                !
 ! A93   A(42,41,82)           111.5737         estimate D2E/DX2                !
 ! A94   A(46,45,50)           112.9553         estimate D2E/DX2                !
 ! A95   A(46,45,84)           148.4217         estimate D2E/DX2                !
 ! A96   A(50,45,84)            93.2995         estimate D2E/DX2                !
 ! A97   A(45,46,47)           108.1482         estimate D2E/DX2                !
 ! A98   A(45,46,51)           107.8698         estimate D2E/DX2                !
 ! A99   A(45,46,58)           108.3876         estimate D2E/DX2                !
 ! A100  A(47,46,51)           111.2993         estimate D2E/DX2                !
 ! A101  A(47,46,58)           109.1015         estimate D2E/DX2                !
 ! A102  A(51,46,58)           111.9144         estimate D2E/DX2                !
 ! A103  A(46,47,48)           111.6016         estimate D2E/DX2                !
 ! A104  A(46,47,52)           106.3741         estimate D2E/DX2                !
 ! A105  A(46,47,57)           114.8918         estimate D2E/DX2                !
 ! A106  A(48,47,52)           108.9716         estimate D2E/DX2                !
 ! A107  A(48,47,57)           109.6678         estimate D2E/DX2                !
 ! A108  A(52,47,57)           104.9287         estimate D2E/DX2                !
 ! A109  A(47,48,49)           112.0336         estimate D2E/DX2                !
 ! A110  A(47,48,53)           109.0708         estimate D2E/DX2                !
 ! A111  A(47,48,56)           108.9285         estimate D2E/DX2                !
 ! A112  A(49,48,53)           107.1465         estimate D2E/DX2                !
 ! A113  A(49,48,56)           110.2571         estimate D2E/DX2                !
 ! A114  A(53,48,56)           109.3572         estimate D2E/DX2                !
 ! A115  A(37,49,48)           110.093          estimate D2E/DX2                !
 ! A116  A(37,49,50)           109.1165         estimate D2E/DX2                !
 ! A117  A(37,49,55)           110.1793         estimate D2E/DX2                !
 ! A118  A(48,49,50)           107.9395         estimate D2E/DX2                !
 ! A119  A(48,49,55)           110.1817         estimate D2E/DX2                !
 ! A120  A(50,49,55)           109.2869         estimate D2E/DX2                !
 ! A121  A(45,50,49)           108.7266         estimate D2E/DX2                !
 ! A122  A(45,50,54)           110.2727         estimate D2E/DX2                !
 ! A123  A(45,50,59)           107.3555         estimate D2E/DX2                !
 ! A124  A(49,50,54)           108.4057         estimate D2E/DX2                !
 ! A125  A(49,50,59)           115.1803         estimate D2E/DX2                !
 ! A126  A(54,50,59)           106.8568         estimate D2E/DX2                !
 ! A127  A(48,56,64)           105.4526         estimate D2E/DX2                !
 ! A128  A(48,56,84)            47.6249         estimate D2E/DX2                !
 ! A129  A(64,56,84)           129.6794         estimate D2E/DX2                !
 ! A130  A(47,57,65)           109.1681         estimate D2E/DX2                !
 ! A131  A(46,58,66)           114.6922         estimate D2E/DX2                !
 ! A132  A(46,58,84)            71.1784         estimate D2E/DX2                !
 ! A133  A(66,58,84)            92.2543         estimate D2E/DX2                !
 ! A134  A(50,59,60)           108.3944         estimate D2E/DX2                !
 ! A135  A(50,59,61)           109.3989         estimate D2E/DX2                !
 ! A136  A(50,59,62)           113.33           estimate D2E/DX2                !
 ! A137  A(60,59,61)           108.4813         estimate D2E/DX2                !
 ! A138  A(60,59,62)           106.9919         estimate D2E/DX2                !
 ! A139  A(61,59,62)           110.1001         estimate D2E/DX2                !
 ! A140  A(59,62,63)           106.3103         estimate D2E/DX2                !
 ! A141  A(59,62,82)           145.9972         estimate D2E/DX2                !
 ! A142  A(63,62,82)           105.7747         estimate D2E/DX2                !
 ! A143  A(58,66,67)           108.2417         estimate D2E/DX2                !
 ! A144  A(58,66,68)           109.4865         estimate D2E/DX2                !
 ! A145  A(58,66,69)           109.0524         estimate D2E/DX2                !
 ! A146  A(67,66,68)           108.3881         estimate D2E/DX2                !
 ! A147  A(67,66,69)           110.3633         estimate D2E/DX2                !
 ! A148  A(68,66,69)           111.2533         estimate D2E/DX2                !
 ! A149  A(66,69,70)           107.6624         estimate D2E/DX2                !
 ! A150  A(66,69,71)           108.3869         estimate D2E/DX2                !
 ! A151  A(66,69,72)           114.8021         estimate D2E/DX2                !
 ! A152  A(70,69,71)           106.3134         estimate D2E/DX2                !
 ! A153  A(70,69,72)           110.6755         estimate D2E/DX2                !
 ! A154  A(71,69,72)           108.6467         estimate D2E/DX2                !
 ! A155  A(69,72,73)           107.8061         estimate D2E/DX2                !
 ! A156  A(69,72,74)           108.2352         estimate D2E/DX2                !
 ! A157  A(69,72,75)           114.437          estimate D2E/DX2                !
 ! A158  A(73,72,74)           106.4548         estimate D2E/DX2                !
 ! A159  A(73,72,75)           110.5765         estimate D2E/DX2                !
 ! A160  A(74,72,75)           109.0085         estimate D2E/DX2                !
 ! A161  A(72,75,76)           109.8145         estimate D2E/DX2                !
 ! A162  A(72,75,77)           110.3155         estimate D2E/DX2                !
 ! A163  A(72,75,78)           114.3567         estimate D2E/DX2                !
 ! A164  A(76,75,77)           106.5315         estimate D2E/DX2                !
 ! A165  A(76,75,78)           106.7619         estimate D2E/DX2                !
 ! A166  A(77,75,78)           108.7173         estimate D2E/DX2                !
 ! A167  A(75,78,79)           110.9974         estimate D2E/DX2                !
 ! A168  A(75,78,80)           111.3828         estimate D2E/DX2                !
 ! A169  A(75,78,81)           112.0027         estimate D2E/DX2                !
 ! A170  A(79,78,80)           108.0076         estimate D2E/DX2                !
 ! A171  A(79,78,81)           106.939          estimate D2E/DX2                !
 ! A172  A(80,78,81)           107.2858         estimate D2E/DX2                !
 ! A173  A(78,81,82)           113.1444         estimate D2E/DX2                !
 ! A174  A(78,81,83)           113.1644         estimate D2E/DX2                !
 ! A175  A(78,81,84)           112.2061         estimate D2E/DX2                !
 ! A176  A(82,81,83)           104.3271         estimate D2E/DX2                !
 ! A177  A(82,81,84)           105.1843         estimate D2E/DX2                !
 ! A178  A(83,81,84)           108.1862         estimate D2E/DX2                !
 ! A179  A(35,82,41)            19.7736         estimate D2E/DX2                !
 ! A180  A(35,82,62)            61.3316         estimate D2E/DX2                !
 ! A181  A(35,82,81)           113.2252         estimate D2E/DX2                !
 ! A182  A(41,82,62)            54.2269         estimate D2E/DX2                !
 ! A183  A(41,82,81)           114.9802         estimate D2E/DX2                !
 ! A184  A(62,82,81)            62.4789         estimate D2E/DX2                !
 ! A185  A(13,83,14)            78.2719         estimate D2E/DX2                !
 ! A186  A(13,83,19)            19.5455         estimate D2E/DX2                !
 ! A187  A(13,83,81)           164.9377         estimate D2E/DX2                !
 ! A188  A(14,83,19)            61.9505         estimate D2E/DX2                !
 ! A189  A(14,83,81)            87.7465         estimate D2E/DX2                !
 ! A190  A(19,83,81)           145.5132         estimate D2E/DX2                !
 ! A191  A(45,84,56)            39.6261         estimate D2E/DX2                !
 ! A192  A(45,84,58)            26.6172         estimate D2E/DX2                !
 ! A193  A(45,84,81)           122.3513         estimate D2E/DX2                !
 ! A194  A(56,84,58)            52.1202         estimate D2E/DX2                !
 ! A195  A(56,84,81)           126.9617         estimate D2E/DX2                !
 ! A196  A(58,84,81)            95.8315         estimate D2E/DX2                !
 ! D1    D(6,1,2,3)            -55.3656         estimate D2E/DX2                !
 ! D2    D(6,1,2,7)           -176.3334         estimate D2E/DX2                !
 ! D3    D(6,1,2,15)            63.5834         estimate D2E/DX2                !
 ! D4    D(2,1,6,5)             55.2979         estimate D2E/DX2                !
 ! D5    D(2,1,6,11)           -63.3533         estimate D2E/DX2                !
 ! D6    D(2,1,6,16)          -178.2402         estimate D2E/DX2                !
 ! D7    D(1,2,3,4)             54.2307         estimate D2E/DX2                !
 ! D8    D(1,2,3,8)            -63.0399         estimate D2E/DX2                !
 ! D9    D(1,2,3,14)           179.6855         estimate D2E/DX2                !
 ! D10   D(7,2,3,4)            171.7352         estimate D2E/DX2                !
 ! D11   D(7,2,3,8)             54.4646         estimate D2E/DX2                !
 ! D12   D(7,2,3,14)           -62.81           estimate D2E/DX2                !
 ! D13   D(15,2,3,4)           -69.4339         estimate D2E/DX2                !
 ! D14   D(15,2,3,8)           173.2955         estimate D2E/DX2                !
 ! D15   D(15,2,3,14)           56.0209         estimate D2E/DX2                !
 ! D16   D(1,2,15,27)           66.4851         estimate D2E/DX2                !
 ! D17   D(3,2,15,27)         -170.1556         estimate D2E/DX2                !
 ! D18   D(7,2,15,27)          -50.6924         estimate D2E/DX2                !
 ! D19   D(2,3,4,5)            -54.0201         estimate D2E/DX2                !
 ! D20   D(2,3,4,9)             67.6913         estimate D2E/DX2                !
 ! D21   D(2,3,4,13)          -175.7543         estimate D2E/DX2                !
 ! D22   D(8,3,4,5)             62.6146         estimate D2E/DX2                !
 ! D23   D(8,3,4,9)           -175.674          estimate D2E/DX2                !
 ! D24   D(8,3,4,13)           -59.1196         estimate D2E/DX2                !
 ! D25   D(14,3,4,5)          -179.2468         estimate D2E/DX2                !
 ! D26   D(14,3,4,9)           -57.5353         estimate D2E/DX2                !
 ! D27   D(14,3,4,13)           59.019          estimate D2E/DX2                !
 ! D28   D(2,3,14,23)          -28.6997         estimate D2E/DX2                !
 ! D29   D(2,3,14,83)         -143.6194         estimate D2E/DX2                !
 ! D30   D(4,3,14,23)           95.3932         estimate D2E/DX2                !
 ! D31   D(4,3,14,83)          -19.5265         estimate D2E/DX2                !
 ! D32   D(8,3,14,23)         -145.9211         estimate D2E/DX2                !
 ! D33   D(8,3,14,83)           99.1592         estimate D2E/DX2                !
 ! D34   D(3,4,5,6)             54.1061         estimate D2E/DX2                !
 ! D35   D(3,4,5,10)           171.4601         estimate D2E/DX2                !
 ! D36   D(3,4,5,12)           -70.5728         estimate D2E/DX2                !
 ! D37   D(9,4,5,6)            -67.3363         estimate D2E/DX2                !
 ! D38   D(9,4,5,10)            50.0178         estimate D2E/DX2                !
 ! D39   D(9,4,5,12)           167.9849         estimate D2E/DX2                !
 ! D40   D(13,4,5,6)           177.005          estimate D2E/DX2                !
 ! D41   D(13,4,5,10)          -65.641          estimate D2E/DX2                !
 ! D42   D(13,4,5,12)           52.3261         estimate D2E/DX2                !
 ! D43   D(3,4,13,22)           79.1042         estimate D2E/DX2                !
 ! D44   D(3,4,13,83)          -72.1308         estimate D2E/DX2                !
 ! D45   D(5,4,13,22)          -43.0398         estimate D2E/DX2                !
 ! D46   D(5,4,13,83)          165.7252         estimate D2E/DX2                !
 ! D47   D(9,4,13,22)         -161.7204         estimate D2E/DX2                !
 ! D48   D(9,4,13,83)           47.0446         estimate D2E/DX2                !
 ! D49   D(4,5,6,1)            -53.8713         estimate D2E/DX2                !
 ! D50   D(4,5,6,11)            66.4348         estimate D2E/DX2                !
 ! D51   D(4,5,6,16)          -176.6473         estimate D2E/DX2                !
 ! D52   D(10,5,6,1)          -172.0692         estimate D2E/DX2                !
 ! D53   D(10,5,6,11)          -51.7631         estimate D2E/DX2                !
 ! D54   D(10,5,6,16)           65.1548         estimate D2E/DX2                !
 ! D55   D(12,5,6,1)            64.657          estimate D2E/DX2                !
 ! D56   D(12,5,6,11)         -175.0369         estimate D2E/DX2                !
 ! D57   D(12,5,6,16)          -58.119          estimate D2E/DX2                !
 ! D58   D(4,5,12,21)          155.4592         estimate D2E/DX2                !
 ! D59   D(6,5,12,21)           34.43           estimate D2E/DX2                !
 ! D60   D(10,5,12,21)         -87.4406         estimate D2E/DX2                !
 ! D61   D(1,6,16,17)           50.1638         estimate D2E/DX2                !
 ! D62   D(1,6,16,18)          168.0354         estimate D2E/DX2                !
 ! D63   D(1,6,16,19)          -70.8514         estimate D2E/DX2                !
 ! D64   D(5,6,16,17)          175.5327         estimate D2E/DX2                !
 ! D65   D(5,6,16,18)          -66.5958         estimate D2E/DX2                !
 ! D66   D(5,6,16,19)           54.5175         estimate D2E/DX2                !
 ! D67   D(11,6,16,17)         -67.1025         estimate D2E/DX2                !
 ! D68   D(11,6,16,18)          50.7691         estimate D2E/DX2                !
 ! D69   D(11,6,16,19)         171.8823         estimate D2E/DX2                !
 ! D70   D(4,13,83,14)          40.6522         estimate D2E/DX2                !
 ! D71   D(4,13,83,19)           8.9448         estimate D2E/DX2                !
 ! D72   D(4,13,83,81)          18.4658         estimate D2E/DX2                !
 ! D73   D(22,13,83,14)        -97.5561         estimate D2E/DX2                !
 ! D74   D(22,13,83,19)       -129.2634         estimate D2E/DX2                !
 ! D75   D(22,13,83,81)       -119.7424         estimate D2E/DX2                !
 ! D76   D(3,14,83,13)         -11.9834         estimate D2E/DX2                !
 ! D77   D(3,14,83,19)          -0.4911         estimate D2E/DX2                !
 ! D78   D(3,14,83,81)         162.3806         estimate D2E/DX2                !
 ! D79   D(23,14,83,13)       -123.8638         estimate D2E/DX2                !
 ! D80   D(23,14,83,19)       -112.3715         estimate D2E/DX2                !
 ! D81   D(23,14,83,81)         50.5002         estimate D2E/DX2                !
 ! D82   D(2,15,27,26)        -137.6095         estimate D2E/DX2                !
 ! D83   D(2,15,27,28)         101.8213         estimate D2E/DX2                !
 ! D84   D(2,15,27,32)         -20.5177         estimate D2E/DX2                !
 ! D85   D(6,16,19,20)        -178.3547         estimate D2E/DX2                !
 ! D86   D(6,16,19,83)         -18.9307         estimate D2E/DX2                !
 ! D87   D(17,16,19,20)         61.9281         estimate D2E/DX2                !
 ! D88   D(17,16,19,83)       -138.6478         estimate D2E/DX2                !
 ! D89   D(18,16,19,20)        -58.9347         estimate D2E/DX2                !
 ! D90   D(18,16,19,83)        100.4894         estimate D2E/DX2                !
 ! D91   D(16,19,83,13)       -131.5855         estimate D2E/DX2                !
 ! D92   D(16,19,83,14)         84.0832         estimate D2E/DX2                !
 ! D93   D(16,19,83,81)         52.7683         estimate D2E/DX2                !
 ! D94   D(20,19,83,13)        -38.5465         estimate D2E/DX2                !
 ! D95   D(20,19,83,14)        177.1222         estimate D2E/DX2                !
 ! D96   D(20,19,83,81)        145.8074         estimate D2E/DX2                !
 ! D97   D(29,24,25,26)        -59.6521         estimate D2E/DX2                !
 ! D98   D(29,24,25,30)         58.9986         estimate D2E/DX2                !
 ! D99   D(29,24,25,37)        172.3501         estimate D2E/DX2                !
 ! D100  D(25,24,29,28)         55.818          estimate D2E/DX2                !
 ! D101  D(25,24,29,34)        -63.2106         estimate D2E/DX2                !
 ! D102  D(25,24,29,38)       -178.121          estimate D2E/DX2                !
 ! D103  D(24,25,26,27)          3.9938         estimate D2E/DX2                !
 ! D104  D(24,25,26,31)       -115.5424         estimate D2E/DX2                !
 ! D105  D(24,25,26,36)        122.62           estimate D2E/DX2                !
 ! D106  D(30,25,26,27)       -115.0954         estimate D2E/DX2                !
 ! D107  D(30,25,26,31)        125.3685         estimate D2E/DX2                !
 ! D108  D(30,25,26,36)          3.5309         estimate D2E/DX2                !
 ! D109  D(37,25,26,27)        128.3067         estimate D2E/DX2                !
 ! D110  D(37,25,26,31)          8.7706         estimate D2E/DX2                !
 ! D111  D(37,25,26,36)       -113.0671         estimate D2E/DX2                !
 ! D112  D(24,25,37,49)         63.9481         estimate D2E/DX2                !
 ! D113  D(26,25,37,49)        -61.7345         estimate D2E/DX2                !
 ! D114  D(30,25,37,49)        179.8684         estimate D2E/DX2                !
 ! D115  D(25,26,27,15)        -71.2996         estimate D2E/DX2                !
 ! D116  D(25,26,27,28)         50.8308         estimate D2E/DX2                !
 ! D117  D(25,26,27,32)        170.416          estimate D2E/DX2                !
 ! D118  D(31,26,27,15)         48.5643         estimate D2E/DX2                !
 ! D119  D(31,26,27,28)        170.6947         estimate D2E/DX2                !
 ! D120  D(31,26,27,32)        -69.7201         estimate D2E/DX2                !
 ! D121  D(36,26,27,15)        168.0079         estimate D2E/DX2                !
 ! D122  D(36,26,27,28)        -69.8616         estimate D2E/DX2                !
 ! D123  D(36,26,27,32)         49.7235         estimate D2E/DX2                !
 ! D124  D(25,26,36,44)         83.0552         estimate D2E/DX2                !
 ! D125  D(27,26,36,44)       -155.7546         estimate D2E/DX2                !
 ! D126  D(31,26,36,44)        -37.7736         estimate D2E/DX2                !
 ! D127  D(15,27,28,29)         64.9201         estimate D2E/DX2                !
 ! D128  D(15,27,28,33)       -177.6694         estimate D2E/DX2                !
 ! D129  D(15,27,28,35)        -58.5619         estimate D2E/DX2                !
 ! D130  D(26,27,28,29)        -54.4872         estimate D2E/DX2                !
 ! D131  D(26,27,28,33)         62.9232         estimate D2E/DX2                !
 ! D132  D(26,27,28,35)       -177.9693         estimate D2E/DX2                !
 ! D133  D(32,27,28,29)       -172.8347         estimate D2E/DX2                !
 ! D134  D(32,27,28,33)        -55.4243         estimate D2E/DX2                !
 ! D135  D(32,27,28,35)         63.6833         estimate D2E/DX2                !
 ! D136  D(27,28,29,24)          2.9508         estimate D2E/DX2                !
 ! D137  D(27,28,29,34)        121.4246         estimate D2E/DX2                !
 ! D138  D(27,28,29,38)       -118.6512         estimate D2E/DX2                !
 ! D139  D(33,28,29,24)       -113.3835         estimate D2E/DX2                !
 ! D140  D(33,28,29,34)          5.0903         estimate D2E/DX2                !
 ! D141  D(33,28,29,38)        125.0145         estimate D2E/DX2                !
 ! D142  D(35,28,29,24)        127.1358         estimate D2E/DX2                !
 ! D143  D(35,28,29,34)       -114.3904         estimate D2E/DX2                !
 ! D144  D(35,28,29,38)          5.5339         estimate D2E/DX2                !
 ! D145  D(27,28,35,43)        -96.8699         estimate D2E/DX2                !
 ! D146  D(27,28,35,82)         66.9776         estimate D2E/DX2                !
 ! D147  D(29,28,35,43)        139.4019         estimate D2E/DX2                !
 ! D148  D(29,28,35,82)        -56.7506         estimate D2E/DX2                !
 ! D149  D(33,28,35,43)         20.5605         estimate D2E/DX2                !
 ! D150  D(33,28,35,82)       -175.592          estimate D2E/DX2                !
 ! D151  D(24,29,38,39)         48.924          estimate D2E/DX2                !
 ! D152  D(24,29,38,40)        166.1801         estimate D2E/DX2                !
 ! D153  D(24,29,38,41)        -69.6681         estimate D2E/DX2                !
 ! D154  D(28,29,38,39)        173.201          estimate D2E/DX2                !
 ! D155  D(28,29,38,40)        -69.5429         estimate D2E/DX2                !
 ! D156  D(28,29,38,41)         54.6089         estimate D2E/DX2                !
 ! D157  D(34,29,38,39)        -66.1902         estimate D2E/DX2                !
 ! D158  D(34,29,38,40)         51.0659         estimate D2E/DX2                !
 ! D159  D(34,29,38,41)        175.2177         estimate D2E/DX2                !
 ! D160  D(28,35,82,41)         83.3771         estimate D2E/DX2                !
 ! D161  D(28,35,82,62)         20.0234         estimate D2E/DX2                !
 ! D162  D(28,35,82,81)        -16.1042         estimate D2E/DX2                !
 ! D163  D(43,35,82,41)       -133.3646         estimate D2E/DX2                !
 ! D164  D(43,35,82,62)        163.2816         estimate D2E/DX2                !
 ! D165  D(43,35,82,81)        127.154          estimate D2E/DX2                !
 ! D166  D(25,37,49,48)        121.8029         estimate D2E/DX2                !
 ! D167  D(25,37,49,50)       -119.9089         estimate D2E/DX2                !
 ! D168  D(25,37,49,55)          0.0792         estimate D2E/DX2                !
 ! D169  D(29,38,41,42)        -74.6369         estimate D2E/DX2                !
 ! D170  D(29,38,41,82)         88.0692         estimate D2E/DX2                !
 ! D171  D(39,38,41,42)        165.9268         estimate D2E/DX2                !
 ! D172  D(39,38,41,82)        -31.3672         estimate D2E/DX2                !
 ! D173  D(40,38,41,42)         48.6419         estimate D2E/DX2                !
 ! D174  D(40,38,41,82)       -148.6521         estimate D2E/DX2                !
 ! D175  D(38,41,82,35)       -124.759          estimate D2E/DX2                !
 ! D176  D(38,41,82,62)        -19.9042         estimate D2E/DX2                !
 ! D177  D(38,41,82,81)        -35.3305         estimate D2E/DX2                !
 ! D178  D(42,41,82,35)         37.2219         estimate D2E/DX2                !
 ! D179  D(42,41,82,62)        142.0766         estimate D2E/DX2                !
 ! D180  D(42,41,82,81)        126.6503         estimate D2E/DX2                !
 ! D181  D(50,45,46,47)        -63.4875         estimate D2E/DX2                !
 ! D182  D(50,45,46,51)         56.9975         estimate D2E/DX2                !
 ! D183  D(50,45,46,58)        178.3573         estimate D2E/DX2                !
 ! D184  D(84,45,46,47)         80.4545         estimate D2E/DX2                !
 ! D185  D(84,45,46,51)       -159.0605         estimate D2E/DX2                !
 ! D186  D(84,45,46,58)        -37.7007         estimate D2E/DX2                !
 ! D187  D(46,45,50,49)         67.6635         estimate D2E/DX2                !
 ! D188  D(46,45,50,54)        -51.0628         estimate D2E/DX2                !
 ! D189  D(46,45,50,59)       -167.1229         estimate D2E/DX2                !
 ! D190  D(84,45,50,49)        -94.353          estimate D2E/DX2                !
 ! D191  D(84,45,50,54)        146.9207         estimate D2E/DX2                !
 ! D192  D(84,45,50,59)         30.8606         estimate D2E/DX2                !
 ! D193  D(46,45,84,56)        -81.9152         estimate D2E/DX2                !
 ! D194  D(46,45,84,58)         23.2162         estimate D2E/DX2                !
 ! D195  D(46,45,84,81)         28.635          estimate D2E/DX2                !
 ! D196  D(50,45,84,56)         65.2041         estimate D2E/DX2                !
 ! D197  D(50,45,84,58)        170.3355         estimate D2E/DX2                !
 ! D198  D(50,45,84,81)        175.7543         estimate D2E/DX2                !
 ! D199  D(45,46,47,48)         53.088          estimate D2E/DX2                !
 ! D200  D(45,46,47,52)        -65.6486         estimate D2E/DX2                !
 ! D201  D(45,46,47,57)        178.7351         estimate D2E/DX2                !
 ! D202  D(51,46,47,48)        -65.2314         estimate D2E/DX2                !
 ! D203  D(51,46,47,52)        176.0321         estimate D2E/DX2                !
 ! D204  D(51,46,47,57)         60.4157         estimate D2E/DX2                !
 ! D205  D(58,46,47,48)        170.7861         estimate D2E/DX2                !
 ! D206  D(58,46,47,52)         52.0496         estimate D2E/DX2                !
 ! D207  D(58,46,47,57)        -63.5668         estimate D2E/DX2                !
 ! D208  D(45,46,58,66)        -70.715          estimate D2E/DX2                !
 ! D209  D(45,46,58,84)         12.9133         estimate D2E/DX2                !
 ! D210  D(47,46,58,66)        171.7378         estimate D2E/DX2                !
 ! D211  D(47,46,58,84)       -104.6339         estimate D2E/DX2                !
 ! D212  D(51,46,58,66)         48.1192         estimate D2E/DX2                !
 ! D213  D(51,46,58,84)        131.7475         estimate D2E/DX2                !
 ! D214  D(46,47,48,49)        -50.5364         estimate D2E/DX2                !
 ! D215  D(46,47,48,53)         67.9159         estimate D2E/DX2                !
 ! D216  D(46,47,48,56)       -172.789          estimate D2E/DX2                !
 ! D217  D(52,47,48,49)         66.6406         estimate D2E/DX2                !
 ! D218  D(52,47,48,53)       -174.9071         estimate D2E/DX2                !
 ! D219  D(52,47,48,56)        -55.612          estimate D2E/DX2                !
 ! D220  D(57,47,48,49)       -179.0186         estimate D2E/DX2                !
 ! D221  D(57,47,48,53)        -60.5663         estimate D2E/DX2                !
 ! D222  D(57,47,48,56)         58.7288         estimate D2E/DX2                !
 ! D223  D(46,47,57,65)        -46.0755         estimate D2E/DX2                !
 ! D224  D(48,47,57,65)         80.5687         estimate D2E/DX2                !
 ! D225  D(52,47,57,65)       -162.5211         estimate D2E/DX2                !
 ! D226  D(47,48,49,37)        171.1193         estimate D2E/DX2                !
 ! D227  D(47,48,49,50)         52.109          estimate D2E/DX2                !
 ! D228  D(47,48,49,55)        -67.1585         estimate D2E/DX2                !
 ! D229  D(53,48,49,37)         51.5326         estimate D2E/DX2                !
 ! D230  D(53,48,49,50)        -67.4777         estimate D2E/DX2                !
 ! D231  D(53,48,49,55)        173.2548         estimate D2E/DX2                !
 ! D232  D(56,48,49,37)        -67.3887         estimate D2E/DX2                !
 ! D233  D(56,48,49,50)        173.601          estimate D2E/DX2                !
 ! D234  D(56,48,49,55)         54.3335         estimate D2E/DX2                !
 ! D235  D(47,48,56,64)        -48.7004         estimate D2E/DX2                !
 ! D236  D(47,48,56,84)         81.4282         estimate D2E/DX2                !
 ! D237  D(49,48,56,64)       -172.0198         estimate D2E/DX2                !
 ! D238  D(49,48,56,84)        -41.8912         estimate D2E/DX2                !
 ! D239  D(53,48,56,64)         70.4162         estimate D2E/DX2                !
 ! D240  D(53,48,56,84)       -159.4552         estimate D2E/DX2                !
 ! D241  D(37,49,50,45)       -178.7879         estimate D2E/DX2                !
 ! D242  D(37,49,50,54)        -58.8944         estimate D2E/DX2                !
 ! D243  D(37,49,50,59)         60.7196         estimate D2E/DX2                !
 ! D244  D(48,49,50,45)        -59.1584         estimate D2E/DX2                !
 ! D245  D(48,49,50,54)         60.7351         estimate D2E/DX2                !
 ! D246  D(48,49,50,59)       -179.6509         estimate D2E/DX2                !
 ! D247  D(55,49,50,45)         60.6753         estimate D2E/DX2                !
 ! D248  D(55,49,50,54)       -179.4312         estimate D2E/DX2                !
 ! D249  D(55,49,50,59)        -59.8172         estimate D2E/DX2                !
 ! D250  D(45,50,59,60)         56.1695         estimate D2E/DX2                !
 ! D251  D(45,50,59,61)        174.2863         estimate D2E/DX2                !
 ! D252  D(45,50,59,62)        -62.4387         estimate D2E/DX2                !
 ! D253  D(49,50,59,60)        177.4093         estimate D2E/DX2                !
 ! D254  D(49,50,59,61)        -64.4739         estimate D2E/DX2                !
 ! D255  D(49,50,59,62)         58.801          estimate D2E/DX2                !
 ! D256  D(54,50,59,60)        -62.1254         estimate D2E/DX2                !
 ! D257  D(54,50,59,61)         55.9914         estimate D2E/DX2                !
 ! D258  D(54,50,59,62)        179.2663         estimate D2E/DX2                !
 ! D259  D(48,56,84,45)        -17.2054         estimate D2E/DX2                !
 ! D260  D(48,56,84,58)        -50.4316         estimate D2E/DX2                !
 ! D261  D(48,56,84,81)       -115.3264         estimate D2E/DX2                !
 ! D262  D(64,56,84,45)         56.0412         estimate D2E/DX2                !
 ! D263  D(64,56,84,58)         22.8149         estimate D2E/DX2                !
 ! D264  D(64,56,84,81)        -42.0798         estimate D2E/DX2                !
 ! D265  D(46,58,66,67)       -100.3279         estimate D2E/DX2                !
 ! D266  D(46,58,66,68)         17.6384         estimate D2E/DX2                !
 ! D267  D(46,58,66,69)        139.5767         estimate D2E/DX2                !
 ! D268  D(84,58,66,67)       -170.6175         estimate D2E/DX2                !
 ! D269  D(84,58,66,68)        -52.6512         estimate D2E/DX2                !
 ! D270  D(84,58,66,69)         69.2871         estimate D2E/DX2                !
 ! D271  D(46,58,84,45)        -13.1948         estimate D2E/DX2                !
 ! D272  D(46,58,84,56)         38.0667         estimate D2E/DX2                !
 ! D273  D(46,58,84,81)        171.4048         estimate D2E/DX2                !
 ! D274  D(66,58,84,45)        102.1629         estimate D2E/DX2                !
 ! D275  D(66,58,84,56)        153.4244         estimate D2E/DX2                !
 ! D276  D(66,58,84,81)        -73.2375         estimate D2E/DX2                !
 ! D277  D(50,59,62,63)        -80.9314         estimate D2E/DX2                !
 ! D278  D(50,59,62,82)         79.1676         estimate D2E/DX2                !
 ! D279  D(60,59,62,63)        159.6536         estimate D2E/DX2                !
 ! D280  D(60,59,62,82)        -40.2475         estimate D2E/DX2                !
 ! D281  D(61,59,62,63)         41.9571         estimate D2E/DX2                !
 ! D282  D(61,59,62,82)       -157.9439         estimate D2E/DX2                !
 ! D283  D(59,62,82,35)       -164.0785         estimate D2E/DX2                !
 ! D284  D(59,62,82,41)        174.0402         estimate D2E/DX2                !
 ! D285  D(59,62,82,81)        -21.736          estimate D2E/DX2                !
 ! D286  D(63,62,82,35)         -3.9239         estimate D2E/DX2                !
 ! D287  D(63,62,82,41)        -25.8052         estimate D2E/DX2                !
 ! D288  D(63,62,82,81)        138.4186         estimate D2E/DX2                !
 ! D289  D(58,66,69,70)        177.217          estimate D2E/DX2                !
 ! D290  D(58,66,69,71)         62.6039         estimate D2E/DX2                !
 ! D291  D(58,66,69,72)        -59.0491         estimate D2E/DX2                !
 ! D292  D(67,66,69,70)         58.4385         estimate D2E/DX2                !
 ! D293  D(67,66,69,71)        -56.1746         estimate D2E/DX2                !
 ! D294  D(67,66,69,72)       -177.8276         estimate D2E/DX2                !
 ! D295  D(68,66,69,70)        -61.9194         estimate D2E/DX2                !
 ! D296  D(68,66,69,71)       -176.5325         estimate D2E/DX2                !
 ! D297  D(68,66,69,72)         61.8145         estimate D2E/DX2                !
 ! D298  D(66,69,72,73)         58.0044         estimate D2E/DX2                !
 ! D299  D(66,69,72,74)        172.7795         estimate D2E/DX2                !
 ! D300  D(66,69,72,75)        -65.4592         estimate D2E/DX2                !
 ! D301  D(70,69,72,73)       -179.8795         estimate D2E/DX2                !
 ! D302  D(70,69,72,74)        -65.1043         estimate D2E/DX2                !
 ! D303  D(70,69,72,75)         56.6569         estimate D2E/DX2                !
 ! D304  D(71,69,72,73)        -63.5071         estimate D2E/DX2                !
 ! D305  D(71,69,72,74)         51.2681         estimate D2E/DX2                !
 ! D306  D(71,69,72,75)        173.0293         estimate D2E/DX2                !
 ! D307  D(69,72,75,76)        -58.3143         estimate D2E/DX2                !
 ! D308  D(69,72,75,77)         58.8087         estimate D2E/DX2                !
 ! D309  D(69,72,75,78)       -178.2884         estimate D2E/DX2                !
 ! D310  D(73,72,75,76)        179.7236         estimate D2E/DX2                !
 ! D311  D(73,72,75,77)        -63.1534         estimate D2E/DX2                !
 ! D312  D(73,72,75,78)         59.7495         estimate D2E/DX2                !
 ! D313  D(74,72,75,76)         63.0226         estimate D2E/DX2                !
 ! D314  D(74,72,75,77)       -179.8544         estimate D2E/DX2                !
 ! D315  D(74,72,75,78)        -56.9515         estimate D2E/DX2                !
 ! D316  D(72,75,78,79)        173.8076         estimate D2E/DX2                !
 ! D317  D(72,75,78,80)         53.417          estimate D2E/DX2                !
 ! D318  D(72,75,78,81)        -66.7412         estimate D2E/DX2                !
 ! D319  D(76,75,78,79)         52.1422         estimate D2E/DX2                !
 ! D320  D(76,75,78,80)        -68.2484         estimate D2E/DX2                !
 ! D321  D(76,75,78,81)        171.5934         estimate D2E/DX2                !
 ! D322  D(77,75,78,79)        -62.4282         estimate D2E/DX2                !
 ! D323  D(77,75,78,80)        177.1812         estimate D2E/DX2                !
 ! D324  D(77,75,78,81)         57.023          estimate D2E/DX2                !
 ! D325  D(75,78,81,82)        179.6256         estimate D2E/DX2                !
 ! D326  D(75,78,81,83)         61.2267         estimate D2E/DX2                !
 ! D327  D(75,78,81,84)        -61.5476         estimate D2E/DX2                !
 ! D328  D(79,78,81,82)        -58.5667         estimate D2E/DX2                !
 ! D329  D(79,78,81,83)       -176.9656         estimate D2E/DX2                !
 ! D330  D(79,78,81,84)         60.2601         estimate D2E/DX2                !
 ! D331  D(80,78,81,82)         57.106          estimate D2E/DX2                !
 ! D332  D(80,78,81,83)        -61.2929         estimate D2E/DX2                !
 ! D333  D(80,78,81,84)        175.9328         estimate D2E/DX2                !
 ! D334  D(78,81,82,35)        156.429          estimate D2E/DX2                !
 ! D335  D(78,81,82,41)        134.8294         estimate D2E/DX2                !
 ! D336  D(78,81,82,62)        120.7449         estimate D2E/DX2                !
 ! D337  D(83,81,82,35)        -80.1556         estimate D2E/DX2                !
 ! D338  D(83,81,82,41)       -101.7552         estimate D2E/DX2                !
 ! D339  D(83,81,82,62)       -115.8397         estimate D2E/DX2                !
 ! D340  D(84,81,82,35)         33.616          estimate D2E/DX2                !
 ! D341  D(84,81,82,41)         12.0164         estimate D2E/DX2                !
 ! D342  D(84,81,82,62)         -2.0681         estimate D2E/DX2                !
 ! D343  D(78,81,83,13)       -174.0419         estimate D2E/DX2                !
 ! D344  D(78,81,83,14)        164.2411         estimate D2E/DX2                !
 ! D345  D(78,81,83,19)       -168.4332         estimate D2E/DX2                !
 ! D346  D(82,81,83,13)         62.5557         estimate D2E/DX2                !
 ! D347  D(82,81,83,14)         40.8387         estimate D2E/DX2                !
 ! D348  D(82,81,83,19)         68.1644         estimate D2E/DX2                !
 ! D349  D(84,81,83,13)        -49.0643         estimate D2E/DX2                !
 ! D350  D(84,81,83,14)        -70.7814         estimate D2E/DX2                !
 ! D351  D(84,81,83,19)        -43.4557         estimate D2E/DX2                !
 ! D352  D(78,81,84,45)         74.1005         estimate D2E/DX2                !
 ! D353  D(78,81,84,56)        122.4649         estimate D2E/DX2                !
 ! D354  D(78,81,84,58)         76.538          estimate D2E/DX2                !
 ! D355  D(82,81,84,45)       -162.4855         estimate D2E/DX2                !
 ! D356  D(82,81,84,56)       -114.1211         estimate D2E/DX2                !
 ! D357  D(82,81,84,58)       -160.048          estimate D2E/DX2                !
 ! D358  D(83,81,84,45)        -51.4436         estimate D2E/DX2                !
 ! D359  D(83,81,84,56)         -3.0792         estimate D2E/DX2                !
 ! D360  D(83,81,84,58)        -49.0061         estimate D2E/DX2                !
 --------------------------------------------------------------------------------
 Trust Radius=3.00D-01 FncErr=1.00D-07 GrdErr=1.00D-06
 Number of steps in this run=    504 maximum allowed number of steps=    504.
 GradGradGradGradGradGradGradGradGradGradGradGradGradGradGradGradGradGrad

 Leave Link  103 at Sat Apr 30 09:04:34 2016, MaxMem= 10737418240 cpu:         0.5
 (Enter /share/apps//g09/l202.exe)
 Stoichiometry    C23H44NO16(1+)
 Framework group  C1[X(C23H44NO16)]
 Deg. of freedom   246
 Full point group                 C1      NOp   1
 Largest Abelian subgroup         C1      NOp   1
 Largest concise Abelian subgroup C1      NOp   1
                         Standard orientation:                         
 ---------------------------------------------------------------------
 Center     Atomic      Atomic             Coordinates (Angstroms)
 Number     Number       Type             X           Y           Z
 ---------------------------------------------------------------------
      1          8           0       -2.226611    2.480238   -1.064015
      2          6           0       -2.120906    1.158749   -1.539778
      3          6           0       -0.838271    0.920670   -2.353053
      4          6           0        0.390478    1.337284   -1.525050
      5          6           0        0.232498    2.779168   -1.034048
      6          6           0       -1.099296    2.927408   -0.280199
      7          1           0       -3.016161    1.007069   -2.162135
      8          1           0       -0.890921    1.570704   -3.239769
      9          1           0        0.514383    0.654763   -0.671226
     10          1           0        1.048618    3.004907   -0.316680
     11          1           0       -1.017685    2.315051    0.638101
     12          8           0        0.367829    3.587945   -2.201706
     13          8           0        1.604275    1.221082   -2.289621
     14          8           0       -0.745961   -0.424070   -2.819715
     15          8           0       -2.080246    0.181472   -0.490573
     16          6           0       -1.398113    4.344582    0.184322
     17          1           0       -2.402862    4.360027    0.638226
     18          1           0       -0.655555    4.617932    0.954506
     19          8           0       -1.332949    5.245023   -0.934648
     20          1           0       -1.498978    6.150803   -0.626137
     21          1           0       -0.101858    4.433430   -2.028419
     22          1           0        1.641304    2.012998   -2.865145
     23          1           0       -1.222047   -1.015620   -2.193022
     24          8           0       -2.059970   -2.233281    0.835632
     25          6           0       -2.202410   -1.462377    2.045958
     26          6           0       -2.868921   -0.078568    1.761641
     27          6           0       -3.282054    0.047338    0.288310
     28          6           0       -4.102425   -1.182856   -0.123229
     29          6           0       -3.320305   -2.499931    0.183464
     30          1           0       -2.856301   -2.017632    2.743585
     31          1           0       -2.149451    0.718432    1.990104
     32          1           0       -3.894308    0.956793    0.185766
     33          1           0       -5.012773   -1.171645    0.496018
     34          1           0       -3.928936   -3.118686    0.871301
     35          8           0       -4.474584   -1.131894   -1.516990
     36          8           0       -4.058337    0.073779    2.543706
     37          8           0       -0.958294   -1.407434    2.691652
     38          6           0       -3.009190   -3.355705   -1.041865
     39          1           0       -2.357883   -4.183863   -0.727873
     40          1           0       -3.945875   -3.787614   -1.426547
     41          8           0       -2.313673   -2.651533   -2.077302
     42          1           0       -2.994357   -2.080018   -2.487350
     43          1           0       -5.375673   -0.778652   -1.587472
     44          1           0       -3.803078    0.380983    3.430097
     45          8           0        2.336847   -1.035872    1.096241
     46          6           0        2.967486   -0.038607    1.929203
     47          6           0        1.927047    1.035125    2.258219
     48          6           0        0.646321    0.420272    2.853121
     49          6           0        0.111157   -0.729864    1.998117
     50          6           0        1.268992   -1.723973    1.759428
     51          1           0        3.333173   -0.546327    2.854562
     52          1           0        1.678322    1.528397    1.305963
     53          1           0        0.876172    0.003146    3.855985
     54          1           0        1.610916   -2.106906    2.744050
     55          1           0       -0.246357   -0.348317    1.028814
     56          8           0       -0.343758    1.444370    2.981214
     57          8           0        2.394489    2.085547    3.105632
     58          8           0        3.999077    0.535967    1.215066
     59          6           0        0.915721   -2.938407    0.911900
     60          1           0        1.824199   -3.541734    0.774664
     61          1           0        0.169147   -3.547979    1.440637
     62          8           0        0.437285   -2.598307   -0.395666
     63          1           0       -0.512292   -2.361854   -0.289721
     64          1           0        0.108385    2.189885    3.421800
     65          1           0        2.886479    1.698536    3.853824
     66          6           0        5.143970   -0.330190    1.000230
     67          1           0        5.922517   -0.061251    1.733073
     68          1           0        4.850281   -1.376985    1.173884
     69          6           0        5.660194   -0.129475   -0.419747
     70          1           0        6.557864   -0.758944   -0.541640
     71          1           0        5.997533    0.913384   -0.522428
     72          6           0        4.635704   -0.425574   -1.525875
     73          1           0        3.764499    0.226415   -1.360992
     74          1           0        5.073684   -0.123356   -2.491763
     75          6           0        4.200942   -1.895671   -1.612014
     76          1           0        5.081639   -2.536436   -1.782034
     77          1           0        3.757204   -2.219725   -0.657576
     78          6           0        3.214086   -2.195627   -2.738105
     79          1           0        3.025563   -3.274413   -2.819137
     80          1           0        3.593390   -1.843034   -3.708082
     81          7           0        1.885317   -1.535253   -2.512092
     82          1           0        1.208495   -1.720892   -3.264036
     83          1           0        1.946402   -0.488033   -2.470247
     84          1           0        1.416367   -1.873838   -1.627828
 ---------------------------------------------------------------------
 Rotational constants (GHZ):      0.1120341      0.0813530      0.0747893
 Leave Link  202 at Sat Apr 30 09:04:34 2016, MaxMem= 10737418240 cpu:         1.5
 (Enter /share/apps//g09/l301.exe)
[...]
 8,-0.00001189,0.00002699,-0.00000791,-0.00001962,-0.00000301,-0.000004
 34,-0.00001147,0.00001093,-0.00000229,-0.00002162,-0.00002077,-0.00006
 175,-0.00011019,-0.00002379,-0.00004873,-0.00005454,-0.00012490,-0.000
 03605,-0.00010147,-0.00018063,-0.00013408,0.00016463,-0.00000786,0.000
 00399,-0.00001643,0.00005000,0.00001158,-0.00002213,0.00035704,0.00008
 759,-0.00012567,-0.00011145,0.00006005,0.00007659,0.00002047,0.0000255
 2,0.00000437,0.00001585,0.00001918,0.00002255,-0.00064867,0.00008389,-
 0.00048973,0.00093255,0.00019684,0.00013112,0.00003480,0.00019868,-0.0
 0004924,0.00010950,0.00005100,0.00009023,0.00000395,0.00005863,0.00006
 483,0.00011908,-0.00000292,0.00008012,-0.00008961,-0.00004568,-0.00006
 120,0.00002543,-0.00001214,-0.00003077,-0.00003308,-0.00002450,-0.0000
 0109,-0.00002733,0.00001779,-0.00004632,0.00004334,0.00004276,0.000074
 25,-0.00012854,-0.00013807,-0.00006502,-0.00011310,-0.00008909,-0.0000
 3425,-0.00041745,-0.00027502,0.00028331,0.00018852,-0.00068421,0.00050
 123,-0.00001405,0.00002501,-0.00002486,0.00000295,0.00014356,-0.000087
 73,0.00074473,0.00076959,-0.00031296,-0.00029399,0.00009235,0.00025074
 ,0.00004010,0.00003945,-0.00003462,0.00002578,0.00000228,-0.00000542,0
 .00024385,0.00010630,-0.00003764,-0.00005737,-0.00005744,0.00006252,-0
 .00006239,-0.00009100,0.00001425,-0.00024701,-0.00047264,-0.00098789,0
 .00026921,-0.00034134,0.00017983,-0.00009447,0.00008840,-0.00005513,0.
 00014281,0.00076825,0.00180767,-0.00117095,0.00073285,-0.00212439,-0.0
 0029481,0.00005257,0.00019067,0.00099814,0.00006598,0.00061100,-0.0003
 8277,-0.00015961,-0.00036880,-0.00017929,-0.00016909,-0.00009032,0.020
 97259,0.00895661,0.01201948,-0.00300123,0.00369713,0.00404253,0.000198
 33,-0.00017069,0.00038819,-0.17517116,-0.08746792,-0.10814319,-0.01381
 146,-0.01003394,-0.01151319,0.18653496,-0.00052860,-0.00014102,0.00007
 427,0.00052231,0.00083984,-0.00093787,0.00064182,-0.00033083,0.0007392
 8,0.00724935,0.00136175,-0.00573305,-0.00165768,0.00024404,0.00079840,
 0.00104943,0.00044946,0.00028779,-0.00021719,-0.00002818,0.00021930,0.
 00009133,-0.00028239,0.00001871,-0.00072375,-0.00025492,0.00067891,0.0
 0008359,-0.00010352,-0.00007723,-0.00002066,0.00004881,-0.00001285,-0.
 00010186,0.00053819,0.00088490,-0.00010783,0.00109275,0.00568667,-0.00
 180787,-0.00193598,-0.00115447,-0.00099714,-0.00068368,0.00051616,-0.0
 0039961,0.00002907,-0.00002325,-0.00000367,0.00011404,0.00017204,0.000
 03647,-0.00002275,-0.00001943,-0.00003886,0.00015626,0.00032229,-0.000
 04902,-0.00007973,-0.00002248,-0.00013695,-0.00043505,-0.00028631,-0.0
 0127970,-0.00212730,0.00170377,0.00017745,0.00100935,0.00055180,0.0001
 5069,-0.00029215,-0.00029315,-0.00011325,0.00034156,0.00019848,-0.0000
 1918,0.00010891,-0.00002703,0.00057827,0.00002193,-0.00028818,0.000020
 69,0.00010374,0.00007619,-0.00006640,0.00021597,-0.00000534,0.00000781
 ,-0.00002538,-0.00002932,-0.00001290,0.00005363,-0.00003260,-0.0000095
 2,-0.00001131,0.00001003,-0.00004871,-0.00001728,-0.00002777,0.0000142
 7,-0.00003253,-0.00000836,-0.00016427,-0.00019656,-0.00009732,-0.00007
 982,-0.00017771,0.00005272,0.00026409,-0.00034291,-0.00021071,-0.00003
 171,0.00003555,0.00003849,-0.00004719,-0.00004521,-0.00001617,0.000001
 28,-0.00001174,0.00001302,-0.00017989,-0.00035548,-0.00026449,0.000226
 76,0.00013261,0.00015892,0.00007693,0.00001421,0.00002290,0.00000869,0
 .00004486,0.00001624,0.00012011,0.00024814,-0.00097229,0.00023312,-0.0
 0003022,0.00088533,0.00005714,0.00039798,-0.00001020,0.00000582,0.0001
 9013,0.00024669,-0.00020320,0.00029097,0.00009637,-0.00059515,0.000027
 53,0.00027232,-0.00002187,0.00004454,-0.00016823,-0.00003584,0.0000402
 5,0.00000787,-0.00002019,-0.00008127,0.00002041,0.00005841,0.00002930,
 -0.00011987,0.00008236,0.00011084,0.00006501,-0.00000195,-0.00045813,-
 0.00023453,0.00002803,-0.00023342,-0.00022626,0.00017398,-0.00007931,-
 0.00068387,0.00016284,-0.00065339,0.00031963,-0.00005254,-0.00004963,-
 0.00005932,0.00004027,0.00015422,-0.00005240,0.00109750,0.00062110,-0.
 00072415,-0.00030942,0.00053888,0.00040203,0.00000652,0.00010912,-0.00
 002225,-0.00002557,0.00000589,0.00011540,-0.00011703,0.00007996,0.0004
 1721,-0.00001050,0.00001643,-0.00013555,-0.00000867,-0.00014157,0.0000
 3606,-0.00016001,-0.00010067,0.00053903,-0.00007605,0.00016846,-0.0001
 2296,-0.00018295,0.00011389,-0.00014294,0.00059085,-0.00016870,-0.0008
 5291,0.00112969,0.00128888,0.00152291,-0.00031145,0.00010782,0.0002928
 5,-0.00053849,-0.00105134,-0.00002118,-0.00034428,0.00044109,0.0000408
 1,-0.00002269,-0.00031529,0.00000643,-0.00644033,-0.00949845,-0.010439
 62,0.00123868,0.,-0.00074416,-0.00033094,0.00099988,0.00109457,-0.0929
 1978,-0.13184108,-0.08911593,0.01782374,0.01641460,0.01832122,0.089716
 01,0.13290953,-0.00062617,-0.00006196,-0.00023117,0.00033239,0.0007583
 4,-0.00073622,0.00128567,0.00004024,0.00218637,0.00610892,-0.00158583,
 -0.00717466,-0.00108104,0.00033884,-0.00003603,0.00109413,0.00017203,0
 .00022099,-0.00024896,0.00001052,0.00024830,-0.00001024,-0.00011344,-0
 .00003726,-0.00004386,0.00005591,-0.00023846,0.00001022,-0.00007712,-0
 .00008336,-0.00000483,0.00006726,-0.00003633,-0.00001098,0.00113277,0.
 00126314,0.00304498,0.00612098,-0.00471205,-0.00072413,-0.00156739,-0.
 00254681,-0.00096439,-0.00054381,0.00027773,-0.00035834,0.00000740,-0.
 00005800,-0.00000900,0.00010953,0.00016348,0.00001890,-0.00001856,-0.0
 0003893,-0.00004600,0.00022487,0.00036028,-0.00004807,-0.00009640,-0.0
 0001661,-0.00010502,-0.00046763,-0.00033036,-0.00203948,-0.00075655,0.
 00527740,0.00026874,0.00042623,0.00031443,0.00007809,-0.00018229,-0.00
 053565,0.00016923,0.00009795,0.00039157,0.00001869,0.00009632,-0.00005
 094,0.00052865,0.00003755,-0.00024602,0.00003480,0.00005417,0.00012924
 ,0.00000400,0.00015976,0.00000668,-0.00002062,-0.00000636,-0.00004766,
 0.00000417,0.00002729,-0.00004224,-0.00001008,-0.00000629,0.00000711,-
 0.00004384,-0.00001461,-0.00003086,0.00000936,-0.00002579,-0.00001599,
 -0.00015943,-0.00013230,-0.00016903,-0.00011530,-0.00014365,0.00004952
 ,-0.00018803,-0.00024656,-0.00010809,-0.00013098,-0.00004709,0.0001397
 6,-0.00003847,-0.00003458,-0.00001962,0.00002396,-0.00000100,-0.000006
 71,0.00003040,-0.00022016,-0.00031303,0.00013452,0.00012074,0.00018508
 ,0.00007436,0.00001060,0.00002554,0.00002506,0.00003851,0.00000961,-0.
 00043776,-0.00058624,-0.00053370,0.00004861,0.00031190,0.00028185,0.00
 004162,0.00053822,-0.00020444,0.00012074,0.00008267,0.00008906,-0.0000
 3602,0.00038037,-0.00001199,0.00038472,0.00027955,0.00012958,0.0000074
 1,-0.00009230,-0.00003190,-0.00004668,-0.00008576,-0.00007379,-0.00004
 149,-0.00007983,0.00004110,-0.00011649,-0.00005898,-0.00006503,0.00014
 491,0.00003124,0.00007004,-0.00012677,-0.00032743,-0.00008185,0.000053
 16,-0.00025898,0.00001999,0.00024917,-0.00046920,-0.00041150,0.0006209
 2,-0.00107692,0.00048036,-0.00007064,-0.00004365,-0.00001675,-0.000008
 47,0.00030684,-0.00016114,0.00216714,0.00141561,-0.00305643,-0.0000971
 8,0.00075903,0.00028629,0.00003007,0.00008388,-0.00007451,-0.00002975,
 0.00001273,0.00005297,-0.00025503,0.00041729,0.00047561,0.00002433,-0.
 00003285,-0.00011370,-0.00003776,-0.00012973,0.00000585,0.00010958,-0.
 00023465,-0.00028654,0.00010325,-0.00008552,-0.00000313,-0.00015374,0.
 00009578,-0.00009214,0.00015472,0.00050101,0.00084728,-0.00105672,0.00
 081575,0.00038083,0.00021593,-0.00007646,-0.00025088,0.00012617,0.0002
 5658,0.00165344,-0.00051201,0.00040505,-0.00037811,0.00001440,-0.00000
 092,0.00005303,-0.00802313,-0.01153778,-0.01431677,0.00183507,-0.00053
 567,-0.00064818,-0.00066348,0.00071516,-0.00011881,-0.10791372,-0.0836
 2143,-0.16729099,-0.01273035,-0.00697219,-0.01009656,0.11011281,0.0874
 4251,0.17856129,-0.00051195,-0.00021450,-0.00009384,0.00080042,0.00091
 256,-0.00028836,0.00016928,-0.00019102,0.00028119,0.00143138,-0.000285
 60,-0.00142388,-0.00013721,0.00012943,-0.00011835,0.00042591,0.0000699
 0,0.00002264,-0.00007001,-0.00005104,0.00006990,-0.00006694,-0.0001029
 5,-0.00010316,0.00023487,0.00000335,-0.00017496,0.00000385,-0.00002061
 ,-0.00002486,0.00000678,0.00003182,0.00001129,-0.00016365,0.00015800,0
 .00037372,0.00004445,0.00132269,0.00173122,-0.00155358,-0.00044565,0.0
 0036081,-0.00071155,-0.00081614,0.00016977,-0.00001907,0.00011032,0.00
 000145,-0.00001223,0.00003441,0.00006291,0.00000306,-0.00001243,-0.000
 01307,-0.00012170,-0.00006910,0.00009393,0.00001338,-0.00000979,0.0000
 0097,0.00004552,-0.00009421,-0.00012174,-0.00022943,-0.00015002,0.0001
 4471,0.00022310,0.00189180,0.00054762,0.00112604,-0.00054244,-0.001783
 12,0.00030707,-0.00006237,0.00127646,-0.00012545,0.00019683,0.00013623
 ,0.00031078,0.00002555,-0.00006884,0.00003463,0.00030245,0.00005797,-0
 .00067664,0.00063606,-0.00023801,0.00001129,0.00004788,-0.00019568,0.0
 0003440,-0.00002050,-0.00002387,-0.00000587,-0.00004239,-0.00001739,-0
 .00001817,-0.00006038,-0.00003379,0.00017764,-0.00006881,-0.00003031,-
 0.00000491,-0.00046829,-0.00005882,0.00008308,-0.00022784,-0.00027559,
 -0.00040196,-0.00016837,-0.00042475,-0.00040492,0.00006784,0.00020311,
 -0.00020422,-0.00007627,-0.00012199,0.00011397,-0.00008750,-0.00004130
 ,0.00033436,-0.00102569,0.00008954,0.00036880,0.00033221,0.00000915,-0
 .00000087,0.00008738,-0.00002352,0.00000102,0.00004732,0.00011546,-0.0
 0244409,-0.00072549,0.00046457,0.00135977,0.00017807,-0.00004970,0.000
 33755,0.00016872,-0.00008806,0.00048912,0.00012851,0.00020994,-0.00023
 809,0.00021977,0.00031145,0.00262718,0.00144036,-0.00027355,-0.0000195
 0,-0.00016292,0.00006365,-0.00000756,-0.00005766,-0.00003949,-0.000075
 34,-0.00004559,-0.00003334,-0.00074064,-0.00005430,-0.00036984,0.00013
 853,0.00019290,0.00030166,-0.00041313,-0.00025833,-0.00030267,-0.00041
 513,-0.00003222,-0.00001380,-0.00117115,-0.00016506,0.00094153,0.00651
 261,-0.00854683,0.00173669,-0.00030975,0.00080574,0.00005716,-0.000186
 02,0.00250448,-0.00132298,-0.00291899,0.00654007,-0.00478907,-0.002319
 01,0.00391037,0.00101030,0.00011422,0.00001991,-0.00004803,0.00010833,
 -0.00001769,-0.00004523,0.00033524,-0.00021595,-0.00057148,-0.00000571
 ,-0.00000655,0.00017490,0.00002680,0.00011854,-0.00007920,-0.00001699,
 0.00024579,-0.00017095,-0.00000725,-0.00011378,0.00006142,0.00011576,-
 0.00010594,0.00013610,-0.00043621,-0.00017854,0.00006457,-0.00032620,-
 0.00011634,-0.00035483,0.00012814,-0.00004839,-0.00001305,-0.00046548,
 -0.00068572,-0.00070579,0.00080242,-0.00028872,-0.00003658,0.00018197,
 0.00086573,-0.00019772,-0.00992254,-0.00237420,0.00999896,0.00109568,-
 0.00055183,-0.00128281,0.00064956,0.00066560,0.00008614,-0.16312834,-0
 .09587665,0.09405229,0.01761865,0.01282514,-0.01416754,-0.01269717,-0.
 01219420,0.00952050,0.16475799,-0.00021730,-0.00014338,0.00048220,0.00
 081027,0.00056927,-0.00054329,-0.00102118,-0.00084398,-0.00125919,0.00
 042423,-0.00028231,-0.00058895,-0.00002564,0.00001961,-0.00028952,0.00
 012206,0.00019560,-0.00013341,-0.00001911,-0.00006377,0.00002603,0.000
 05776,0.00006748,0.00012057,0.00003936,0.00022874,-0.00035567,0.000096
 03,0.00000311,0.00008381,0.00000114,0.00002174,0.00000436,0.00003658,0
 .00015856,0.00036897,0.00039205,0.00074857,0.00069383,-0.00079416,0.00
 281625,0.00144637,-0.00071251,-0.00063101,0.00056189,-0.00003754,0.000
 05562,-0.00002540,-0.00001105,0.00003102,0.00003979,0.00002724,-0.0000
 0476,0.00000945,-0.00004840,-0.00002485,0.00010926,-0.00000769,-0.0000
 1219,-0.00000699,0.00001120,-0.00007737,-0.00013202,-0.00016566,-0.000
 09942,0.00016076,0.00191713,-0.00023735,-0.00068746,0.00103265,-0.0006
 2546,-0.00120784,0.00002121,0.00023364,0.00067904,-0.00009710,0.000189
 68,0.00006118,0.00045555,0.00008857,-0.00022000,0.00001408,0.00024188,
 -0.00002705,-0.00062917,0.00054618,-0.00025183,0.00002728,0.00001117,-
 0.00012563,-0.00000138,0.00000985,-0.00001828,-0.00003393,-0.00003520,
 0.00002086,-0.00003369,-0.00004616,-0.00002462,0.00013976,-0.00007571,
 0.00003400,-0.00006542,-0.00033734,0.00007905,0.00004581,-0.00022383,-
 0.00011680,0.00014922,-0.00034854,-0.00036221,0.00010139,0.00054083,-0
 .00015924,-0.00016470,-0.00009590,-0.00008464,-0.00005010,-0.00011789,
 0.00004984,-0.00059191,-0.00092776,0.00031164,0.00035887,0.00011704,-0
 .00001559,0.00001039,0.00003148,0.00000401,-0.00001069,0.00004330,0.00
 007116,-0.00190311,-0.00012562,-0.00110248,0.00191721,0.00019781,0.000
 45100,0.00010842,0.00030103,0.00001594,0.00024500,0.00015400,0.0002890
 6,-0.00034696,0.00034981,0.00025815,0.00051163,0.00034903,0.00060549,-
 0.00013309,-0.00001241,-0.00017236,-0.00002973,-0.00002499,-0.00002625
 ,-0.00004153,-0.00005318,-0.00000251,-0.00024425,0.00005243,-0.0003030
 1,0.00008504,0.00017930,0.00014084,-0.00017503,-0.00035898,-0.00033992
 ,-0.00025194,-0.00014027,-0.00026243,-0.00093202,-0.00012284,0.0004974
 7,0.00010424,-0.00548622,0.00242412,-0.00023225,0.00000513,-0.00005221
 ,0.00012216,0.00085295,-0.00056681,0.00572095,-0.00835989,-0.00354005,
 0.00089959,0.00622753,-0.00038768,0.00005198,0.00004335,-0.00001377,0.
 00007261,-0.00001633,0.00005847,0.00040143,-0.00014242,-0.00029651,-0.
 00006036,-0.00000829,0.00006717,-0.00001179,-0.00002579,-0.00003891,0.
 00002216,0.00010155,-0.00005652,0.00000531,-0.00006005,0.00004199,0.00
 003336,-0.00005993,0.00005906,-0.00013809,-0.00036217,0.00057395,-0.00
 007742,0.00005431,-0.00021916,-0.00031948,-0.00012824,-0.00006819,0.00
 031249,0.00220253,-0.00169443,-0.00017663,-0.00032900,0.00032186,-0.00
 019331,-0.00100241,0.00084628,0.01434440,0.01981616,-0.01170921,-0.000
 17764,0.00022470,-0.00033434,0.00327610,-0.00369288,-0.00426184,-0.091
 19564,-0.15044498,0.08438826,-0.01570141,-0.01473236,0.01259244,-0.008
 34466,-0.00966987,0.00769685,0.09089928,0.16253251,0.00025305,0.000193
 24,-0.00006210,-0.00053039,-0.00068929,0.00021908,0.00062222,-0.000088
 56,0.00003419,-0.00187779,-0.00115860,0.00143358,0.00019622,-0.0001042
 7,-0.00037624,-0.00020324,-0.00017298,-0.00002865,0.00002605,0.0000615
 0,-0.00002656,-0.00007510,0.00011847,-0.00002134,-0.00000994,0.0000199
 4,-0.00083956,-0.00003096,0.00002605,0.00001246,0.00001672,-0.00001485
 ,-0.00003146,0.00021994,0.00023108,-0.00010995,0.00021974,-0.00108502,
 -0.00348266,0.00023666,-0.00000508,-0.00137104,0.00024917,0.00062708,-
 0.00012625,0.00000167,-0.00010763,-0.00002695,0.00000571,-0.00001679,-
 0.00003461,-0.00001226,0.00000882,-0.00000472,0.00008681,0.00011196,-0
 .00003142,-0.00000809,-0.00001022,-0.00000482,0.00001690,0.00005256,0.
 00002008,0.00013705,0.00011390,-0.00001496,0.00010983,-0.00091718,0.00
 045239,-0.00090899,0.00048130,0.00085657,0.00017411,-0.00025251,-0.000
 55556,0.00011317,-0.00012912,-0.00014000,-0.00006372,0.00001552,0.0000
 2734,-0.00000069,-0.00021715,0.00006346,0.00065448,-0.00049587,0.00021
 310,-0.00004912,-0.00001094,0.00010620,-0.00001273,-0.00000453,-0.0000
 0713,-0.00002299,0.00003493,0.00001666,0.00000420,0.00003691,0.0000107
 6,-0.00013996,0.00005915,-0.00001317,-0.00003592,0.00030289,-0.0001122
 6,-0.00011916,0.00016321,0.00020030,-0.00033336,0.00020956,0.00044145,
 -0.00001531,-0.00031827,0.00009308,0.00012164,0.00004463,0.00011035,-0
 .00000838,0.00009351,-0.00001752,0.00008471,0.00063590,-0.00047885,-0.
 00015074,-0.00009525,0.00008509,0.00002699,-0.00004620,0.00001409,0.00
 001870,-0.00003212,-0.00008549,0.00240595,-0.00059532,0.00138786,-0.00
 245755,-0.00022572,-0.00052121,-0.00018135,-0.00010435,-0.00012912,-0.
 00025953,-0.00021404,-0.00034252,0.00036693,0.00009419,-0.00044305,-0.
 00003839,0.00025415,-0.00069295,0.00022329,-0.00004307,0.00025127,-0.0
 0002615,-0.00002797,0.00000738,0.00006119,0.00001605,0.00004877,0.0001
 8717,-0.00015102,0.00032219,0.00003992,-0.00029321,-0.00032331,0.00017
 243,0.00028340,0.00036004,0.00037379,0.00004708,0.00030538,0.00129412,
 -0.00002275,-0.00085006,-0.00266315,0.00565116,-0.00242213,0.00015706,
 -0.00073342,0.00023386,-0.00001669,-0.00158016,0.00077866,-0.00453999,
 -0.00314702,-0.00076520,0.00147903,-0.00283068,-0.00133833,-0.00005858
 ,-0.00002504,-0.00001653,-0.00010656,0.00002330,-0.00003750,-0.0004924
 7,0.00039364,0.00061939,0.00005773,-0.00002273,-0.00013317,-0.00001841
 ,-0.00004718,0.00005520,-0.00000594,-0.00023935,0.00008475,0.00003639,
 0.00006996,-0.00005817,-0.00009049,0.00009897,-0.00011140,0.00009254,0
 .00044965,-0.00018710,-0.00005121,-0.00011989,0.00025801,0.00008678,-0
 .00003093,-0.00014267,-0.00093374,-0.00011608,0.00205618,-0.00057483,0
 .00043068,-0.00031539,0.00025836,-0.00031296,0.00055313,0.01415166,0.0
 0761878,-0.01437880,-0.00054109,0.00077648,-0.00015632,0.00056112,-0.0
 0210248,-0.00087705,0.08904068,0.08378791,-0.14487824,0.00939573,0.010
 95248,-0.00904870,-0.01207569,-0.01096992,0.02149613,-0.09429696,-0.08
 466228,0.15294377\\-0.00000539,-0.00000047,-0.00000735,0.00000491,0.00
 000820,0.00001176,-0.00000074,-0.00000342,-0.00000361,0.00000501,-0.00
 000462,-0.00000868,-0.00000069,0.00000373,0.00000910,0.00000016,-0.000
 00205,0.00000361,-0.00000042,0.00000117,-0.00000295,0.00000366,0.00000
 205,0.00000194,0.00000045,-0.00000080,0.00000268,-0.00000034,-0.000003
 33,0.00000379,-0.00000278,-0.00000269,0.00000081,-0.00000085,-0.000000
 58,0.00000281,0.00000308,0.00000309,0.00001135,0.00000669,-0.00000301,
 0.00000009,-0.00000459,-0.00000372,-0.00000098,-0.00000178,-0.00000064
 ,0.00000346,-0.00000619,-0.00000131,0.00000175,-0.00000456,-0.00000258
 ,0.00000422,-0.00000397,-0.00000433,0.00000145,-0.00000153,0.00000139,
 0.00000571,0.00000021,-0.00000166,0.00000548,0.00000398,0.00000214,0.0
 0000356,-0.00000209,0.00000466,-0.00000180,-0.00000277,0.00000426,-0.0
 0000702,0.00000173,-0.00000619,-0.00000906,-0.00000448,0.00000174,0.00
 000333,0.00000450,0.00000135,-0.00000615,-0.00000297,0.00000530,-0.000
 00670,0.00000324,-0.00000589,-0.00000505,-0.00000508,0.00000052,-0.000
 00394,-0.00000127,-0.00000101,-0.00000224,-0.00000283,0.00000207,-0.00
 000165,-0.00000224,0.00000165,-0.00000557,-0.00000203,0.00000115,-0.00
 000694,0.00000434,0.00000176,-0.00000197,-0.00000508,0.00000074,-0.000
 01052,-0.00000840,0.00000104,-0.00000230,0.00001235,0.00000435,-0.0000
 0758,0.00000168,0.00000120,-0.00000824,0.00000002,0.00000249,-0.000005
 94,0.00000031,-0.00000095,-0.00000544,0.00000199,0.00000317,-0.0000030
 8,-0.00000177,0.00000360,-0.00000572,-0.00000390,-0.00000030,-0.000002
 95,-0.00000381,0.00000053,0.00000497,0.00000255,0.00000177,-0.00000435
 ,0.00000200,-0.00000108,0.00000448,-0.00000549,0.00000463,0.00000580,-
 0.00000077,0.00000108,-0.00000216,0.00000802,0.00000340,-0.00000716,-0
 .00000393,-0.00000399,0.00000381,-0.00000168,0.00000048,0.00000026,-0.
 00000542,-0.00000371,-0.00000068,-0.00000408,-0.00000309,-0.00000131,-
 0.00000187,0.00000187,-0.00000182,-0.00000643,-0.00000321,-0.00000336,
 -0.00001139,0.00000008,0.00000497,0.00000210,-0.00000733,0.00001373,0.
 00000118,0.00000625,-0.00000436,0.00000105,-0.00000092,-0.00000326,-0.
 00000042,-0.00000038,-0.00000211,-0.00000149,-0.00000351,0.00000042,0.
 00000188,0.00000257,-0.00000288,-0.00000333,-0.00000117,0.00000113,-0.
 00000106,-0.00000385,0.00000143,-0.00000523,0.00000420,0.00000108,-0.0
 0000029,-0.00000327,0.00000508,0.00000014,-0.00000145,0.00000277,0.000
 00291,-0.00000162,0.00000335,0.00000333,-0.00000104,0.00000536,0.00000
 200,-0.00000105,0.00000792,0.00000368,-0.00000059,0.00000494,0.0000027
 0,0.00000048,0.00000534,0.00000445,0.00000096,0.00000511,0.00000400,-0
 .00000132,0.00000159,0.00000527,-0.00000003,0.00000297,0.00000199,-0.0
 0000017,0.00000264,0.00000587,0.00000379,0.00000150,0.00000538,0.00000
 094,0.00000005,0.00000729,0.00000107,0.00000164,0.00001621,0.00001076,
 0.00000146,0.00000650,0.00000082,0.00000098,-0.00000398,-0.00001071,0.
 00000604,-0.00000941,-0.00000548,-0.00001081\\\@


 YOU CANNOT THROW TO THE GROUND THE LETTERS OF
 THE GREEK ALPHABET AND PICK UP THE ILIAD.
        - RUFUS CHOATE, 1799-1859
 Job cpu time:      24 days 13 hours 49 minutes 24.9 seconds.
 File lengths (MBytes):  RWF=  24072 Int=      0 D2E=      0 Chk=     99 Scr=      1
 Normal termination of Gaussian 09 at Mon May  2 23:42:39 2016.
