 Entering Gaussian System, Link 0=g16
 Input=input.com
 Output=input.log
 Initial command:
 /home/matma/Programs/gaussian/G16_x86_SSE4/tar/g16/l1.exe "/scratch-data/gaussian/Gau-26873.inp" -scrdir="/scratch-data/gaussian/"
 Entering Link 1 = /home/matma/Programs/gaussian/G16_x86_SSE4/tar/g16/l1.exe PID=     26875.
  
 Copyright (c) 1988-2017, Gaussian, Inc.  All Rights Reserved.
  
 This is part of the Gaussian(R) 16 program.  It is based on
 the Gaussian(R) 09 system (copyright 2009, Gaussian, Inc.),
 the Gaussian(R) 03 system (copyright 2003, Gaussian, Inc.),
 the Gaussian(R) 98 system (copyright 1998, Gaussian, Inc.),
 the Gaussian(R) 94 system (copyright 1995, Gaussian, Inc.),
 the Gaussian 92(TM) system (copyright 1992, Gaussian, Inc.),
 the Gaussian 90(TM) system (copyright 1990, Gaussian, Inc.),
 the Gaussian 88(TM) system (copyright 1988, Gaussian, Inc.),
 the Gaussian 86(TM) system (copyright 1986, Carnegie Mellon
 University), and the Gaussian 82(TM) system (copyright 1983,
 Carnegie Mellon University). Gaussian is a federally registered
 trademark of Gaussian, Inc.
  
 This software contains proprietary and confidential information,
 including trade secrets, belonging to Gaussian, Inc.
  
 This software is provided under written license and may be
 used, copied, transmitted, or stored only in accord with that
 written license.
  
 The following legend is applicable only to US Government
 contracts under FAR:
  
                    RESTRICTED RIGHTS LEGEND
  
 Use, reproduction and disclosure by the US Government is
 subject to restrictions as set forth in subparagraphs (a)
 and (c) of the Commercial Computer Software - Restricted
 Rights clause in FAR 52.227-19.
  
 Gaussian, Inc.
 340 Quinnipiac St., Bldg. 40, Wallingford CT 06492
  
  
 ---------------------------------------------------------------
 Warning -- This program may not be used in any manner that
 competes with the business of Gaussian, Inc. or will provide
 assistance to any competitor of Gaussian, Inc.  The licensee
 of this program is prohibited from giving any competitor of
 Gaussian, Inc. access to this program.  By using this program,
 the user acknowledges that Gaussian, Inc. is engaged in the
 business of creating and licensing software in the field of
 computational chemistry and represents and warrants to the
 licensee that it is not a competitor of Gaussian, Inc. and that
 it will not use this program in any manner prohibited above.
 ---------------------------------------------------------------
  

 Cite this work as:
 Gaussian 16, Revision B.01,
 M. J. Frisch, G. W. Trucks, H. B. Schlegel, G. E. Scuseria, 
 M. A. Robb, J. R. Cheeseman, G. Scalmani, V. Barone, 
 G. A. Petersson, H. Nakatsuji, X. Li, M. Caricato, A. V. Marenich, 
 J. Bloino, B. G. Janesko, R. Gomperts, B. Mennucci, H. P. Hratchian, 
 J. V. Ortiz, A. F. Izmaylov, J. L. Sonnenberg, D. Williams-Young, 
 F. Ding, F. Lipparini, F. Egidi, J. Goings, B. Peng, A. Petrone, 
 T. Henderson, D. Ranasinghe, V. G. Zakrzewski, J. Gao, N. Rega, 
 G. Zheng, W. Liang, M. Hada, M. Ehara, K. Toyota, R. Fukuda, 
 J. Hasegawa, M. Ishida, T. Nakajima, Y. Honda, O. Kitao, H. Nakai, 
 T. Vreven, K. Throssell, J. A. Montgomery, Jr., J. E. Peralta, 
 F. Ogliaro, M. J. Bearpark, J. J. Heyd, E. N. Brothers, K. N. Kudin, 
 V. N. Staroverov, T. A. Keith, R. Kobayashi, J. Normand, 
 K. Raghavachari, A. P. Rendell, J. C. Burant, S. S. Iyengar, 
 J. Tomasi, M. Cossi, J. M. Millam, M. Klene, C. Adamo, R. Cammi, 
 J. W. Ochterski, R. L. Martin, K. Morokuma, O. Farkas, 
 J. B. Foresman, and D. J. Fox, Gaussian, Inc., Wallingford CT, 2016.
 
 ******************************************
 Gaussian 16:  ES64L-G16RevB.01 20-Dec-2017
                22-Jun-2021 
 ******************************************
 %nproc=12
 Will use up to   12 processors via shared memory.
 %mem=16GB
 --------------------------------------
 #P pm6 opt=loose freq int=(grid=99590)
 --------------------------------------
 1/7=-1,18=20,19=15,26=1,38=1/1,3;
 2/9=110,12=2,17=6,18=5,40=1/2;
 3/5=2,25=1,41=3900000,71=1,75=99590/1,2,3;
 4/35=1/1;
 5/5=2,35=1,38=5/2;
 6/7=2,8=2,9=2,10=2,28=1/1;
 7//1,2,3,16;
 1/7=-1,18=20,19=15,26=1/3(2);
 2/9=110/2;
 99//99;
 2/9=110/2;
 3/5=2,25=1,41=3900000,71=1,75=99590,135=20/1,2,3;
 4/5=5,16=3,35=1/1;
 5/5=2,35=1,38=5/2;
 7//1,2,3,16;
 1/7=-1,18=20,19=15,26=1/3(-5);
 2/9=110/2;
 6/7=2,8=2,9=2,10=2,19=2,28=1/1;
 99/9=1/99;
 Leave Link    1 at Tue Jun 22 14:21:11 2021, MaxMem=  2147483648 cpu:               0.2 elap:               0.0
 (Enter /home/matma/Programs/gaussian/G16_x86_SSE4/tar/g16/l101.exe)
 ------------
 offspring-02
 ------------
 Symbolic Z-matrix:
 Charge =  0 Multiplicity = 1
 O                     2.124     3.19      0.276 
 C                     2.432     3.035     1.663 
 C                     2.777     1.56      1.986 
 O                     3.662     1.191     0.92 
 C                     1.535     0.645     1.975 
 C                     0.421     1.249     2.861 
 O                     0.11      2.571     2.388 
 C                     1.2       3.522     2.456 
 C                     0.57      4.793     1.858 
 O                    -0.077     5.534     2.889 
 O                     0.49     -0.173     6.841 
 C                    -0.238    -0.968     5.881 
 C                    -0.994    -0.014     4.937 
 C                    -1.18     -0.509     3.49 
 C                    -0.515    -1.874     3.201 
 O                     0.772    -1.953     3.805 
 C                     0.873    -1.816     5.233 
 C                     0.916    -3.257     5.795 
 O                     0.341    -3.333     7.099 
 O                    -1.327    -2.947     3.602 
 O                    -0.738     0.478     2.54 
 O                    -2.298     0.061     5.546 
 O                     2.       -0.58      2.556 
 H                     3.318     3.682     1.877 
 H                     3.325     1.456     2.952 
 H                     3.866     0.227     0.976 
 H                     1.163     0.464     0.94 
 H                     0.627     1.269     3.949 
 H                     1.461     3.67      3.529 
 H                     1.337     5.489     1.466 
 H                    -0.142     4.533     1.051 
 H                    -0.879     5.04      3.218 
 H                    -0.972    -1.605     6.445 
 H                    -0.519     1.004     4.942 
 H                    -2.273    -0.557     3.236 
 H                    -0.296    -2.065     2.124 
 H                     1.858    -1.296     5.348 
 H                     0.284    -3.942     5.189 
 H                     1.947    -3.649     5.812 
 H                     0.882    -2.819     7.741 
 H                    -2.768     0.872     5.255 
 H                    -0.14      0.249     7.47 
 H                     1.297    -1.267     2.493 
 H                    -1.664    -2.862     4.522 
 H                     2.734     2.623    -0.267 
 
 ITRead=  0  0  0  0  0  0  0  0  0  0  0  0  0  0  0  0  0  0  0  0
 ITRead=  0  0  0  0  0  0  0  0  0  0  0  0  0  0  0  0  0  0  0  0
 ITRead=  0  0  0  0  0
 MicOpt= -1 -1 -1 -1 -1 -1 -1 -1 -1 -1 -1 -1 -1 -1 -1 -1 -1 -1 -1 -1
 MicOpt= -1 -1 -1 -1 -1 -1 -1 -1 -1 -1 -1 -1 -1 -1 -1 -1 -1 -1 -1 -1
 MicOpt= -1 -1 -1 -1 -1
 NAtoms=     45 NQM=       45 NQMF=       0 NMMI=      0 NMMIF=      0
                NMic=       0 NMicF=      0.
                    Isotopes and Nuclear Properties:
 (Nuclear quadrupole moments (NQMom) in fm**2, nuclear magnetic moments (NMagM)
  in nuclear magnetons)

  Atom         1           2           3           4           5           6           7           8           9          10
 IAtWgt=          16          12          12          16          12          12          16          12          12          16
 AtmWgt=  15.9949146  12.0000000  12.0000000  15.9949146  12.0000000  12.0000000  15.9949146  12.0000000  12.0000000  15.9949146
 NucSpn=           0           0           0           0           0           0           0           0           0           0
 AtZEff=  -0.0000000  -0.0000000  -0.0000000  -0.0000000  -0.0000000  -0.0000000  -0.0000000  -0.0000000  -0.0000000  -0.0000000
 NQMom=    0.0000000   0.0000000   0.0000000   0.0000000   0.0000000   0.0000000   0.0000000   0.0000000   0.0000000   0.0000000
 NMagM=    0.0000000   0.0000000   0.0000000   0.0000000   0.0000000   0.0000000   0.0000000   0.0000000   0.0000000   0.0000000
 AtZNuc=   8.0000000   6.0000000   6.0000000   8.0000000   6.0000000   6.0000000   8.0000000   6.0000000   6.0000000   8.0000000

  Atom        11          12          13          14          15          16          17          18          19          20
 IAtWgt=          16          12          12          12          12          16          12          12          16          16
 AtmWgt=  15.9949146  12.0000000  12.0000000  12.0000000  12.0000000  15.9949146  12.0000000  12.0000000  15.9949146  15.9949146
 NucSpn=           0           0           0           0           0           0           0           0           0           0
 AtZEff=  -0.0000000  -0.0000000  -0.0000000  -0.0000000  -0.0000000  -0.0000000  -0.0000000  -0.0000000  -0.0000000  -0.0000000
 NQMom=    0.0000000   0.0000000   0.0000000   0.0000000   0.0000000   0.0000000   0.0000000   0.0000000   0.0000000   0.0000000
 NMagM=    0.0000000   0.0000000   0.0000000   0.0000000   0.0000000   0.0000000   0.0000000   0.0000000   0.0000000   0.0000000
 AtZNuc=   8.0000000   6.0000000   6.0000000   6.0000000   6.0000000   8.0000000   6.0000000   6.0000000   8.0000000   8.0000000

  Atom        21          22          23          24          25          26          27          28          29          30
 IAtWgt=          16          16          16           1           1           1           1           1           1           1
 AtmWgt=  15.9949146  15.9949146  15.9949146   1.0078250   1.0078250   1.0078250   1.0078250   1.0078250   1.0078250   1.0078250
 NucSpn=           0           0           0           1           1           1           1           1           1           1
 AtZEff=  -0.0000000  -0.0000000  -0.0000000  -0.0000000  -0.0000000  -0.0000000  -0.0000000  -0.0000000  -0.0000000  -0.0000000
 NQMom=    0.0000000   0.0000000   0.0000000   0.0000000   0.0000000   0.0000000   0.0000000   0.0000000   0.0000000   0.0000000
 NMagM=    0.0000000   0.0000000   0.0000000   2.7928460   2.7928460   2.7928460   2.7928460   2.7928460   2.7928460   2.7928460
 AtZNuc=   8.0000000   8.0000000   8.0000000   1.0000000   1.0000000   1.0000000   1.0000000   1.0000000   1.0000000   1.0000000

  Atom        31          32          33          34          35          36          37          38          39          40
 IAtWgt=           1           1           1           1           1           1           1           1           1           1
 AtmWgt=   1.0078250   1.0078250   1.0078250   1.0078250   1.0078250   1.0078250   1.0078250   1.0078250   1.0078250   1.0078250
 NucSpn=           1           1           1           1           1           1           1           1           1           1
 AtZEff=  -0.0000000  -0.0000000  -0.0000000  -0.0000000  -0.0000000  -0.0000000  -0.0000000  -0.0000000  -0.0000000  -0.0000000
 NQMom=    0.0000000   0.0000000   0.0000000   0.0000000   0.0000000   0.0000000   0.0000000   0.0000000   0.0000000   0.0000000
 NMagM=    2.7928460   2.7928460   2.7928460   2.7928460   2.7928460   2.7928460   2.7928460   2.7928460   2.7928460   2.7928460
 AtZNuc=   1.0000000   1.0000000   1.0000000   1.0000000   1.0000000   1.0000000   1.0000000   1.0000000   1.0000000   1.0000000

  Atom        41          42          43          44          45
 IAtWgt=           1           1           1           1           1
 AtmWgt=   1.0078250   1.0078250   1.0078250   1.0078250   1.0078250
 NucSpn=           1           1           1           1           1
 AtZEff=  -0.0000000  -0.0000000  -0.0000000  -0.0000000  -0.0000000
 NQMom=    0.0000000   0.0000000   0.0000000   0.0000000   0.0000000
 NMagM=    2.7928460   2.7928460   2.7928460   2.7928460   2.7928460
 AtZNuc=   1.0000000   1.0000000   1.0000000   1.0000000   1.0000000
 Leave Link  101 at Tue Jun 22 14:21:11 2021, MaxMem=  2147483648 cpu:               3.0 elap:               0.2
 (Enter /home/matma/Programs/gaussian/G16_x86_SSE4/tar/g16/l103.exe)

 GradGradGradGradGradGradGradGradGradGradGradGradGradGradGradGradGradGrad
 Berny optimization.
 Initialization pass.
                           ----------------------------
                           !    Initial Parameters    !
                           ! (Angstroms and Degrees)  !
 --------------------------                            --------------------------
 ! Name  Definition              Value          Derivative Info.                !
 --------------------------------------------------------------------------------
 ! R1    R(1,2)                  1.4292         estimate D2E/DX2                !
 ! R2    R(1,45)                 0.9942         estimate D2E/DX2                !
 ! R3    R(2,3)                  1.5489         estimate D2E/DX2                !
 ! R4    R(2,8)                  1.544          estimate D2E/DX2                !
 ! R5    R(2,24)                 1.1178         estimate D2E/DX2                !
 ! R6    R(3,4)                  1.4338         estimate D2E/DX2                !
 ! R7    R(3,5)                  1.5427         estimate D2E/DX2                !
 ! R8    R(3,25)                 1.1155         estimate D2E/DX2                !
 ! R9    R(4,26)                 0.9869         estimate D2E/DX2                !
 ! R10   R(5,6)                  1.5462         estimate D2E/DX2                !
 ! R11   R(5,23)                 1.4333         estimate D2E/DX2                !
 ! R12   R(5,27)                 1.1146         estimate D2E/DX2                !
 ! R13   R(6,7)                  1.4381         estimate D2E/DX2                !
 ! R14   R(6,21)                 1.4286         estimate D2E/DX2                !
 ! R15   R(6,28)                 1.1075         estimate D2E/DX2                !
 ! R16   R(7,8)                  1.4481         estimate D2E/DX2                !
 ! R17   R(8,9)                  1.5395         estimate D2E/DX2                !
 ! R18   R(8,29)                 1.1142         estimate D2E/DX2                !
 ! R19   R(9,10)                 1.425          estimate D2E/DX2                !
 ! R20   R(9,30)                 1.1074         estimate D2E/DX2                !
 ! R21   R(9,31)                 1.1072         estimate D2E/DX2                !
 ! R22   R(10,32)                0.9977         estimate D2E/DX2                !
 ! R23   R(11,12)                1.4435         estimate D2E/DX2                !
 ! R24   R(11,42)                0.9852         estimate D2E/DX2                !
 ! R25   R(12,13)                1.5404         estimate D2E/DX2                !
 ! R26   R(12,17)                1.5406         estimate D2E/DX2                !
 ! R27   R(12,33)                1.1237         estimate D2E/DX2                !
 ! R28   R(13,14)                1.5406         estimate D2E/DX2                !
 ! R29   R(13,22)                1.4412         estimate D2E/DX2                !
 ! R30   R(13,34)                1.1234         estimate D2E/DX2                !
 ! R31   R(14,15)                1.5456         estimate D2E/DX2                !
 ! R32   R(14,21)                1.4395         estimate D2E/DX2                !
 ! R33   R(14,35)                1.1232         estimate D2E/DX2                !
 ! R34   R(15,16)                1.4239         estimate D2E/DX2                !
 ! R35   R(15,20)                1.4041         estimate D2E/DX2                !
 ! R36   R(15,36)                1.1155         estimate D2E/DX2                !
 ! R37   R(16,17)                1.4381         estimate D2E/DX2                !
 ! R38   R(17,18)                1.5473         estimate D2E/DX2                !
 ! R39   R(17,37)                1.1198         estimate D2E/DX2                !
 ! R40   R(18,19)                1.4272         estimate D2E/DX2                !
 ! R41   R(18,38)                1.1117         estimate D2E/DX2                !
 ! R42   R(18,39)                1.1031         estimate D2E/DX2                !
 ! R43   R(19,40)                0.9844         estimate D2E/DX2                !
 ! R44   R(20,44)                0.9835         estimate D2E/DX2                !
 ! R45   R(22,41)                0.9815         estimate D2E/DX2                !
 ! R46   R(23,43)                0.985          estimate D2E/DX2                !
 ! A1    A(2,1,45)             109.6309         estimate D2E/DX2                !
 ! A2    A(1,2,3)              110.7114         estimate D2E/DX2                !
 ! A3    A(1,2,8)              106.9941         estimate D2E/DX2                !
 ! A4    A(1,2,24)             107.0881         estimate D2E/DX2                !
 ! A5    A(3,2,8)              111.7777         estimate D2E/DX2                !
 ! A6    A(3,2,24)             109.557          estimate D2E/DX2                !
 ! A7    A(8,2,24)             110.5842         estimate D2E/DX2                !
 ! A8    A(2,3,4)              103.1516         estimate D2E/DX2                !
 ! A9    A(2,3,5)              112.5828         estimate D2E/DX2                !
 ! A10   A(2,3,25)             112.2601         estimate D2E/DX2                !
 ! A11   A(4,3,5)              109.8153         estimate D2E/DX2                !
 ! A12   A(4,3,25)             108.4592         estimate D2E/DX2                !
 ! A13   A(5,3,25)             110.2668         estimate D2E/DX2                !
 ! A14   A(3,4,26)             109.6807         estimate D2E/DX2                !
 ! A15   A(3,5,6)              110.1366         estimate D2E/DX2                !
 ! A16   A(3,5,23)             104.054          estimate D2E/DX2                !
 ! A17   A(3,5,27)             111.8162         estimate D2E/DX2                !
 ! A18   A(6,5,23)             109.5919         estimate D2E/DX2                !
 ! A19   A(6,5,27)             110.7971         estimate D2E/DX2                !
 ! A20   A(23,5,27)            110.2359         estimate D2E/DX2                !
 ! A21   A(5,6,7)              109.0524         estimate D2E/DX2                !
 ! A22   A(5,6,21)             104.1782         estimate D2E/DX2                !
 ! A23   A(5,6,28)             115.8464         estimate D2E/DX2                !
 ! A24   A(7,6,21)             104.2869         estimate D2E/DX2                !
 ! A25   A(7,6,28)             110.2878         estimate D2E/DX2                !
 ! A26   A(21,6,28)            112.4202         estimate D2E/DX2                !
 ! A27   A(6,7,8)              115.1802         estimate D2E/DX2                !
 ! A28   A(2,8,7)              111.6753         estimate D2E/DX2                !
 ! A29   A(2,8,9)              112.7959         estimate D2E/DX2                !
 ! A30   A(2,8,29)             110.4636         estimate D2E/DX2                !
 ! A31   A(7,8,9)              102.4693         estimate D2E/DX2                !
 ! A32   A(7,8,29)             107.9856         estimate D2E/DX2                !
 ! A33   A(9,8,29)             111.1181         estimate D2E/DX2                !
 ! A34   A(8,9,10)             109.5165         estimate D2E/DX2                !
 ! A35   A(8,9,30)             111.8979         estimate D2E/DX2                !
 ! A36   A(8,9,31)             110.6359         estimate D2E/DX2                !
 ! A37   A(10,9,30)            104.1083         estimate D2E/DX2                !
 ! A38   A(10,9,31)            110.9461         estimate D2E/DX2                !
 ! A39   A(30,9,31)            109.5717         estimate D2E/DX2                !
 ! A40   A(9,10,32)            110.2472         estimate D2E/DX2                !
 ! A41   A(12,11,42)           109.7558         estimate D2E/DX2                !
 ! A42   A(11,12,13)           108.3004         estimate D2E/DX2                !
 ! A43   A(11,12,17)           102.6616         estimate D2E/DX2                !
 ! A44   A(11,12,33)           107.9298         estimate D2E/DX2                !
 ! A45   A(13,12,17)           115.9172         estimate D2E/DX2                !
 ! A46   A(13,12,33)           109.7612         estimate D2E/DX2                !
 ! A47   A(17,12,33)           111.7253         estimate D2E/DX2                !
 ! A48   A(12,13,14)           115.8403         estimate D2E/DX2                !
 ! A49   A(12,13,22)           102.5528         estimate D2E/DX2                !
 ! A50   A(12,13,34)           110.5474         estimate D2E/DX2                !
 ! A51   A(14,13,22)           107.7211         estimate D2E/DX2                !
 ! A52   A(14,13,34)           110.267          estimate D2E/DX2                !
 ! A53   A(22,13,34)           109.4845         estimate D2E/DX2                !
 ! A54   A(13,14,15)           114.0435         estimate D2E/DX2                !
 ! A55   A(13,14,21)           111.2534         estimate D2E/DX2                !
 ! A56   A(13,14,35)           110.0984         estimate D2E/DX2                !
 ! A57   A(15,14,21)           110.4893         estimate D2E/DX2                !
 ! A58   A(15,14,35)           109.7957         estimate D2E/DX2                !
 ! A59   A(21,14,35)           100.3039         estimate D2E/DX2                !
 ! A60   A(14,15,16)           111.0123         estimate D2E/DX2                !
 ! A61   A(14,15,20)           111.8805         estimate D2E/DX2                !
 ! A62   A(14,15,36)           114.595          estimate D2E/DX2                !
 ! A63   A(16,15,20)           111.0493         estimate D2E/DX2                !
 ! A64   A(16,15,36)           102.8617         estimate D2E/DX2                !
 ! A65   A(20,15,36)           104.9764         estimate D2E/DX2                !
 ! A66   A(15,16,17)           118.6467         estimate D2E/DX2                !
 ! A67   A(12,17,16)           114.8004         estimate D2E/DX2                !
 ! A68   A(12,17,18)           112.3271         estimate D2E/DX2                !
 ! A69   A(12,17,37)           109.6065         estimate D2E/DX2                !
 ! A70   A(16,17,18)           105.8959         estimate D2E/DX2                !
 ! A71   A(16,17,37)           102.0051         estimate D2E/DX2                !
 ! A72   A(18,17,37)           111.7608         estimate D2E/DX2                !
 ! A73   A(17,18,19)           111.7317         estimate D2E/DX2                !
 ! A74   A(17,18,38)           111.1031         estimate D2E/DX2                !
 ! A75   A(17,18,39)           111.2541         estimate D2E/DX2                !
 ! A76   A(19,18,38)           103.6628         estimate D2E/DX2                !
 ! A77   A(19,18,39)           110.093          estimate D2E/DX2                !
 ! A78   A(38,18,39)           108.7092         estimate D2E/DX2                !
 ! A79   A(18,19,40)           110.2834         estimate D2E/DX2                !
 ! A80   A(15,20,44)           113.5334         estimate D2E/DX2                !
 ! A81   A(6,21,14)            118.0919         estimate D2E/DX2                !
 ! A82   A(13,22,41)           110.5489         estimate D2E/DX2                !
 ! A83   A(5,23,43)            109.7939         estimate D2E/DX2                !
 ! D1    D(45,1,2,3)           -38.9976         estimate D2E/DX2                !
 ! D2    D(45,1,2,8)          -161.0236         estimate D2E/DX2                !
 ! D3    D(45,1,2,24)           80.3846         estimate D2E/DX2                !
 ! D4    D(1,2,3,4)             45.266          estimate D2E/DX2                !
 ! D5    D(1,2,3,5)            -73.0418         estimate D2E/DX2                !
 ! D6    D(1,2,3,25)           161.8162         estimate D2E/DX2                !
 ! D7    D(8,2,3,4)            164.445          estimate D2E/DX2                !
 ! D8    D(8,2,3,5)             46.1372         estimate D2E/DX2                !
 ! D9    D(8,2,3,25)           -79.0048         estimate D2E/DX2                !
 ! D10   D(24,2,3,4)           -72.6185         estimate D2E/DX2                !
 ! D11   D(24,2,3,5)           169.0737         estimate D2E/DX2                !
 ! D12   D(24,2,3,25)           43.9317         estimate D2E/DX2                !
 ! D13   D(1,2,8,7)             74.0306         estimate D2E/DX2                !
 ! D14   D(1,2,8,9)            -40.7453         estimate D2E/DX2                !
 ! D15   D(1,2,8,29)          -165.773          estimate D2E/DX2                !
 ! D16   D(3,2,8,7)            -47.3239         estimate D2E/DX2                !
 ! D17   D(3,2,8,9)           -162.0998         estimate D2E/DX2                !
 ! D18   D(3,2,8,29)            72.8725         estimate D2E/DX2                !
 ! D19   D(24,2,8,7)          -169.6745         estimate D2E/DX2                !
 ! D20   D(24,2,8,9)            75.5496         estimate D2E/DX2                !
 ! D21   D(24,2,8,29)          -49.4782         estimate D2E/DX2                !
 ! D22   D(2,3,4,26)          -173.7422         estimate D2E/DX2                !
 ! D23   D(5,3,4,26)           -53.5187         estimate D2E/DX2                !
 ! D24   D(25,3,4,26)           67.0413         estimate D2E/DX2                !
 ! D25   D(2,3,5,6)            -51.0309         estimate D2E/DX2                !
 ! D26   D(2,3,5,23)          -168.4153         estimate D2E/DX2                !
 ! D27   D(2,3,5,27)            72.6199         estimate D2E/DX2                !
 ! D28   D(4,3,5,6)           -165.3484         estimate D2E/DX2                !
 ! D29   D(4,3,5,23)            77.2672         estimate D2E/DX2                !
 ! D30   D(4,3,5,27)           -41.6977         estimate D2E/DX2                !
 ! D31   D(25,3,5,6)            75.1914         estimate D2E/DX2                !
 ! D32   D(25,3,5,23)          -42.193          estimate D2E/DX2                !
 ! D33   D(25,3,5,27)         -161.1578         estimate D2E/DX2                !
 ! D34   D(3,5,6,7)             57.1673         estimate D2E/DX2                !
 ! D35   D(3,5,6,21)           168.0545         estimate D2E/DX2                !
 ! D36   D(3,5,6,28)           -67.9253         estimate D2E/DX2                !
 ! D37   D(23,5,6,7)           171.0614         estimate D2E/DX2                !
 ! D38   D(23,5,6,21)          -78.0514         estimate D2E/DX2                !
 ! D39   D(23,5,6,28)           45.9689         estimate D2E/DX2                !
 ! D40   D(27,5,6,7)           -67.074          estimate D2E/DX2                !
 ! D41   D(27,5,6,21)           43.8132         estimate D2E/DX2                !
 ! D42   D(27,5,6,28)          167.8335         estimate D2E/DX2                !
 ! D43   D(3,5,23,43)         -173.3071         estimate D2E/DX2                !
 ! D44   D(6,5,23,43)           68.9315         estimate D2E/DX2                !
 ! D45   D(27,5,23,43)         -53.2687         estimate D2E/DX2                !
 ! D46   D(5,6,7,8)            -62.2916         estimate D2E/DX2                !
 ! D47   D(21,6,7,8)          -173.1064         estimate D2E/DX2                !
 ! D48   D(28,6,7,8)            65.9805         estimate D2E/DX2                !
 ! D49   D(5,6,21,14)          104.6424         estimate D2E/DX2                !
 ! D50   D(7,6,21,14)         -141.0417         estimate D2E/DX2                !
 ! D51   D(28,6,21,14)         -21.5613         estimate D2E/DX2                !
 ! D52   D(6,7,8,2)             57.5911         estimate D2E/DX2                !
 ! D53   D(6,7,8,9)            178.5813         estimate D2E/DX2                !
 ! D54   D(6,7,8,29)           -64.0482         estimate D2E/DX2                !
 ! D55   D(2,8,9,10)          -152.177          estimate D2E/DX2                !
 ! D56   D(2,8,9,30)           -37.267          estimate D2E/DX2                !
 ! D57   D(2,8,9,31)            85.2235         estimate D2E/DX2                !
 ! D58   D(7,8,9,10)            87.6073         estimate D2E/DX2                !
 ! D59   D(7,8,9,30)          -157.4827         estimate D2E/DX2                !
 ! D60   D(7,8,9,31)           -34.9922         estimate D2E/DX2                !
 ! D61   D(29,8,9,10)          -27.5062         estimate D2E/DX2                !
 ! D62   D(29,8,9,30)           87.4038         estimate D2E/DX2                !
 ! D63   D(29,8,9,31)         -150.1057         estimate D2E/DX2                !
 ! D64   D(8,9,10,32)          -68.5395         estimate D2E/DX2                !
 ! D65   D(30,9,10,32)         171.6536         estimate D2E/DX2                !
 ! D66   D(31,9,10,32)          53.8752         estimate D2E/DX2                !
 ! D67   D(42,11,12,13)         70.7907         estimate D2E/DX2                !
 ! D68   D(42,11,12,17)       -166.1075         estimate D2E/DX2                !
 ! D69   D(42,11,12,33)        -47.9797         estimate D2E/DX2                !
 ! D70   D(11,12,13,14)        148.1265         estimate D2E/DX2                !
 ! D71   D(11,12,13,22)        -94.8526         estimate D2E/DX2                !
 ! D72   D(11,12,13,34)         21.7882         estimate D2E/DX2                !
 ! D73   D(17,12,13,14)         33.456          estimate D2E/DX2                !
 ! D74   D(17,12,13,22)        150.4769         estimate D2E/DX2                !
 ! D75   D(17,12,13,34)        -92.8823         estimate D2E/DX2                !
 ! D76   D(33,12,13,14)        -94.2696         estimate D2E/DX2                !
 ! D77   D(33,12,13,22)         22.7513         estimate D2E/DX2                !
 ! D78   D(33,12,13,34)        139.3921         estimate D2E/DX2                !
 ! D79   D(11,12,17,16)       -137.8197         estimate D2E/DX2                !
 ! D80   D(11,12,17,18)        101.1202         estimate D2E/DX2                !
 ! D81   D(11,12,17,37)        -23.7512         estimate D2E/DX2                !
 ! D82   D(13,12,17,16)        -19.9811         estimate D2E/DX2                !
 ! D83   D(13,12,17,18)       -141.0412         estimate D2E/DX2                !
 ! D84   D(13,12,17,37)         94.0874         estimate D2E/DX2                !
 ! D85   D(33,12,17,16)        106.7656         estimate D2E/DX2                !
 ! D86   D(33,12,17,18)        -14.2944         estimate D2E/DX2                !
 ! D87   D(33,12,17,37)       -139.1659         estimate D2E/DX2                !
 ! D88   D(12,13,14,15)         -2.5593         estimate D2E/DX2                !
 ! D89   D(12,13,14,21)       -128.347          estimate D2E/DX2                !
 ! D90   D(12,13,14,35)        121.368          estimate D2E/DX2                !
 ! D91   D(22,13,14,15)       -116.6553         estimate D2E/DX2                !
 ! D92   D(22,13,14,21)        117.557          estimate D2E/DX2                !
 ! D93   D(22,13,14,35)          7.272          estimate D2E/DX2                !
 ! D94   D(34,13,14,15)        123.9205         estimate D2E/DX2                !
 ! D95   D(34,13,14,21)         -1.8672         estimate D2E/DX2                !
 ! D96   D(34,13,14,35)       -112.1522         estimate D2E/DX2                !
 ! D97   D(12,13,22,41)        158.8088         estimate D2E/DX2                !
 ! D98   D(14,13,22,41)        -78.5121         estimate D2E/DX2                !
 ! D99   D(34,13,22,41)         41.4086         estimate D2E/DX2                !
 ! D100  D(13,14,15,16)        -41.7707         estimate D2E/DX2                !
 ! D101  D(13,14,15,20)         82.9017         estimate D2E/DX2                !
 ! D102  D(13,14,15,36)       -157.7514         estimate D2E/DX2                !
 ! D103  D(21,14,15,16)         84.4182         estimate D2E/DX2                !
 ! D104  D(21,14,15,20)       -150.9094         estimate D2E/DX2                !
 ! D105  D(21,14,15,36)        -31.5625         estimate D2E/DX2                !
 ! D106  D(35,14,15,16)       -165.8608         estimate D2E/DX2                !
 ! D107  D(35,14,15,20)        -41.1884         estimate D2E/DX2                !
 ! D108  D(35,14,15,36)         78.1585         estimate D2E/DX2                !
 ! D109  D(13,14,21,6)          37.4061         estimate D2E/DX2                !
 ! D110  D(15,14,21,6)         -90.3301         estimate D2E/DX2                !
 ! D111  D(35,14,21,6)         153.8592         estimate D2E/DX2                !
 ! D112  D(14,15,16,17)         59.8495         estimate D2E/DX2                !
 ! D113  D(20,15,16,17)        -65.2913         estimate D2E/DX2                !
 ! D114  D(36,15,16,17)       -177.124          estimate D2E/DX2                !
 ! D115  D(14,15,20,44)        -49.9469         estimate D2E/DX2                !
 ! D116  D(16,15,20,44)         74.705          estimate D2E/DX2                !
 ! D117  D(36,15,20,44)       -174.8167         estimate D2E/DX2                !
 ! D118  D(15,16,17,12)        -27.7478         estimate D2E/DX2                !
 ! D119  D(15,16,17,18)         96.7739         estimate D2E/DX2                !
 ! D120  D(15,16,17,37)       -146.1836         estimate D2E/DX2                !
 ! D121  D(12,17,18,19)        -23.7978         estimate D2E/DX2                !
 ! D122  D(12,17,18,38)         91.4407         estimate D2E/DX2                !
 ! D123  D(12,17,18,39)       -147.2922         estimate D2E/DX2                !
 ! D124  D(16,17,18,19)       -149.8441         estimate D2E/DX2                !
 ! D125  D(16,17,18,38)        -34.6056         estimate D2E/DX2                !
 ! D126  D(16,17,18,39)         86.6615         estimate D2E/DX2                !
 ! D127  D(37,17,18,19)         99.8801         estimate D2E/DX2                !
 ! D128  D(37,17,18,38)       -144.8814         estimate D2E/DX2                !
 ! D129  D(37,17,18,39)        -23.6143         estimate D2E/DX2                !
 ! D130  D(17,18,19,40)        -65.4173         estimate D2E/DX2                !
 ! D131  D(38,18,19,40)        174.862          estimate D2E/DX2                !
 ! D132  D(39,18,19,40)         58.7311         estimate D2E/DX2                !
 --------------------------------------------------------------------------------
 Trust Radius=3.00D-01 FncErr=1.00D-07 GrdErr=1.00D-07 EigMax=2.50D+02 EigMin=1.00D-04
 Number of steps in this run=    270 maximum allowed number of steps=    270.
 GradGradGradGradGradGradGradGradGradGradGradGradGradGradGradGradGradGrad

 Leave Link  103 at Tue Jun 22 14:21:11 2021, MaxMem=  2147483648 cpu:               0.0 elap:               0.0
 (Enter /home/matma/Programs/gaussian/G16_x86_SSE4/tar/g16/l202.exe)
                          Input orientation:                          
 ---------------------------------------------------------------------
 Center     Atomic      Atomic             Coordinates (Angstroms)
 Number     Number       Type             X           Y           Z
 ---------------------------------------------------------------------
      1          8           0        2.124000    3.190000    0.276000
      2          6           0        2.432000    3.035000    1.663000
      3          6           0        2.777000    1.560000    1.986000
      4          8           0        3.662000    1.191000    0.920000
      5          6           0        1.535000    0.645000    1.975000
      6          6           0        0.421000    1.249000    2.861000
      7          8           0        0.110000    2.571000    2.388000
      8          6           0        1.200000    3.522000    2.456000
      9          6           0        0.570000    4.793000    1.858000
     10          8           0       -0.077000    5.534000    2.889000
     11          8           0        0.490000   -0.173000    6.841000
     12          6           0       -0.238000   -0.968000    5.881000
     13          6           0       -0.994000   -0.014000    4.937000
     14          6           0       -1.180000   -0.509000    3.490000
     15          6           0       -0.515000   -1.874000    3.201000
     16          8           0        0.772000   -1.953000    3.805000
     17          6           0        0.873000   -1.816000    5.233000
     18          6           0        0.916000   -3.257000    5.795000
     19          8           0        0.341000   -3.333000    7.099000
     20          8           0       -1.327000   -2.947000    3.602000
     21          8           0       -0.738000    0.478000    2.540000
     22          8           0       -2.298000    0.061000    5.546000
     23          8           0        2.000000   -0.580000    2.556000
     24          1           0        3.318000    3.682000    1.877000
     25          1           0        3.325000    1.456000    2.952000
     26          1           0        3.866000    0.227000    0.976000
     27          1           0        1.163000    0.464000    0.940000
     28          1           0        0.627000    1.269000    3.949000
     29          1           0        1.461000    3.670000    3.529000
     30          1           0        1.337000    5.489000    1.466000
     31          1           0       -0.142000    4.533000    1.051000
     32          1           0       -0.879000    5.040000    3.218000
     33          1           0       -0.972000   -1.605000    6.445000
     34          1           0       -0.519000    1.004000    4.942000
     35          1           0       -2.273000   -0.557000    3.236000
     36          1           0       -0.296000   -2.065000    2.124000
     37          1           0        1.858000   -1.296000    5.348000
     38          1           0        0.284000   -3.942000    5.189000
     39          1           0        1.947000   -3.649000    5.812000
     40          1           0        0.882000   -2.819000    7.741000
     41          1           0       -2.768000    0.872000    5.255000
     42          1           0       -0.140000    0.249000    7.470000
     43          1           0        1.297000   -1.267000    2.493000
     44          1           0       -1.664000   -2.862000    4.522000
     45          1           0        2.734000    2.623000   -0.267000
 ---------------------------------------------------------------------
                    Distance matrix (angstroms):
                    1          2          3          4          5
     1  O    0.000000
     2  C    1.429216   0.000000
     3  C    2.451002   1.548864   0.000000
     4  O    2.603110   2.337795   1.433786   0.000000
     5  C    3.116175   2.571780   1.542696   2.436241   0.000000
     6  C    3.653754   2.944337   2.532406   3.778217   1.546224
     7  O    2.983270   2.476410   2.880384   4.083642   2.431187
     8  C    2.390899   1.543970   2.560717   3.722137   2.936105
     9  C    2.736284   2.568196   3.916570   4.838875   4.260378
    10  O    4.143248   3.747420   4.975279   6.059598   5.228409
    11  O    7.555061   6.393302   5.639564   6.854219   5.043719
    12  C    7.367770   6.398784   5.536428   6.669543   4.582809
    13  C    6.458518   5.634976   5.040468   6.266311   3.950135
    14  C    5.910060   5.380001   4.711754   5.739326   3.316348
    15  C    6.415921   5.928620   4.909770   5.660787   3.471446
    16  O    6.382178   5.676611   4.435082   5.153645   3.268130
    17  C    7.155200   6.221542   5.056244   5.951684   4.136342
    18  C    8.572190   7.678603   6.416798   7.147786   5.495559
    19  O    9.606349   8.629820   7.484538   8.347195   6.595870
    20  O    7.786812   7.326263   6.306134   7.014719   4.872436
    21  O    4.546612   4.166087   3.719256   4.742654   2.348115
    22  O    7.557620   6.804062   6.377792   7.628786   5.271147
    23  O    4.407570   3.748639   2.346962   2.928341   1.433322
    24  H    2.056915   1.117766   2.192589   2.690588   3.523076
    25  H    3.407365   2.225356   1.115471   2.076733   2.194618
    26  H    3.507696   3.226947   1.995723   0.986939   2.570270
    27  H    2.965720   2.956879   2.213668   2.602677   1.114617
    28  H    4.407060   3.406256   2.925842   4.288607   2.260645
    29  H    3.354397   2.197276   2.926569   4.218616   3.401620
    30  H    2.705711   2.694429   4.216757   4.916965   4.874692
    31  H    2.745729   3.040399   4.270072   5.065229   4.333895
    32  H    4.593024   4.171423   5.195629   6.380931   5.166088
    33  H    8.404392   7.482268   6.629850   7.734158   5.597182
    34  H    5.790993   4.856460   4.462139   5.804499   3.626415
    35  H    6.491165   6.124852   5.616644   6.606329   4.187576
    36  H    6.073428   5.802112   4.754261   5.264686   3.273967
    37  H    6.776440   5.715441   4.506034   5.389505   3.904989
    38  H    8.853733   8.107102   6.837124   7.482174   5.738934
    39  H    8.800599   7.881959   6.516200   7.092143   5.773279
    40  H    9.663171   8.579854   7.475740   8.386569   6.758140
    41  H    7.354946   6.679898   6.473541   7.761371   5.415324
    42  H    8.094987   6.935289   6.348375   7.631846   5.758252
    43  H    5.046174   4.525962   3.231003   3.756237   1.995172
    44  H    8.306875   7.728241   6.760759   7.600493   5.387008
    45  H    0.994202   1.996459   2.491551   2.078648   3.221281
                    6          7          8          9         10
     6  C    0.000000
     7  O    1.438101   0.000000
     8  C    2.436677   1.448145   0.000000
     9  C    3.686210   2.330190   1.539463   0.000000
    10  O    4.313932   3.010870   2.422057   1.425009   0.000000
    11  O    4.226966   5.244344   5.778006   7.035470   6.964886
    12  C    3.803915   4.984644   5.827398   7.072942   7.159189
    13  C    2.811969   3.794528   4.844821   5.918918   5.984605
    14  C    2.459554   3.516377   4.794008   5.816969   6.172168
    15  C    3.277930   4.561756   5.710785   6.886927   7.427493
    16  O    3.356656   4.786722   5.654963   7.024253   7.590456
    17  C    3.901911   5.284124   6.026019   7.427066   7.772988
    18  C    5.399761   6.798740   7.562038   8.967842   9.311958
    19  O    6.241936   7.556725   8.323843   9.672249   9.824587
    20  O    4.605540   5.829845   7.038963   8.157680   8.602222
    21  O    1.428553   2.263373   3.609548   4.560177   5.110955
    22  O    4.001691   4.698034   5.810562   6.649706   6.476590
    23  O    2.435469   3.678196   4.180479   5.603680   6.465742
    24  H    3.909009   3.433177   2.201537   2.964150   3.997508
    25  H    2.912790   3.449282   3.004995   4.463455   5.311088
    26  H    4.057799   4.647108   4.489430   5.699991   6.882664
    27  H    2.203867   2.764952   3.413355   4.464820   5.571454
    28  H    1.107511   2.097430   2.762858   4.098061   4.450780
    29  H    2.718283   2.082038   1.114161   2.201647   2.499908
    30  H    4.556608   3.297019   2.206345   1.107415   2.006577
    31  H    3.791797   2.387576   2.190231   1.107155   2.093913
    32  H    4.023572   2.786213   2.684625   2.002551   0.997738
    33  H    4.788614   5.921904   6.849513   8.022016   8.025676
    34  H    2.296560   3.061706   3.933889   5.005347   4.993103
    35  H    3.264950   4.022708   5.413721   6.213214   6.484066
    36  H    3.469849   4.661226   5.793342   6.917577   7.640549
    37  H    3.837599   5.174050   5.657716   7.135472   7.512643
    38  H    5.690767   7.091900   8.001227   9.352945   9.757812
    39  H    5.918402   7.333945   7.952609   9.423248   9.847233
    40  H    6.369894   7.635620   8.260789   9.625465   9.707430
    41  H    4.005382   4.403314   5.531901   6.168962   5.879939
    42  H    4.749484   5.592934   6.135823   7.255796   6.994337
    43  H    2.689434   4.018736   4.790125   6.136396   6.949697
    44  H    4.899639   6.100698   7.295636   8.407537   8.699315
    45  H    4.125800   3.733243   3.252089   3.729265   5.131859
                   11         12         13         14         15
    11  O    0.000000
    12  C    1.443471   0.000000
    13  C    2.419246   1.540386   0.000000
    14  C    3.759122   2.610541   1.540594   0.000000
    15  C    4.141621   2.842528   2.588964   1.545630   0.000000
    16  O    3.530612   2.510000   2.856554   2.448400   1.423877
    17  C    2.330623   1.540561   2.611610   2.993511   2.461490
    18  C    3.284303   2.564885   3.860222   4.154244   3.269447
    19  O    3.174014   2.722497   4.179980   4.828385   4.249214
    20  O    4.635481   3.208770   3.239692   2.444994   1.404092
    21  O    4.519998   3.674670   2.460327   1.439456   2.453274
    22  O    3.082973   2.326943   1.441153   2.408726   3.524534
    23  O    4.561466   4.026762   3.866982   3.315086   2.900980
    24  H    6.892017   7.092225   6.451152   6.355962   6.878517
    25  H    5.080865   5.210546   4.975428   4.944259   5.088860
    26  H    6.779056   6.506141   6.274329   5.685421   5.343967
    27  H    5.973316   5.331689   4.566962   3.597065   3.659788
    28  H    3.234470   3.079776   2.291260   2.576279   3.426677
    29  H    5.165349   5.470791   4.645573   4.943728   5.894752
    30  H    7.852788   7.979079   6.911180   6.812332   7.788061
    31  H    7.487988   7.321142   6.041698   5.696308   6.768403
    32  H    6.494279   6.602917   5.339579   5.563810   6.923596
    33  H    2.084439   1.123664   2.192220   3.158561   3.287057
    34  H    2.451451   2.202150   1.123376   2.198726   3.363626
    35  H    4.558251   3.362465   2.196381   1.123151   2.196879
    36  H    5.142718   3.914310   3.550602   2.251344   1.115514
    37  H    2.315513   2.187439   3.153783   3.647050   3.251895
    38  H    4.120304   3.097745   4.138354   4.100657   2.977779
    39  H    3.906951   3.459299   4.756925   5.002940   4.003672
    40  H    2.822230   2.853104   4.387461   5.259177   4.843164
    41  H    3.771205   3.190357   2.008282   2.746658   4.103101
    42  H    0.985203   2.003900   2.685996   4.182889   4.782480
    43  H    4.555567   3.731510   3.576566   2.775626   2.037905
    44  H    4.153095   2.732690   2.955035   2.614553   2.010320
    45  H    7.960956   7.715307   6.923393   6.264493   6.542632
                   16         17         18         19         20
    16  O    0.000000
    17  C    1.438108   0.000000
    18  C    2.383538   1.547312   0.000000
    19  O    3.597304   2.462980   1.427171   0.000000
    20  O    2.331319   2.962992   3.152205   3.893614   0.000000
    21  O    3.128911   3.887159   5.223118   6.039242   3.633922
    22  O    4.063518   3.698153   4.626113   4.571145   3.710801
    23  O    2.225559   3.156605   4.339644   5.565082   4.214942
    24  H    6.477077   6.889758   8.322863   9.238075   8.276188
    25  H    4.343581   4.682013   6.008186   7.002599   6.438168
    26  H    4.725302   5.590523   6.638036   7.911407   6.628529
    27  H    3.768686   4.869533   6.121918   7.281907   4.992120
    28  H    3.228474   3.350582   4.896520   5.584147   4.659740
    29  H    5.671775   5.774561   7.308564   7.939856   7.180735
    30  H    7.821350   8.232169   9.767804  10.514295   9.100851
    31  H    7.105498   7.670016   9.181993   9.934060   7.991384
    32  H    7.209190   7.357613   8.871480   9.309011   8.008766
    33  H    3.183118   2.217541   2.591553   2.266643   3.163801
    34  H    3.421008   3.158282   4.576347   4.919534   4.249572
    35  H    3.397735   3.933244   4.899817   5.427885   2.596338
    36  H    1.994725   3.330832   4.045497   5.173415   2.006332
    37  H    1.997972   1.119754   2.220967   3.084908   3.989805
    38  H    2.471785   2.206521   1.111704   2.005550   2.470610
    39  H    2.878383   2.201955   1.103138   2.082177   4.011980
    40  H    4.031644   2.701139   1.994973   0.984399   4.693334
    41  H    4.755494   4.525783   5.559865   5.545110   4.403822
    42  H    4.371816   3.208514   4.026512   3.633143   5.156046
    43  H    1.570848   2.826442   3.874076   5.137852   3.307213
    44  H    2.697122   2.834785   2.903955   3.298908   0.983460
    45  H    6.431983   7.308765   8.638713   9.770278   7.904795
                   21         22         23         24         25
    21  O    0.000000
    22  O    3.412261   0.000000
    23  O    2.935347   5.274826   0.000000
    24  H    5.211173   7.623166   4.512517   0.000000
    25  H    4.199309   6.347676   2.461247   2.471993   0.000000
    26  H    4.868872   7.675113   2.574802   3.612358   2.389079
    27  H    2.484753   5.775480   2.098085   3.984660   3.115518
    28  H    2.115227   3.544756   2.691538   4.166201   2.882392
    29  H    4.000323   5.587777   4.393148   2.485497   2.951139
    30  H    5.528944   7.702130   6.201647   2.712661   4.735549
    31  H    4.360661   6.697174   5.744211   3.657605   5.010172
    32  H    4.614261   5.676582   6.349117   4.610559   5.530771
    33  H    4.432005   2.311284   5.000773   8.198969   6.327320
    34  H    2.468652   2.102119   3.814107   5.593610   4.352096
    35  H    1.977844   2.391370   4.326830   7.146697   5.955706
    36  H    2.614435   4.498662   2.768296   6.793380   5.118072
    37  H    4.215585   4.376413   2.885842   6.241789   3.932736
    38  H    5.253388   4.776838   4.602216   8.848722   6.587128
    39  H    5.911627   5.644013   4.474719   8.432522   6.011615
    40  H    6.367496   4.819214   5.757367   9.087552   6.868653
    41  H    3.412823   0.981479   5.668045   7.506423   6.539841
    42  H    4.971413   2.897255   5.423489   7.417877   5.820258
    43  H    2.681130   4.899839   0.984960   5.381124   3.426105
    44  H    3.992668   3.161402   4.743161   8.639461   6.782341
    45  H    4.953288   8.104063   4.332123   2.461559   3.474641
                   26         27         28         29         30
    26  H    0.000000
    27  H    2.713609   0.000000
    28  H    4.518364   3.160602   0.000000
    29  H    4.914884   4.131605   2.576190   0.000000
    30  H    5.858719   5.055450   4.947503   2.753199   0.000000
    31  H    5.883139   4.274589   4.432094   3.074876   1.809310
    32  H    7.120854   5.504437   4.125874   2.729326   2.860378
    33  H    7.528109   6.256517   4.128764   6.499859   8.969212
    34  H    5.963314   4.374555   1.539347   3.608951   5.970137
    35  H    6.588594   4.256777   3.500378   5.647666   7.260793
    36  H    4.888089   3.150615   3.911280   6.160463   7.756453
    37  H    5.046383   4.796987   3.170455   5.303539   7.834385
    38  H    6.925363   6.183808   5.367473   7.879307  10.193787
    39  H    6.487899   6.424003   5.422167   7.682190  10.137202
    40  H    7.996724   7.557159   5.581759   7.757790  10.421397
    41  H    7.920595   5.851363   3.659135   5.356521   7.247361
    42  H    7.630240   6.662202   3.745148   5.458747   8.104761
    43  H    3.336628   2.329405   3.000022   5.047193   6.833730
    44  H    7.259266   5.646674   4.758379   7.308810   9.385326
    45  H    2.926993   2.930217   4.903817   4.138400   3.628892
                   31         32         33         34         35
    31  H    0.000000
    32  H    2.344378   0.000000
    33  H    8.213354   7.387706   0.000000
    34  H    5.266484   4.403529   3.044848   0.000000
    35  H    5.934938   5.768013   3.617815   2.902356   0.000000
    36  H    6.686453   7.212333   4.397683   4.172483   2.723809
    37  H    7.512752   7.223086   3.050867   3.332411   4.698066
    38  H    9.440876   9.268966   2.935412   5.016845   4.670191
    39  H    9.694130   9.498096   3.619280   5.337459   5.831350
    40  H    9.992826   9.237020   2.567241   4.940904   5.946906
    41  H    6.162176   5.008983   3.282871   2.274510   2.522583
    42  H    7.717268   6.448202   2.275998   2.665417   4.808958
    43  H    6.147364   6.711099   4.569563   3.801697   3.714976
    44  H    8.309654   8.047251   2.399342   4.053811   2.708819
    45  H    3.695484   5.571435   8.755648   6.351130   6.888647
                   36         37         38         39         40
    36  H    0.000000
    37  H    3.952879   0.000000
    38  H    3.640571   3.082868   0.000000
    39  H    4.597983   2.399964   1.799874   0.000000
    40  H    5.788514   2.999759   2.851567   2.354605   0.000000
    41  H    4.953778   5.109672   5.700321   6.555983   5.755534
    42  H    5.827405   3.298774   4.790325   4.722175   3.245081
    43  H    1.819509   2.909740   3.930676   4.136688   5.488391
    44  H    2.873506   3.941969   2.325079   3.914434   4.104379
    45  H    6.072489   6.903199   8.880859   8.769926   9.857653
                   41         42         43         44         45
    41  H    0.000000
    42  H    3.492955   0.000000
    43  H    5.359868   5.397569   0.000000
    44  H    3.962179   4.548802   3.927899   0.000000
    45  H    7.989399   8.588185   4.981432   8.506595   0.000000
 Stoichiometry    C12H22O11
 Framework group  C1[X(C12H22O11)]
 Deg. of freedom   129
 Full point group                 C1      NOp   1
 Largest Abelian subgroup         C1      NOp   1
 Largest concise Abelian subgroup C1      NOp   1
                         Standard orientation:                         
 ---------------------------------------------------------------------
 Center     Atomic      Atomic             Coordinates (Angstroms)
 Number     Number       Type             X           Y           Z
 ---------------------------------------------------------------------
      1          8           0       -4.345103   -1.134262    0.418906
      2          6           0       -3.528121   -0.792659   -0.702926
      3          6           0       -2.255088   -1.674040   -0.742080
      4          8           0       -2.762133   -2.990953   -0.488335
      5          6           0       -1.233541   -1.288036    0.347577
      6          6           0       -0.958722    0.232966    0.304746
      7          8           0       -2.200762    0.939209    0.468122
      8          6           0       -3.183108    0.706396   -0.570107
      9          6           0       -4.377176    1.553355   -0.093865
     10          8           0       -4.243342    2.884013   -0.585890
     11          8           0        2.360577    1.268714   -2.098735
     12          6           0        2.638426    0.915425   -0.727022
     13          6           0        1.536147    1.522262    0.161527
     14          6           0        1.175456    0.719814    1.426204
     15          6           0        1.945609   -0.612813    1.567419
     16          8           0        2.034436   -1.286251    0.316013
     17          6           0        2.690657   -0.623387   -0.778583
     18          6           0        4.141066   -1.162186   -0.792124
     19          8           0        5.060591   -0.191850   -1.291864
     20          8           0        3.218100   -0.424670    2.130307
     21          8           0       -0.243407    0.493471    1.513557
     22          8           0        2.125418    2.767319    0.585219
     23          8           0       -0.046063   -2.001537   -0.020150
     24          1           0       -4.138275   -0.975611   -1.621426
     25          1           0       -1.769115   -1.670076   -1.746117
     26          1           0       -2.010762   -3.623609   -0.392229
     27          1           0       -1.572401   -1.600550    1.362407
     28          1           0       -0.422317    0.601651   -0.591312
     29          1           0       -2.770314    1.097477   -1.528236
     30          1           0       -5.333070    1.200145   -0.527314
     31          1           0       -4.445469    1.544955    1.011150
     32          1           0       -3.475100    3.340568   -0.142221
     33          1           0        3.634457    1.356396   -0.451183
     34          1           0        0.612793    1.731339   -0.443187
     35          1           0        1.335072    1.350267    2.341911
     36          1           0        1.449952   -1.368449    2.221413
     37          1           0        2.103385   -0.990002   -1.658671
     38          1           0        4.503918   -1.360825    0.239751
     39          1           0        4.216345   -2.093195   -1.379040
     40          1           0        4.875900   -0.003336   -2.240227
     41          1           0        1.429885    3.397830    0.871562
     42          1           0        2.522577    2.231028   -2.234132
     43          1           0        0.635689   -1.899531    0.683381
     44          1           0        3.739779    0.285250    1.693204
     45          1           0       -4.339043   -2.119935    0.548710
 ---------------------------------------------------------------------
 Rotational constants (GHZ):           0.4335938           0.1560558           0.1375878
 Leave Link  202 at Tue Jun 22 14:21:11 2021, MaxMem=  2147483648 cpu:               0.0 elap:               0.0
 (Enter /home/matma/Programs/gaussian/G16_x86_SSE4/tar/g16/l301.exe)
 Standard basis: VSTO-6G (5D, 7F)
 Ernie: Thresh=  0.10000D-02 Tol=  0.10000D-05 Strict=F.
  NNHCO=     0 NNPyr=     0 NCTC=     0               EPep=         0.000000000
    EC=      1191.972050168  ECS=         9.104700364   EG=         0.737587392
   EHC=         0.002949261  EAt=      -175.965002454  AtH=         6.138669069
 EPDDG=         0.000000000  ECC=      1201.817287186 EAtT=       182.103671523
 There are   114 symmetry adapted cartesian basis functions of A   symmetry.
 There are   114 symmetry adapted basis functions of A   symmetry.
   114 basis functions,   684 primitive gaussians,   114 cartesian basis functions
    68 alpha electrons       68 beta electrons
       nuclear repulsion energy      1383.9209587087 Hartrees.
 IExCor=    0 DFT=F Ex=HF Corr=None ExCW=0 ScaHFX=  1.000000
 ScaDFX=  1.000000  1.000000  1.000000  1.000000 ScalE2=  1.000000  1.000000
 IRadAn=  99590 IRanWt=     -1 IRanGd=            0 ICorTp=0 IEmpDi=  4
 Integral buffers will be    131072 words long.
 Regular integral format.
 Two-electron integral symmetry is turned off.
 Leave Link  301 at Tue Jun 22 14:21:11 2021, MaxMem=  2147483648 cpu:               0.2 elap:               0.0
 (Enter /home/matma/Programs/gaussian/G16_x86_SSE4/tar/g16/l302.exe)
 Do NDO integrals.
 NPDir=0 NMtPBC=     1 NCelOv=     1 NCel=       1 NClECP=     1 NCelD=      1
         NCelK=      1 NCelE2=     1 NClLst=     1 CellRange=     0.0.
 One-electron integrals computed using PRISM.
 NBasis=   114 RedAO= F EigKep=  0.00D+00  NBF=   114
 NBsUse=   114 1.00D-04 EigRej=  0.00D+00 NBFU=   114
 Leave Link  302 at Tue Jun 22 14:21:11 2021, MaxMem=  2147483648 cpu:               0.6 elap:               0.0
 (Enter /home/matma/Programs/gaussian/G16_x86_SSE4/tar/g16/l303.exe)
 DipDrv:  MaxL=1.
 Leave Link  303 at Tue Jun 22 14:21:11 2021, MaxMem=  2147483648 cpu:               0.1 elap:               0.0
 (Enter /home/matma/Programs/gaussian/G16_x86_SSE4/tar/g16/l401.exe)
 Simple Huckel Guess.
 JPrj=0 DoOrth=F DoCkMO=F.
 Leave Link  401 at Tue Jun 22 14:21:11 2021, MaxMem=  2147483648 cpu:               0.2 elap:               0.0
 (Enter /home/matma/Programs/gaussian/G16_x86_SSE4/tar/g16/l502.exe)
 Keep J ints in memory in canonical form, NReq=892272.
 FoFCou: FMM=F IPFlag=           0 FMFlag=           0 FMFlg1=           0
         NFxFlg=           0 DoJE=F BraDBF=F KetDBF=F FulRan=T
         wScrn=  0.000000 ICntrl=       600 IOpCl=  2 I1Cent=           0 NGrid=           0
         NMat0=    1 NMatS0=    252 NMatT0=    0 NMatD0=    1 NMtDS0=    0 NMtDT0=    0
 Symmetry not used in FoFCou.
 Two-electron integral symmetry not used.
 Closed shell SCF:
 Using DIIS extrapolation, IDIIS=  1040.
 Overlap will be assumed to be unity.
 NGot=  2147483648 LenX=  2147363403 LenY=  2147349966
 Requested convergence on RMS density matrix=1.00D-08 within 128 cycles.
 Requested convergence on MAX density matrix=1.00D-06.
 Requested convergence on             energy=1.00D-06.
 No special actions if energy rises.

 Cycle   1  Pass 1  IDiag  1:
 E= 0.484143881659747    
 DIIS: error= 5.57D-02 at cycle   1 NSaved=   1.
 NSaved= 1 IEnMin= 1 EnMin= 0.484143881659747     IErMin= 1 ErrMin= 5.57D-02
 ErrMax= 5.57D-02  0.00D+00 EMaxC= 1.00D-01 BMatC= 3.14D-01 BMatP= 3.14D-01
 IDIUse=3 WtCom= 4.43D-01 WtEn= 5.57D-01
 Coeff-Com:  0.100D+01
 Coeff-En:   0.100D+01
 Coeff:      0.100D+01
 GapD=    2.000 DampG=2.000 DampE=0.500 DampFc=1.0000 IDamp=-1.
 RMSDP=8.20D-03 MaxDP=1.22D-01              OVMax= 0.00D+00

 Cycle   2  Pass 1  IDiag  1:
 E=-0.511140420690936     Delta-E=       -0.995284302351 Rises=F Damp=F
 DIIS: error= 1.66D-02 at cycle   2 NSaved=   2.
 NSaved= 2 IEnMin= 2 EnMin=-0.511140420690936     IErMin= 2 ErrMin= 1.66D-02
 ErrMax= 1.66D-02  0.00D+00 EMaxC= 1.00D-01 BMatC= 4.60D-02 BMatP= 3.14D-01
 IDIUse=3 WtCom= 8.34D-01 WtEn= 1.66D-01
 Coeff-Com: -0.440D+00 0.144D+01
 Coeff-En:   0.000D+00 0.100D+01
 Coeff:     -0.367D+00 0.137D+01
 RMSDP=4.83D-03 MaxDP=5.79D-02 DE=-9.95D-01 OVMax= 0.00D+00

 Cycle   3  Pass 1  IDiag  3:
 E=-0.720666962180530     Delta-E=       -0.209526541490 Rises=F Damp=F
 DIIS: error= 5.77D-03 at cycle   3 NSaved=   3.
 NSaved= 3 IEnMin= 3 EnMin=-0.720666962180530     IErMin= 3 ErrMin= 5.77D-03
 ErrMax= 5.77D-03  0.00D+00 EMaxC= 1.00D-01 BMatC= 4.74D-03 BMatP= 4.60D-02
 IDIUse=3 WtCom= 9.42D-01 WtEn= 5.77D-02
 Coeff-Com:  0.262D+00-0.105D+01 0.179D+01
 Coeff-En:   0.000D+00 0.000D+00 0.100D+01
 Coeff:      0.246D+00-0.988D+00 0.174D+01
 Gap=     0.377 Goal=   None    Shift=    0.000
 RMSDP=2.44D-03 MaxDP=3.90D-02 DE=-2.10D-01 OVMax= 2.93D-02

 Cycle   4  Pass 1  IDiag  3:
 E=-0.752054395995629     Delta-E=       -0.031387433815 Rises=F Damp=F
 DIIS: error= 1.43D-03 at cycle   4 NSaved=   4.
 NSaved= 4 IEnMin= 4 EnMin=-0.752054395995629     IErMin= 4 ErrMin= 1.43D-03
 ErrMax= 1.43D-03  0.00D+00 EMaxC= 1.00D-01 BMatC= 2.13D-04 BMatP= 4.74D-03
 IDIUse=3 WtCom= 9.86D-01 WtEn= 1.43D-02
 Coeff-Com: -0.540D-01 0.241D+00-0.606D+00 0.142D+01
 Coeff-En:   0.000D+00 0.000D+00 0.000D+00 0.100D+01
 Coeff:     -0.532D-01 0.238D+00-0.597D+00 0.141D+01
 Gap=     0.378 Goal=   None    Shift=    0.000
 RMSDP=5.82D-04 MaxDP=1.13D-02 DE=-3.14D-02 OVMax= 8.04D-03

 Cycle   5  Pass 1  IDiag  3:
 E=-0.753569322693920     Delta-E=       -0.001514926698 Rises=F Damp=F
 DIIS: error= 3.73D-04 at cycle   5 NSaved=   5.
 NSaved= 5 IEnMin= 5 EnMin=-0.753569322693920     IErMin= 5 ErrMin= 3.73D-04
 ErrMax= 3.73D-04  0.00D+00 EMaxC= 1.00D-01 BMatC= 1.12D-05 BMatP= 2.13D-04
 IDIUse=3 WtCom= 9.96D-01 WtEn= 3.73D-03
 Coeff-Com:  0.304D-02-0.145D-01 0.809D-01-0.427D+00 0.136D+01
 Coeff-En:   0.000D+00 0.000D+00 0.000D+00 0.000D+00 0.100D+01
 Coeff:      0.303D-02-0.144D-01 0.806D-01-0.425D+00 0.136D+01
 Gap=     0.378 Goal=   None    Shift=    0.000
 RMSDP=1.15D-04 MaxDP=2.51D-03 DE=-1.51D-03 OVMax= 2.16D-03

 Cycle   6  Pass 1  IDiag  3:
 E=-0.753640411774768     Delta-E=       -0.000071089081 Rises=F Damp=F
 DIIS: error= 1.24D-04 at cycle   6 NSaved=   6.
 NSaved= 6 IEnMin= 6 EnMin=-0.753640411774768     IErMin= 6 ErrMin= 1.24D-04
 ErrMax= 1.24D-04  0.00D+00 EMaxC= 1.00D-01 BMatC= 8.70D-07 BMatP= 1.12D-05
 IDIUse=3 WtCom= 9.99D-01 WtEn= 1.24D-03
 Coeff-Com:  0.225D-02-0.937D-02 0.241D-02 0.975D-01-0.597D+00 0.150D+01
 Coeff-En:   0.000D+00 0.000D+00 0.000D+00 0.000D+00 0.000D+00 0.100D+01
 Coeff:      0.225D-02-0.936D-02 0.241D-02 0.974D-01-0.597D+00 0.150D+01
 Gap=     0.378 Goal=   None    Shift=    0.000
 RMSDP=3.50D-05 MaxDP=9.60D-04 DE=-7.11D-05 OVMax= 6.67D-04

 Cycle   7  Pass 1  IDiag  3:
 E=-0.753646279785016     Delta-E=       -0.000005868010 Rises=F Damp=F
 DIIS: error= 3.54D-05 at cycle   7 NSaved=   7.
 NSaved= 7 IEnMin= 7 EnMin=-0.753646279785016     IErMin= 7 ErrMin= 3.54D-05
 ErrMax= 3.54D-05  0.00D+00 EMaxC= 1.00D-01 BMatC= 5.94D-08 BMatP= 8.70D-07
 IDIUse=1 WtCom= 1.00D+00 WtEn= 0.00D+00
 Coeff-Com: -0.101D-02 0.447D-02-0.324D-02-0.298D-01 0.223D+00-0.744D+00
 Coeff-Com:  0.155D+01
 Coeff:     -0.101D-02 0.447D-02-0.324D-02-0.298D-01 0.223D+00-0.744D+00
 Coeff:      0.155D+01
 Gap=     0.378 Goal=   None    Shift=    0.000
 RMSDP=9.09D-06 MaxDP=2.47D-04 DE=-5.87D-06 OVMax= 1.48D-04

 Cycle   8  Pass 1  IDiag  3:
 E=-0.753646698487728     Delta-E=       -0.000000418703 Rises=F Damp=F
 DIIS: error= 1.25D-05 at cycle   8 NSaved=   8.
 NSaved= 8 IEnMin= 8 EnMin=-0.753646698487728     IErMin= 8 ErrMin= 1.25D-05
 ErrMax= 1.25D-05  0.00D+00 EMaxC= 1.00D-01 BMatC= 5.35D-09 BMatP= 5.94D-08
 IDIUse=1 WtCom= 1.00D+00 WtEn= 0.00D+00
 Coeff-Com:  0.227D-03-0.116D-02 0.874D-03 0.727D-02-0.608D-01 0.235D+00
 Coeff-Com: -0.752D+00 0.157D+01
 Coeff:      0.227D-03-0.116D-02 0.874D-03 0.727D-02-0.608D-01 0.235D+00
 Coeff:     -0.752D+00 0.157D+01
 Gap=     0.378 Goal=   None    Shift=    0.000
 RMSDP=3.06D-06 MaxDP=8.28D-05 DE=-4.19D-07 OVMax= 4.86D-05

 Cycle   9  Pass 1  IDiag  3:
 E=-0.753646739609394     Delta-E=       -0.000000041122 Rises=F Damp=F
 DIIS: error= 3.45D-06 at cycle   9 NSaved=   9.
 NSaved= 9 IEnMin= 9 EnMin=-0.753646739609394     IErMin= 9 ErrMin= 3.45D-06
 ErrMax= 3.45D-06  0.00D+00 EMaxC= 1.00D-01 BMatC= 4.68D-10 BMatP= 5.35D-09
 IDIUse=1 WtCom= 1.00D+00 WtEn= 0.00D+00
 Coeff-Com: -0.688D-04 0.414D-03-0.381D-03-0.165D-02 0.181D-01-0.792D-01
 Coeff-Com:  0.302D+00-0.855D+00 0.162D+01
 Coeff:     -0.688D-04 0.414D-03-0.381D-03-0.165D-02 0.181D-01-0.792D-01
 Coeff:      0.302D+00-0.855D+00 0.162D+01
 Gap=     0.378 Goal=   None    Shift=    0.000
 RMSDP=9.02D-07 MaxDP=2.77D-05 DE=-4.11D-08 OVMax= 1.41D-05

 Cycle  10  Pass 1  IDiag  3:
 E=-0.753646743140507     Delta-E=       -0.000000003531 Rises=F Damp=F
 DIIS: error= 7.77D-07 at cycle  10 NSaved=  10.
 NSaved=10 IEnMin=10 EnMin=-0.753646743140507     IErMin=10 ErrMin= 7.77D-07
 ErrMax= 7.77D-07  0.00D+00 EMaxC= 1.00D-01 BMatC= 4.34D-11 BMatP= 4.68D-10
 IDIUse=1 WtCom= 1.00D+00 WtEn= 0.00D+00
 Coeff-Com:  0.257D-04-0.155D-03 0.206D-03-0.438D-04-0.318D-02 0.168D-01
 Coeff-Com: -0.716D-01 0.239D+00-0.706D+00 0.152D+01
 Coeff:      0.257D-04-0.155D-03 0.206D-03-0.438D-04-0.318D-02 0.168D-01
 Coeff:     -0.716D-01 0.239D+00-0.706D+00 0.152D+01
 Gap=     0.378 Goal=   None    Shift=    0.000
 RMSDP=2.72D-07 MaxDP=7.26D-06 DE=-3.53D-09 OVMax= 3.29D-06

 Cycle  11  Pass 1  IDiag  3:
 E=-0.753646743454965     Delta-E=       -0.000000000314 Rises=F Damp=F
 DIIS: error= 1.62D-07 at cycle  11 NSaved=  11.
 NSaved=11 IEnMin=11 EnMin=-0.753646743454965     IErMin=11 ErrMin= 1.62D-07
 ErrMax= 1.62D-07  0.00D+00 EMaxC= 1.00D-01 BMatC= 4.00D-12 BMatP= 4.34D-11
 IDIUse=1 WtCom= 1.00D+00 WtEn= 0.00D+00
 Coeff-Com: -0.923D-05 0.531D-04-0.888D-04 0.215D-03-0.109D-03-0.117D-02
 Coeff-Com:  0.840D-02-0.372D-01 0.170D+00-0.648D+00 0.151D+01
 Coeff:     -0.923D-05 0.531D-04-0.888D-04 0.215D-03-0.109D-03-0.117D-02
 Coeff:      0.840D-02-0.372D-01 0.170D+00-0.648D+00 0.151D+01
 Gap=     0.378 Goal=   None    Shift=    0.000
 RMSDP=8.18D-08 MaxDP=1.56D-06 DE=-3.14D-10 OVMax= 1.07D-06

 Cycle  12  Pass 1  IDiag  3:
 E=-0.753646743484524     Delta-E=       -0.000000000030 Rises=F Damp=F
 DIIS: error= 6.32D-08 at cycle  12 NSaved=  12.
 NSaved=12 IEnMin=12 EnMin=-0.753646743484524     IErMin=12 ErrMin= 6.32D-08
 ErrMax= 6.32D-08  0.00D+00 EMaxC= 1.00D-01 BMatC= 3.77D-13 BMatP= 4.00D-12
 IDIUse=1 WtCom= 1.00D+00 WtEn= 0.00D+00
 Coeff-Com:  0.294D-05-0.172D-04 0.319D-04-0.111D-03 0.289D-03-0.559D-03
 Coeff-Com:  0.564D-03 0.177D-02-0.299D-01 0.186D+00-0.731D+00 0.157D+01
 Coeff:      0.294D-05-0.172D-04 0.319D-04-0.111D-03 0.289D-03-0.559D-03
 Coeff:      0.564D-03 0.177D-02-0.299D-01 0.186D+00-0.731D+00 0.157D+01
 Gap=     0.378 Goal=   None    Shift=    0.000
 RMSDP=2.59D-08 MaxDP=5.35D-07 DE=-2.96D-11 OVMax= 2.88D-07

 Cycle  13  Pass 1  IDiag  3:
 E=-0.753646743483159     Delta-E=        0.000000000001 Rises=F Damp=F
 DIIS: error= 2.01D-08 at cycle  13 NSaved=  13.
 NSaved=13 IEnMin=12 EnMin=-0.753646743484524     IErMin=13 ErrMin= 2.01D-08
 ErrMax= 2.01D-08  0.00D+00 EMaxC= 1.00D-01 BMatC= 3.31D-14 BMatP= 3.77D-13
 IDIUse=1 WtCom= 1.00D+00 WtEn= 0.00D+00
 Coeff-Com: -0.795D-06 0.482D-05-0.102D-04 0.466D-04-0.175D-03 0.505D-03
 Coeff-Com: -0.137D-02 0.320D-02-0.700D-03-0.394D-01 0.248D+00-0.811D+00
 Coeff-Com:  0.160D+01
 Coeff:     -0.795D-06 0.482D-05-0.102D-04 0.466D-04-0.175D-03 0.505D-03
 Coeff:     -0.137D-02 0.320D-02-0.700D-03-0.394D-01 0.248D+00-0.811D+00
 Coeff:      0.160D+01
 Gap=     0.378 Goal=   None    Shift=    0.000
 RMSDP=7.54D-09 MaxDP=1.62D-07 DE= 1.36D-12 OVMax= 9.12D-08

 Cycle  14  Pass 2  IDiag  1:
 SCF Done:  E(RPM6) = -0.753646743483     A.U. after   14 cycles
            NFock= 13  Conv=0.75D-08     -V/T= 0.9975
 KE=-3.042996228248D+02 PE=-2.369807082201D+03 EE= 1.289432099574D+03
 Leave Link  502 at Tue Jun 22 14:21:11 2021, MaxMem=  2147483648 cpu:               0.5 elap:               0.0
 (Enter /home/matma/Programs/gaussian/G16_x86_SSE4/tar/g16/l601.exe)
 Copying SCF densities to generalized density rwf, IOpCl= 0 IROHF=0.

 **********************************************************************

            Population analysis using the SCF Density.

 **********************************************************************

 Orbital symmetries:
       Occupied  (A) (A) (A) (A) (A) (A) (A) (A) (A) (A) (A) (A)
                 (A) (A) (A) (A) (A) (A) (A) (A) (A) (A) (A) (A)
                 (A) (A) (A) (A) (A) (A) (A) (A) (A) (A) (A) (A)
                 (A) (A) (A) (A) (A) (A) (A) (A) (A) (A) (A) (A)
                 (A) (A) (A) (A) (A) (A) (A) (A) (A) (A) (A) (A)
                 (A) (A) (A) (A) (A) (A) (A) (A)
       Virtual   (A) (A) (A) (A) (A) (A) (A) (A) (A) (A) (A) (A)
                 (A) (A) (A) (A) (A) (A) (A) (A) (A) (A) (A) (A)
                 (A) (A) (A) (A) (A) (A) (A) (A) (A) (A) (A) (A)
                 (A) (A) (A) (A) (A) (A) (A) (A) (A) (A)
 The electronic state is 1-A.
 Alpha  occ. eigenvalues --   -1.19363  -1.16009  -1.14983  -1.14425  -1.13106
 Alpha  occ. eigenvalues --   -1.12262  -1.11393  -1.10951  -1.09712  -1.09645
 Alpha  occ. eigenvalues --   -1.08142  -1.02666  -1.01795  -1.00180  -0.98591
 Alpha  occ. eigenvalues --   -0.93512  -0.90400  -0.89023  -0.87435  -0.84183
 Alpha  occ. eigenvalues --   -0.81848  -0.77929  -0.77105  -0.73716  -0.72881
 Alpha  occ. eigenvalues --   -0.71756  -0.68912  -0.68570  -0.67857  -0.67162
 Alpha  occ. eigenvalues --   -0.66512  -0.65422  -0.64586  -0.63862  -0.63115
 Alpha  occ. eigenvalues --   -0.60853  -0.60038  -0.59508  -0.58468  -0.57586
 Alpha  occ. eigenvalues --   -0.56153  -0.55702  -0.55346  -0.54770  -0.54135
 Alpha  occ. eigenvalues --   -0.53245  -0.52614  -0.51287  -0.51042  -0.50661
 Alpha  occ. eigenvalues --   -0.50475  -0.49541  -0.48741  -0.47935  -0.47397
 Alpha  occ. eigenvalues --   -0.46585  -0.45757  -0.45229  -0.44074  -0.43349
 Alpha  occ. eigenvalues --   -0.42165  -0.41703  -0.41405  -0.40838  -0.39915
 Alpha  occ. eigenvalues --   -0.39650  -0.39432  -0.37514
 Alpha virt. eigenvalues --    0.00163   0.01257   0.04250   0.04807   0.05032
 Alpha virt. eigenvalues --    0.05668   0.05994   0.06562   0.07313   0.07433
 Alpha virt. eigenvalues --    0.07581   0.08151   0.08448   0.08527   0.08912
 Alpha virt. eigenvalues --    0.09635   0.09949   0.10464   0.10494   0.10723
 Alpha virt. eigenvalues --    0.11378   0.11414   0.11804   0.13029   0.13957
 Alpha virt. eigenvalues --    0.14592   0.15708   0.16122   0.16402   0.16588
 Alpha virt. eigenvalues --    0.16926   0.16959   0.17049   0.17288   0.17524
 Alpha virt. eigenvalues --    0.17627   0.18042   0.18271   0.18435   0.18463
 Alpha virt. eigenvalues --    0.18877   0.19674   0.20453   0.20626   0.20927
 Alpha virt. eigenvalues --    0.21047
          Condensed to atoms (all electrons):
               1          2          3          4          5          6
     1  O    6.544010   0.000000   0.000000   0.000000   0.000000   0.000000
     2  C    0.000000   3.924442   0.000000   0.000000   0.000000   0.000000
     3  C    0.000000   0.000000   3.930779   0.000000   0.000000   0.000000
     4  O    0.000000   0.000000   0.000000   6.560442   0.000000   0.000000
     5  C    0.000000   0.000000   0.000000   0.000000   3.990979   0.000000
     6  C    0.000000   0.000000   0.000000   0.000000   0.000000   3.689717
     7  O    0.000000   0.000000   0.000000   0.000000   0.000000   0.000000
     8  C    0.000000   0.000000   0.000000   0.000000   0.000000   0.000000
     9  C    0.000000   0.000000   0.000000   0.000000   0.000000   0.000000
    10  O    0.000000   0.000000   0.000000   0.000000   0.000000   0.000000
    11  O    0.000000   0.000000   0.000000   0.000000   0.000000   0.000000
    12  C    0.000000   0.000000   0.000000   0.000000   0.000000   0.000000
    13  C    0.000000   0.000000   0.000000   0.000000   0.000000   0.000000
    14  C    0.000000   0.000000   0.000000   0.000000   0.000000   0.000000
    15  C    0.000000   0.000000   0.000000   0.000000   0.000000   0.000000
    16  O    0.000000   0.000000   0.000000   0.000000   0.000000   0.000000
    17  C    0.000000   0.000000   0.000000   0.000000   0.000000   0.000000
    18  C    0.000000   0.000000   0.000000   0.000000   0.000000   0.000000
    19  O    0.000000   0.000000   0.000000   0.000000   0.000000   0.000000
    20  O    0.000000   0.000000   0.000000   0.000000   0.000000   0.000000
    21  O    0.000000   0.000000   0.000000   0.000000   0.000000   0.000000
    22  O    0.000000   0.000000   0.000000   0.000000   0.000000   0.000000
    23  O    0.000000   0.000000   0.000000   0.000000   0.000000   0.000000
    24  H    0.000000   0.000000   0.000000   0.000000   0.000000   0.000000
    25  H    0.000000   0.000000   0.000000   0.000000   0.000000   0.000000
    26  H    0.000000   0.000000   0.000000   0.000000   0.000000   0.000000
    27  H    0.000000   0.000000   0.000000   0.000000   0.000000   0.000000
    28  H    0.000000   0.000000   0.000000   0.000000   0.000000   0.000000
    29  H    0.000000   0.000000   0.000000   0.000000   0.000000   0.000000
    30  H    0.000000   0.000000   0.000000   0.000000   0.000000   0.000000
    31  H    0.000000   0.000000   0.000000   0.000000   0.000000   0.000000
    32  H    0.000000   0.000000   0.000000   0.000000   0.000000   0.000000
    33  H    0.000000   0.000000   0.000000   0.000000   0.000000   0.000000
    34  H    0.000000   0.000000   0.000000   0.000000   0.000000   0.000000
    35  H    0.000000   0.000000   0.000000   0.000000   0.000000   0.000000
    36  H    0.000000   0.000000   0.000000   0.000000   0.000000   0.000000
    37  H    0.000000   0.000000   0.000000   0.000000   0.000000   0.000000
    38  H    0.000000   0.000000   0.000000   0.000000   0.000000   0.000000
    39  H    0.000000   0.000000   0.000000   0.000000   0.000000   0.000000
    40  H    0.000000   0.000000   0.000000   0.000000   0.000000   0.000000
    41  H    0.000000   0.000000   0.000000   0.000000   0.000000   0.000000
    42  H    0.000000   0.000000   0.000000   0.000000   0.000000   0.000000
    43  H    0.000000   0.000000   0.000000   0.000000   0.000000   0.000000
    44  H    0.000000   0.000000   0.000000   0.000000   0.000000   0.000000
    45  H    0.000000   0.000000   0.000000   0.000000   0.000000   0.000000
               7          8          9         10         11         12
     1  O    0.000000   0.000000   0.000000   0.000000   0.000000   0.000000
     2  C    0.000000   0.000000   0.000000   0.000000   0.000000   0.000000
     3  C    0.000000   0.000000   0.000000   0.000000   0.000000   0.000000
     4  O    0.000000   0.000000   0.000000   0.000000   0.000000   0.000000
     5  C    0.000000   0.000000   0.000000   0.000000   0.000000   0.000000
     6  C    0.000000   0.000000   0.000000   0.000000   0.000000   0.000000
     7  O    6.477540   0.000000   0.000000   0.000000   0.000000   0.000000
     8  C    0.000000   3.927646   0.000000   0.000000   0.000000   0.000000
     9  C    0.000000   0.000000   4.009542   0.000000   0.000000   0.000000
    10  O    0.000000   0.000000   0.000000   6.540688   0.000000   0.000000
    11  O    0.000000   0.000000   0.000000   0.000000   6.553383   0.000000
    12  C    0.000000   0.000000   0.000000   0.000000   0.000000   3.936433
    13  C    0.000000   0.000000   0.000000   0.000000   0.000000   0.000000
    14  C    0.000000   0.000000   0.000000   0.000000   0.000000   0.000000
    15  C    0.000000   0.000000   0.000000   0.000000   0.000000   0.000000
    16  O    0.000000   0.000000   0.000000   0.000000   0.000000   0.000000
    17  C    0.000000   0.000000   0.000000   0.000000   0.000000   0.000000
    18  C    0.000000   0.000000   0.000000   0.000000   0.000000   0.000000
    19  O    0.000000   0.000000   0.000000   0.000000   0.000000   0.000000
    20  O    0.000000   0.000000   0.000000   0.000000   0.000000   0.000000
    21  O    0.000000   0.000000   0.000000   0.000000   0.000000   0.000000
    22  O    0.000000   0.000000   0.000000   0.000000   0.000000   0.000000
    23  O    0.000000   0.000000   0.000000   0.000000   0.000000   0.000000
    24  H    0.000000   0.000000   0.000000   0.000000   0.000000   0.000000
    25  H    0.000000   0.000000   0.000000   0.000000   0.000000   0.000000
    26  H    0.000000   0.000000   0.000000   0.000000   0.000000   0.000000
    27  H    0.000000   0.000000   0.000000   0.000000   0.000000   0.000000
    28  H    0.000000   0.000000   0.000000   0.000000   0.000000   0.000000
    29  H    0.000000   0.000000   0.000000   0.000000   0.000000   0.000000
    30  H    0.000000   0.000000   0.000000   0.000000   0.000000   0.000000
    31  H    0.000000   0.000000   0.000000   0.000000   0.000000   0.000000
    32  H    0.000000   0.000000   0.000000   0.000000   0.000000   0.000000
    33  H    0.000000   0.000000   0.000000   0.000000   0.000000   0.000000
    34  H    0.000000   0.000000   0.000000   0.000000   0.000000   0.000000
    35  H    0.000000   0.000000   0.000000   0.000000   0.000000   0.000000
    36  H    0.000000   0.000000   0.000000   0.000000   0.000000   0.000000
    37  H    0.000000   0.000000   0.000000   0.000000   0.000000   0.000000
    38  H    0.000000   0.000000   0.000000   0.000000   0.000000   0.000000
    39  H    0.000000   0.000000   0.000000   0.000000   0.000000   0.000000
    40  H    0.000000   0.000000   0.000000   0.000000   0.000000   0.000000
    41  H    0.000000   0.000000   0.000000   0.000000   0.000000   0.000000
    42  H    0.000000   0.000000   0.000000   0.000000   0.000000   0.000000
    43  H    0.000000   0.000000   0.000000   0.000000   0.000000   0.000000
    44  H    0.000000   0.000000   0.000000   0.000000   0.000000   0.000000
    45  H    0.000000   0.000000   0.000000   0.000000   0.000000   0.000000
              13         14         15         16         17         18
     1  O    0.000000   0.000000   0.000000   0.000000   0.000000   0.000000
     2  C    0.000000   0.000000   0.000000   0.000000   0.000000   0.000000
     3  C    0.000000   0.000000   0.000000   0.000000   0.000000   0.000000
     4  O    0.000000   0.000000   0.000000   0.000000   0.000000   0.000000
     5  C    0.000000   0.000000   0.000000   0.000000   0.000000   0.000000
     6  C    0.000000   0.000000   0.000000   0.000000   0.000000   0.000000
     7  O    0.000000   0.000000   0.000000   0.000000   0.000000   0.000000
     8  C    0.000000   0.000000   0.000000   0.000000   0.000000   0.000000
     9  C    0.000000   0.000000   0.000000   0.000000   0.000000   0.000000
    10  O    0.000000   0.000000   0.000000   0.000000   0.000000   0.000000
    11  O    0.000000   0.000000   0.000000   0.000000   0.000000   0.000000
    12  C    0.000000   0.000000   0.000000   0.000000   0.000000   0.000000
    13  C    3.963290   0.000000   0.000000   0.000000   0.000000   0.000000
[...]
 64317,-0.00131727,0.00004113,-0.00026365,0.00052630,0.00000481,-0.0005
 2457,-0.00037414,0.00002739,0.00084768,-0.00032629,-0.00036044,0.00000
 613,0.00039626,0.00025436,-0.00045639,-0.00181890,0.00154448,0.0003428
 8,0.00004932,-0.00004850,-0.00016670,-0.00002748,-0.00001092,-0.000022
 08,-0.00001510,0.00001002,0.00000401,-0.00002593,0.00001713,0.00005282
 ,0.00004878,-0.00003100,0.00001852,-0.00001545,-0.00001939,0.00002656,
 -0.00000364,0.00000816,0.00001629,0.00000523,-0.00006531,-0.00000718,0
 .00009065,-0.00008225,0.00003436,-0.00118880,-0.00052485,0.00007807,0.
 00184604,-0.00129797,-0.00175813,-0.00009908,-0.00036185,0.00044221,0.
 00020335,0.00000438,0.00004365,-0.00014907,0.00004338,0.00006215,-0.00
 024122,-0.00026609,-0.00013510,-0.00004530,0.00012977,0.00002098,-0.00
 014630,-0.00002878,0.00006951,0.00010704,-0.00006436,-0.00044562,0.000
 16290,-0.00066033,0.00000457,0.18664485,0.00005518,-0.00009661,-0.0000
 0219,-0.00007869,0.00003673,-0.00000395,0.00005054,0.00003562,-0.00003
 023,-0.00001899,-0.00005976,0.00003649,-0.00001375,-0.00005532,-0.0000
 2102,0.00023697,0.00037489,0.00008021,-0.00003782,-0.00045876,-0.00000
 418,0.00023331,0.00014132,-0.00000005,-0.00018360,0.00005367,0.0003378
 7,0.00072040,-0.00061215,-0.00021345,0.03728161,-0.05083765,-0.0194469
 9,0.03903282,-0.03002717,-0.01011815,0.00005409,-0.00016183,-0.0012906
 8,0.00031666,-0.00006056,0.00007989,-0.00002058,-0.00007552,0.00010865
 ,0.00072645,-0.00038796,0.00022924,0.00061111,-0.00524852,-0.00280640,
 0.00042665,0.00001115,-0.00005050,-0.00063216,0.00069035,-0.00023318,-
 0.00003787,0.00008359,0.00011651,-0.00041820,-0.00023136,0.00030225,0.
 00041874,-0.00036471,0.00076891,-0.00003108,-0.00004137,0.00004353,0.0
 0000453,-0.00000096,0.00001099,-0.00000543,-0.00000241,-0.00000807,0.0
 0000943,0.00001079,-0.00000811,-0.00001707,0.00002088,-0.00000401,0.00
 000218,-0.00000985,-0.00003492,-0.00001548,0.00000007,-0.00006306,-0.0
 0004210,-0.00001186,0.00000642,-0.00013914,0.00001132,0.00001689,-0.00
 066350,0.00194579,-0.00018456,0.00000347,-0.00142165,0.00026673,0.0001
 2045,0.00060937,-0.00018499,-0.00006298,-0.00000790,-0.00001574,0.0000
 4334,-0.00001160,-0.00004029,-0.00009378,-0.00027181,-0.00033380,0.000
 02490,-0.00010271,0.00000730,0.00006285,-0.00010036,0.00005537,0.00036
 966,-0.00035939,0.00054941,-0.00023152,0.00036411,-0.00005271,-0.07816
 393,0.08667896,-0.00005902,-0.00006646,0.00009104,-0.00005399,-0.00002
 568,-0.00002345,0.00005206,0.00005693,-0.00007330,-0.00008926,-0.00000
 813,0.00013838,0.00000043,-0.00009303,-0.00008576,0.00015120,-0.000201
 78,-0.00021325,-0.00033877,-0.00001851,0.00021434,0.00015649,0.0002770
 6,-0.00003688,-0.00005200,-0.00020696,0.00003077,-0.00020679,0.0000808
 9,-0.00036283,0.00143369,-0.01573771,-0.00919753,0.01975372,-0.0126829
 8,-0.00695217,0.00062087,-0.00280986,-0.00281165,0.00000835,0.00038735
 ,-0.00024622,0.00014825,-0.00032650,0.00063620,0.00008853,-0.00005776,
 -0.00044428,-0.00012414,-0.00208865,-0.00007801,-0.00043660,-0.0000224
 5,0.00053316,0.00068420,-0.00083523,-0.00055596,0.00010481,0.00023647,
 -0.00035151,-0.00018031,0.00014020,0.00016478,0.00025517,0.00138475,0.
 00073234,-0.00005865,0.00013271,0.00013542,0.00002841,0.00001958,0.000
 02646,0.00002827,-0.00001758,0.00000993,0.00003706,-0.00002563,-0.0000
 4494,-0.00000208,0.00000600,-0.00001630,0.00002120,-0.00000756,0.00006
 993,0.00001922,-0.00003223,0.00004295,0.00002232,0.00008603,-0.0000140
 9,0.00014864,0.00014395,-0.00003525,0.00064121,-0.00026770,0.00058101,
 -0.00049936,0.00055950,0.00158633,0.00023388,-0.00046283,-0.00113218,-
 0.00008215,-0.00004525,0.00001571,-0.00001649,0.00000331,-0.00007066,-
 0.00003974,-0.00015683,-0.00004493,0.00002974,0.00003833,0.00000091,0.
 00003062,0.00002452,-0.00001873,-0.00051816,0.00068992,-0.00001300,-0.
 00024697,-0.00035149,-0.00043457,-0.02168891,0.03229794,0.01815052,-0.
 00018540,0.00045748,-0.00017322,0.00100196,0.00012413,-0.00001449,-0.0
 0230752,0.00240593,0.00227626,0.00034574,-0.00012721,-0.00058899,0.011
 45372,0.00964160,0.00235030,0.00180244,0.00364163,-0.00005052,-0.00060
 328,-0.00045482,0.00097414,0.00000214,0.00006171,-0.00024641,0.0000663
 4,-0.00004746,-0.00030817,-0.00013605,-0.00007725,0.00029532,-0.000035
 42,-0.00014565,-0.00001666,0.00000240,0.00007415,0.00006639,0.00007425
 ,0.00000214,-0.00003679,-0.00060531,-0.00032781,-0.00028559,0.00047700
 ,0.00024100,0.00031221,-0.00016145,-0.00021016,-0.00020608,-0.00008567
 ,-0.00001337,0.00000924,-0.00001065,-0.00002464,-0.00001721,-0.0000202
 4,-0.00001021,-0.00001256,-0.00015236,-0.00003807,-0.00015637,-0.00036
 962,-0.00122090,-0.00093542,-0.00003152,-0.00010813,-0.00011803,-0.121
 11114,-0.09979498,-0.03055957,-0.00018314,0.00011119,0.00014145,-0.000
 37428,0.00010677,-0.00001115,-0.00019497,0.00020043,0.00018847,0.00046
 888,0.00202030,0.00177056,-0.00018220,-0.00001557,-0.00013323,-0.00004
 798,-0.00002262,-0.00005972,-0.00000964,-0.00003070,-0.00000187,0.0000
 4650,0.00000764,0.00002396,0.00011619,0.00009610,-0.00006953,0.0000033
 9,0.00000686,-0.00000202,0.00011503,0.00011193,-0.00005604,-0.00004426
 ,0.00003355,0.00025528,0.00006466,0.00000777,0.00007974,0.00004660,0.0
 0004130,-0.00002849,0.00001167,0.00001038,0.00001466,0.00001104,0.0000
 0525,0.00000256,0.00000790,0.00001190,0.00000793,0.00000579,0.00005574
 ,0.00007358,0.00000231,0.00002241,-0.00000859,0.11072595,0.00006253,0.
 00032169,0.00014701,-0.00050061,-0.00052480,-0.00007013,0.00141833,-0.
 00488806,-0.00217404,0.00047957,0.00073601,-0.00032400,-0.02067392,-0.
 04183554,-0.01753387,0.00139634,0.00119327,-0.00220585,-0.00035558,0.0
 0056260,0.00141201,-0.00028126,-0.00017449,-0.00002385,0.00011074,0.00
 002713,-0.00028310,-0.00011143,-0.00006983,0.00030163,-0.00001494,-0.0
 0011059,0.00007947,-0.00003333,0.00003813,0.00000168,0.00008504,-0.000
 11836,0.00005674,-0.00007130,0.00014720,-0.00052504,0.00029514,0.00052
 034,0.00007504,0.00004658,-0.00039513,-0.00015112,-0.00014435,0.000059
 73,0.00003879,0.00000606,-0.00004503,-0.00003006,0.00000608,-0.0000501
 3,0.00000606,-0.00005646,-0.00032565,-0.00007652,-0.00031375,-0.001464
 42,0.00019413,-0.00010115,-0.00010518,-0.00002600,-0.06464987,-0.10357
 460,-0.03999663,-0.00002708,-0.00011216,-0.00011274,0.00017894,0.00023
 746,-0.00010363,-0.00047538,-0.00019675,0.00020596,0.00075228,-0.00077
 342,0.00071513,-0.00038908,0.00011205,0.00004636,-0.00003126,0.0000081
 1,-0.00005966,-0.00002445,-0.00003373,0.00000827,0.00002571,-0.0000133
 0,0.00000879,0.00009715,0.00007851,-0.00008905,0.00001736,0.00002268,-
 0.00000478,0.00010933,0.00009234,-0.00010004,-0.00003436,0.00009614,0.
 00023648,-0.00022886,0.00015906,0.00039410,0.00004447,0.00004450,-0.00
 004839,0.00000072,0.00003319,0.00002505,-0.00000213,0.00000972,0.00000
 857,-0.00000180,0.00002981,-0.00000865,0.00003296,0.00005425,0.0000169
 0,0.00000886,0.00001837,-0.00004256,0.08338329,0.15043362,-0.00005544,
 0.00011100,-0.00033543,-0.00012355,-0.00032857,0.00012836,0.00082425,-
 0.00268840,0.00000910,-0.00003448,0.00005707,-0.00095965,-0.01247296,-
 0.02069131,-0.01235682,0.00130512,-0.00449727,-0.00322148,0.00005774,0
 .00147142,0.00039397,-0.00065924,-0.00040814,0.00010844,0.00014063,0.0
 0017069,-0.00008426,-0.00002592,0.00008907,0.00007390,-0.00011107,0.00
 018346,0.00017316,-0.00004467,-0.00011243,-0.00010106,0.00033160,-0.00
 002944,0.00005815,0.00020454,0.00014785,-0.00051496,0.00014247,0.00045
 474,-0.00036797,-0.00012134,-0.00002217,0.00045041,0.00011477,-0.00007
 955,-0.00025334,0.00008367,-0.00000338,-0.00009811,-0.00006573,0.00002
 492,0.00019669,-0.00035299,-0.00023855,0.00036557,-0.00100747,0.000721
 76,0.00083233,-0.00043361,0.00008152,-0.00007073,-0.01366521,-0.035126
 49,-0.01631779,0.00000300,-0.00004813,-0.00008271,0.00010006,0.0000191
 8,0.00002221,0.00020299,0.00017337,0.00058279,0.00009242,0.00075364,0.
 00184552,-0.00011169,-0.00001117,-0.00038793,0.00001547,-0.00001665,-0
 .00003509,-0.00003415,-0.00003492,0.00003719,0.00002726,-0.00004253,0.
 00003184,0.00001276,-0.00008718,-0.00004194,0.00004311,0.00003162,-0.0
 0002901,0.00001617,-0.00003354,0.00002717,0.00015088,0.00002192,0.0001
 8050,0.00018557,0.00009215,-0.00022249,-0.00003168,-0.00001333,-0.0000
 0025,-0.00000586,0.00002219,-0.00001759,-0.00002843,-0.00000043,-0.000
 01170,-0.00000981,-0.00003117,-0.00007205,0.00011141,-0.00007523,0.000
 12141,0.00009508,-0.00003958,-0.00004789,0.02501298,0.06003570,0.02988
 688,-0.00003914,0.00008812,-0.00009029,0.00006313,-0.00006371,0.000032
 41,-0.00006837,-0.00005306,0.00008346,0.00004248,0.00004179,-0.0001358
 1,-0.00007217,0.00007105,0.00001916,-0.00015823,-0.00045072,0.00006474
 ,-0.00004959,0.00031348,-0.00003249,-0.00014160,-0.00009893,0.00002294
 ,0.00003578,0.00001812,-0.00003629,-0.00007275,0.00010811,0.00001699,-
 0.00050642,-0.00003354,0.00005858,0.00003726,-0.00055018,-0.00000732,0
 .00118590,-0.00020335,0.00006667,0.00222697,-0.00028821,0.00008406,-0.
 03063247,-0.00416777,0.02012973,0.00027992,0.00251859,0.00139957,0.001
 24300,-0.00157429,-0.00108352,0.00031419,-0.00009602,-0.00073630,-0.00
 077805,0.00045886,0.00066154,-0.11027849,0.02517387,0.08769716,-0.0003
 3312,0.00124753,-0.00112047,-0.00096440,-0.00099575,-0.00015407,0.0000
 2277,0.00002902,-0.00015968,-0.00001703,-0.00000678,-0.00000614,-0.000
 00227,-0.00000306,0.00000874,-0.00001427,0.00001011,0.00004549,0.00005
 211,-0.00002256,0.00000924,0.00000018,-0.00012059,0.00013558,0.0000104
 7,-0.00002629,0.00002329,-0.00000422,-0.00002243,0.00000681,0.00003000
 ,-0.00001305,0.00001708,0.00008256,-0.00008989,-0.00000334,0.00058089,
 0.00032291,-0.00010359,0.00002947,0.00001510,0.00002846,0.00059447,0.0
 0038707,-0.00004554,-0.00060483,-0.00129635,0.00237019,-0.00023991,-0.
 00006900,0.00009893,-0.00043719,-0.00011540,-0.00125869,-0.00015144,0.
 00002882,-0.00008771,-0.00003583,-0.00026269,-0.00008535,-0.00007299,0
 .00007321,0.00012584,0.00020689,0.00008012,-0.00002212,0.00001701,-0.0
 0001613,0.00012025,0.13862117,0.00002504,-0.00000678,-0.00001905,-0.00
 000307,0.00002560,0.00000938,0.00000851,-0.00000032,-0.00000374,0.0000
 1590,-0.00001593,-0.00001665,0.00007104,0.00004667,0.00006165,-0.00020
 014,0.00027114,-0.00004240,0.00015023,-0.00013193,-0.00006460,0.000030
 03,-0.00003798,-0.00001650,-0.00000888,0.00002895,0.00009635,0.0000988
 2,0.00008285,-0.00010790,-0.00002702,0.00087825,0.00018907,-0.00033131
 ,-0.00240451,-0.00061490,-0.00010387,-0.00030300,-0.00001835,-0.002593
 35,-0.00132002,0.00292433,-0.02567771,0.00620294,0.02542628,-0.0031028
 5,-0.00374679,-0.00239621,-0.00083118,0.00063094,0.00049488,0.00008197
 ,-0.00035118,-0.00040973,0.00016325,-0.00019926,0.00035535,0.05450472,
 -0.05024776,-0.04387401,0.00087861,-0.00037845,-0.00016794,-0.00042704
 ,0.00066378,-0.00025996,-0.00000001,-0.00010079,0.00002140,-0.00000265
 ,-0.00000333,-0.00000543,-0.00000688,0.00001001,-0.00000460,-0.0000060
 6,0.00001081,0.00000617,-0.00002753,-0.00000062,0.00001697,0.00000799,
 0.00013737,-0.00010760,-0.00000510,0.00002162,-0.00000149,-0.00000373,
 -0.00001604,-0.00000766,-0.00001738,-0.00002002,-0.00000216,-0.0001409
 4,-0.00013025,0.00006534,0.00038042,-0.00021749,-0.00052418,-0.0002032
 3,-0.00017151,0.00002967,-0.00000403,0.00001115,0.00046312,-0.00274292
 ,-0.00417238,0.00239056,0.00000548,-0.00004736,0.00001949,0.00004261,0
 .00059168,0.00006404,-0.00004831,0.00005433,0.00006258,-0.00007490,0.0
 0002563,-0.00014902,0.00020940,-0.00010571,0.00012670,0.00024172,-0.00
 009700,-0.00000517,0.00000060,0.00003760,-0.00004347,-0.02031884,0.054
 49403,-0.00000438,-0.00010667,0.00001272,-0.00007744,0.00003151,-0.000
 00333,0.00008870,0.00011007,-0.00005864,-0.00010442,-0.00008990,0.0001
 2296,-0.00011233,-0.00016435,-0.00013380,0.00064898,0.00093239,0.00051
 439,-0.00011610,-0.00046715,-0.00026570,0.00025289,0.00017834,0.000001
 63,-0.00010653,-0.00006178,0.00022403,0.00009012,0.00010080,-0.0002621
 8,-0.00000164,0.00043629,-0.00053195,0.00035869,-0.00039610,0.00040428
 ,-0.00040521,0.00047086,0.00076236,-0.00032478,0.00134261,-0.00254950,
 0.02388290,0.00409185,-0.01909236,-0.00304446,-0.00303417,-0.00260189,
 -0.00087439,0.00003307,0.00220385,-0.00010410,0.00012012,0.00031689,0.
 00044012,0.00056451,0.00048663,0.08634068,-0.01969646,-0.07160119,-0.0
 0073326,-0.00137387,0.00051920,0.00064092,-0.00049522,-0.00069399,-0.0
 0010065,-0.00004365,0.00010465,0.00002879,0.00000783,0.00001257,0.0000
 1944,-0.00002319,0.00000563,0.00004885,0.00000278,-0.00003947,-0.00000
 988,0.00004129,-0.00002311,0.00003562,-0.00004563,0.00001851,0.0000039
 6,-0.00001314,0.00003947,0.00001690,0.00001262,-0.00001646,-0.00000274
 ,0.00001565,-0.00000548,-0.00009127,-0.00011149,0.00013166,0.00002152,
 -0.00057270,0.00026097,0.00004918,-0.00000029,-0.00012973,-0.00029878,
 0.00063943,-0.00072546,0.00265576,0.00159186,0.00000851,0.00005365,-0.
 00013827,-0.00024723,-0.00088281,-0.00004793,-0.00056069,-0.00019004,0
 .00020029,-0.00004024,0.00008439,-0.00027297,-0.00020482,-0.00013826,0
 .00023762,0.00002644,0.00006740,-0.00013428,0.00020521,0.00007812,0.00
 004842,-0.00010251,-0.10820111,0.01602484,0.09352228,-0.03388558,0.010
 07773,0.06016245,0.00165084,0.00516304,-0.03261357,0.00061540,0.003402
 82,-0.00245598,-0.00348379,0.00086482,0.00098868,-0.00016014,-0.000456
 41,-0.00010940,-0.00001080,-0.00034771,-0.00004401,-0.00024081,-0.0000
 2877,0.00000033,-0.00290062,0.00191506,-0.00138935,-0.00014624,-0.0000
 3418,0.00023006,-0.00005503,-0.00007091,-0.00000544,-0.00000427,-0.000
 02331,-0.00004966,0.00000606,0.00002883,0.00002765,0.00000849,0.000023
 76,-0.00001569,-0.00005703,-0.00005209,0.00005565,0.00001439,-0.000051
 00,0.00005851,-0.00002253,0.00002363,-0.00005029,0.00000157,-0.0000067
 3,0.00001742,-0.00001777,0.00000212,0.00001645,-0.00000044,0.00000439,
 -0.00003682,0.00000736,0.00004689,-0.00004180,0.00002796,0.00017581,-0
 .00000714,-0.00000337,0.00003239,-0.00004063,-0.00023154,0.00023165,0.
 00019231,-0.00197378,0.00224511,-0.00169038,-0.00000111,-0.00026725,0.
 00021163,0.00099533,-0.00074256,0.00066914,0.00023421,-0.00040321,0.00
 009484,0.00001936,-0.00001611,-0.00000462,0.00040878,0.00024926,-0.000
 37572,0.00007252,0.00004938,-0.00008296,0.00010171,-0.00002177,-0.0000
 0697,0.00002847,0.00004090,0.00004149,-0.00000597,-0.00000937,0.000004
 00,-0.00000372,-0.00003166,0.00004230,0.00000309,-0.00001361,0.0000011
 5,0.00000925,-0.00000729,-0.00001190,0.00000134,-0.00000071,0.00000693
 ,0.00000357,-0.00000559,0.00000169,0.00000868,-0.00000017,0.00000185,0
 .00000637,0.00000167,0.00001781,-0.00000634,-0.00003387,0.00003778,-0.
 00000268,-0.00000059,0.00002570,-0.00001654,-0.00001819,0.00000105,-0.
 00000140,-0.00000769,0.00001661,0.03900669,0.01796234,-0.01516101,0.00
 590693,-0.00232520,-0.01140364,0.03203079,0.00233587,-0.00426931,0.003
 48728,0.00140848,-0.00216113,-0.00066158,0.00002118,-0.00064651,-0.000
 21588,-0.00053261,0.00039104,0.00092727,-0.00006597,-0.00046359,-0.001
 15007,0.00402700,-0.00250809,0.00373383,0.00004282,-0.00021620,-0.0001
 0178,-0.00001286,-0.00002800,-0.00012240,0.00003098,-0.00013609,-0.000
 09978,0.00001738,0.00009344,0.00008061,-0.00011504,0.00004666,-0.00000
 762,-0.00010354,-0.00008945,0.00026235,0.00006075,-0.00013362,0.000161
 70,-0.00001541,-0.00000271,-0.00020696,-0.00004395,0.00001878,0.000093
 50,-0.00004002,-0.00000491,0.00003325,0.00001981,-0.00001652,-0.000085
 00,0.00005764,0.00009137,-0.00013756,0.00022306,0.00016970,-0.00044650
 ,0.00014133,-0.00003840,-0.00003803,0.00008928,0.00084464,-0.00007074,
 -0.00024547,0.00111588,0.00007128,0.00016487,0.00015897,0.00020113,-0.
 00037840,-0.00000395,-0.00101217,-0.00017982,-0.00054192,0.00002596,0.
 00014110,-0.00004449,-0.00006734,-0.00052790,-0.00022134,0.00071765,0.
 00007602,0.00015202,-0.00001819,0.00000239,0.00006202,0.00005721,0.000
 03633,0.00005219,-0.00002377,-0.00001707,-0.00001418,0.00000689,-0.000
 01602,-0.00000235,0.00004662,-0.00001100,0.00000153,-0.00005250,-0.000
 01965,-0.00001439,0.00001147,0.00002444,0.00002513,0.00000122,0.000004
 61,-0.00000300,0.00000945,0.00001363,0.00000444,0.00000517,0.00000673,
 0.00002011,0.00003471,-0.00004785,0.00002670,0.00001183,-0.00004074,0.
 00002965,0.00003079,-0.00021349,-0.00026158,0.00003992,-0.00002757,0.0
 0000146,0.00005454,-0.02192816,0.03508004,0.03288975,0.02598619,-0.186
 85820,-0.00549278,0.01422910,-0.03298453,-0.00016980,0.00009734,0.0047
 4940,-0.00207011,0.00335543,-0.00180120,0.00014193,0.00068296,-0.00012
 877,0.00009637,0.00172891,0.00078261,-0.00074398,-0.00202906,-0.000370
 37,0.00061225,0.00198170,-0.00088346,0.00020609,-0.00032431,-0.0010290
 8,-0.00044264,-0.00021825,0.00088021,-0.00010513,-0.00014089,0.0001191
 1,-0.00004841,0.00004354,0.00001474,0.00017866,-0.00006079,0.00005867,
 -0.00008322,0.00005600,-0.00019429,0.00019164,0.00026111,-0.00003941,-
 0.00004146,-0.00017277,0.00000551,-0.00004293,0.00000629,-0.00004161,0
 .00004313,-0.00003592,-0.00008157,-0.00003704,-0.00001843,0.00010261,-
 0.00013676,-0.00015029,0.00007831,-0.00045768,-0.00058028,-0.00016457,
 -0.00024617,-0.00004476,-0.00008565,-0.00016297,-0.00035151,-0.0007617
 9,-0.00075107,-0.00118767,-0.00011341,0.00000364,-0.00007052,-0.000894
 26,-0.00039141,0.00030661,0.00006478,0.00013025,-0.00027103,0.00039711
 ,0.00000791,0.00000618,-0.00013495,-0.00026661,0.00005312,-0.00005758,
 0.00005629,-0.00011804,-0.00010497,0.00017841,0.00000799,0.00007560,0.
 00030347,0.00024891,-0.00012703,0.00003182,0.00002299,-0.00002726,0.00
 011359,0.00011620,-0.00003498,0.00004362,0.00002268,0.00007016,-0.0000
 2068,0.00002434,0.00002469,0.00003777,0.00007091,-0.00003078,-0.000000
 08,0.00002662,0.00000597,-0.00001269,0.00001072,-0.00000076,-0.0000001
 7,0.00001204,-0.00004331,0.00007724,-0.00001055,0.00008680,0.00006392,
 0.00001081,-0.00005969,0.00016317,-0.00007251,0.00020743,0.00004333,0.
 00001462,-0.00001449,-0.02389044,-0.04352538,0.21934534\\0.00002354,0.
 00004635,0.00001024,-0.00003042,-0.00005967,0.00000282,0.00000566,-0.0
 0000090,-0.00001482,0.00002940,0.00003632,0.00005201,0.00000843,-0.000
 01759,0.00000577,0.00000823,0.00005444,0.00003741,-0.00002375,-0.00004
 353,-0.00001699,0.00005133,0.00001225,-0.00001269,-0.00002963,-0.00000
 563,0.00003404,0.00005964,0.00006689,-0.00001900,0.00003219,-0.0000179
 0,0.00000907,-0.00001133,-0.00002010,0.00001356,0.00002594,0.00003235,
 0.00002689,-0.00000039,-0.00004041,-0.00001718,-0.00001408,0.00003580,
 0.00002793,-0.00002149,-0.00007489,-0.00000860,0.00000073,0.00006167,0
 .00000469,0.00000978,0.00000284,0.00001683,0.00000943,0.00001268,-0.00
 002033,0.00005201,-0.00000005,0.00000418,0.00000177,-0.00002033,-0.000
 03234,-0.00002062,0.00001228,0.00001146,0.00005449,0.00004402,-0.00000
 383,0.00000003,0.00001845,0.00002465,-0.00000154,0.00001557,-0.0000020
 1,-0.00001285,-0.00004292,-0.00004944,-0.00001729,0.00000905,0.0000056
 7,-0.00000823,-0.00001564,0.00000223,-0.00001123,-0.00000849,-0.000001
 26,0.00000704,0.00002497,-0.00000768,0.00000172,-0.00000384,-0.0000036
 5,-0.00005008,-0.00005463,0.00001142,0.00000270,-0.00000978,0.00000573
 ,-0.00000813,-0.00000281,-0.00001144,0.00003532,0.00001429,0.00000428,
 -0.00001113,0.00000677,-0.00000786,-0.00002347,-0.00002613,-0.00000585
 ,-0.00000631,0.00000649,-0.00001492,-0.00001201,0.00001076,-0.00001133
 ,0.00000144,-0.00001328,-0.00000997,0.00000375,-0.00000506,-0.00000077
 ,-0.00001773,0.00000916,-0.00001069,-0.00005173,-0.00004326,-0.0000034
 6,-0.00001908,0.00000793,0.00000047,-0.00002208,-0.00001449,-0.0000252
 6\\\@


 THE WORLD IS MADE UP OF THE WILLS, THE WON'TS, AND THE CANT'S:
 THE WILLS DO EVERYTHING,
 THE WON'TS DO NOTHING,
 THE CAN'TS CAN'T DO ANYTHING.

                               -- FROM WALT DISNEY'S "BLACK HOLE"
 Job cpu time:       0 days  0 hours  0 minutes 11.1 seconds.
 Elapsed time:       0 days  0 hours  0 minutes  1.0 seconds.
 File lengths (MBytes):  RWF=    217 Int=      0 D2E=      0 Chk=      4 Scr=      1
 Normal termination of Gaussian 16 at Tue Jun 22 14:21:24 2021.
