 Entering Gaussian System, Link 0=g16
 Input=input.com
 Output=input.log
 Initial command:
 /home/matma/Programs/gaussian/G16_x86_SSE4/tar/g16/l1.exe "/scratch-data/gaussian/Gau-21340.inp" -scrdir="/scratch-data/gaussian/"
 Entering Link 1 = /home/matma/Programs/gaussian/G16_x86_SSE4/tar/g16/l1.exe PID=     21342.
  
 Copyright (c) 1988-2017, Gaussian, Inc.  All Rights Reserved.
  
 This is part of the Gaussian(R) 16 program.  It is based on
 the Gaussian(R) 09 system (copyright 2009, Gaussian, Inc.),
 the Gaussian(R) 03 system (copyright 2003, Gaussian, Inc.),
 the Gaussian(R) 98 system (copyright 1998, Gaussian, Inc.),
 the Gaussian(R) 94 system (copyright 1995, Gaussian, Inc.),
 the Gaussian 92(TM) system (copyright 1992, Gaussian, Inc.),
 the Gaussian 90(TM) system (copyright 1990, Gaussian, Inc.),
 the Gaussian 88(TM) system (copyright 1988, Gaussian, Inc.),
 the Gaussian 86(TM) system (copyright 1986, Carnegie Mellon
 University), and the Gaussian 82(TM) system (copyright 1983,
 Carnegie Mellon University). Gaussian is a federally registered
 trademark of Gaussian, Inc.
  
 This software contains proprietary and confidential information,
 including trade secrets, belonging to Gaussian, Inc.
  
 This software is provided under written license and may be
 used, copied, transmitted, or stored only in accord with that
 written license.
  
 The following legend is applicable only to US Government
 contracts under FAR:
  
                    RESTRICTED RIGHTS LEGEND
  
 Use, reproduction and disclosure by the US Government is
 subject to restrictions as set forth in subparagraphs (a)
 and (c) of the Commercial Computer Software - Restricted
 Rights clause in FAR 52.227-19.
  
 Gaussian, Inc.
 340 Quinnipiac St., Bldg. 40, Wallingford CT 06492
  
  
 ---------------------------------------------------------------
 Warning -- This program may not be used in any manner that
 competes with the business of Gaussian, Inc. or will provide
 assistance to any competitor of Gaussian, Inc.  The licensee
 of this program is prohibited from giving any competitor of
 Gaussian, Inc. access to this program.  By using this program,
 the user acknowledges that Gaussian, Inc. is engaged in the
 business of creating and licensing software in the field of
 computational chemistry and represents and warrants to the
 licensee that it is not a competitor of Gaussian, Inc. and that
 it will not use this program in any manner prohibited above.
 ---------------------------------------------------------------
  

 Cite this work as:
 Gaussian 16, Revision B.01,
 M. J. Frisch, G. W. Trucks, H. B. Schlegel, G. E. Scuseria, 
 M. A. Robb, J. R. Cheeseman, G. Scalmani, V. Barone, 
 G. A. Petersson, H. Nakatsuji, X. Li, M. Caricato, A. V. Marenich, 
 J. Bloino, B. G. Janesko, R. Gomperts, B. Mennucci, H. P. Hratchian, 
 J. V. Ortiz, A. F. Izmaylov, J. L. Sonnenberg, D. Williams-Young, 
 F. Ding, F. Lipparini, F. Egidi, J. Goings, B. Peng, A. Petrone, 
 T. Henderson, D. Ranasinghe, V. G. Zakrzewski, J. Gao, N. Rega, 
 G. Zheng, W. Liang, M. Hada, M. Ehara, K. Toyota, R. Fukuda, 
 J. Hasegawa, M. Ishida, T. Nakajima, Y. Honda, O. Kitao, H. Nakai, 
 T. Vreven, K. Throssell, J. A. Montgomery, Jr., J. E. Peralta, 
 F. Ogliaro, M. J. Bearpark, J. J. Heyd, E. N. Brothers, K. N. Kudin, 
 V. N. Staroverov, T. A. Keith, R. Kobayashi, J. Normand, 
 K. Raghavachari, A. P. Rendell, J. C. Burant, S. S. Iyengar, 
 J. Tomasi, M. Cossi, J. M. Millam, M. Klene, C. Adamo, R. Cammi, 
 J. W. Ochterski, R. L. Martin, K. Morokuma, O. Farkas, 
 J. B. Foresman, and D. J. Fox, Gaussian, Inc., Wallingford CT, 2016.
 
 ******************************************
 Gaussian 16:  ES64L-G16RevB.01 20-Dec-2017
                28-Jun-2021 
 ******************************************
 %nproc=12
 Will use up to   12 processors via shared memory.
 %mem=16GB
 --------------------------------------
 #P pm6 opt=loose freq int=(grid=99590)
 --------------------------------------
 1/7=-1,18=20,19=15,26=1,38=1/1,3;
 2/9=110,12=2,17=6,18=5,40=1/2;
 3/5=2,25=1,41=3900000,71=1,75=99590/1,2,3;
 4/35=1/1;
 5/5=2,35=1,38=5/2;
 6/7=2,8=2,9=2,10=2,28=1/1;
 7//1,2,3,16;
 1/7=-1,18=20,19=15,26=1/3(2);
 2/9=110/2;
 99//99;
 2/9=110/2;
 3/5=2,25=1,41=3900000,71=1,75=99590,135=20/1,2,3;
 4/5=5,16=3,35=1/1;
 5/5=2,35=1,38=5/2;
 7//1,2,3,16;
 1/7=-1,18=20,19=15,26=1/3(-5);
 2/9=110/2;
 6/7=2,8=2,9=2,10=2,19=2,28=1/1;
 99/9=1/99;
 Leave Link    1 at Mon Jun 28 19:27:09 2021, MaxMem=  2147483648 cpu:               0.2 elap:               0.0
 (Enter /home/matma/Programs/gaussian/G16_x86_SSE4/tar/g16/l101.exe)
 ------------
 offspring-02
 ------------
 Symbolic Z-matrix:
 Charge =  1 Multiplicity = 1
 C                    -4.645     1.165    -1.073 
 H                    -5.617     0.66     -0.883 
 O                    -4.82      2.4      -1.743 
 H                    -4.96      2.25     -2.715 
 C                    -3.532    -0.927    -1.589 
 H                    -2.725    -1.2      -2.323 
 O                    -3.846     0.407    -2.007 
 C                    -3.816     1.452     0.207 
 H                    -4.468     1.977     0.97 
 N                    -2.722     2.382    -0.178 
 H                    -2.959     2.96     -1.011 
 C                    -1.509     2.508     0.406 
 O                    -1.247     1.792     1.443 
 C                    -0.543     3.5      -0.132 
 H                     0.46      3.047    -0.297 
 H                    -0.389     4.333     0.58 
 H                    -0.828     3.961    -1.091 
 C                    -3.366     0.107     0.836 
 H                    -2.518     0.273     1.566 
 O                    -4.419    -0.342     1.676 
 H                    -5.173    -0.723     1.147 
 C                    -2.989    -1.02     -0.149 
 H                    -3.303    -1.997     0.308 
 O                    -1.542    -1.044    -0.334 
 C                    -4.77     -1.823    -1.782 
 H                    -4.503    -2.895    -1.81 
 H                    -5.314    -1.545    -2.706 
 O                    -5.632    -1.574    -0.65 
 H                    -6.412    -2.172    -0.681 
 C                    -0.831    -1.68      0.717 
 H                    -1.476    -2.284     1.39 
 C                     0.651    -0.899     2.466 
 H                     0.218    -1.71      3.109 
 O                    -0.31     -0.533     1.456 
 C                     0.299    -2.504     0.06 
 H                     0.578    -2.094    -0.938 
 O                    -0.329    -3.781    -0.112 
 H                     0.305    -4.416    -0.529 
 C                     1.535    -2.696     0.976 
 H                     1.319    -3.526     1.708 
 O                     2.604    -3.238     0.236 
 H                     2.873    -2.625    -0.513 
 C                     1.932    -1.431     1.777 
 H                     2.718    -1.701     2.532 
 O                     2.634    -0.379     1.091 
 C                     0.826     0.355     3.325 
 H                     1.711     0.292     3.989 
 H                    -0.085     0.577     3.922 
 O                     1.008     1.563     2.53 
 H                     1.741     1.372     1.795 
 C                     2.327    -0.034    -0.267 
 H                     1.256    -0.185    -0.518 
 C                     4.507    -0.888    -1.077 
 H                     4.78     -1.331    -0.088 
 O                     3.035    -0.907    -1.132 
 C                     2.852     1.405    -0.456 
 H                     2.623     1.762    -1.493 
 O                     2.132     2.266     0.449 
 H                     2.739     3.018     0.73 
 C                     4.37      1.473    -0.169 
 H                     4.605     1.209     0.892 
 O                     4.786     2.822    -0.284 
 H                     4.912     3.07     -1.242 
 C                     5.082     0.544    -1.175 
 H                     6.185     0.532    -1.007 
 O                     4.817     1.183    -2.431 
 H                     5.276     0.718    -3.165 
 C                     4.894    -1.776    -2.24 
 H                     5.979    -1.79     -2.408 
 H                     4.403    -1.462    -3.174 
 H                     4.591    -2.822    -2.073 
 H                    -0.072     1.719     1.806 
 
 Add virtual bond connecting atoms H72        and O13        Dist= 2.33D+00.
 Add virtual bond connecting atoms H72        and O49        Dist= 2.47D+00.
 ITRead=  0  0  0  0  0  0  0  0  0  0  0  0  0  0  0  0  0  0  0  0
 ITRead=  0  0  0  0  0  0  0  0  0  0  0  0  0  0  0  0  0  0  0  0
 ITRead=  0  0  0  0  0  0  0  0  0  0  0  0  0  0  0  0  0  0  0  0
 ITRead=  0  0  0  0  0  0  0  0  0  0  0  0
 MicOpt= -1 -1 -1 -1 -1 -1 -1 -1 -1 -1 -1 -1 -1 -1 -1 -1 -1 -1 -1 -1
 MicOpt= -1 -1 -1 -1 -1 -1 -1 -1 -1 -1 -1 -1 -1 -1 -1 -1 -1 -1 -1 -1
 MicOpt= -1 -1 -1 -1 -1 -1 -1 -1 -1 -1 -1 -1 -1 -1 -1 -1 -1 -1 -1 -1
 MicOpt= -1 -1 -1 -1 -1 -1 -1 -1 -1 -1 -1 -1
 NAtoms=     72 NQM=       72 NQMF=       0 NMMI=      0 NMMIF=      0
                NMic=       0 NMicF=      0.
                    Isotopes and Nuclear Properties:
 (Nuclear quadrupole moments (NQMom) in fm**2, nuclear magnetic moments (NMagM)
  in nuclear magnetons)

  Atom         1           2           3           4           5           6           7           8           9          10
 IAtWgt=          12           1          16           1          12           1          16          12           1          14
 AtmWgt=  12.0000000   1.0078250  15.9949146   1.0078250  12.0000000   1.0078250  15.9949146  12.0000000   1.0078250  14.0030740
 NucSpn=           0           1           0           1           0           1           0           0           1           2
 AtZEff=  -0.0000000  -0.0000000  -0.0000000  -0.0000000  -0.0000000  -0.0000000  -0.0000000  -0.0000000  -0.0000000  -0.0000000
 NQMom=    0.0000000   0.0000000   0.0000000   0.0000000   0.0000000   0.0000000   0.0000000   0.0000000   0.0000000   2.0440000
 NMagM=    0.0000000   2.7928460   0.0000000   2.7928460   0.0000000   2.7928460   0.0000000   0.0000000   2.7928460   0.4037610
 AtZNuc=   6.0000000   1.0000000   8.0000000   1.0000000   6.0000000   1.0000000   8.0000000   6.0000000   1.0000000   7.0000000

  Atom        11          12          13          14          15          16          17          18          19          20
 IAtWgt=           1          12          16          12           1           1           1          12           1          16
 AtmWgt=   1.0078250  12.0000000  15.9949146  12.0000000   1.0078250   1.0078250   1.0078250  12.0000000   1.0078250  15.9949146
 NucSpn=           1           0           0           0           1           1           1           0           1           0
 AtZEff=  -0.0000000  -0.0000000  -0.0000000  -0.0000000  -0.0000000  -0.0000000  -0.0000000  -0.0000000  -0.0000000  -0.0000000
 NQMom=    0.0000000   0.0000000   0.0000000   0.0000000   0.0000000   0.0000000   0.0000000   0.0000000   0.0000000   0.0000000
 NMagM=    2.7928460   0.0000000   0.0000000   0.0000000   2.7928460   2.7928460   2.7928460   0.0000000   2.7928460   0.0000000
 AtZNuc=   1.0000000   6.0000000   8.0000000   6.0000000   1.0000000   1.0000000   1.0000000   6.0000000   1.0000000   8.0000000

  Atom        21          22          23          24          25          26          27          28          29          30
 IAtWgt=           1          12           1          16          12           1           1          16           1          12
 AtmWgt=   1.0078250  12.0000000   1.0078250  15.9949146  12.0000000   1.0078250   1.0078250  15.9949146   1.0078250  12.0000000
 NucSpn=           1           0           1           0           0           1           1           0           1           0
 AtZEff=  -0.0000000  -0.0000000  -0.0000000  -0.0000000  -0.0000000  -0.0000000  -0.0000000  -0.0000000  -0.0000000  -0.0000000
 NQMom=    0.0000000   0.0000000   0.0000000   0.0000000   0.0000000   0.0000000   0.0000000   0.0000000   0.0000000   0.0000000
 NMagM=    2.7928460   0.0000000   2.7928460   0.0000000   0.0000000   2.7928460   2.7928460   0.0000000   2.7928460   0.0000000
 AtZNuc=   1.0000000   6.0000000   1.0000000   8.0000000   6.0000000   1.0000000   1.0000000   8.0000000   1.0000000   6.0000000

  Atom        31          32          33          34          35          36          37          38          39          40
 IAtWgt=           1          12           1          16          12           1          16           1          12           1
 AtmWgt=   1.0078250  12.0000000   1.0078250  15.9949146  12.0000000   1.0078250  15.9949146   1.0078250  12.0000000   1.0078250
 NucSpn=           1           0           1           0           0           1           0           1           0           1
 AtZEff=  -0.0000000  -0.0000000  -0.0000000  -0.0000000  -0.0000000  -0.0000000  -0.0000000  -0.0000000  -0.0000000  -0.0000000
 NQMom=    0.0000000   0.0000000   0.0000000   0.0000000   0.0000000   0.0000000   0.0000000   0.0000000   0.0000000   0.0000000
 NMagM=    2.7928460   0.0000000   2.7928460   0.0000000   0.0000000   2.7928460   0.0000000   2.7928460   0.0000000   2.7928460
 AtZNuc=   1.0000000   6.0000000   1.0000000   8.0000000   6.0000000   1.0000000   8.0000000   1.0000000   6.0000000   1.0000000

  Atom        41          42          43          44          45          46          47          48          49          50
 IAtWgt=          16           1          12           1          16          12           1           1          16           1
 AtmWgt=  15.9949146   1.0078250  12.0000000   1.0078250  15.9949146  12.0000000   1.0078250   1.0078250  15.9949146   1.0078250
 NucSpn=           0           1           0           1           0           0           1           1           0           1
 AtZEff=  -0.0000000  -0.0000000  -0.0000000  -0.0000000  -0.0000000  -0.0000000  -0.0000000  -0.0000000  -0.0000000  -0.0000000
 NQMom=    0.0000000   0.0000000   0.0000000   0.0000000   0.0000000   0.0000000   0.0000000   0.0000000   0.0000000   0.0000000
 NMagM=    0.0000000   2.7928460   0.0000000   2.7928460   0.0000000   0.0000000   2.7928460   2.7928460   0.0000000   2.7928460
 AtZNuc=   8.0000000   1.0000000   6.0000000   1.0000000   8.0000000   6.0000000   1.0000000   1.0000000   8.0000000   1.0000000

  Atom        51          52          53          54          55          56          57          58          59          60
 IAtWgt=          12           1          12           1          16          12           1          16           1          12
 AtmWgt=  12.0000000   1.0078250  12.0000000   1.0078250  15.9949146  12.0000000   1.0078250  15.9949146   1.0078250  12.0000000
 NucSpn=           0           1           0           1           0           0           1           0           1           0
 AtZEff=  -0.0000000  -0.0000000  -0.0000000  -0.0000000  -0.0000000  -0.0000000  -0.0000000  -0.0000000  -0.0000000  -0.0000000
 NQMom=    0.0000000   0.0000000   0.0000000   0.0000000   0.0000000   0.0000000   0.0000000   0.0000000   0.0000000   0.0000000
 NMagM=    0.0000000   2.7928460   0.0000000   2.7928460   0.0000000   0.0000000   2.7928460   0.0000000   2.7928460   0.0000000
 AtZNuc=   6.0000000   1.0000000   6.0000000   1.0000000   8.0000000   6.0000000   1.0000000   8.0000000   1.0000000   6.0000000

  Atom        61          62          63          64          65          66          67          68          69          70
 IAtWgt=           1          16           1          12           1          16           1          12           1           1
 AtmWgt=   1.0078250  15.9949146   1.0078250  12.0000000   1.0078250  15.9949146   1.0078250  12.0000000   1.0078250   1.0078250
 NucSpn=           1           0           1           0           1           0           1           0           1           1
 AtZEff=  -0.0000000  -0.0000000  -0.0000000  -0.0000000  -0.0000000  -0.0000000  -0.0000000  -0.0000000  -0.0000000  -0.0000000
 NQMom=    0.0000000   0.0000000   0.0000000   0.0000000   0.0000000   0.0000000   0.0000000   0.0000000   0.0000000   0.0000000
 NMagM=    2.7928460   0.0000000   2.7928460   0.0000000   2.7928460   0.0000000   2.7928460   0.0000000   2.7928460   2.7928460
 AtZNuc=   1.0000000   8.0000000   1.0000000   6.0000000   1.0000000   8.0000000   1.0000000   6.0000000   1.0000000   1.0000000

  Atom        71          72
 IAtWgt=           1           1
 AtmWgt=   1.0078250   1.0078250
 NucSpn=           1           1
 AtZEff=  -0.0000000  -0.0000000
 NQMom=    0.0000000   0.0000000
 NMagM=    2.7928460   2.7928460
 AtZNuc=   1.0000000   1.0000000
 Leave Link  101 at Mon Jun 28 19:27:09 2021, MaxMem=  2147483648 cpu:               3.4 elap:               0.3
 (Enter /home/matma/Programs/gaussian/G16_x86_SSE4/tar/g16/l103.exe)

 GradGradGradGradGradGradGradGradGradGradGradGradGradGradGradGradGradGrad
 Berny optimization.
 Initialization pass.
                           ----------------------------
                           !    Initial Parameters    !
                           ! (Angstroms and Degrees)  !
 --------------------------                            --------------------------
 ! Name  Definition              Value          Derivative Info.                !
 --------------------------------------------------------------------------------
 ! R1    R(1,2)                  1.1117         estimate D2E/DX2                !
 ! R2    R(1,3)                  1.4159         estimate D2E/DX2                !
 ! R3    R(1,7)                  1.4441         estimate D2E/DX2                !
 ! R4    R(1,8)                  1.5518         estimate D2E/DX2                !
 ! R5    R(3,4)                  0.9934         estimate D2E/DX2                !
 ! R6    R(5,6)                  1.1245         estimate D2E/DX2                !
 ! R7    R(5,7)                  1.4328         estimate D2E/DX2                !
 ! R8    R(5,22)                 1.5418         estimate D2E/DX2                !
 ! R9    R(5,25)                 1.5404         estimate D2E/DX2                !
 ! R10   R(8,9)                  1.1327         estimate D2E/DX2                !
 ! R11   R(8,10)                 1.4866         estimate D2E/DX2                !
 ! R12   R(8,18)                 1.5515         estimate D2E/DX2                !
 ! R13   R(10,11)                1.0412         estimate D2E/DX2                !
 ! R14   R(10,12)                1.3521         estimate D2E/DX2                !
 ! R15   R(12,13)                1.2871         estimate D2E/DX2                !
 ! R16   R(12,14)                1.4855         estimate D2E/DX2                !
 ! R17   R(13,72)                1.232          estimate D2E/DX2                !
 ! R18   R(14,15)                1.1129         estimate D2E/DX2                !
 ! R19   R(14,16)                1.1066         estimate D2E/DX2                !
 ! R20   R(14,17)                1.1016         estimate D2E/DX2                !
 ! R21   R(18,19)                1.1312         estimate D2E/DX2                !
 ! R22   R(18,20)                1.4199         estimate D2E/DX2                !
 ! R23   R(18,22)                1.5435         estimate D2E/DX2                !
 ! R24   R(20,21)                0.9968         estimate D2E/DX2                !
 ! R25   R(22,23)                1.1234         estimate D2E/DX2                !
 ! R26   R(22,24)                1.459          estimate D2E/DX2                !
 ! R27   R(24,30)                1.4194         estimate D2E/DX2                !
 ! R28   R(25,26)                1.1051         estimate D2E/DX2                !
 ! R29   R(25,27)                1.1077         estimate D2E/DX2                !
 ! R30   R(25,28)                1.4445         estimate D2E/DX2                !
 ! R31   R(28,29)                0.9833         estimate D2E/DX2                !
 ! R32   R(30,31)                1.1108         estimate D2E/DX2                !
 ! R33   R(30,34)                1.4605         estimate D2E/DX2                !
 ! R34   R(30,35)                1.5452         estimate D2E/DX2                !
 ! R35   R(32,33)                1.1219         estimate D2E/DX2                !
 ! R36   R(32,34)                1.4414         estimate D2E/DX2                !
 ! R37   R(32,43)                1.5488         estimate D2E/DX2                !
 ! R38   R(32,46)                1.53           estimate D2E/DX2                !
 ! R39   R(35,36)                1.1144         estimate D2E/DX2                !
 ! R40   R(35,37)                1.4334         estimate D2E/DX2                !
 ! R41   R(35,39)                1.5504         estimate D2E/DX2                !
 ! R42   R(37,38)                0.9895         estimate D2E/DX2                !
 ! R43   R(39,40)                1.1276         estimate D2E/DX2                !
 ! R44   R(39,41)                1.4086         estimate D2E/DX2                !
 ! R45   R(39,43)                1.549          estimate D2E/DX2                !
 ! R46   R(41,42)                1.0046         estimate D2E/DX2                !
 ! R47   R(43,44)                1.1228         estimate D2E/DX2                !
 ! R48   R(43,45)                1.4388         estimate D2E/DX2                !
 ! R49   R(45,51)                1.4344         estimate D2E/DX2                !
 ! R50   R(46,47)                1.1082         estimate D2E/DX2                !
 ! R51   R(46,48)                1.1116         estimate D2E/DX2                !
 ! R52   R(46,49)                1.4575         estimate D2E/DX2                !
 ! R53   R(49,50)                1.0555         estimate D2E/DX2                !
 ! R54   R(49,72)                1.3095         estimate D2E/DX2                !
 ! R55   R(51,52)                1.1103         estimate D2E/DX2                !
 ! R56   R(51,55)                1.4183         estimate D2E/DX2                !
 ! R57   R(51,56)                1.5434         estimate D2E/DX2                !
 ! R58   R(53,54)                1.1175         estimate D2E/DX2                !
 ! R59   R(53,55)                1.4731         estimate D2E/DX2                !
 ! R60   R(53,64)                1.5462         estimate D2E/DX2                !
 ! R61   R(53,68)                1.5136         estimate D2E/DX2                !
 ! R62   R(56,57)                1.1204         estimate D2E/DX2                !
 ! R63   R(56,58)                1.4418         estimate D2E/DX2                !
 ! R64   R(56,60)                1.5464         estimate D2E/DX2                !
 ! R65   R(58,59)                1.0064         estimate D2E/DX2                !
 ! R66   R(60,61)                1.1183         estimate D2E/DX2                !
 ! R67   R(60,62)                1.4164         estimate D2E/DX2                !
 ! R68   R(60,64)                1.5434         estimate D2E/DX2                !
 ! R69   R(62,63)                0.9976         estimate D2E/DX2                !
 ! R70   R(64,65)                1.1158         estimate D2E/DX2                !
 ! R71   R(64,66)                1.4339         estimate D2E/DX2                !
 ! R72   R(66,67)                0.9827         estimate D2E/DX2                !
 ! R73   R(68,69)                1.098          estimate D2E/DX2                !
 ! R74   R(68,70)                1.1009         estimate D2E/DX2                !
 ! R75   R(68,71)                1.1017         estimate D2E/DX2                !
 ! A1    A(2,1,3)              111.6557         estimate D2E/DX2                !
 ! A2    A(2,1,7)              110.8464         estimate D2E/DX2                !
 ! A3    A(2,1,8)              114.2128         estimate D2E/DX2                !
 ! A4    A(3,1,7)              102.7192         estimate D2E/DX2                !
 ! A5    A(3,1,8)              107.1595         estimate D2E/DX2                !
 ! A6    A(7,1,8)              109.5727         estimate D2E/DX2                !
 ! A7    A(1,3,4)              110.4086         estimate D2E/DX2                !
 ! A8    A(6,5,7)              101.121          estimate D2E/DX2                !
 ! A9    A(6,5,22)             110.0137         estimate D2E/DX2                !
 ! A10   A(6,5,25)             110.7184         estimate D2E/DX2                !
 ! A11   A(7,5,22)             113.9428         estimate D2E/DX2                !
 ! A12   A(7,5,25)             109.2013         estimate D2E/DX2                !
 ! A13   A(22,5,25)            111.4072         estimate D2E/DX2                !
 ! A14   A(1,7,5)              114.9155         estimate D2E/DX2                !
 ! A15   A(1,8,9)              109.5035         estimate D2E/DX2                !
 ! A16   A(1,8,10)             107.1708         estimate D2E/DX2                !
 ! A17   A(1,8,18)             109.2096         estimate D2E/DX2                !
 ! A18   A(9,8,10)             107.9454         estimate D2E/DX2                !
 ! A19   A(9,8,18)             107.1982         estimate D2E/DX2                !
 ! A20   A(10,8,18)            115.7138         estimate D2E/DX2                !
 ! A21   A(8,10,11)            112.7656         estimate D2E/DX2                !
 ! A22   A(8,10,12)            127.3455         estimate D2E/DX2                !
 ! A23   A(11,10,12)           119.8677         estimate D2E/DX2                !
 ! A24   A(10,12,13)           118.6036         estimate D2E/DX2                !
 ! A25   A(10,12,14)           119.2865         estimate D2E/DX2                !
 ! A26   A(13,12,14)           122.0666         estimate D2E/DX2                !
 ! A27   A(12,13,72)           117.678          estimate D2E/DX2                !
 ! A28   A(12,14,15)           111.5901         estimate D2E/DX2                !
 ! A29   A(12,14,16)           111.1101         estimate D2E/DX2                !
 ! A30   A(12,14,17)           115.2473         estimate D2E/DX2                !
 ! A31   A(15,14,16)           106.0448         estimate D2E/DX2                !
 ! A32   A(15,14,17)           105.9299         estimate D2E/DX2                !
 ! A33   A(16,14,17)           106.3274         estimate D2E/DX2                !
 ! A34   A(8,18,19)            110.6003         estimate D2E/DX2                !
 ! A35   A(8,18,20)            107.3905         estimate D2E/DX2                !
 ! A36   A(8,18,22)            116.4291         estimate D2E/DX2                !
 ! A37   A(19,18,20)           102.7431         estimate D2E/DX2                !
 ! A38   A(19,18,22)           109.6256         estimate D2E/DX2                !
 ! A39   A(20,18,22)           109.134          estimate D2E/DX2                !
 ! A40   A(18,20,21)           111.5861         estimate D2E/DX2                !
 ! A41   A(5,22,18)            117.7721         estimate D2E/DX2                !
 ! A42   A(5,22,23)            109.51           estimate D2E/DX2                !
 ! A43   A(5,22,24)            103.4066         estimate D2E/DX2                !
 ! A44   A(18,22,23)           107.8865         estimate D2E/DX2                !
 ! A45   A(18,22,24)           109.5828         estimate D2E/DX2                !
 ! A46   A(23,22,24)           108.3305         estimate D2E/DX2                !
 ! A47   A(22,24,30)           114.2232         estimate D2E/DX2                !
 ! A48   A(5,25,26)            111.9163         estimate D2E/DX2                !
 ! A49   A(5,25,27)            110.6856         estimate D2E/DX2                !
 ! A50   A(5,25,28)            106.3294         estimate D2E/DX2                !
 ! A51   A(26,25,27)           109.9361         estimate D2E/DX2                !
 ! A52   A(26,25,28)           109.345          estimate D2E/DX2                !
 ! A53   A(27,25,28)           108.5046         estimate D2E/DX2                !
 ! A54   A(25,28,29)           110.1099         estimate D2E/DX2                !
 ! A55   A(24,30,31)           113.6672         estimate D2E/DX2                !
 ! A56   A(24,30,34)           101.6221         estimate D2E/DX2                !
 ! A57   A(24,30,35)           106.8845         estimate D2E/DX2                !
 ! A58   A(31,30,34)           109.124          estimate D2E/DX2                !
 ! A59   A(31,30,35)           113.0982         estimate D2E/DX2                !
 ! A60   A(34,30,35)           111.9048         estimate D2E/DX2                !
 ! A61   A(33,32,34)           109.1377         estimate D2E/DX2                !
 ! A62   A(33,32,43)           109.0192         estimate D2E/DX2                !
 ! A63   A(33,32,46)           108.3509         estimate D2E/DX2                !
 ! A64   A(34,32,43)           109.0834         estimate D2E/DX2                !
 ! A65   A(34,32,46)           105.1617         estimate D2E/DX2                !
 ! A66   A(43,32,46)           115.8925         estimate D2E/DX2                !
 ! A67   A(30,34,32)           113.1392         estimate D2E/DX2                !
 ! A68   A(30,35,36)           111.572          estimate D2E/DX2                !
 ! A69   A(30,35,37)           101.8708         estimate D2E/DX2                !
 ! A70   A(30,35,39)           113.4439         estimate D2E/DX2                !
 ! A71   A(36,35,37)           109.2676         estimate D2E/DX2                !
 ! A72   A(36,35,39)           112.0291         estimate D2E/DX2                !
 ! A73   A(37,35,39)           108.0499         estimate D2E/DX2                !
 ! A74   A(35,37,38)           109.9727         estimate D2E/DX2                !
 ! A75   A(35,39,40)           108.784          estimate D2E/DX2                !
 ! A76   A(35,39,41)           110.0167         estimate D2E/DX2                !
 ! A77   A(35,39,43)           114.1238         estimate D2E/DX2                !
 ! A78   A(40,39,41)           101.7237         estimate D2E/DX2                !
 ! A79   A(40,39,43)           108.3329         estimate D2E/DX2                !
 ! A80   A(41,39,43)           113.0409         estimate D2E/DX2                !
 ! A81   A(39,41,42)           111.1077         estimate D2E/DX2                !
 ! A82   A(32,43,39)           107.3723         estimate D2E/DX2                !
 ! A83   A(32,43,44)           111.2512         estimate D2E/DX2                !
 ! A84   A(32,43,45)           111.3773         estimate D2E/DX2                !
 ! A85   A(39,43,44)           109.3139         estimate D2E/DX2                !
 ! A86   A(39,43,45)           118.399          estimate D2E/DX2                !
 ! A87   A(44,43,45)            98.9095         estimate D2E/DX2                !
 ! A88   A(43,45,51)           121.5229         estimate D2E/DX2                !
 ! A89   A(32,46,47)           112.4042         estimate D2E/DX2                !
 ! A90   A(32,46,48)           111.8064         estimate D2E/DX2                !
 ! A91   A(32,46,49)           112.7884         estimate D2E/DX2                !
 ! A92   A(47,46,48)           110.1236         estimate D2E/DX2                !
 ! A93   A(47,46,49)           105.915          estimate D2E/DX2                !
 ! A94   A(48,46,49)           103.2826         estimate D2E/DX2                !
 ! A95   A(46,49,50)           108.4557         estimate D2E/DX2                !
 ! A96   A(46,49,72)           107.2958         estimate D2E/DX2                !
 ! A97   A(50,49,72)           102.0816         estimate D2E/DX2                !
 ! A98   A(45,51,52)           112.8151         estimate D2E/DX2                !
 ! A99   A(45,51,55)           108.8152         estimate D2E/DX2                !
 ! A100  A(45,51,56)           105.5088         estimate D2E/DX2                !
 ! A101  A(52,51,55)           105.0656         estimate D2E/DX2                !
 ! A102  A(52,51,56)           115.2914         estimate D2E/DX2                !
 ! A103  A(55,51,56)           109.2323         estimate D2E/DX2                !
 ! A104  A(54,53,55)           105.7847         estimate D2E/DX2                !
 ! A105  A(54,53,64)           109.4124         estimate D2E/DX2                !
 ! A106  A(54,53,68)           112.6421         estimate D2E/DX2                !
 ! A107  A(55,53,64)           112.4055         estimate D2E/DX2                !
 ! A108  A(55,53,68)           102.664          estimate D2E/DX2                !
 ! A109  A(64,53,68)           113.551          estimate D2E/DX2                !
 ! A110  A(51,55,53)           117.9101         estimate D2E/DX2                !
 ! A111  A(51,56,57)           109.932          estimate D2E/DX2                !
 ! A112  A(51,56,58)           108.0622         estimate D2E/DX2                !
 ! A113  A(51,56,60)           110.6211         estimate D2E/DX2                !
 ! A114  A(57,56,58)           106.7755         estimate D2E/DX2                !
 ! A115  A(57,56,60)           111.0027         estimate D2E/DX2                !
 ! A116  A(58,56,60)           110.3319         estimate D2E/DX2                !
 ! A117  A(56,58,59)           108.6794         estimate D2E/DX2                !
 ! A118  A(56,60,61)           111.8377         estimate D2E/DX2                !
 ! A119  A(56,60,62)           108.3687         estimate D2E/DX2                !
 ! A120  A(56,60,64)           107.7831         estimate D2E/DX2                !
 ! A121  A(61,60,62)           103.8956         estimate D2E/DX2                !
 ! A122  A(61,60,64)           112.2947         estimate D2E/DX2                !
 ! A123  A(62,60,64)           112.6362         estimate D2E/DX2                !
 ! A124  A(60,62,63)           110.6006         estimate D2E/DX2                !
 ! A125  A(53,64,60)           110.1567         estimate D2E/DX2                !
 ! A126  A(53,64,65)           110.3715         estimate D2E/DX2                !
 ! A127  A(53,64,66)           113.5471         estimate D2E/DX2                !
 ! A128  A(60,64,65)           111.3689         estimate D2E/DX2                !
 ! A129  A(60,64,66)           102.5592         estimate D2E/DX2                !
 ! A130  A(65,64,66)           108.6249         estimate D2E/DX2                !
 ! A131  A(64,66,67)           110.9202         estimate D2E/DX2                !
 ! A132  A(53,68,69)           112.1914         estimate D2E/DX2                !
 ! A133  A(53,68,70)           111.7472         estimate D2E/DX2                !
 ! A134  A(53,68,71)           111.7295         estimate D2E/DX2                !
 ! A135  A(69,68,70)           108.3327         estimate D2E/DX2                !
 ! A136  A(69,68,71)           106.4302         estimate D2E/DX2                !
 ! A137  A(70,68,71)           106.065          estimate D2E/DX2                !
 ! A138  A(13,72,49)           163.047          estimate D2E/DX2                !
 ! D1    D(2,1,3,4)            -79.8659         estimate D2E/DX2                !
 ! D2    D(7,1,3,4)             38.9593         estimate D2E/DX2                !
 ! D3    D(8,1,3,4)            154.3713         estimate D2E/DX2                !
 ! D4    D(2,1,7,5)            -59.4269         estimate D2E/DX2                !
 ! D5    D(3,1,7,5)           -178.8174         estimate D2E/DX2                !
 ! D6    D(8,1,7,5)             67.526          estimate D2E/DX2                !
 ! D7    D(2,1,8,9)            -50.6754         estimate D2E/DX2                !
 ! D8    D(2,1,8,10)          -167.5189         estimate D2E/DX2                !
 ! D9    D(2,1,8,18)            66.4267         estimate D2E/DX2                !
 ! D10   D(3,1,8,9)             73.5414         estimate D2E/DX2                !
 ! D11   D(3,1,8,10)           -43.3021         estimate D2E/DX2                !
 ! D12   D(3,1,8,18)          -169.3565         estimate D2E/DX2                !
 ! D13   D(7,1,8,9)           -175.7052         estimate D2E/DX2                !
 ! D14   D(7,1,8,10)            67.4513         estimate D2E/DX2                !
 ! D15   D(7,1,8,18)           -58.6031         estimate D2E/DX2                !
 ! D16   D(6,5,7,1)           -166.53           estimate D2E/DX2                !
 ! D17   D(22,5,7,1)           -48.5659         estimate D2E/DX2                !
 ! D18   D(25,5,7,1)            76.7107         estimate D2E/DX2                !
 ! D19   D(6,5,22,18)          137.1593         estimate D2E/DX2                !
 ! D20   D(6,5,22,23)          -99.1402         estimate D2E/DX2                !
 ! D21   D(6,5,22,24)           16.1659         estimate D2E/DX2                !
 ! D22   D(7,5,22,18)           24.4324         estimate D2E/DX2                !
 ! D23   D(7,5,22,23)          148.1329         estimate D2E/DX2                !
 ! D24   D(7,5,22,24)          -96.561          estimate D2E/DX2                !
 ! D25   D(25,5,22,18)         -99.6647         estimate D2E/DX2                !
 ! D26   D(25,5,22,23)          24.0357         estimate D2E/DX2                !
 ! D27   D(25,5,22,24)         139.3419         estimate D2E/DX2                !
 ! D28   D(6,5,25,26)           50.0257         estimate D2E/DX2                !
 ! D29   D(6,5,25,27)          -72.9834         estimate D2E/DX2                !
 ! D30   D(6,5,25,28)          169.3625         estimate D2E/DX2                !
 ! D31   D(7,5,25,26)          160.5185         estimate D2E/DX2                !
 ! D32   D(7,5,25,27)           37.5095         estimate D2E/DX2                !
 ! D33   D(7,5,25,28)          -80.1447         estimate D2E/DX2                !
 ! D34   D(22,5,25,26)         -72.747          estimate D2E/DX2                !
 ! D35   D(22,5,25,27)         164.244          estimate D2E/DX2                !
 ! D36   D(22,5,25,28)          46.5898         estimate D2E/DX2                !
 ! D37   D(1,8,10,11)           25.8151         estimate D2E/DX2                !
 ! D38   D(1,8,10,12)         -152.4874         estimate D2E/DX2                !
 ! D39   D(9,8,10,11)          -92.0494         estimate D2E/DX2                !
 ! D40   D(9,8,10,12)           89.6481         estimate D2E/DX2                !
 ! D41   D(18,8,10,11)         147.8898         estimate D2E/DX2                !
 ! D42   D(18,8,10,12)         -30.4128         estimate D2E/DX2                !
 ! D43   D(1,8,18,19)          162.7512         estimate D2E/DX2                !
 ! D44   D(1,8,18,20)          -85.862          estimate D2E/DX2                !
 ! D45   D(1,8,18,22)           36.7698         estimate D2E/DX2                !
 ! D46   D(9,8,18,19)          -78.6978         estimate D2E/DX2                !
 ! D47   D(9,8,18,20)           32.6889         estimate D2E/DX2                !
 ! D48   D(9,8,18,22)          155.3208         estimate D2E/DX2                !
 ! D49   D(10,8,18,19)          41.7686         estimate D2E/DX2                !
 ! D50   D(10,8,18,20)         153.1553         estimate D2E/DX2                !
 ! D51   D(10,8,18,22)         -84.2129         estimate D2E/DX2                !
 ! D52   D(8,10,12,13)          -2.5408         estimate D2E/DX2                !
 ! D53   D(8,10,12,14)         179.8004         estimate D2E/DX2                !
 ! D54   D(11,10,12,13)        179.2642         estimate D2E/DX2                !
 ! D55   D(11,10,12,14)          1.6054         estimate D2E/DX2                !
 ! D56   D(10,12,13,72)        166.1781         estimate D2E/DX2                !
 ! D57   D(14,12,13,72)        -16.2315         estimate D2E/DX2                !
 ! D58   D(10,12,14,15)       -130.488          estimate D2E/DX2                !
 ! D59   D(10,12,14,16)        111.3864         estimate D2E/DX2                !
 ! D60   D(10,12,14,17)         -9.6269         estimate D2E/DX2                !
 ! D61   D(13,12,14,15)         51.9376         estimate D2E/DX2                !
 ! D62   D(13,12,14,16)        -66.188          estimate D2E/DX2                !
 ! D63   D(13,12,14,17)        172.7987         estimate D2E/DX2                !
 ! D64   D(12,13,72,49)        155.6519         estimate D2E/DX2                !
 ! D65   D(8,18,20,21)          76.1007         estimate D2E/DX2                !
 ! D66   D(19,18,20,21)       -167.23           estimate D2E/DX2                !
 ! D67   D(22,18,20,21)        -50.9375         estimate D2E/DX2                !
 ! D68   D(8,18,22,5)          -20.8428         estimate D2E/DX2                !
 ! D69   D(8,18,22,23)        -145.3546         estimate D2E/DX2                !
 ! D70   D(8,18,22,24)          96.8983         estimate D2E/DX2                !
 ! D71   D(19,18,22,5)        -147.3115         estimate D2E/DX2                !
 ! D72   D(19,18,22,23)         88.1767         estimate D2E/DX2                !
 ! D73   D(19,18,22,24)        -29.5704         estimate D2E/DX2                !
 ! D74   D(20,18,22,5)         100.8745         estimate D2E/DX2                !
 ! D75   D(20,18,22,23)        -23.6374         estimate D2E/DX2                !
 ! D76   D(20,18,22,24)       -141.3844         estimate D2E/DX2                !
 ! D77   D(5,22,24,30)        -154.3829         estimate D2E/DX2                !
 ! D78   D(18,22,24,30)         79.2319         estimate D2E/DX2                !
 ! D79   D(23,22,24,30)        -38.2376         estimate D2E/DX2                !
 ! D80   D(22,24,30,31)         14.5388         estimate D2E/DX2                !
 ! D81   D(22,24,30,34)       -102.5473         estimate D2E/DX2                !
 ! D82   D(22,24,30,35)        140.0359         estimate D2E/DX2                !
 ! D83   D(5,25,28,29)        -175.6256         estimate D2E/DX2                !
 ! D84   D(26,25,28,29)        -54.6233         estimate D2E/DX2                !
 ! D85   D(27,25,28,29)         65.2826         estimate D2E/DX2                !
 ! D86   D(24,30,34,32)       -170.1605         estimate D2E/DX2                !
 ! D87   D(31,30,34,32)         69.5027         estimate D2E/DX2                !
 ! D88   D(35,30,34,32)        -56.4388         estimate D2E/DX2                !
 ! D89   D(24,30,35,36)         24.5628         estimate D2E/DX2                !
 ! D90   D(24,30,35,37)        -91.905          estimate D2E/DX2                !
 ! D91   D(24,30,35,39)        152.2295         estimate D2E/DX2                !
 ! D92   D(31,30,35,36)        150.4027         estimate D2E/DX2                !
 ! D93   D(31,30,35,37)         33.9348         estimate D2E/DX2                !
 ! D94   D(31,30,35,39)        -81.9306         estimate D2E/DX2                !
 ! D95   D(34,30,35,36)        -85.8609         estimate D2E/DX2                !
 ! D96   D(34,30,35,37)        157.6712         estimate D2E/DX2                !
 ! D97   D(34,30,35,39)         41.8058         estimate D2E/DX2                !
 ! D98   D(33,32,34,30)        -51.2119         estimate D2E/DX2                !
 ! D99   D(43,32,34,30)         67.8046         estimate D2E/DX2                !
 ! D100  D(46,32,34,30)       -167.2715         estimate D2E/DX2                !
 ! D101  D(33,32,43,39)         57.0931         estimate D2E/DX2                !
 ! D102  D(33,32,43,44)        -62.478          estimate D2E/DX2                !
 ! D103  D(33,32,43,45)       -171.7882         estimate D2E/DX2                !
 ! D104  D(34,32,43,39)        -61.9972         estimate D2E/DX2                !
 ! D105  D(34,32,43,44)        178.4317         estimate D2E/DX2                !
 ! D106  D(34,32,43,45)         69.1215         estimate D2E/DX2                !
 ! D107  D(46,32,43,39)        179.6065         estimate D2E/DX2                !
 ! D108  D(46,32,43,44)         60.0354         estimate D2E/DX2                !
 ! D109  D(46,32,43,45)        -49.2748         estimate D2E/DX2                !
 ! D110  D(33,32,46,47)         77.0749         estimate D2E/DX2                !
 ! D111  D(33,32,46,48)        -47.3803         estimate D2E/DX2                !
 ! D112  D(33,32,46,49)       -163.2614         estimate D2E/DX2                !
 ! D113  D(34,32,46,47)       -166.3261         estimate D2E/DX2                !
 ! D114  D(34,32,46,48)         69.2188         estimate D2E/DX2                !
 ! D115  D(34,32,46,49)        -46.6623         estimate D2E/DX2                !
 ! D116  D(43,32,46,47)        -45.7908         estimate D2E/DX2                !
 ! D117  D(43,32,46,48)       -170.246          estimate D2E/DX2                !
 ! D118  D(43,32,46,49)         73.8729         estimate D2E/DX2                !
 ! D119  D(30,35,37,38)       -179.7169         estimate D2E/DX2                !
 ! D120  D(36,35,37,38)         62.1529         estimate D2E/DX2                !
 ! D121  D(39,35,37,38)        -59.9752         estimate D2E/DX2                !
 ! D122  D(30,35,39,40)         79.9423         estimate D2E/DX2                !
 ! D123  D(30,35,39,41)       -169.428          estimate D2E/DX2                !
 ! D124  D(30,35,39,43)        -41.1445         estimate D2E/DX2                !
 ! D125  D(36,35,39,40)       -152.6289         estimate D2E/DX2                !
 ! D126  D(36,35,39,41)        -41.9992         estimate D2E/DX2                !
 ! D127  D(36,35,39,43)         86.2843         estimate D2E/DX2                !
 ! D128  D(37,35,39,40)        -32.2143         estimate D2E/DX2                !
 ! D129  D(37,35,39,41)         78.4154         estimate D2E/DX2                !
 ! D130  D(37,35,39,43)       -153.3012         estimate D2E/DX2                !
 ! D131  D(35,39,41,42)         60.9312         estimate D2E/DX2                !
 ! D132  D(40,39,41,42)        176.1202         estimate D2E/DX2                !
 ! D133  D(43,39,41,42)        -67.9449         estimate D2E/DX2                !
 ! D134  D(35,39,43,32)         49.8936         estimate D2E/DX2                !
 ! D135  D(35,39,43,44)        170.6956         estimate D2E/DX2                !
 ! D136  D(35,39,43,45)        -77.2151         estimate D2E/DX2                !
 ! D137  D(40,39,43,32)        -71.4431         estimate D2E/DX2                !
 ! D138  D(40,39,43,44)         49.3588         estimate D2E/DX2                !
 ! D139  D(40,39,43,45)        161.4481         estimate D2E/DX2                !
 ! D140  D(41,39,43,32)        176.6224         estimate D2E/DX2                !
 ! D141  D(41,39,43,44)        -62.5756         estimate D2E/DX2                !
 ! D142  D(41,39,43,45)         49.5136         estimate D2E/DX2                !
 ! D143  D(32,43,45,51)        -87.9032         estimate D2E/DX2                !
 ! D144  D(39,43,45,51)         37.2767         estimate D2E/DX2                !
 ! D145  D(44,43,45,51)        155.0091         estimate D2E/DX2                !
 ! D146  D(43,45,51,52)         32.1823         estimate D2E/DX2                !
 ! D147  D(43,45,51,55)        -84.0007         estimate D2E/DX2                !
 ! D148  D(43,45,51,56)        158.8899         estimate D2E/DX2                !
 ! D149  D(32,46,49,50)        -48.2383         estimate D2E/DX2                !
 ! D150  D(32,46,49,72)         61.3356         estimate D2E/DX2                !
 ! D151  D(47,46,49,50)         75.1067         estimate D2E/DX2                !
 ! D152  D(47,46,49,72)       -175.3194         estimate D2E/DX2                !
 ! D153  D(48,46,49,50)       -169.114          estimate D2E/DX2                !
 ! D154  D(48,46,49,72)        -59.54           estimate D2E/DX2                !
 ! D155  D(46,49,72,13)         45.9259         estimate D2E/DX2                !
 ! D156  D(50,49,72,13)        159.8624         estimate D2E/DX2                !
 ! D157  D(45,51,55,53)        -61.6598         estimate D2E/DX2                !
 ! D158  D(52,51,55,53)        177.2796         estimate D2E/DX2                !
 ! D159  D(56,51,55,53)         53.0515         estimate D2E/DX2                !
 ! D160  D(45,51,56,57)       -178.4222         estimate D2E/DX2                !
 ! D161  D(45,51,56,58)        -62.2426         estimate D2E/DX2                !
 ! D162  D(45,51,56,60)         58.6348         estimate D2E/DX2                !
 ! D163  D(52,51,56,57)        -53.2392         estimate D2E/DX2                !
 ! D164  D(52,51,56,58)         62.9405         estimate D2E/DX2                !
 ! D165  D(52,51,56,60)       -176.1821         estimate D2E/DX2                !
 ! D166  D(55,51,56,57)         64.7509         estimate D2E/DX2                !
 ! D167  D(55,51,56,58)       -179.0694         estimate D2E/DX2                !
 ! D168  D(55,51,56,60)        -58.192          estimate D2E/DX2                !
 ! D169  D(54,53,55,51)         69.2611         estimate D2E/DX2                !
 ! D170  D(64,53,55,51)        -50.0885         estimate D2E/DX2                !
 ! D171  D(68,53,55,51)       -172.4737         estimate D2E/DX2                !
 ! D172  D(54,53,64,60)        -67.4125         estimate D2E/DX2                !
 ! D173  D(54,53,64,65)         55.9781         estimate D2E/DX2                !
 ! D174  D(54,53,64,66)        178.2166         estimate D2E/DX2                !
 ! D175  D(55,53,64,60)         49.7978         estimate D2E/DX2                !
 ! D176  D(55,53,64,65)        173.1884         estimate D2E/DX2                !
 ! D177  D(55,53,64,66)        -64.573          estimate D2E/DX2                !
 ! D178  D(68,53,64,60)        165.7986         estimate D2E/DX2                !
 ! D179  D(68,53,64,65)        -70.8107         estimate D2E/DX2                !
 ! D180  D(68,53,64,66)         51.4278         estimate D2E/DX2                !
 ! D181  D(54,53,68,69)        -72.5371         estimate D2E/DX2                !
 ! D182  D(54,53,68,70)        165.5625         estimate D2E/DX2                !
 ! D183  D(54,53,68,71)         46.8965         estimate D2E/DX2                !
 ! D184  D(55,53,68,69)        174.146          estimate D2E/DX2                !
 ! D185  D(55,53,68,70)         52.2456         estimate D2E/DX2                !
 ! D186  D(55,53,68,71)        -66.4204         estimate D2E/DX2                !
 ! D187  D(64,53,68,69)         52.5384         estimate D2E/DX2                !
 ! D188  D(64,53,68,70)        -69.3621         estimate D2E/DX2                !
 ! D189  D(64,53,68,71)        171.972          estimate D2E/DX2                !
 ! D190  D(51,56,58,59)        148.5479         estimate D2E/DX2                !
 ! D191  D(57,56,58,59)        -93.2344         estimate D2E/DX2                !
 ! D192  D(60,56,58,59)         27.4905         estimate D2E/DX2                !
 ! D193  D(51,56,60,61)        -62.8967         estimate D2E/DX2                !
 ! D194  D(51,56,60,62)       -176.83           estimate D2E/DX2                !
 ! D195  D(51,56,60,64)         61.0027         estimate D2E/DX2                !
 ! D196  D(57,56,60,61)        174.7845         estimate D2E/DX2                !
 ! D197  D(57,56,60,62)         60.8512         estimate D2E/DX2                !
 ! D198  D(57,56,60,64)        -61.3161         estimate D2E/DX2                !
 ! D199  D(58,56,60,61)         56.6227         estimate D2E/DX2                !
 ! D200  D(58,56,60,62)        -57.3106         estimate D2E/DX2                !
 ! D201  D(58,56,60,64)       -179.4779         estimate D2E/DX2                !
 ! D202  D(56,60,62,63)        -80.0047         estimate D2E/DX2                !
 ! D203  D(61,60,62,63)        160.923          estimate D2E/DX2                !
 ! D204  D(64,60,62,63)         39.1478         estimate D2E/DX2                !
 ! D205  D(56,60,64,53)        -56.0475         estimate D2E/DX2                !
 ! D206  D(56,60,64,65)       -178.8548         estimate D2E/DX2                !
 ! D207  D(56,60,64,66)         65.1357         estimate D2E/DX2                !
 ! D208  D(61,60,64,53)         67.5748         estimate D2E/DX2                !
 ! D209  D(61,60,64,65)        -55.2324         estimate D2E/DX2                !
 ! D210  D(61,60,64,66)       -171.242          estimate D2E/DX2                !
 ! D211  D(62,60,64,53)       -175.5403         estimate D2E/DX2                !
 ! D212  D(62,60,64,65)         61.6524         estimate D2E/DX2                !
 ! D213  D(62,60,64,66)        -54.3571         estimate D2E/DX2                !
 ! D214  D(53,64,66,67)        -65.1506         estimate D2E/DX2                !
 ! D215  D(60,64,66,67)        176.021          estimate D2E/DX2                !
 ! D216  D(65,64,66,67)         58.0506         estimate D2E/DX2                !
 --------------------------------------------------------------------------------
 Trust Radius=3.00D-01 FncErr=1.00D-07 GrdErr=1.00D-07 EigMax=2.50D+02 EigMin=1.00D-04
 Number of steps in this run=    432 maximum allowed number of steps=    432.
 GradGradGradGradGradGradGradGradGradGradGradGradGradGradGradGradGradGrad

 Leave Link  103 at Mon Jun 28 19:27:10 2021, MaxMem=  2147483648 cpu:               0.1 elap:               0.0
 (Enter /home/matma/Programs/gaussian/G16_x86_SSE4/tar/g16/l202.exe)
 Stoichiometry    C20H36NO15(1+)
 Framework group  C1[X(C20H36NO15)]
 Deg. of freedom   210
 Full point group                 C1      NOp   1
 Largest Abelian subgroup         C1      NOp   1
 Largest concise Abelian subgroup C1      NOp   1
                         Standard orientation:                         
 ---------------------------------------------------------------------
 Center     Atomic      Atomic             Coordinates (Angstroms)
 Number     Number       Type             X           Y           Z
 ---------------------------------------------------------------------
      1          6           0        4.645073   -1.165131   -1.073011
      2          1           0        5.617084   -0.660152   -0.883011
      3          8           0        4.820046   -2.400135   -1.743011
      4          1           0        4.960049   -2.250138   -2.715011
      5          6           0        3.532119    0.926894   -1.589011
      6          1           0        2.725125    1.199911   -2.323011
      7          8           0        3.846090   -0.407113   -2.007011
      8          6           0        3.816067   -1.452113    0.206989
      9          1           0        4.468055   -1.977127    0.969989
     10          7           0        2.722046   -2.382088   -0.178011
     11          1           0        2.959034   -2.960094   -1.011011
     12          6           0        1.509044   -2.508062    0.405989
     13          8           0        1.247059   -1.792056    1.442989
     14          6           0        0.543022   -3.500040   -0.132011
     15          1           0       -0.459968   -3.047018   -0.297011
     16          1           0        0.389003   -4.333037    0.579989
     17          1           0        0.828011   -3.961047   -1.091011
     18          6           0        3.366097   -0.107103    0.835989
     19          1           0        2.518093   -0.273084    1.565989
     20          8           0        4.419106    0.341874    1.675989
     21          1           0        5.173115    0.722857    1.146989
     22          6           0        2.989121    1.019906   -0.149011
     23          1           0        3.303143    1.996899    0.307989
     24          8           0        1.542122    1.043938   -0.334011
     25          6           0        4.770139    1.822866   -1.782011
     26          1           0        4.503163    2.894872   -1.810011
     27          1           0        5.314133    1.544854   -2.706011
     28          8           0        5.632134    1.573847   -0.650011
     29          1           0        6.412147    2.171830   -0.681011
     30          6           0        0.831136    1.679953    0.716989
     31          1           0        1.476149    2.283939    1.389989
     32          6           0       -0.650881    0.898986    2.465989
     33          1           0       -0.217863    1.709977    3.108989
     34          8           0        0.310111    0.532965    1.455989
     35          6           0       -0.298846    2.503978    0.059989
     36          1           0       -0.577855    2.093985   -0.938011
     37          8           0        0.329183    3.780964   -0.112011
     38          1           0       -0.304803    4.415978   -0.529011
     39          6           0       -1.534841    2.696006    0.975989
     40          1           0       -1.318823    3.526001    1.707989
     41          8           0       -2.603829    3.238029    0.235989
     42          1           0       -2.872843    2.625035   -0.513011
     43          6           0       -1.931869    1.431014    1.776989
     44          1           0       -2.717863    1.701032    2.531989
     45          8           0       -2.633893    0.379030    1.090989
     46          6           0       -0.825909   -0.355010    3.324989
     47          1           0       -1.710908   -0.291990    3.988989
     48          1           0        0.085086   -0.577030    3.921989
     49          8           0       -1.007936   -1.563006    2.529989
     50          1           0       -1.740931   -1.371990    1.794989
     51          6           0       -2.326900    0.034023   -0.267011
     52          1           0       -1.255897    0.184999   -0.518011
     53          6           0       -4.506881    0.888071   -1.077011
     54          1           0       -4.779872    1.331077   -0.088011
     55          8           0       -3.034881    0.907039   -1.132011
     56          6           0       -2.851932   -1.404965   -0.456011
     57          1           0       -2.622940   -1.761970   -1.493011
     58          8           0       -2.131951   -2.265981    0.448989
     59          1           0       -2.738968   -3.017968    0.729989
     60          6           0       -4.369934   -1.472932   -0.169011
     61          1           0       -4.604928   -1.208926    0.891989
     62          8           0       -4.785963   -2.821922   -0.284011
     63          1           0       -4.911969   -3.069920   -1.242011
     64          6           0       -5.081913   -0.543916   -1.175011
     65          1           0       -6.184913   -0.531892   -1.007011
     66          8           0       -4.816927   -1.182922   -2.431011
     67          1           0       -5.275917   -0.717912   -3.165011
     68          6           0       -4.893862    1.776080   -2.240011
     69          1           0       -5.978861    1.790104   -2.408011
     70          1           0       -4.402869    1.462069   -3.174011
     71          1           0       -4.590839    2.822073   -2.073011
     72          1           0        0.072061   -1.719030    1.805989
 ---------------------------------------------------------------------
 Rotational constants (GHZ):           0.1760994           0.0744511           0.0669558
 Leave Link  202 at Mon Jun 28 19:27:10 2021, MaxMem=  2147483648 cpu:               0.0 elap:               0.0
 (Enter /home/matma/Programs/gaussian/G16_x86_SSE4/tar/g16/l301.exe)
 Standard basis: VSTO-6G (5D, 7F)
 Ernie: Thresh=  0.10000D-02 Tol=  0.10000D-05 Strict=F.
  NNHCO=     0 NNPyr=     1 NCTC=     0               EPep=        -0.000793849
    EC=      2530.969935844  ECS=        14.459114740   EG=         1.199288372
   EHC=         0.003845678  EAt=      -264.256368941  AtH=        10.039461169
 EPDDG=         0.000000000  ECC=      2546.631390785 EAtT=       274.295830110
 There are   180 symmetry adapted cartesian basis functions of A   symmetry.
 There are   180 symmetry adapted basis functions of A   symmetry.
   180 basis functions,  1080 primitive gaussians,   180 cartesian basis functions
   105 alpha electrons      105 beta electrons
       nuclear repulsion energy      2820.9272208947 Hartrees.
 IExCor=    0 DFT=F Ex=HF Corr=None ExCW=0 ScaHFX=  1.000000
 ScaDFX=  1.000000  1.000000  1.000000  1.000000 ScalE2=  1.000000  1.000000
 IRadAn=  99590 IRanWt=     -1 IRanGd=            0 ICorTp=0 IEmpDi=  4
 Integral buffers will be    131072 words long.
 Regular integral format.
 Two-electron integral symmetry is turned off.
 Leave Link  301 at Mon Jun 28 19:27:10 2021, MaxMem=  2147483648 cpu:               0.2 elap:               0.0
 (Enter /home/matma/Programs/gaussian/G16_x86_SSE4/tar/g16/l302.exe)
 Do NDO integrals.
 NPDir=0 NMtPBC=     1 NCelOv=     1 NCel=       1 NClECP=     1 NCelD=      1
         NCelK=      1 NCelE2=     1 NClLst=     1 CellRange=     0.0.
 One-electron integrals computed using PRISM.
 NBasis=   180 RedAO= F EigKep=  0.00D+00  NBF=   180
 NBsUse=   180 1.00D-04 EigRej=  0.00D+00 NBFU=   180
 Leave Link  302 at Mon Jun 28 19:27:10 2021, MaxMem=  2147483648 cpu:               1.0 elap:               0.1
 (Enter /home/matma/Programs/gaussian/G16_x86_SSE4/tar/g16/l303.exe)
 DipDrv:  MaxL=1.
 Leave Link  303 at Mon Jun 28 19:27:10 2021, MaxMem=  2147483648 cpu:               0.1 elap:               0.0
 (Enter /home/matma/Programs/gaussian/G16_x86_SSE4/tar/g16/l401.exe)
 Simple Huckel Guess.
 JPrj=0 DoOrth=F DoCkMO=F.
 Leave Link  401 at Mon Jun 28 19:27:10 2021, MaxMem=  2147483648 cpu:               0.4 elap:               0.0
 (Enter /home/matma/Programs/gaussian/G16_x86_SSE4/tar/g16/l502.exe)
 Keep J ints in memory in canonical form, NReq=939849.
 FoFCou: FMM=F IPFlag=           0 FMFlag=           0 FMFlg1=        2000
         NFxFlg=           0 DoJE=F BraDBF=F KetDBF=F FulRan=T
         wScrn=  0.000000 ICntrl=       600 IOpCl=  2 I1Cent=           0 NGrid=           0
         NMat0=    1 NMatS0=    396 NMatT0=    0 NMatD0=    1 NMtDS0=    0 NMtDT0=    0
 Symmetry not used in FoFCou.
 Two-electron integral symmetry not used.
 Closed shell SCF:
 Using DIIS extrapolation, IDIIS=  1040.
 Overlap will be assumed to be unity.
 NGot=  2147483648 LenX=  2147275908 LenY=  2147243067
 Requested convergence on RMS density matrix=1.00D-08 within 128 cycles.
 Requested convergence on MAX density matrix=1.00D-06.
 Requested convergence on             energy=1.00D-06.
 No special actions if energy rises.

 Cycle   1  Pass 1  IDiag  1:
 E=  1.04447784549529    
 DIIS: error= 5.87D-02 at cycle   1 NSaved=   1.
 NSaved= 1 IEnMin= 1 EnMin=  1.04447784549529     IErMin= 1 ErrMin= 5.87D-02
 ErrMax= 5.87D-02  0.00D+00 EMaxC= 1.00D-01 BMatC= 5.05D-01 BMatP= 5.05D-01
 IDIUse=3 WtCom= 4.13D-01 WtEn= 5.87D-01
 Coeff-Com:  0.100D+01
 Coeff-En:   0.100D+01
 Coeff:      0.100D+01
 GapD=    2.000 DampG=2.000 DampE=0.500 DampFc=1.0000 IDamp=-1.
 RMSDP=6.57D-03 MaxDP=1.38D-01              OVMax= 0.00D+00

 Cycle   2  Pass 1  IDiag  1:
 E=-0.528474949433530     Delta-E=       -1.572952794929 Rises=F Damp=F
 DIIS: error= 1.72D-02 at cycle   2 NSaved=   2.
 NSaved= 2 IEnMin= 2 EnMin=-0.528474949433530     IErMin= 2 ErrMin= 1.72D-02
 ErrMax= 1.72D-02  0.00D+00 EMaxC= 1.00D-01 BMatC= 6.77D-02 BMatP= 5.05D-01
 IDIUse=3 WtCom= 8.28D-01 WtEn= 1.72D-01
 Coeff-Com: -0.408D+00 0.141D+01
 Coeff-En:   0.000D+00 0.100D+01
 Coeff:     -0.338D+00 0.134D+01
 RMSDP=3.61D-03 MaxDP=5.77D-02 DE=-1.57D+00 OVMax= 0.00D+00

 Cycle   3  Pass 1  IDiag  3:
 E=-0.827657041567818     Delta-E=       -0.299182092134 Rises=F Damp=F
 DIIS: error= 5.48D-03 at cycle   3 NSaved=   3.
 NSaved= 3 IEnMin= 3 EnMin=-0.827657041567818     IErMin= 3 ErrMin= 5.48D-03
 ErrMax= 5.48D-03  0.00D+00 EMaxC= 1.00D-01 BMatC= 6.86D-03 BMatP= 6.77D-02
 IDIUse=3 WtCom= 9.45D-01 WtEn= 5.48D-02
 Coeff-Com:  0.211D+00-0.925D+00 0.171D+01
 Coeff-En:   0.000D+00 0.000D+00 0.100D+01
 Coeff:      0.200D+00-0.874D+00 0.167D+01
 Gap=     0.374 Goal=   None    Shift=    0.000
 RMSDP=1.78D-03 MaxDP=4.06D-02 DE=-2.99D-01 OVMax= 3.04D-02

 Cycle   4  Pass 1  IDiag  3:
 E=-0.871650257383863     Delta-E=       -0.043993215816 Rises=F Damp=F
 DIIS: error= 1.35D-03 at cycle   4 NSaved=   4.
 NSaved= 4 IEnMin= 4 EnMin=-0.871650257383863     IErMin= 4 ErrMin= 1.35D-03
 ErrMax= 1.35D-03  0.00D+00 EMaxC= 1.00D-01 BMatC= 3.67D-04 BMatP= 6.86D-03
 IDIUse=3 WtCom= 9.86D-01 WtEn= 1.35D-02
 Coeff-Com: -0.344D-01 0.185D+00-0.551D+00 0.140D+01
 Coeff-En:   0.000D+00 0.000D+00 0.000D+00 0.100D+01
 Coeff:     -0.340D-01 0.183D+00-0.543D+00 0.139D+01
 Gap=     0.376 Goal=   None    Shift=    0.000
 RMSDP=4.57D-04 MaxDP=1.08D-02 DE=-4.40D-02 OVMax= 7.90D-03

 Cycle   5  Pass 1  IDiag  3:
 E=-0.874166158332628     Delta-E=       -0.002515900949 Rises=F Damp=F
 DIIS: error= 2.78D-04 at cycle   5 NSaved=   5.
 NSaved= 5 IEnMin= 5 EnMin=-0.874166158332628     IErMin= 5 ErrMin= 2.78D-04
 ErrMax= 2.78D-04  0.00D+00 EMaxC= 1.00D-01 BMatC= 2.31D-05 BMatP= 3.67D-04
 IDIUse=3 WtCom= 9.97D-01 WtEn= 2.78D-03
 Coeff-Com:  0.167D-02-0.147D-01 0.902D-01-0.476D+00 0.140D+01
 Coeff-En:   0.000D+00 0.000D+00 0.000D+00 0.000D+00 0.100D+01
 Coeff:      0.167D-02-0.146D-01 0.899D-01-0.475D+00 0.140D+01
 Gap=     0.375 Goal=   None    Shift=    0.000
 RMSDP=1.06D-04 MaxDP=1.89D-03 DE=-2.52D-03 OVMax= 1.94D-03

 Cycle   6  Pass 1  IDiag  3:
 E=-0.874310901988793     Delta-E=       -0.000144743656 Rises=F Damp=F
 DIIS: error= 9.50D-05 at cycle   6 NSaved=   6.
 NSaved= 6 IEnMin= 6 EnMin=-0.874310901988793     IErMin= 6 ErrMin= 9.50D-05
 ErrMax= 9.50D-05  0.00D+00 EMaxC= 1.00D-01 BMatC= 1.63D-06 BMatP= 2.31D-05
 IDIUse=1 WtCom= 1.00D+00 WtEn= 0.00D+00
 Coeff-Com:  0.896D-03-0.218D-02-0.106D-01 0.121D+00-0.571D+00 0.146D+01
 Coeff:      0.896D-03-0.218D-02-0.106D-01 0.121D+00-0.571D+00 0.146D+01
 Gap=     0.375 Goal=   None    Shift=    0.000
 RMSDP=2.78D-05 MaxDP=6.67D-04 DE=-1.45D-04 OVMax= 4.11D-04

 Cycle   7  Pass 1  IDiag  3:
 E=-0.874321379141293     Delta-E=       -0.000010477153 Rises=F Damp=F
 DIIS: error= 3.94D-05 at cycle   7 NSaved=   7.
 NSaved= 7 IEnMin= 7 EnMin=-0.874321379141293     IErMin= 7 ErrMin= 3.94D-05
 ErrMax= 3.94D-05  0.00D+00 EMaxC= 1.00D-01 BMatC= 1.38D-07 BMatP= 1.63D-06
 IDIUse=1 WtCom= 1.00D+00 WtEn= 0.00D+00
 Coeff-Com: -0.384D-03 0.123D-02 0.127D-02-0.313D-01 0.176D+00-0.662D+00
 Coeff-Com:  0.152D+01
 Coeff:     -0.384D-03 0.123D-02 0.127D-02-0.313D-01 0.176D+00-0.662D+00
 Coeff:      0.152D+01
 Gap=     0.375 Goal=   None    Shift=    0.000
 RMSDP=8.73D-06 MaxDP=3.31D-04 DE=-1.05D-05 OVMax= 2.14D-04

 Cycle   8  Pass 1  IDiag  3:
 E=-0.874322367464629     Delta-E=       -0.000000988323 Rises=F Damp=F
 DIIS: error= 1.41D-05 at cycle   8 NSaved=   8.
 NSaved= 8 IEnMin= 8 EnMin=-0.874322367464629     IErMin= 8 ErrMin= 1.41D-05
 ErrMax= 1.41D-05  0.00D+00 EMaxC= 1.00D-01 BMatC= 1.55D-08 BMatP= 1.38D-07
 IDIUse=1 WtCom= 1.00D+00 WtEn= 0.00D+00
 Coeff-Com:  0.400D-04-0.771D-04-0.845D-03 0.101D-01-0.559D-01 0.248D+00
 Coeff-Com: -0.861D+00 0.166D+01
 Coeff:      0.400D-04-0.771D-04-0.845D-03 0.101D-01-0.559D-01 0.248D+00
 Coeff:     -0.861D+00 0.166D+01
 Gap=     0.375 Goal=   None    Shift=    0.000
 RMSDP=3.31D-06 MaxDP=1.53D-04 DE=-9.88D-07 OVMax= 9.93D-05

 Cycle   9  Pass 1  IDiag  3:
 E=-0.874322485812172     Delta-E=       -0.000000118348 Rises=F Damp=F
 DIIS: error= 3.28D-06 at cycle   9 NSaved=   9.
 NSaved= 9 IEnMin= 9 EnMin=-0.874322485812172     IErMin= 9 ErrMin= 3.28D-06
 ErrMax= 3.28D-06  0.00D+00 EMaxC= 1.00D-01 BMatC= 1.11D-09 BMatP= 1.55D-08
 IDIUse=1 WtCom= 1.00D+00 WtEn= 0.00D+00
 Coeff-Com:  0.332D-05-0.230D-04 0.130D-03-0.126D-02 0.754D-02-0.399D-01
 Coeff-Com:  0.178D+00-0.560D+00 0.142D+01
 Coeff:      0.332D-05-0.230D-04 0.130D-03-0.126D-02 0.754D-02-0.399D-01
 Coeff:      0.178D+00-0.560D+00 0.142D+01
 Gap=     0.375 Goal=   None    Shift=    0.000
 RMSDP=8.07D-07 MaxDP=3.91D-05 DE=-1.18D-07 OVMax= 2.39D-05

 Cycle  10  Pass 1  IDiag  3:
 E=-0.874322493472846     Delta-E=       -0.000000007661 Rises=F Damp=F
 DIIS: error= 9.15D-07 at cycle  10 NSaved=  10.
 NSaved=10 IEnMin=10 EnMin=-0.874322493472846     IErMin=10 ErrMin= 9.15D-07
 ErrMax= 9.15D-07  0.00D+00 EMaxC= 1.00D-01 BMatC= 9.25D-11 BMatP= 1.11D-09
 IDIUse=1 WtCom= 1.00D+00 WtEn= 0.00D+00
 Coeff-Com:  0.667D-06-0.237D-05 0.639D-05 0.332D-04-0.426D-03 0.254D-02
 Coeff-Com: -0.132D-01 0.735D-01-0.441D+00 0.138D+01
 Coeff:      0.667D-06-0.237D-05 0.639D-05 0.332D-04-0.426D-03 0.254D-02
 Coeff:     -0.132D-01 0.735D-01-0.441D+00 0.138D+01
 Gap=     0.375 Goal=   None    Shift=    0.000
 RMSDP=2.19D-07 MaxDP=9.56D-06 DE=-7.66D-09 OVMax= 5.26D-06

 Cycle  11  Pass 1  IDiag  3:
 E=-0.874322494085391     Delta-E=       -0.000000000613 Rises=F Damp=F
 DIIS: error= 2.91D-07 at cycle  11 NSaved=  11.
 NSaved=11 IEnMin=11 EnMin=-0.874322494085391     IErMin=11 ErrMin= 2.91D-07
 ErrMax= 2.91D-07  0.00D+00 EMaxC= 1.00D-01 BMatC= 8.33D-12 BMatP= 9.25D-11
 IDIUse=1 WtCom= 1.00D+00 WtEn= 0.00D+00
 Coeff-Com: -0.903D-06 0.395D-05-0.103D-04 0.185D-04 0.148D-04-0.282D-03
 Coeff-Com:  0.184D-02-0.123D-01 0.997D-01-0.538D+00 0.145D+01
 Coeff:     -0.903D-06 0.395D-05-0.103D-04 0.185D-04 0.148D-04-0.282D-03
 Coeff:      0.184D-02-0.123D-01 0.997D-01-0.538D+00 0.145D+01
 Gap=     0.375 Goal=   None    Shift=    0.000
 RMSDP=6.91D-08 MaxDP=2.46D-06 DE=-6.13D-10 OVMax= 1.22D-06

 Cycle  12  Pass 1  IDiag  3:
 E=-0.874322494118587     Delta-E=       -0.000000000033 Rises=F Damp=F
 DIIS: error= 9.48D-08 at cycle  12 NSaved=  12.
 NSaved=12 IEnMin=12 EnMin=-0.874322494118587     IErMin=12 ErrMin= 9.48D-08
 ErrMax= 9.48D-08  0.00D+00 EMaxC= 1.00D-01 BMatC= 8.93D-13 BMatP= 8.33D-12
 IDIUse=1 WtCom= 1.00D+00 WtEn= 0.00D+00
 Coeff-Com:  0.120D-06-0.629D-06 0.254D-05-0.672D-05 0.324D-05 0.996D-04
 Coeff-Com: -0.698D-03 0.367D-02-0.277D-01 0.181D+00-0.740D+00 0.158D+01
 Coeff:      0.120D-06-0.629D-06 0.254D-05-0.672D-05 0.324D-05 0.996D-04
 Coeff:     -0.698D-03 0.367D-02-0.277D-01 0.181D+00-0.740D+00 0.158D+01
 Gap=     0.375 Goal=   None    Shift=    0.000
 RMSDP=2.49D-08 MaxDP=9.02D-07 DE=-3.32D-11 OVMax= 5.26D-07

 Cycle  13  Pass 1  IDiag  3:
 E=-0.874322494168609     Delta-E=       -0.000000000050 Rises=F Damp=F
 DIIS: error= 3.47D-08 at cycle  13 NSaved=  13.
 NSaved=13 IEnMin=13 EnMin=-0.874322494168609     IErMin=13 ErrMin= 3.47D-08
 ErrMax= 3.47D-08  0.00D+00 EMaxC= 1.00D-01 BMatC= 9.52D-14 BMatP= 8.93D-13
 IDIUse=1 WtCom= 1.00D+00 WtEn= 0.00D+00
 Coeff-Com:  0.237D-07-0.114D-06-0.308D-06 0.211D-05-0.690D-05 0.109D-04
 Coeff-Com:  0.745D-04-0.876D-03 0.745D-02-0.507D-01 0.249D+00-0.805D+00
 Coeff-Com:  0.160D+01
 Coeff:      0.237D-07-0.114D-06-0.308D-06 0.211D-05-0.690D-05 0.109D-04
 Coeff:      0.745D-04-0.876D-03 0.745D-02-0.507D-01 0.249D+00-0.805D+00
 Coeff:      0.160D+01
 Gap=     0.375 Goal=   None    Shift=    0.000
 RMSDP=8.39D-09 MaxDP=3.17D-07 DE=-5.00D-11 OVMax= 1.91D-07

 Cycle  14  Pass 2  IDiag  1:
 SCF Done:  E(RPM6) = -0.874322494169     A.U. after   14 cycles
            NFock= 13  Conv=0.84D-08     -V/T= 0.9981
 KE=-4.554426671745D+02 PE=-5.021169853111D+03 EE= 2.654810976897D+03
 Leave Link  502 at Mon Jun 28 19:27:10 2021, MaxMem=  2147483648 cpu:               1.1 elap:               0.1
 (Enter /home/matma/Programs/gaussian/G16_x86_SSE4/tar/g16/l601.exe)
 Copying SCF densities to generalized density rwf, IOpCl= 0 IROHF=0.

 **********************************************************************

            Population analysis using the SCF Density.

 **********************************************************************

 Orbital symmetries:
       Occupied  (A) (A) (A) (A) (A) (A) (A) (A) (A) (A) (A) (A)
                 (A) (A) (A) (A) (A) (A) (A) (A) (A) (A) (A) (A)
                 (A) (A) (A) (A) (A) (A) (A) (A) (A) (A) (A) (A)
                 (A) (A) (A) (A) (A) (A) (A) (A) (A) (A) (A) (A)
                 (A) (A) (A) (A) (A) (A) (A) (A) (A) (A) (A) (A)
                 (A) (A) (A) (A) (A) (A) (A) (A) (A) (A) (A) (A)
                 (A) (A) (A) (A) (A) (A) (A) (A) (A) (A) (A) (A)
                 (A) (A) (A) (A) (A) (A) (A) (A) (A) (A) (A) (A)
                 (A) (A) (A) (A) (A) (A) (A) (A) (A)
       Virtual   (A) (A) (A) (A) (A) (A) (A) (A) (A) (A) (A) (A)
                 (A) (A) (A) (A) (A) (A) (A) (A) (A) (A) (A) (A)
                 (A) (A) (A) (A) (A) (A) (A) (A) (A) (A) (A) (A)
                 (A) (A) (A) (A) (A) (A) (A) (A) (A) (A) (A) (A)
                 (A) (A) (A) (A) (A) (A) (A) (A) (A) (A) (A) (A)
                 (A) (A) (A) (A) (A) (A) (A) (A) (A) (A) (A) (A)
                 (A) (A) (A)
 The electronic state is 1-A.
 Alpha  occ. eigenvalues --   -1.33340  -1.27569  -1.26096  -1.25661  -1.24677
 Alpha  occ. eigenvalues --   -1.23740  -1.23026  -1.21936  -1.21751  -1.21167
 Alpha  occ. eigenvalues --   -1.20350  -1.19921  -1.19052  -1.18546  -1.18403
 Alpha  occ. eigenvalues --   -1.18132  -1.12999  -1.12268  -1.11610  -1.10610
 Alpha  occ. eigenvalues --   -1.09853  -1.08059  -1.06181  -1.03399  -1.02083
 Alpha  occ. eigenvalues --   -1.00688  -0.97232  -0.95727  -0.94607  -0.94233
 Alpha  occ. eigenvalues --   -0.92505  -0.91659  -0.91307  -0.89662  -0.86201
 Alpha  occ. eigenvalues --   -0.84260  -0.81771  -0.81460  -0.81408  -0.80559
 Alpha  occ. eigenvalues --   -0.78677  -0.78178  -0.77965  -0.77379  -0.76729
 Alpha  occ. eigenvalues --   -0.76128  -0.75963  -0.75413  -0.74541  -0.73931
 Alpha  occ. eigenvalues --   -0.73392  -0.72877  -0.72176  -0.71283  -0.71004
 Alpha  occ. eigenvalues --   -0.70647  -0.69901  -0.69513  -0.69121  -0.68443
 Alpha  occ. eigenvalues --   -0.66972  -0.66783  -0.66096  -0.65833  -0.65300
 Alpha  occ. eigenvalues --   -0.65212  -0.64852  -0.64582  -0.63914  -0.63432
 Alpha  occ. eigenvalues --   -0.62777  -0.62585  -0.61595  -0.61245  -0.60765
 Alpha  occ. eigenvalues --   -0.60551  -0.60474  -0.59746  -0.59546  -0.59086
 Alpha  occ. eigenvalues --   -0.58782  -0.58611  -0.58176  -0.58014  -0.57869
 Alpha  occ. eigenvalues --   -0.57273  -0.56819  -0.55987  -0.54845  -0.54390
 Alpha  occ. eigenvalues --   -0.53999  -0.53173  -0.52845  -0.52123  -0.51846
 Alpha  occ. eigenvalues --   -0.51766  -0.51205  -0.50577  -0.50382  -0.49947
 Alpha  occ. eigenvalues --   -0.49196  -0.49094  -0.48289  -0.48031  -0.47974
 Alpha virt. eigenvalues --   -0.10515  -0.09015  -0.07726  -0.07328  -0.06880
 Alpha virt. eigenvalues --   -0.06335  -0.05193  -0.04947  -0.04120  -0.03545
 Alpha virt. eigenvalues --   -0.03059  -0.02935  -0.02739  -0.02582  -0.02135
 Alpha virt. eigenvalues --   -0.02106  -0.01443  -0.01132  -0.00966  -0.00853
 Alpha virt. eigenvalues --   -0.00754  -0.00503  -0.00359  -0.00141   0.00228
 Alpha virt. eigenvalues --    0.00325   0.00482   0.00748   0.00804   0.01204
 Alpha virt. eigenvalues --    0.01465   0.01873   0.02031   0.02308   0.02862
 Alpha virt. eigenvalues --    0.03463   0.04291   0.04362   0.04901   0.05106
 Alpha virt. eigenvalues --    0.06040   0.06277   0.06428   0.06646   0.06830
 Alpha virt. eigenvalues --    0.06934   0.07089   0.07347   0.07355   0.07613
 Alpha virt. eigenvalues --    0.07679   0.07902   0.07968   0.07997   0.08050
 Alpha virt. eigenvalues --    0.08249   0.08270   0.08456   0.08649   0.08865
 Alpha virt. eigenvalues --    0.09027   0.09176   0.09420   0.09469   0.09491
 Alpha virt. eigenvalues --    0.09844   0.10080   0.10314   0.10499   0.10554
 Alpha virt. eigenvalues --    0.10780   0.11145   0.11213   0.11945   0.14062
          Condensed to atoms (all electrons):
 Mulliken charges:
               1
     1  C    0.347411
     2  H    0.154309
     3  O   -0.550281
     4  H    0.351347
     5  C    0.128798
     6  H    0.184064
     7  O   -0.499187
     8  C   -0.093682
     9  H    0.197447
    10  N   -0.343228
    11  H    0.319220
    12  C    0.602089
    13  O   -0.536364
    14  C   -0.627598
    15  H    0.235460
    16  H    0.222481
    17  H    0.208992
    18  C    0.097128
    19  H    0.212033
    20  O   -0.533679
    21  H    0.333801
    22  C    0.021373
    23  H    0.167278
    24  O   -0.437639
    25  C   -0.075356
    26  H    0.145641
    27  H    0.156137
    28  O   -0.586082
    29  H    0.335396
    30  C    0.344465
    31  H    0.142467
    32  C    0.029218
    33  H    0.151637
    34  O   -0.504197
    35  C    0.000959
    36  H    0.162524
    37  O   -0.539504
    38  H    0.339079
    39  C    0.051286
    40  H    0.180626
    41  O   -0.533183
    42  H    0.338766
    43  C    0.046556
    44  H    0.176524
    45  O   -0.505094
    46  C   -0.050903
    47  H    0.165399
    48  H    0.181250
    49  O   -0.451464
    50  H    0.374415
    51  C    0.323907
    52  H    0.166091
    53  C    0.153601
    54  H    0.144736
    55  O   -0.496999
    56  C    0.000359
    57  H    0.184319
    58  O   -0.566494
    59  H    0.360395
    60  C    0.091609
    61  H    0.175952
    62  O   -0.529061
    63  H    0.343595
    64  C    0.020269
    65  H    0.156307
    66  O   -0.552560
    67  H    0.334111
    68  C   -0.527573
    69  H    0.180665
    70  H    0.186900
    71  H    0.186593
    72  H    0.425142
 Sum of Mulliken charges =   1.00000
 Mulliken charges with hydrogens summed into heavy atoms:
               1
     1  C    0.501720
     3  O   -0.198934
     5  C    0.312862
     7  O   -0.499187
     8  C    0.103765
    10  N   -0.024008
    12  C    0.602089
    13  O   -0.111222
    14  C    0.039334
    18  C    0.309161
    20  O   -0.199877
    22  C    0.188651
    24  O   -0.437639
    25  C    0.226422
    28  O   -0.250686
    30  C    0.486932
    32  C    0.180855
    34  O   -0.504197
    35  C    0.163483
    37  O   -0.200425
    39  C    0.231912
    41  O   -0.194417
    43  C    0.223080
    45  O   -0.505094
    46  C    0.295746
    49  O   -0.077049
    51  C    0.489999
    53  C    0.298336
    55  O   -0.496999
    56  C    0.184679
    58  O   -0.206099
    60  C    0.267560
    62  O   -0.185466
    64  C    0.176576
    66  O   -0.218449
    68  C    0.026586
 Charge=              1.0000 electrons
 Dipole moment (field-independent basis, Debye):
    X=             -0.5802    Y=             -0.4647    Z=             -2.2053  Tot=              2.3272
 N-N= 2.820927220895D+03 E-N=-5.021169853988D+03  KE=-4.554426671745D+02
 Leave Link  601 at Mon Jun 28 19:27:10 2021, MaxMem=  2147483648 cpu:               0.2 elap:               0.0
 (Enter /home/matma/Programs/gaussian/G16_x86_SSE4/tar/g16/l701.exe)
 ... and contract with generalized density number  0.
 Compute integral first derivatives.
 Leave Link  701 at Mon Jun 28 19:27:10 2021, MaxMem=  2147483648 cpu:               1.0 elap:               0.1
 (Enter /home/matma/Programs/gaussian/G16_x86_SSE4/tar/g16/l702.exe)
 L702 exits ... SP integral derivatives will be done elsewhere.
 Leave Link  702 at Mon Jun 28 19:27:10 2021, MaxMem=  2147483648 cpu:               0.1 elap:               0.0
 (Enter /home/matma/Programs/gaussian/G16_x86_SSE4/tar/g16/l703.exe)
 Integral derivatives from FoFJK, PRISM(SPDF).
 Compute integral first derivatives, UseDBF=F ICtDFT=           0.
 Calling FoFJK, ICntrl=      2127 FMM=F ISym2X=0 I1Cent= 0 IOpClX= 0 NMat=1 NMatS=1 NMatT=0.
 FoFJK:  IHMeth=40 ICntrl=    2127 DoSepK=F KAlg= 0 I1Cent=           0 FoldK=F
 IRaf=         0 NMat=       1 IRICut=       1 DoRegI=T DoRafI=F ISym2E= 0 IDoP0=3 IntGTp=3.
 FoFCou: FMM=F IPFlag=           0 FMFlag=      100000 FMFlg1=        2800
         NFxFlg=           0 DoJE=F BraDBF=F KetDBF=F FulRan=T
         wScrn=  0.000000 ICntrl=      2127 IOpCl=  0 I1Cent=           0 NGrid=           0
         NMat0=    1 NMatS0=      1 NMatT0=    0 NMatD0=    1 NMtDS0=    0 NMtDT0=    0
 Symmetry not used in FoFCou.
 Leave Link  703 at Mon Jun 28 19:27:10 2021, MaxMem=  2147483648 cpu:               0.2 elap:               0.0
 (Enter /home/matma/Programs/gaussian/G16_x86_SSE4/tar/g16/l716.exe)
 Dipole        =-2.28262287D-01-1.82821814D-01-8.67620069D-01
 ***** Axes restored to original set *****
 -------------------------------------------------------------------
 Center     Atomic                   Forces (Hartrees/Bohr)
 Number     Number              X              Y              Z
 -------------------------------------------------------------------
      1        6          -0.000128180    0.000362839    0.000012516
[...]
 03852,-0.00009013,-0.00001543,0.00000246,-0.00001284,0.00000214,0.0000
 0389,0.00000657,0.00000054,-0.00000302,0.00001237,-0.00001406,-0.00000
 403,-0.00001988,0.00001073,0.00000115,0.00000426,0.00016353,-0.0000209
 0,0.00010976,0.00000326,0.00001588,-0.00001078,0.00006132,-0.00005239,
 0.00004683,-0.00000198,0.00002048,-0.00001247,-0.00015457,-0.00000535,
 -0.00002529,0.00002801,0.00012129,0.00003315,0.00002677,0.00000305,0.0
 0002828,-0.00006526,-0.00011998,-0.00008604,0.00002166,0.00003586,0.00
 006092,0.00019554,-0.00016589,-0.00006595,-0.00001323,0.00004595,-0.00
 001610,-0.00037275,-0.00010872,0.00031325,0.00037476,0.00028729,-0.000
 38936,0.00016194,0.00018716,-0.00011862,-0.00002879,-0.00001538,-0.000
 01823,-0.00006542,-0.00009897,0.00056766,-0.00005500,-0.00000346,0.000
 01564,0.00000440,-0.00000271,-0.00002100,0.00002454,-0.00000611,-0.000
 01456,-0.00014069,0.00005738,0.00002355,0.00010043,-0.00005189,-0.0001
 3715,-0.00012804,-0.00072503,-0.00107281,0.00004526,0.00018457,0.00020
 324,-0.00570732,-0.00548135,-0.03609225,0.00051362,-0.00120552,-0.0018
 6298,-0.00041871,0.00105646,0.00028913,0.00004229,-0.00012083,-0.00007
 720,0.00002478,-0.00002796,0.00014557,-0.00006394,0.00023227,0.0001084
 0,-0.00003391,-0.00007638,-0.00000951,0.00005618,-0.00012559,-0.000167
 00,-0.00001165,-0.00001030,-0.00004677,0.00002510,0.00038259,-0.000071
 09,0.00000169,-0.00008198,0.00014787,-0.00030262,-0.00059662,0.0008090
 3,-0.00009027,0.00007912,-0.00007923,-0.00001205,0.00022114,-0.0011579
 9,-0.00005112,-0.00012647,0.00083747,-0.06904938,0.04391620,-0.1646315
 1,-0.00566951,0.00132970,0.00127463,0.08389048,-0.04934807,0.20761922,
 -0.00004143,0.00005797,0.00000601,-0.00000535,-0.00000465,0.00000024,0
 .00002612,-0.00003684,0.00002368,-0.00001277,0.00000571,-0.00001183,0.
 00000420,0.00002998,-0.00003551,-0.00002498,0.00000539,0.00000952,0.00
 004461,-0.00004883,-0.00000564,0.00001566,-0.00000784,-0.00000924,-0.0
 0000946,0.00000500,0.00000978,0.00001733,-0.00003261,-0.00000054,-0.00
 000920,0.00001950,-0.00000203,-0.00001245,0.00007070,-0.00001836,0.000
 02277,-0.00005515,0.00001301,-0.00000932,-0.00005625,-0.00000724,0.000
 00553,0.00001830,0.00000443,0.00000387,0.00001624,0.00000609,0.0000003
 4,0.00001458,-0.00000075,-0.00002412,0.00001756,0.00001988,-0.00000518
 ,0.00000799,0.00000353,0.00004423,-0.00001117,-0.00001656,-0.00001902,
 0.00000491,0.00000002,-0.00008729,-0.00000441,0.00001295,-0.00000383,-
 0.00000151,0.00000155,0.00012433,-0.00005094,-0.00000109,-0.00001191,-
 0.00001018,0.00002527,-0.00000758,0.00000057,-0.00000212,-0.00000412,0
 .00000402,-0.00000783,0.00004532,0.00000272,-0.00001113,-0.00002062,-0
 .00000617,-0.00000118,-0.00006275,0.00016931,0.00004359,-0.00000084,-0
 .00002875,0.00000612,-0.00001477,-0.00001616,0.00002004,-0.00000162,-0
 .00000496,0.00001650,0.00000877,-0.00009383,-0.00009283,0.00003339,-0.
 00006662,-0.00003833,-0.00007304,0.00002352,0.00008159,0.00007876,0.00
 000693,-0.00008462,-0.00010025,-0.00003349,0.00008063,-0.00030024,0.00
 032955,0.00024255,0.00003419,-0.00007420,0.00001617,0.00028387,-0.0001
 7517,-0.00072128,-0.00021739,0.00013423,0.00085766,-0.00002023,-0.0000
 0620,-0.00006496,0.00005801,-0.00001188,0.00003640,-0.00007187,-0.0000
 7917,-0.00028790,0.00001741,0.00003382,-0.00003862,0.00001658,-0.00000
 172,0.00001958,-0.00001045,-0.00000011,0.00001394,-0.00002005,-0.00005
 248,-0.00000290,0.00002364,0.00005854,0.00001196,-0.00037114,0.0002548
 3,0.00040429,-0.00000330,0.00001164,0.00001590,0.00584928,0.00536104,0
 .00003038,0.00026725,-0.00012009,-0.00018232,-0.00057366,-0.00037078,-
 0.00000629,0.00007436,-0.00001702,-0.00005760,0.00000611,0.00000811,0.
 00000269,-0.00012120,-0.00010682,-0.00000972,0.00006983,0.00002190,0.0
 0001017,0.00021504,0.00006519,-0.00007036,0.00000641,-0.00000639,-0.00
 001339,-0.00013378,0.00006664,0.00004404,0.00005130,-0.00002719,-0.000
 00695,-0.00014258,0.00032131,0.00087563,0.00004574,-0.00007044,-0.0000
 0826,-0.00015539,-0.00007745,-0.00006810,0.00008500,-0.00003327,-0.000
 02616,-0.04795994,-0.04905571,0.00775599,-0.01253532,-0.02129800,0.006
 31994,0.00547312,0.00737506,-0.00337305,0.05015909,0.00000442,0.000011
 96,0.00002235,0.00000653,0.00000531,-0.00000552,-0.00002397,-0.0000096
 6,-0.00000651,0.00001210,0.00000264,0.00000559,0.00000941,0.00004397,-
 0.00000402,0.00000426,0.00000909,0.00000156,-0.00001082,-0.00004447,-0
 .00001278,0.00001210,0.00001142,-0.00000413,0.00000484,-0.00000442,-0.
 00000508,-0.00009475,-0.00000620,-0.00002470,0.00001518,-0.00000970,0.
 00000287,0.00016011,-0.00000922,0.00005121,-0.00011212,0.00002908,-0.0
 0004643,-0.00012879,0.00003692,0.00002569,0.00007857,-0.00003862,-0.00
 000569,0.00002005,-0.00001709,-0.00000582,0.00001902,-0.00001400,-0.00
 000089,0.00000949,0.00002345,-0.00002490,0.00001424,0.00000843,0.00000
 162,-0.00003325,-0.00003082,0.00000742,0.00001213,0.00001510,0.0000071
 0,0.00001695,-0.00002154,0.00001677,0.00000017,0.00001385,-0.00000193,
 -0.00003783,-0.00003550,-0.00002939,-0.00000438,-0.00001198,-0.0000027
 3,-0.00000470,0.00001232,0.00000172,0.00000128,0.00000278,0.00000306,-
 0.00001120,-0.00002249,-0.00000148,0.00000602,0.00001152,-0.00000161,0
 .00006003,0.00014097,0.00008641,0.00000618,-0.00000131,-0.00000919,-0.
 00002530,-0.00009378,0.00003729,-0.00000812,0.00003090,-0.00000624,-0.
 00011438,-0.00010056,-0.00002734,0.00011185,0.00007988,0.00002579,0.00
 001385,0.00006491,-0.00002408,0.00004751,-0.00026303,-0.00009123,-0.00
 015606,0.00011649,0.00008582,-0.00032008,0.00009373,0.00034000,-0.0000
 0530,0.00002265,-0.00001423,0.00031826,-0.00045038,-0.00044272,0.00037
 043,0.00106819,-0.00038909,0.00035414,0.00031426,-0.00022478,-0.000049
 45,-0.00000761,0.00000564,-0.00016654,-0.00036101,0.00081057,-0.000010
 63,0.00007105,-0.00003130,0.00000431,-0.00000085,-0.00001809,0.0000146
 1,-0.00001081,-0.00001102,-0.00015164,-0.00002879,0.00011533,0.0001549
 2,0.00000578,-0.00021920,0.00007569,-0.00050986,-0.00133327,0.00007382
 ,0.00017609,0.00015985,-0.00035429,-0.02987741,-0.01148918,-0.00029017
 ,0.00049709,-0.00048924,-0.00072776,0.00008933,0.00078464,0.00008715,-
 0.00018974,-0.00003028,0.00002575,-0.00004120,0.00001457,-0.00012693,0
 .00022763,0.00023981,-0.00002983,-0.00007319,-0.00003451,-0.00011128,-
 0.00039744,0.00001900,-0.00002131,0.00001273,-0.00007038,0.00003043,0.
 00022300,-0.00003523,0.00001048,-0.00008258,0.00001391,0.00022042,-0.0
 0103458,-0.00098422,-0.00009109,0.00000461,-0.00003537,0.00011582,0.00
 054301,-0.00017009,-0.00013877,-0.00025715,0.00007290,-0.04805549,-0.1
 9832755,0.02680004,-0.00869619,-0.00382462,0.00255616,-0.00013834,-0.0
 1220519,0.01041968,0.05759389,0.24441283,0.00001211,-0.00000667,0.0000
 2838,0.00000276,0.00000061,-0.00000331,-0.00000903,0.00001027,-0.00002
 846,0.00000065,0.00000040,0.00001637,0.00001466,-0.00001408,0.00001459
 ,-0.00001133,0.00000328,0.00001734,-0.00001246,0.00000851,-0.00002599,
 -0.00000682,0.00000433,-0.00000316,0.00000302,-0.00000215,-0.00000196,
 -0.00003769,0.00001637,-0.00003487,0.00000478,-0.00000956,0.00001609,0
 .00004915,-0.00006610,0.00009422,-0.00007284,0.00006677,-0.00007833,-0
 .00000390,0.00002598,-0.00002940,0.00000329,-0.00000920,0.00001055,0.0
 0000103,-0.00000719,0.00000335,-0.00000058,-0.00000528,0.00001119,-0.0
 0000164,-0.00001302,-0.00001048,0.00001406,-0.00000402,0.00000589,-0.0
 0002288,0.00000531,-0.00000254,0.00001271,0.00000075,0.00000734,0.0000
 6158,0.00000944,-0.00001310,0.00000452,0.00000090,0.00000430,-0.000122
 27,0.00003745,-0.00006406,-0.00001079,0.00000160,-0.00000776,0.0000010
 5,0.00000271,0.00000469,-0.00000014,-0.00000176,0.00000751,-0.00000651
 ,-0.00000069,-0.00001442,0.00000592,-0.00000024,0.00000320,0.00011124,
 -0.00005710,0.00005635,0.00000350,0.00001334,-0.00000482,0.00007922,0.
 00000404,0.00003511,0.00000402,0.00000648,-0.00000772,-0.00009678,0.00
 002636,-0.00003555,-0.00000670,0.00014279,0.00003689,-0.00000532,-0.00
 001671,0.00005651,-0.00006427,-0.00008154,-0.00010226,0.00003269,0.000
 02300,0.00008675,0.00044359,-0.00024744,-0.00025361,-0.00001201,0.0000
 5337,-0.00000160,-0.00079577,0.00003841,0.00036273,0.00082155,-0.00009
 540,0.00004603,-0.00004050,-0.00001258,-0.00002746,0.00002829,-0.00001
 925,-0.00002948,-0.00004054,0.00019430,-0.00000737,-0.00004981,-0.0000
 4387,0.00003209,0.00000464,-0.00000377,-0.00000881,0.00001519,0.000002
 08,-0.00000784,-0.00003334,0.00006500,-0.00004415,-0.00000074,-0.00005
 275,0.00000905,-0.00006722,-0.00036118,-0.00011584,0.00000887,0.000055
 55,0.00006733,-0.00257168,-0.02463400,-0.00114689,-0.00018730,-0.00086
 366,-0.00028246,-0.00043562,0.00055396,-0.00007428,-0.00004634,0.00002
 028,-0.00002187,0.00000709,0.00000939,0.00003797,0.00004459,0.00004840
 ,-0.00003842,-0.00002262,-0.00001653,0.00000553,-0.00022916,-0.0002901
 6,0.00004272,0.00002403,-0.00002766,0.00005475,0.00006071,-0.00015077,
 -0.00008531,-0.00000361,0.00001293,-0.00000057,0.00066729,-0.00162230,
 -0.00191361,0.00007685,-0.00000709,0.00002747,-0.00001072,0.00035905,-
 0.00016809,0.00000832,-0.00008294,0.00012892,0.00912269,0.03087382,-0.
 03874037,0.00306081,0.00334846,0.00295826,0.00188602,0.01922285,-0.006
 43796,-0.01176583,-0.02640131,0.04553488,0.00020312,-0.00139158,-0.003
 16391,-0.00035729,-0.00023834,0.00076351,0.00160485,0.00045428,0.00189
 306,-0.00029187,0.00001110,-0.00108314,-0.00089565,-0.00206071,0.00076
 479,0.00042045,-0.00007840,-0.00027343,-0.00051190,0.00301382,0.001709
 83,-0.00159750,-0.00117472,0.00007820,-0.00066706,0.00053501,0.0004343
 5,0.01254453,-0.00635852,0.01559680,0.00074920,0.00265543,-0.00204244,
 -0.00810980,0.03864121,-0.05693883,-0.05682311,-0.03314562,0.02796688,
 -0.00727207,-0.00292693,0.00186092,0.00489273,-0.00130469,0.00083183,0
 .00194866,0.00120794,0.00103991,0.00045375,0.00040910,-0.00076768,-0.0
 0044154,-0.00230096,0.00175942,-0.00134131,-0.00212232,-0.00002184,0.0
 0198114,0.00270471,-0.00029880,-0.00051793,-0.00097825,-0.00058444,0.0
 0337307,-0.00004379,-0.00155970,-0.00020254,-0.00032298,0.00033003,-0.
 00540388,0.00285908,-0.00217809,0.00021312,0.00047304,-0.00003709,0.00
 012788,-0.00025245,-0.00003529,-0.00008776,-0.00010672,-0.00014807,0.0
 0031501,0.00084198,0.00011342,-0.00026487,-0.00032505,0.00009212,0.005
 04417,0.00060072,0.00508989,0.00004195,-0.00009180,-0.00027080,0.00289
 841,-0.00067434,0.00337036,0.00015358,0.00031805,-0.00119747,-0.006166
 09,-0.00225141,-0.00443816,0.00006737,0.00050930,0.00005834,0.00005934
 ,-0.00000612,0.00014303,-0.00079166,-0.00071945,-0.00076478,0.00009355
 ,0.00006466,0.00035048,0.00022805,0.00066660,0.00099187,-0.00002212,0.
 00016221,-0.00015611,-0.00016934,-0.00074874,-0.00102103,0.00026041,0.
 00042390,0.00028692,-0.00149990,0.00132803,-0.00093676,-0.00024482,0.0
 0042766,0.00010707,0.00169282,-0.00284491,-0.00388408,0.01103842,0.026
 68803,-0.00808137,-0.00188196,-0.00427966,0.00110186,0.00347958,-0.000
 67029,-0.00147762,-0.01248085,-0.02561808,-0.00030216,-0.01693774,0.00
 138546,0.01562480,-0.00151986,0.00135783,0.00562431,0.00108543,0.00012
 377,0.00019493,-0.00080385,0.00003219,-0.00001770,-0.00004158,0.000086
 21,0.00006798,0.00153401,-0.00162039,-0.00168093,-0.00137093,0.0027724
 8,0.00050323,0.00055246,-0.00056079,0.00059653,0.00220749,0.00291776,-
 0.00915469,-0.00051985,-0.00151158,0.00125401,-0.00069452,-0.00075860,
 -0.00012566,-0.00027199,0.00004571,0.00042224,0.00076104,0.00082161,-0
 .00112492,-0.00017623,-0.00031640,0.00069601,0.00025555,-0.00008863,0.
 00069234,-0.00017835,-0.00002414,-0.00009580,0.00025623,0.00003379,-0.
 00114752,-0.00017835,0.00009353,0.00041634,0.00034714,-0.00035969,-0.0
 0055099,-0.00010827,0.00004637,0.00007340,0.00005270,0.00003575,0.0002
 3035,-0.00001310,0.00015428,0.00010265,0.06992101,-0.00017388,0.000493
 43,0.00062214,0.00005257,0.00003046,-0.00013863,-0.00018340,-0.0002265
 7,-0.00024839,0.00002141,0.00002298,0.00014721,0.00014018,0.00053437,-
 0.00030051,-0.00008750,0.00000367,0.00001828,0.00028261,-0.00080337,-0
 .00028055,-0.00006655,0.00053460,0.00015195,-0.00001778,-0.00018908,0.
 00002919,-0.00076220,-0.00091488,-0.00033180,-0.00062347,0.00093553,0.
 00105619,0.01805148,-0.00935750,0.01678072,-0.02244217,-0.00277345,-0.
 01098050,0.00021209,-0.00083483,-0.00233598,-0.00096802,0.00039332,0.0
 0121776,0.00002863,-0.00095099,0.00075783,-0.00013191,-0.00012411,0.00
 045825,-0.00012291,0.00050698,-0.00021542,-0.00003237,0.00078590,-0.00
 005032,-0.00016608,-0.00065020,-0.00006215,-0.00000629,0.00023305,0.00
 011058,-0.00136697,0.00012011,0.00033138,0.00002204,0.00003351,-0.0000
 9447,0.00223698,-0.00090615,0.00144127,-0.00004984,-0.00012391,0.00010
 986,-0.00003871,0.00003520,-0.00000993,0.00001384,0.00003870,-0.000007
 52,0.00007933,-0.00015818,-0.00002579,-0.00001477,0.00004789,-0.000022
 78,-0.00269046,-0.00082547,-0.00382482,0.00002272,0.00025058,0.0004553
 6,0.00132054,-0.00120242,0.00100802,-0.00021146,-0.00005166,0.00015570
 ,0.00174839,0.00107699,0.00180019,0.00027521,0.00001481,0.00012740,0.0
 0000643,0.00004180,-0.00015292,-0.00009894,0.00058999,0.00038089,0.000
 11857,-0.00010109,-0.00015094,0.00029291,-0.00033578,-0.00030945,0.000
 00494,-0.00010484,0.00007182,-0.00037700,0.00021640,0.00047666,0.00007
 563,0.00006518,-0.00019329,0.00045553,0.00012905,-0.00037448,0.0000294
 5,-0.00011180,0.00019277,-0.00093079,-0.00000098,0.00131946,0.01187685
 ,-0.00900875,0.01177112,-0.00039152,-0.00149456,0.00182682,-0.00052184
 ,0.00050370,0.00134442,-0.01519338,-0.00836188,-0.00515917,0.00624450,
 0.00077065,-0.00245829,0.00062387,0.00003332,-0.00191342,0.00008318,-0
 .00002063,-0.00010610,0.00046065,0.00013573,-0.00001468,-0.00000175,-0
 .00000994,-0.00002804,-0.00074033,0.00006426,0.00050951,-0.00001774,0.
 00031381,0.00051898,-0.00006069,0.00000019,-0.00016897,0.00046890,-0.0
 0215760,0.00043855,-0.00022192,0.00055948,-0.00000242,0.00021974,0.000
 20502,-0.00004849,0.00004112,0.00003539,-0.00009253,-0.00005444,-0.000
 38640,0.00019891,-0.00003167,0.00009553,-0.00012180,-0.00000400,0.0000
 5735,-0.00018625,0.00003933,-0.00001351,0.00001244,-0.00005413,-0.0001
 1568,0.00023498,0.00005494,0.00001338,-0.00007174,-0.00020962,-0.00001
 102,0.00016015,0.00004025,0.00000971,-0.00001825,0.00001284,0.00001413
 ,-0.00006309,0.00003729,-0.00001806,-0.00004034,0.00337245,0.03239982,
 0.00010764,-0.00047828,-0.00158905,-0.00017930,-0.00013854,0.00041343,
 0.00077618,0.00012778,0.00088571,-0.00018631,0.00001478,-0.00052809,-0
 .00043549,-0.00106425,0.00032194,0.00016348,-0.00005513,-0.00012972,-0
 .00014750,0.00145804,0.00082792,-0.00080017,-0.00015183,0.00044363,-0.
 00046047,0.00021957,0.00035642,0.00627366,-0.00039951,0.00360179,-0.00
 059278,0.00180000,-0.00005990,-0.02680583,0.02184750,-0.03987772,0.021
 43541,-0.01536471,0.01770960,-0.00147889,-0.00297095,-0.00051865,0.002
 25819,0.00074748,-0.00080040,0.00040058,0.00108757,0.00079312,0.000186
 59,0.00049304,-0.00050107,-0.00040819,-0.00122148,0.00101042,-0.000544
 59,-0.00108741,0.00037148,0.00111437,0.00136301,-0.00034095,-0.0002590
 2,-0.00044477,-0.00029423,0.00134330,0.00008407,-0.00083361,-0.0000788
 9,-0.00017625,0.00018274,-0.00231999,0.00162663,-0.00100605,0.00007920
 ,0.00023341,0.00002244,0.00006361,-0.00013182,-0.00001968,-0.00004423,
 -0.00004944,-0.00008151,0.00023363,0.00043700,-0.00000197,-0.00015810,
 -0.00017775,0.00005591,0.00256567,0.00021767,0.00233278,0.00001888,0.0
 0002046,-0.00002202,0.00157275,-0.00006596,0.00265883,0.00000078,0.000
 13256,-0.00074446,-0.00266738,-0.00062920,-0.00333062,0.00005208,0.000
 14872,-0.00003065,0.00002434,-0.00007702,0.00007930,-0.00039629,-0.000
 18671,-0.00038775,0.00007756,-0.00000616,0.00017378,0.00026987,0.00041
 421,0.00047921,-0.00002602,0.00005813,-0.00003302,-0.00006024,-0.00032
 615,-0.00063479,0.00010286,0.00004533,0.00024218,-0.00125562,0.0001288
 7,-0.00045245,-0.00006611,0.00024877,0.00009285,0.00065267,-0.00101945
 ,-0.00259852,-0.00146344,0.01615649,-0.01059498,-0.00112854,-0.0011763
 8,-0.00005373,0.00114766,0.00080413,-0.00211738,-0.01279478,-0.0077278
 4,-0.02882648,0.00158570,-0.00088062,0.01877492,-0.00017310,-0.0000957
 2,0.00298629,0.00077993,-0.00014013,-0.00002171,-0.00010893,0.00003150
 ,0.00003376,-0.00001661,0.00001504,0.00008462,0.00027522,-0.00041977,-
 0.00089605,-0.00064033,0.00093994,-0.00036004,0.00033583,-0.00017860,0
 .00022336,-0.00011674,0.00197146,-0.00566056,-0.00015642,-0.00038114,0
 .00088775,-0.00019197,-0.00008724,-0.00003607,-0.00014910,-0.00000323,
 0.00033760,0.00011612,0.00022810,-0.00050191,0.00000120,-0.00011444,0.
 00027146,-0.00000990,-0.00006769,0.00027276,-0.00004139,-0.00000127,-0
 .00000895,0.00001814,0.00001587,-0.00046905,-0.00003537,0.00004389,0.0
 0014163,0.00000925,-0.00007060,-0.00022743,-0.00002095,0.00000962,0.00
 004062,0.00004282,-0.00000308,0.00008445,0.00000883,0.00003116,0.00004
 978,0.01232524,-0.01563210,0.04734552\\-0.00004173,0.00001412,0.000019
 35,0.00002750,-0.00000131,-0.00000857,-0.00002134,-0.00001728,-0.00002
 385,0.00000718,0.00001082,-0.00001169,-0.00003668,-0.00011792,-0.00003
 746,-0.00000855,0.00001938,0.00000658,-0.00002397,0.00001218,-0.000028
 35,-0.00010104,-0.00002695,0.00007442,0.00002437,-0.00002768,-0.000029
 99,-0.00003185,0.00002753,-0.00003113,0.00002923,-0.00000694,0.0000295
 7,0.00006114,0.00006582,0.00000267,-0.00000453,-0.00002539,0.00001090,
 -0.00001434,-0.00002352,-0.00004491,0.00003583,0.00001197,0.00001643,0
 .00001477,0.00001568,0.00000951,0.00001674,0.00000601,0.00001139,0.000
 00576,0.00004250,0.00002543,-0.00002765,-0.00000169,-0.00000091,0.0000
 0374,0.00001266,0.00002237,0.00000449,0.00000247,-0.00000621,0.0000147
 4,0.00001390,0.00001476,-0.00002498,-0.00002573,-0.00003035,0.00007112
 ,-0.00002977,0.00004850,0.00005449,0.00009028,0.00002104,0.00001199,-0
 .00005003,0.00001065,-0.00002180,0.00001384,-0.00002291,-0.00002105,-0
 .00001781,-0.00001420,-0.00000570,0.00000668,0.00000806,-0.00004948,0.
 00008349,-0.00002882,0.00002518,0.00000595,-0.00000446,0.00003900,0.00
 000840,0.00002480,-0.00003752,-0.00004488,-0.00000248,0.00000538,-0.00
 010205,-0.00001741,0.00002717,-0.00004514,0.00006534,0.00003491,0.0000
 1451,-0.00003364,0.00002346,0.00005918,0.00002659,0.00000738,-0.000034
 05,-0.00001778,0.00001756,0.00001857,0.00001711,-0.00001841,0.00001854
 ,-0.00001105,-0.00001365,0.00001677,-0.00000108,-0.00000774,-0.0000221
 8,-0.00000723,-0.00003592,-0.00006529,-0.00005685,0.00001356,-0.000017
 78,0.00001154,-0.00006323,0.00001667,0.00002636,0.00005694,0.00003484,
 0.00010603,-0.00005551,-0.00002956,0.00000259,-0.00001418,-0.00001429,
 0.00002427,0.00006045,-0.00001024,-0.00006249,-0.00001917,0.00015868,0
 .00003727,0.00000170,-0.00001887,-0.00006399,0.00000326,-0.00000368,0.
 00001656,0.00003468,0.00003439,-0.00007230,0.00000727,-0.00001908,-0.0
 0000528,0.00002647,0.00000135,-0.00004954,-0.00003418,0.00009116,-0.00
 011806,-0.00002261,-0.00005098,0.00003647,-0.00003199,-0.00014344,-0.0
 0000301,-0.00000821,0.00002065,0.00002324,0.00004273,0.00006194,0.0000
 7350,0.00002403,0.00000232,-0.00005455,-0.00000875,-0.00006340,0.00000
 975,0.00000736,0.00002207,-0.00001087,0.00000768,-0.00007183,-0.000006
 88,0.00002338,-0.00000490,-0.00002194,-0.00001932,0.00000190,0.0000315
 1,0.00001780,-0.00001120,0.00000855,-0.00005203,0.00000007,0.00007615,
 0.00001094,0.00001322,0.00000927,-0.00000272,0.00001269,0.00000596,0.0
 0000412,0.00003771,0.,-0.00002565,0.00004399,-0.00002429\\\@


 THE UNDERLYING PHYSICAL LAWS NECESSARY FOR THE 
 MATHEMATICAL THEORY OF A LARGE PART OF PHYSICS AND THE
 WHOLE OF CHEMISTRY ARE THUS COMPLETELY KNOWN, AND THE
 DIFFICULTY IS ONLY THAT THE EXACT APPLICATION OF THESE
 LAWS LEADS TO EQUATIONS MUCH TOO COMPLICATED 
 TO BE SOLUBLE.

                                        -- P. A. M. DIRAC, 1929
 Job cpu time:       0 days  0 hours  0 minutes 26.7 seconds.
 Elapsed time:       0 days  0 hours  0 minutes  2.3 seconds.
 File lengths (MBytes):  RWF=    873 Int=      0 D2E=      0 Chk=      8 Scr=      1
 Normal termination of Gaussian 16 at Mon Jun 28 19:27:16 2021.
