 Entering Gaussian System, Link 0=g16
 Input=input.com
 Output=input.log
 Initial command:
 /home/matma/Programs/gaussian/G16_x86_SSE4/tar/g16/l1.exe "/scratch-data/gaussian/Gau-29991.inp" -scrdir="/scratch-data/gaussian/"
 Entering Link 1 = /home/matma/Programs/gaussian/G16_x86_SSE4/tar/g16/l1.exe PID=     29993.
  
 Copyright (c) 1988-2017, Gaussian, Inc.  All Rights Reserved.
  
 This is part of the Gaussian(R) 16 program.  It is based on
 the Gaussian(R) 09 system (copyright 2009, Gaussian, Inc.),
 the Gaussian(R) 03 system (copyright 2003, Gaussian, Inc.),
 the Gaussian(R) 98 system (copyright 1998, Gaussian, Inc.),
 the Gaussian(R) 94 system (copyright 1995, Gaussian, Inc.),
 the Gaussian 92(TM) system (copyright 1992, Gaussian, Inc.),
 the Gaussian 90(TM) system (copyright 1990, Gaussian, Inc.),
 the Gaussian 88(TM) system (copyright 1988, Gaussian, Inc.),
 the Gaussian 86(TM) system (copyright 1986, Carnegie Mellon
 University), and the Gaussian 82(TM) system (copyright 1983,
 Carnegie Mellon University). Gaussian is a federally registered
 trademark of Gaussian, Inc.
  
 This software contains proprietary and confidential information,
 including trade secrets, belonging to Gaussian, Inc.
  
 This software is provided under written license and may be
 used, copied, transmitted, or stored only in accord with that
 written license.
  
 The following legend is applicable only to US Government
 contracts under FAR:
  
                    RESTRICTED RIGHTS LEGEND
  
 Use, reproduction and disclosure by the US Government is
 subject to restrictions as set forth in subparagraphs (a)
 and (c) of the Commercial Computer Software - Restricted
 Rights clause in FAR 52.227-19.
  
 Gaussian, Inc.
 340 Quinnipiac St., Bldg. 40, Wallingford CT 06492
  
  
 ---------------------------------------------------------------
 Warning -- This program may not be used in any manner that
 competes with the business of Gaussian, Inc. or will provide
 assistance to any competitor of Gaussian, Inc.  The licensee
 of this program is prohibited from giving any competitor of
 Gaussian, Inc. access to this program.  By using this program,
 the user acknowledges that Gaussian, Inc. is engaged in the
 business of creating and licensing software in the field of
 computational chemistry and represents and warrants to the
 licensee that it is not a competitor of Gaussian, Inc. and that
 it will not use this program in any manner prohibited above.
 ---------------------------------------------------------------
  

 Cite this work as:
 Gaussian 16, Revision B.01,
 M. J. Frisch, G. W. Trucks, H. B. Schlegel, G. E. Scuseria, 
 M. A. Robb, J. R. Cheeseman, G. Scalmani, V. Barone, 
 G. A. Petersson, H. Nakatsuji, X. Li, M. Caricato, A. V. Marenich, 
 J. Bloino, B. G. Janesko, R. Gomperts, B. Mennucci, H. P. Hratchian, 
 J. V. Ortiz, A. F. Izmaylov, J. L. Sonnenberg, D. Williams-Young, 
 F. Ding, F. Lipparini, F. Egidi, J. Goings, B. Peng, A. Petrone, 
 T. Henderson, D. Ranasinghe, V. G. Zakrzewski, J. Gao, N. Rega, 
 G. Zheng, W. Liang, M. Hada, M. Ehara, K. Toyota, R. Fukuda, 
 J. Hasegawa, M. Ishida, T. Nakajima, Y. Honda, O. Kitao, H. Nakai, 
 T. Vreven, K. Throssell, J. A. Montgomery, Jr., J. E. Peralta, 
 F. Ogliaro, M. J. Bearpark, J. J. Heyd, E. N. Brothers, K. N. Kudin, 
 V. N. Staroverov, T. A. Keith, R. Kobayashi, J. Normand, 
 K. Raghavachari, A. P. Rendell, J. C. Burant, S. S. Iyengar, 
 J. Tomasi, M. Cossi, J. M. Millam, M. Klene, C. Adamo, R. Cammi, 
 J. W. Ochterski, R. L. Martin, K. Morokuma, O. Farkas, 
 J. B. Foresman, and D. J. Fox, Gaussian, Inc., Wallingford CT, 2016.
 
 ******************************************
 Gaussian 16:  ES64L-G16RevB.01 20-Dec-2017
                22-Jun-2021 
 ******************************************
 %nproc=12
 Will use up to   12 processors via shared memory.
 %mem=16GB
 --------------------------------------
 #P pm6 opt=loose freq int=(grid=99590)
 --------------------------------------
 1/7=-1,18=20,19=15,26=1,38=1/1,3;
 2/9=110,12=2,17=6,18=5,40=1/2;
 3/5=2,25=1,41=3900000,71=1,75=99590/1,2,3;
 4/35=1/1;
 5/5=2,35=1,38=5/2;
 6/7=2,8=2,9=2,10=2,28=1/1;
 7//1,2,3,16;
 1/7=-1,18=20,19=15,26=1/3(2);
 2/9=110/2;
 99//99;
 2/9=110/2;
 3/5=2,25=1,41=3900000,71=1,75=99590,135=20/1,2,3;
 4/5=5,16=3,35=1/1;
 5/5=2,35=1,38=5/2;
 7//1,2,3,16;
 1/7=-1,18=20,19=15,26=1/3(-5);
 2/9=110/2;
 6/7=2,8=2,9=2,10=2,19=2,28=1/1;
 99/9=1/99;
 Leave Link    1 at Tue Jun 22 14:18:35 2021, MaxMem=  2147483648 cpu:               0.2 elap:               0.0
 (Enter /home/matma/Programs/gaussian/G16_x86_SSE4/tar/g16/l101.exe)
 ----------
 initial-05
 ----------
 Symbolic Z-matrix:
 Charge =  0 Multiplicity = 1
 O                     2.661     2.109    -0.056 
 C                     2.764     2.782     1.222 
 C                     2.872     1.758     2.371 
 O                     4.068     0.978     2.209 
 C                     1.619     0.848     2.368 
 C                     0.271     1.661     2.255 
 O                     0.31      2.703     1.263 
 C                     1.452     3.57      1.443 
 C                     1.301     4.725     0.434 
 O                     2.491     5.522     0.544 
 O                    -5.503    -0.428     4.053 
 C                    -4.196     0.143     4.31 
 C                    -3.182     0.21      3.135 
 C                    -1.901     0.935     3.615 
 C                    -2.227     2.317     4.241 
 O                    -3.212     2.205     5.273 
 C                    -4.437     1.588     4.863 
 C                    -5.257     1.599     6.162 
 O                    -4.534     0.878     7.19 
 O                    -1.06      2.764     4.905 
 O                    -1.048     1.038     2.472 
 O                    -2.821    -1.119     2.731 
 O                     1.668     0.084     3.58 
 H                     3.63      3.467     1.225 
 H                     2.898     2.316     3.329 
 H                     4.006     0.293     2.935 
 H                     1.708     0.189     1.487 
 H                     0.056     2.101     3.254 
 H                     1.459     3.985     2.471 
 H                     1.184     4.296    -0.58 
 H                     0.384     5.29      0.681 
 H                     2.266     6.39      0.11 
 H                    -3.711    -0.446     5.109 
 H                    -3.628     0.787     2.299 
 H                    -1.439     0.318     4.414 
 H                    -2.564     3.022     3.447 
 H                    -4.964     2.177     4.088 
 H                    -5.365     2.635     6.518 
 H                    -6.258     1.174     5.988 
 H                    -4.709    -0.09      7.017 
 H                    -3.503    -1.242     2.153 
 H                    -5.753    -1.24      4.832 
 H                     1.086    -0.708     3.393 
 H                    -1.1       3.698     5.124 
 H                     3.47      1.657    -0.308 
 
 Add virtual bond connecting atoms H42        and O11        Dist= 2.18D+00.
 ITRead=  0  0  0  0  0  0  0  0  0  0  0  0  0  0  0  0  0  0  0  0
 ITRead=  0  0  0  0  0  0  0  0  0  0  0  0  0  0  0  0  0  0  0  0
 ITRead=  0  0  0  0  0
 MicOpt= -1 -1 -1 -1 -1 -1 -1 -1 -1 -1 -1 -1 -1 -1 -1 -1 -1 -1 -1 -1
 MicOpt= -1 -1 -1 -1 -1 -1 -1 -1 -1 -1 -1 -1 -1 -1 -1 -1 -1 -1 -1 -1
 MicOpt= -1 -1 -1 -1 -1
 NAtoms=     45 NQM=       45 NQMF=       0 NMMI=      0 NMMIF=      0
                NMic=       0 NMicF=      0.
                    Isotopes and Nuclear Properties:
 (Nuclear quadrupole moments (NQMom) in fm**2, nuclear magnetic moments (NMagM)
  in nuclear magnetons)

  Atom         1           2           3           4           5           6           7           8           9          10
 IAtWgt=          16          12          12          16          12          12          16          12          12          16
 AtmWgt=  15.9949146  12.0000000  12.0000000  15.9949146  12.0000000  12.0000000  15.9949146  12.0000000  12.0000000  15.9949146
 NucSpn=           0           0           0           0           0           0           0           0           0           0
 AtZEff=  -0.0000000  -0.0000000  -0.0000000  -0.0000000  -0.0000000  -0.0000000  -0.0000000  -0.0000000  -0.0000000  -0.0000000
 NQMom=    0.0000000   0.0000000   0.0000000   0.0000000   0.0000000   0.0000000   0.0000000   0.0000000   0.0000000   0.0000000
 NMagM=    0.0000000   0.0000000   0.0000000   0.0000000   0.0000000   0.0000000   0.0000000   0.0000000   0.0000000   0.0000000
 AtZNuc=   8.0000000   6.0000000   6.0000000   8.0000000   6.0000000   6.0000000   8.0000000   6.0000000   6.0000000   8.0000000

  Atom        11          12          13          14          15          16          17          18          19          20
 IAtWgt=          16          12          12          12          12          16          12          12          16          16
 AtmWgt=  15.9949146  12.0000000  12.0000000  12.0000000  12.0000000  15.9949146  12.0000000  12.0000000  15.9949146  15.9949146
 NucSpn=           0           0           0           0           0           0           0           0           0           0
 AtZEff=  -0.0000000  -0.0000000  -0.0000000  -0.0000000  -0.0000000  -0.0000000  -0.0000000  -0.0000000  -0.0000000  -0.0000000
 NQMom=    0.0000000   0.0000000   0.0000000   0.0000000   0.0000000   0.0000000   0.0000000   0.0000000   0.0000000   0.0000000
 NMagM=    0.0000000   0.0000000   0.0000000   0.0000000   0.0000000   0.0000000   0.0000000   0.0000000   0.0000000   0.0000000
 AtZNuc=   8.0000000   6.0000000   6.0000000   6.0000000   6.0000000   8.0000000   6.0000000   6.0000000   8.0000000   8.0000000

  Atom        21          22          23          24          25          26          27          28          29          30
 IAtWgt=          16          16          16           1           1           1           1           1           1           1
 AtmWgt=  15.9949146  15.9949146  15.9949146   1.0078250   1.0078250   1.0078250   1.0078250   1.0078250   1.0078250   1.0078250
 NucSpn=           0           0           0           1           1           1           1           1           1           1
 AtZEff=  -0.0000000  -0.0000000  -0.0000000  -0.0000000  -0.0000000  -0.0000000  -0.0000000  -0.0000000  -0.0000000  -0.0000000
 NQMom=    0.0000000   0.0000000   0.0000000   0.0000000   0.0000000   0.0000000   0.0000000   0.0000000   0.0000000   0.0000000
 NMagM=    0.0000000   0.0000000   0.0000000   2.7928460   2.7928460   2.7928460   2.7928460   2.7928460   2.7928460   2.7928460
 AtZNuc=   8.0000000   8.0000000   8.0000000   1.0000000   1.0000000   1.0000000   1.0000000   1.0000000   1.0000000   1.0000000

  Atom        31          32          33          34          35          36          37          38          39          40
 IAtWgt=           1           1           1           1           1           1           1           1           1           1
 AtmWgt=   1.0078250   1.0078250   1.0078250   1.0078250   1.0078250   1.0078250   1.0078250   1.0078250   1.0078250   1.0078250
 NucSpn=           1           1           1           1           1           1           1           1           1           1
 AtZEff=  -0.0000000  -0.0000000  -0.0000000  -0.0000000  -0.0000000  -0.0000000  -0.0000000  -0.0000000  -0.0000000  -0.0000000
 NQMom=    0.0000000   0.0000000   0.0000000   0.0000000   0.0000000   0.0000000   0.0000000   0.0000000   0.0000000   0.0000000
 NMagM=    2.7928460   2.7928460   2.7928460   2.7928460   2.7928460   2.7928460   2.7928460   2.7928460   2.7928460   2.7928460
 AtZNuc=   1.0000000   1.0000000   1.0000000   1.0000000   1.0000000   1.0000000   1.0000000   1.0000000   1.0000000   1.0000000

  Atom        41          42          43          44          45
 IAtWgt=           1           1           1           1           1
 AtmWgt=   1.0078250   1.0078250   1.0078250   1.0078250   1.0078250
 NucSpn=           1           1           1           1           1
 AtZEff=  -0.0000000  -0.0000000  -0.0000000  -0.0000000  -0.0000000
 NQMom=    0.0000000   0.0000000   0.0000000   0.0000000   0.0000000
 NMagM=    2.7928460   2.7928460   2.7928460   2.7928460   2.7928460
 AtZNuc=   1.0000000   1.0000000   1.0000000   1.0000000   1.0000000
 Leave Link  101 at Tue Jun 22 14:18:35 2021, MaxMem=  2147483648 cpu:               2.6 elap:               0.2
 (Enter /home/matma/Programs/gaussian/G16_x86_SSE4/tar/g16/l103.exe)

 GradGradGradGradGradGradGradGradGradGradGradGradGradGradGradGradGradGrad
 Berny optimization.
 Initialization pass.
                           ----------------------------
                           !    Initial Parameters    !
                           ! (Angstroms and Degrees)  !
 --------------------------                            --------------------------
 ! Name  Definition              Value          Derivative Info.                !
 --------------------------------------------------------------------------------
 ! R1    R(1,2)                  1.448          estimate D2E/DX2                !
 ! R2    R(1,45)                 0.9604         estimate D2E/DX2                !
 ! R3    R(2,3)                  1.5429         estimate D2E/DX2                !
 ! R4    R(2,8)                  1.5463         estimate D2E/DX2                !
 ! R5    R(2,24)                 1.1042         estimate D2E/DX2                !
 ! R6    R(3,4)                  1.437          estimate D2E/DX2                !
 ! R7    R(3,5)                  1.5486         estimate D2E/DX2                !
 ! R8    R(3,25)                 1.109          estimate D2E/DX2                !
 ! R9    R(4,26)                 1.0001         estimate D2E/DX2                !
 ! R10   R(5,6)                  1.5782         estimate D2E/DX2                !
 ! R11   R(5,23)                 1.4335         estimate D2E/DX2                !
 ! R12   R(5,27)                 1.1038         estimate D2E/DX2                !
 ! R13   R(6,7)                  1.4392         estimate D2E/DX2                !
 ! R14   R(6,21)                 1.4748         estimate D2E/DX2                !
 ! R15   R(6,28)                 1.1126         estimate D2E/DX2                !
 ! R16   R(7,8)                  1.4451         estimate D2E/DX2                !
 ! R17   R(8,9)                  1.5411         estimate D2E/DX2                !
 ! R18   R(8,29)                 1.1086         estimate D2E/DX2                !
 ! R19   R(9,10)                 1.4365         estimate D2E/DX2                !
 ! R20   R(9,30)                 1.1072         estimate D2E/DX2                !
 ! R21   R(9,31)                 1.105          estimate D2E/DX2                !
 ! R22   R(10,32)                0.9962         estimate D2E/DX2                !
 ! R23   R(11,12)                1.4493         estimate D2E/DX2                !
 ! R24   R(11,42)                1.1527         estimate D2E/DX2                !
 ! R25   R(12,13)                1.5535         estimate D2E/DX2                !
 ! R26   R(12,17)                1.5659         estimate D2E/DX2                !
 ! R27   R(12,33)                1.1048         estimate D2E/DX2                !
 ! R28   R(13,14)                1.5482         estimate D2E/DX2                !
 ! R29   R(13,22)                1.4352         estimate D2E/DX2                !
 ! R30   R(13,34)                1.1094         estimate D2E/DX2                !
 ! R31   R(14,15)                1.5518         estimate D2E/DX2                !
 ! R32   R(14,21)                1.4299         estimate D2E/DX2                !
 ! R33   R(14,35)                1.1102         estimate D2E/DX2                !
 ! R34   R(15,16)                1.431          estimate D2E/DX2                !
 ! R35   R(15,20)                1.4151         estimate D2E/DX2                !
 ! R36   R(15,36)                1.114          estimate D2E/DX2                !
 ! R37   R(16,17)                1.4316         estimate D2E/DX2                !
 ! R38   R(17,18)                1.5362         estimate D2E/DX2                !
 ! R39   R(17,37)                1.1069         estimate D2E/DX2                !
 ! R40   R(18,19)                1.4489         estimate D2E/DX2                !
 ! R41   R(18,38)                1.1008         estimate D2E/DX2                !
 ! R42   R(18,39)                1.1013         estimate D2E/DX2                !
 ! R43   R(19,40)                0.9988         estimate D2E/DX2                !
 ! R44   R(20,44)                0.9602         estimate D2E/DX2                !
 ! R45   R(22,41)                0.9024         estimate D2E/DX2                !
 ! R46   R(23,43)                1.0005         estimate D2E/DX2                !
 ! A1    A(2,1,45)             112.9803         estimate D2E/DX2                !
 ! A2    A(1,2,3)              110.7187         estimate D2E/DX2                !
 ! A3    A(1,2,8)              107.6155         estimate D2E/DX2                !
 ! A4    A(1,2,24)             110.2743         estimate D2E/DX2                !
 ! A5    A(3,2,8)              106.9283         estimate D2E/DX2                !
 ! A6    A(3,2,24)             110.7823         estimate D2E/DX2                !
 ! A7    A(8,2,24)             110.4213         estimate D2E/DX2                !
 ! A8    A(2,3,4)              109.5452         estimate D2E/DX2                !
 ! A9    A(2,3,5)              109.386          estimate D2E/DX2                !
 ! A10   A(2,3,25)             108.121          estimate D2E/DX2                !
 ! A11   A(4,3,5)              110.7465         estimate D2E/DX2                !
 ! A12   A(4,3,25)             110.5477         estimate D2E/DX2                !
 ! A13   A(5,3,25)             108.4408         estimate D2E/DX2                !
 ! A14   A(3,4,26)             103.789          estimate D2E/DX2                !
 ! A15   A(3,5,6)              112.8623         estimate D2E/DX2                !
 ! A16   A(3,5,23)             106.492          estimate D2E/DX2                !
 ! A17   A(3,5,27)             106.6869         estimate D2E/DX2                !
 ! A18   A(6,5,23)             111.3624         estimate D2E/DX2                !
 ! A19   A(6,5,27)             108.6188         estimate D2E/DX2                !
 ! A20   A(23,5,27)            110.724          estimate D2E/DX2                !
 ! A21   A(5,6,7)              113.5258         estimate D2E/DX2                !
 ! A22   A(5,6,21)             122.3949         estimate D2E/DX2                !
 ! A23   A(5,6,28)             107.7273         estimate D2E/DX2                !
 ! A24   A(7,6,21)             115.5627         estimate D2E/DX2                !
 ! A25   A(7,6,28)             109.7434         estimate D2E/DX2                !
 ! A26   A(21,6,28)             82.0743         estimate D2E/DX2                !
 ! A27   A(6,7,8)              111.7118         estimate D2E/DX2                !
 ! A28   A(2,8,7)              110.3021         estimate D2E/DX2                !
 ! A29   A(2,8,9)              111.8076         estimate D2E/DX2                !
 ! A30   A(2,8,29)             108.5376         estimate D2E/DX2                !
 ! A31   A(7,8,9)              106.8983         estimate D2E/DX2                !
 ! A32   A(7,8,29)             110.1867         estimate D2E/DX2                !
 ! A33   A(9,8,29)             109.0978         estimate D2E/DX2                !
 ! A34   A(8,9,10)             106.5306         estimate D2E/DX2                !
 ! A35   A(8,9,30)             108.6375         estimate D2E/DX2                !
 ! A36   A(8,9,31)             108.5519         estimate D2E/DX2                !
 ! A37   A(10,9,30)            111.879          estimate D2E/DX2                !
 ! A38   A(10,9,31)            112.7465         estimate D2E/DX2                !
 ! A39   A(30,9,31)            108.3679         estimate D2E/DX2                !
 ! A40   A(9,10,32)            105.2463         estimate D2E/DX2                !
 ! A41   A(12,11,42)           110.6892         estimate D2E/DX2                !
 ! A42   A(11,12,13)           118.1331         estimate D2E/DX2                !
 ! A43   A(11,12,17)           106.703          estimate D2E/DX2                !
 ! A44   A(11,12,33)           108.3068         estimate D2E/DX2                !
 ! A45   A(13,12,17)           109.134          estimate D2E/DX2                !
 ! A46   A(13,12,33)           106.467          estimate D2E/DX2                !
 ! A47   A(17,12,33)           107.7064         estimate D2E/DX2                !
 ! A48   A(12,13,14)           109.0119         estimate D2E/DX2                !
 ! A49   A(12,13,22)           109.7039         estimate D2E/DX2                !
 ! A50   A(12,13,34)           109.2684         estimate D2E/DX2                !
 ! A51   A(14,13,22)           108.2271         estimate D2E/DX2                !
 ! A52   A(14,13,34)           108.827          estimate D2E/DX2                !
 ! A53   A(22,13,34)           111.7538         estimate D2E/DX2                !
 ! A54   A(13,14,15)           111.6101         estimate D2E/DX2                !
 ! A55   A(13,14,21)           106.2294         estimate D2E/DX2                !
 ! A56   A(13,14,35)           107.8903         estimate D2E/DX2                !
 ! A57   A(15,14,21)           112.5586         estimate D2E/DX2                !
 ! A58   A(15,14,35)           106.9803         estimate D2E/DX2                !
 ! A59   A(21,14,35)           111.5351         estimate D2E/DX2                !
 ! A60   A(14,15,16)           111.4582         estimate D2E/DX2                !
 ! A61   A(14,15,20)           107.2984         estimate D2E/DX2                !
 ! A62   A(14,15,36)           109.8544         estimate D2E/DX2                !
 ! A63   A(16,15,20)           104.7127         estimate D2E/DX2                !
 ! A64   A(16,15,36)           110.8124         estimate D2E/DX2                !
 ! A65   A(20,15,36)           112.5814         estimate D2E/DX2                !
 ! A66   A(15,16,17)           114.5943         estimate D2E/DX2                !
 ! A67   A(12,17,16)           111.5413         estimate D2E/DX2                !
 ! A68   A(12,17,18)           112.7923         estimate D2E/DX2                !
 ! A69   A(12,17,37)           108.4846         estimate D2E/DX2                !
 ! A70   A(16,17,18)           102.2101         estimate D2E/DX2                !
 ! A71   A(16,17,37)           112.2457         estimate D2E/DX2                !
 ! A72   A(18,17,37)           109.5172         estimate D2E/DX2                !
 ! A73   A(17,18,19)           109.2703         estimate D2E/DX2                !
 ! A74   A(17,18,38)           109.4256         estimate D2E/DX2                !
 ! A75   A(17,18,39)           110.414          estimate D2E/DX2                !
 ! A76   A(19,18,38)           106.7283         estimate D2E/DX2                !
 ! A77   A(19,18,39)           111.9382         estimate D2E/DX2                !
 ! A78   A(38,18,39)           108.9725         estimate D2E/DX2                !
 ! A79   A(18,19,40)           105.7805         estimate D2E/DX2                !
 ! A80   A(15,20,44)           112.3294         estimate D2E/DX2                !
 ! A81   A(6,21,14)            132.9665         estimate D2E/DX2                !
 ! A82   A(13,22,41)            96.6855         estimate D2E/DX2                !
 ! A83   A(5,23,43)            104.1217         estimate D2E/DX2                !
 ! D1    D(45,1,2,3)           -68.6105         estimate D2E/DX2                !
 ! D2    D(45,1,2,8)           174.8559         estimate D2E/DX2                !
 ! D3    D(45,1,2,24)           54.3547         estimate D2E/DX2                !
 ! D4    D(1,2,3,4)             62.2123         estimate D2E/DX2                !
 ! D5    D(1,2,3,5)            -59.3488         estimate D2E/DX2                !
 ! D6    D(1,2,3,25)          -177.2527         estimate D2E/DX2                !
 ! D7    D(8,2,3,4)            179.1698         estimate D2E/DX2                !
 ! D8    D(8,2,3,5)             57.6087         estimate D2E/DX2                !
 ! D9    D(8,2,3,25)           -60.2952         estimate D2E/DX2                !
 ! D10   D(24,2,3,4)           -60.458          estimate D2E/DX2                !
 ! D11   D(24,2,3,5)           177.9809         estimate D2E/DX2                !
 ! D12   D(24,2,3,25)           60.077          estimate D2E/DX2                !
 ! D13   D(1,2,8,7)             52.0281         estimate D2E/DX2                !
 ! D14   D(1,2,8,9)            -66.7778         estimate D2E/DX2                !
 ! D15   D(1,2,8,29)           172.8338         estimate D2E/DX2                !
 ! D16   D(3,2,8,7)            -66.9606         estimate D2E/DX2                !
 ! D17   D(3,2,8,9)            174.2334         estimate D2E/DX2                !
 ! D18   D(3,2,8,29)            53.8451         estimate D2E/DX2                !
 ! D19   D(24,2,8,7)           172.4366         estimate D2E/DX2                !
 ! D20   D(24,2,8,9)            53.6307         estimate D2E/DX2                !
 ! D21   D(24,2,8,29)          -66.7577         estimate D2E/DX2                !
 ! D22   D(2,3,4,26)          -174.594          estimate D2E/DX2                !
 ! D23   D(5,3,4,26)           -53.8552         estimate D2E/DX2                !
 ! D24   D(25,3,4,26)           66.3585         estimate D2E/DX2                !
 ! D25   D(2,3,5,6)            -47.7909         estimate D2E/DX2                !
 ! D26   D(2,3,5,23)          -170.2783         estimate D2E/DX2                !
 ! D27   D(2,3,5,27)            71.4259         estimate D2E/DX2                !
 ! D28   D(4,3,5,6)           -168.6242         estimate D2E/DX2                !
 ! D29   D(4,3,5,23)            68.8883         estimate D2E/DX2                !
 ! D30   D(4,3,5,27)           -49.4074         estimate D2E/DX2                !
 ! D31   D(25,3,5,6)            69.9127         estimate D2E/DX2                !
 ! D32   D(25,3,5,23)          -52.5747         estimate D2E/DX2                !
 ! D33   D(25,3,5,27)         -170.8705         estimate D2E/DX2                !
 ! D34   D(3,5,6,7)             44.642          estimate D2E/DX2                !
 ! D35   D(3,5,6,21)          -168.8897         estimate D2E/DX2                !
 ! D36   D(3,5,6,28)           -77.0912         estimate D2E/DX2                !
 ! D37   D(23,5,6,7)           164.3601         estimate D2E/DX2                !
 ! D38   D(23,5,6,21)          -49.1716         estimate D2E/DX2                !
 ! D39   D(23,5,6,28)           42.6269         estimate D2E/DX2                !
 ! D40   D(27,5,6,7)           -73.4496         estimate D2E/DX2                !
 ! D41   D(27,5,6,21)           73.0187         estimate D2E/DX2                !
 ! D42   D(27,5,6,28)          164.8171         estimate D2E/DX2                !
 ! D43   D(3,5,23,43)         -158.8029         estimate D2E/DX2                !
 ! D44   D(6,5,23,43)           77.7696         estimate D2E/DX2                !
 ! D45   D(27,5,23,43)         -43.1962         estimate D2E/DX2                !
 ! D46   D(5,6,7,8)            -52.1652         estimate D2E/DX2                !
 ! D47   D(21,6,7,8)           158.9689         estimate D2E/DX2                !
 ! D48   D(28,6,7,8)            68.4374         estimate D2E/DX2                !
 ! D49   D(5,6,21,14)           94.6436         estimate D2E/DX2                !
 ! D50   D(7,6,21,14)         -119.5118         estimate D2E/DX2                !
 ! D51   D(28,6,21,14)         -11.3631         estimate D2E/DX2                !
 ! D52   D(6,7,8,2)             64.4501         estimate D2E/DX2                !
 ! D53   D(6,7,8,9)           -173.79           estimate D2E/DX2                !
 ! D54   D(6,7,8,29)           -55.3642         estimate D2E/DX2                !
 ! D55   D(2,8,9,10)           -54.6548         estimate D2E/DX2                !
 ! D56   D(2,8,9,30)            66.0306         estimate D2E/DX2                !
 ! D57   D(2,8,9,31)          -176.3256         estimate D2E/DX2                !
 ! D58   D(7,8,9,10)          -175.4609         estimate D2E/DX2                !
 ! D59   D(7,8,9,30)           -54.7754         estimate D2E/DX2                !
 ! D60   D(7,8,9,31)            62.8684         estimate D2E/DX2                !
 ! D61   D(29,8,9,10)           65.4058         estimate D2E/DX2                !
 ! D62   D(29,8,9,30)         -173.9087         estimate D2E/DX2                !
 ! D63   D(29,8,9,31)          -56.2649         estimate D2E/DX2                !
 ! D64   D(8,9,10,32)         -163.2281         estimate D2E/DX2                !
 ! D65   D(30,9,10,32)          78.1899         estimate D2E/DX2                !
 ! D66   D(31,9,10,32)         -44.2611         estimate D2E/DX2                !
 ! D67   D(42,11,12,13)        128.7628         estimate D2E/DX2                !
 ! D68   D(42,11,12,17)       -107.9722         estimate D2E/DX2                !
 ! D69   D(42,11,12,33)          7.7333         estimate D2E/DX2                !
 ! D70   D(11,12,13,14)        176.3514         estimate D2E/DX2                !
 ! D71   D(11,12,13,22)        -65.3021         estimate D2E/DX2                !
 ! D72   D(11,12,13,34)         57.533          estimate D2E/DX2                !
 ! D73   D(17,12,13,14)         54.3133         estimate D2E/DX2                !
 ! D74   D(17,12,13,22)        172.6598         estimate D2E/DX2                !
 ! D75   D(17,12,13,34)        -64.5051         estimate D2E/DX2                !
 ! D76   D(33,12,13,14)        -61.6788         estimate D2E/DX2                !
 ! D77   D(33,12,13,22)         56.6677         estimate D2E/DX2                !
 ! D78   D(33,12,13,34)        179.5028         estimate D2E/DX2                !
 ! D79   D(11,12,17,16)        174.4788         estimate D2E/DX2                !
 ! D80   D(11,12,17,18)         60.1162         estimate D2E/DX2                !
 ! D81   D(11,12,17,37)        -61.3888         estimate D2E/DX2                !
 ! D82   D(13,12,17,16)        -56.8252         estimate D2E/DX2                !
 ! D83   D(13,12,17,18)       -171.1878         estimate D2E/DX2                !
 ! D84   D(13,12,17,37)         67.3072         estimate D2E/DX2                !
 ! D85   D(33,12,17,16)         58.3715         estimate D2E/DX2                !
 ! D86   D(33,12,17,18)        -55.9911         estimate D2E/DX2                !
 ! D87   D(33,12,17,37)       -177.496          estimate D2E/DX2                !
 ! D88   D(12,13,14,15)        -53.4219         estimate D2E/DX2                !
 ! D89   D(12,13,14,21)       -176.4509         estimate D2E/DX2                !
 ! D90   D(12,13,14,35)         63.8335         estimate D2E/DX2                !
 ! D91   D(22,13,14,15)       -172.6912         estimate D2E/DX2                !
 ! D92   D(22,13,14,21)         64.2797         estimate D2E/DX2                !
 ! D93   D(22,13,14,35)        -55.4359         estimate D2E/DX2                !
 ! D94   D(34,13,14,15)         65.672          estimate D2E/DX2                !
 ! D95   D(34,13,14,21)        -57.3571         estimate D2E/DX2                !
 ! D96   D(34,13,14,35)       -177.0727         estimate D2E/DX2                !
 ! D97   D(12,13,22,41)         86.6909         estimate D2E/DX2                !
 ! D98   D(14,13,22,41)       -154.4774         estimate D2E/DX2                !
 ! D99   D(34,13,22,41)        -34.6614         estimate D2E/DX2                !
 ! D100  D(13,14,15,16)         53.2829         estimate D2E/DX2                !
 ! D101  D(13,14,15,20)        167.3766         estimate D2E/DX2                !
 ! D102  D(13,14,15,36)        -69.9356         estimate D2E/DX2                !
 ! D103  D(21,14,15,16)        172.6286         estimate D2E/DX2                !
 ! D104  D(21,14,15,20)        -73.2777         estimate D2E/DX2                !
 ! D105  D(21,14,15,36)         49.4101         estimate D2E/DX2                !
 ! D106  D(35,14,15,16)        -64.5208         estimate D2E/DX2                !
 ! D107  D(35,14,15,20)         49.5729         estimate D2E/DX2                !
 ! D108  D(35,14,15,36)        172.2607         estimate D2E/DX2                !
 ! D109  D(13,14,21,6)         177.1364         estimate D2E/DX2                !
 ! D110  D(15,14,21,6)          54.7061         estimate D2E/DX2                !
 ! D111  D(35,14,21,6)         -65.5524         estimate D2E/DX2                !
 ! D112  D(14,15,16,17)        -56.1112         estimate D2E/DX2                !
 ! D113  D(20,15,16,17)       -171.8035         estimate D2E/DX2                !
 ! D114  D(36,15,16,17)         66.5594         estimate D2E/DX2                !
 ! D115  D(14,15,20,44)        165.2577         estimate D2E/DX2                !
 ! D116  D(16,15,20,44)        -76.1928         estimate D2E/DX2                !
 ! D117  D(36,15,20,44)         44.2753         estimate D2E/DX2                !
 ! D118  D(15,16,17,12)         58.5553         estimate D2E/DX2                !
 ! D119  D(15,16,17,18)        179.3218         estimate D2E/DX2                !
 ! D120  D(15,16,17,37)        -63.4317         estimate D2E/DX2                !
 ! D121  D(12,17,18,19)         61.6471         estimate D2E/DX2                !
 ! D122  D(12,17,18,38)        178.1739         estimate D2E/DX2                !
 ! D123  D(12,17,18,39)        -61.8862         estimate D2E/DX2                !
 ! D124  D(16,17,18,19)        -58.2483         estimate D2E/DX2                !
 ! D125  D(16,17,18,38)         58.2786         estimate D2E/DX2                !
 ! D126  D(16,17,18,39)        178.2185         estimate D2E/DX2                !
 ! D127  D(37,17,18,19)       -177.4348         estimate D2E/DX2                !
 ! D128  D(37,17,18,38)        -60.908          estimate D2E/DX2                !
 ! D129  D(37,17,18,39)         59.0319         estimate D2E/DX2                !
 ! D130  D(17,18,19,40)        -80.519          estimate D2E/DX2                !
 ! D131  D(38,18,19,40)        161.2538         estimate D2E/DX2                !
 ! D132  D(39,18,19,40)         42.1077         estimate D2E/DX2                !
 --------------------------------------------------------------------------------
 Trust Radius=3.00D-01 FncErr=1.00D-07 GrdErr=1.00D-07 EigMax=2.50D+02 EigMin=1.00D-04
 Number of steps in this run=    270 maximum allowed number of steps=    270.
 GradGradGradGradGradGradGradGradGradGradGradGradGradGradGradGradGradGrad

 Leave Link  103 at Tue Jun 22 14:18:35 2021, MaxMem=  2147483648 cpu:               0.1 elap:               0.0
 (Enter /home/matma/Programs/gaussian/G16_x86_SSE4/tar/g16/l202.exe)
                          Input orientation:                          
 ---------------------------------------------------------------------
 Center     Atomic      Atomic             Coordinates (Angstroms)
 Number     Number       Type             X           Y           Z
 ---------------------------------------------------------------------
      1          8           0        2.661000    2.109000   -0.056000
      2          6           0        2.764000    2.782000    1.222000
      3          6           0        2.872000    1.758000    2.371000
      4          8           0        4.068000    0.978000    2.209000
      5          6           0        1.619000    0.848000    2.368000
      6          6           0        0.271000    1.661000    2.255000
      7          8           0        0.310000    2.703000    1.263000
      8          6           0        1.452000    3.570000    1.443000
      9          6           0        1.301000    4.725000    0.434000
     10          8           0        2.491000    5.522000    0.544000
     11          8           0       -5.503000   -0.428000    4.053000
     12          6           0       -4.196000    0.143000    4.310000
     13          6           0       -3.182000    0.210000    3.135000
     14          6           0       -1.901000    0.935000    3.615000
     15          6           0       -2.227000    2.317000    4.241000
     16          8           0       -3.212000    2.205000    5.273000
     17          6           0       -4.437000    1.588000    4.863000
     18          6           0       -5.257000    1.599000    6.162000
     19          8           0       -4.534000    0.878000    7.190000
     20          8           0       -1.060000    2.764000    4.905000
     21          8           0       -1.048000    1.038000    2.472000
     22          8           0       -2.821000   -1.119000    2.731000
     23          8           0        1.668000    0.084000    3.580000
     24          1           0        3.630000    3.467000    1.225000
     25          1           0        2.898000    2.316000    3.329000
     26          1           0        4.006000    0.293000    2.935000
     27          1           0        1.708000    0.189000    1.487000
     28          1           0        0.056000    2.101000    3.254000
     29          1           0        1.459000    3.985000    2.471000
     30          1           0        1.184000    4.296000   -0.580000
     31          1           0        0.384000    5.290000    0.681000
     32          1           0        2.266000    6.390000    0.110000
     33          1           0       -3.711000   -0.446000    5.109000
     34          1           0       -3.628000    0.787000    2.299000
     35          1           0       -1.439000    0.318000    4.414000
     36          1           0       -2.564000    3.022000    3.447000
     37          1           0       -4.964000    2.177000    4.088000
     38          1           0       -5.365000    2.635000    6.518000
     39          1           0       -6.258000    1.174000    5.988000
     40          1           0       -4.709000   -0.090000    7.017000
     41          1           0       -3.503000   -1.242000    2.153000
     42          1           0       -5.753000   -1.240000    4.832000
     43          1           0        1.086000   -0.708000    3.393000
     44          1           0       -1.100000    3.698000    5.124000
     45          1           0        3.470000    1.657000   -0.308000
 ---------------------------------------------------------------------
                    Distance matrix (angstroms):
                    1          2          3          4          5
     1  O    0.000000
     2  C    1.448041   0.000000
     3  C    2.461311   1.542868   0.000000
     4  O    2.896383   2.434954   1.437032   0.000000
     5  C    2.924322   2.522835   1.548586   2.457597   0.000000
     6  C    3.354627   2.922119   2.605392   3.858214   1.578240
     7  O    2.760398   2.455614   2.946953   4.241828   2.524981
     8  C    2.417272   1.546328   2.482122   3.761473   2.879722
     9  C    2.988839   2.556670   3.875964   4.984669   4.344262
    10  O    3.469506   2.835809   4.201284   5.089901   5.092508
    11  O    9.485312   9.309240   8.817502   9.847904   7.429016
    12  C    8.363346   8.058639   7.504970   8.567679   6.171111
    13  C    6.923101   6.754974   6.295309   7.349136   4.903563
    14  C    5.972132   5.558784   5.000639   6.132507   3.735369
    15  C    6.511530   5.851553   5.459779   6.748998   4.523031
    16  O    7.930926   7.242659   6.755477   7.993249   5.798192
    17  C    8.651567   8.157016   7.724017   8.930333   6.591492
    18  C   10.080593   9.494184   8.970931  10.147289   7.889095
    19  O   10.285325   9.617850   8.879527   9.940562   7.817416
    20  O    6.235895   5.309217   4.784748   6.062557   4.157459
    21  O    4.614597   4.374401   3.986854   5.123107   2.675781
    22  O    6.945479   6.977615   6.388817   7.219987   4.869749
    23  O    4.278688   3.747077   2.390308   2.904975   1.433541
    24  H    2.103351   1.104169   2.192843   2.712051   3.494243
    25  H    3.399595   2.162073   1.108965   2.100844   2.171264
    26  H    3.748728   3.266811   1.936563   1.000072   2.515409
    27  H    2.641109   2.812296   2.144321   2.591024   1.103795
    28  H    4.212148   3.453411   2.971059   4.295265   2.190428
    29  H    3.368963   2.170308   2.639337   3.989683   3.142766
    30  H    2.690553   2.834749   4.242545   5.206256   4.557262
    31  H    3.980786   3.499592   4.639102   5.873669   4.909436
    32  H    4.302388   3.808177   5.189873   6.078055   6.019214
    33  H    8.591137   8.213061   7.462583   8.423219   6.131592
    34  H    6.844358   6.782154   6.572520   7.698896   5.247808
    35  H    6.324443   5.824549   4.983189   5.968641   3.717308
    36  H    6.356509   5.778911   5.683799   7.049397   4.836115
    37  H    8.678593   8.264500   8.032842   9.302971   6.932570
    38  H   10.388014   9.703085   9.263634  10.502124   8.318180
    39  H   10.814468  10.329419   9.837715  10.997524   8.675126
    40  H   10.448915   9.883124   9.081409  10.064453   7.908010
    41  H    7.355527   7.505640   7.048982   7.889967   5.536173
    42  H   10.290954  10.087015   9.457016  10.404407   8.048442
    43  H    4.723528   4.439485   3.211765   3.624469   1.938002
    44  H    6.595638   5.567329   5.207628   6.527162   4.807390
    45  H    0.960359   2.026070   2.746788   2.674684   3.352858
                    6          7          8          9         10
     6  C    0.000000
     7  O    1.439218   0.000000
     8  C    2.387129   1.445079   0.000000
     9  C    3.710126   2.399543   1.541073   0.000000
    10  O    4.771084   3.635998   2.387054   1.436457   0.000000
    11  O    6.398109   7.167861   8.436120   9.270652  10.565019
    12  C    5.146012   6.011809   7.201661   8.138495   9.371892
    13  C    3.847468   4.681185   5.968787   6.912157   8.192286
    14  C    2.663505   3.680523   4.785752   5.893697   7.054167
    15  C    3.257996   3.931138   4.788930   5.721756   6.797011
    16  O    4.640641   5.360279   6.187489   7.080501   8.117274
    17  C    5.382588   6.061125   7.092605   7.898193   9.062411
    18  C    6.769585   7.497367   8.435904   9.251444  10.343276
    19  O    6.932196   7.869199   8.723937   9.720605  10.727846
    20  O    3.163964   3.891630   4.352611   5.423070   6.263744
    21  O    1.474781   2.465374   3.704034   4.823403   6.028927
    22  O    4.185145   5.154209   6.473345   7.511287   8.780842
    23  O    2.488808   3.751242   4.094584   5.618798   6.282234
    24  H    3.950369   3.406984   2.191305   2.762695   2.446243
    25  H    2.912667   3.334047   2.687085   4.090809   4.266182
    26  H    4.035350   4.718485   4.414489   5.763215   5.945969
    27  H    2.195809   2.885269   3.390963   4.674372   5.472040
    28  H    1.112576   2.095472   2.717811   4.048185   4.997656
    29  H    2.618965   2.103090   1.108629   2.173001   2.672213
    30  H    3.976684   2.588083   2.165971   1.107215   2.115349
    31  H    3.957257   2.652691   2.163254   1.105044   2.124157
    32  H    5.562777   4.330048   3.223645   1.951519   0.996195
    33  H    5.333019   6.393462   7.498292   8.585745   9.742744
    34  H    3.996000   4.500244   5.855273   6.578838   7.933625
    35  H    3.064152   4.321577   5.268797   6.539851   7.583101
    36  H    3.363095   3.623740   4.521568   5.188121   6.342747
    37  H    5.570581   6.006028   7.078243   7.687278   8.906514
    38  H    7.133466   7.734680   8.549932   9.263839  10.283004
    39  H    7.536597   8.234202   9.265093  10.029706  11.184241
    40  H    7.109363   8.130174   9.078711  10.131151  11.190812
    41  H    4.762446   5.558246   6.943448   7.851017   9.179794
    42  H    7.165564   8.065047   9.302336  10.231449  11.492394
    43  H    2.751623   4.095607   4.715691   6.190266   6.993120
    44  H    3.776264   4.229119   4.480943   5.368019   6.099070
    45  H    4.099096   3.680728   3.286015   3.829850   4.077079
                   11         12         13         14         15
    11  O    0.000000
    12  C    1.449255   0.000000
    13  C    2.576200   1.553483   0.000000
    14  C    3.876083   2.525334   1.548220   0.000000
    15  C    4.278147   2.933939   2.564120   1.551798   0.000000
    16  O    3.697265   2.479409   2.924375   2.465884   1.431011
    17  C    2.420064   1.565859   2.541632   2.900898   2.408822
    18  C    2.935494   2.583711   3.923987   4.265072   3.658779
    19  O    3.533464   2.991466   4.326333   4.440334   4.011181
    20  O    5.536697   4.130153   3.762805   2.390946   1.415130
    21  O    4.949317   3.753555   2.383088   1.429919   2.480976
    22  O    3.068923   2.444690   1.435193   2.418010   3.799873
    23  O    7.204798   5.909558   4.872002   3.669222   4.538087
    24  H   10.323773   9.045025   7.788420   6.535678   6.687541
    25  H    8.867385   7.483925   6.437334   5.001935   5.205513
    26  H    9.601606   8.317808   7.191261   5.980570   6.682253
    27  H    7.678774   6.544361   5.160276   4.255559   5.253297
    28  H    6.159279   4.798792   3.751624   2.306453   2.496580
    29  H    8.393255   7.079683   6.019170   4.679833   4.416075
    30  H    9.407276   8.372808   7.039785   6.197707   6.228435
    31  H    8.872580   7.787018   6.674194   5.726745   5.322560
    32  H   11.062989   9.920809   8.776316   7.707525   7.337679
    33  H    2.080078   1.104784   2.146358   2.723104   3.254205
    34  H    2.840487   2.186660   1.109388   2.176302   2.841666
    35  H    4.147642   2.764505   2.164614   1.110195   2.155661
    36  H    4.572467   3.420063   2.895965   2.196215   1.114015
    37  H    2.660408   2.185467   2.820075   3.338901   2.744846
    38  H    3.934112   3.528723   4.700085   4.828737   3.890102
    39  H    2.623100   2.851401   4.304728   4.967061   4.539540
    40  H    3.087066   2.765015   4.182302   4.528697   4.433977
    41  H    2.876212   2.655395   1.782041   3.072975   4.319074
    42  H    1.152686   2.146956   3.404754   4.587986   5.043234
    43  H    6.627890   5.428132   4.373227   3.416270   4.565709
    44  H    6.128403   4.783914   4.522940   3.248515   1.989216
    45  H   10.192167   9.076656   7.628706   6.690206   7.320165
                   16         17         18         19         20
    16  O    0.000000
    17  C    1.431577   0.000000
    18  C    2.310754   1.536204   0.000000
    19  O    2.680206   2.434838   1.448915   0.000000
    20  O    2.253666   3.576153   4.533441   4.565840   0.000000
    21  O    3.726981   4.183862   5.625522   5.868332   2.983070
    22  O    4.202811   3.805881   5.009329   5.177360   4.785926
    23  O    5.583842   6.417097   7.544374   7.219927   4.047222
    24  H    8.049342   9.046666  10.336448  10.437195   6.002725
    25  H    6.412765   7.528968   8.662794   8.497634   4.283718
    26  H    7.824418   8.756624   9.895571   9.559229   5.970854
    27  H    6.527209   7.149518   8.506171   8.483012   5.096584
    28  H    3.842786   4.799906   6.077535   6.168948   2.100197
    29  H    5.730431   6.799271   8.026278   8.236411   3.709523
    30  H    7.612799   8.279804   9.706434  10.234801   6.121093
    31  H    6.598099   7.378074   8.688252   9.274672   5.129131
    32  H    8.612739   9.517375  10.778493  11.258266   6.870384
    33  H    2.702535   2.173649   2.771453   2.600167   4.168155
    34  H    3.320912   2.805384   4.270334   4.975037   4.158652
    35  H    2.728036   3.286716   4.390170   4.195092   2.523418
    36  H    2.102776   2.751280   4.080245   4.742118   2.110532
    37  H    2.115304   1.106921   2.172880   3.390384   4.031535
    38  H    2.523952   2.167122   1.100771   2.056500   4.599069
    39  H    3.294283   2.180152   1.101318   2.122403   5.542580
    40  H    3.248010   2.743972   1.970799   0.998788   5.091273
    41  H    4.658421   4.028071   5.217267   5.561360   5.439650
    42  H    4.303392   3.119359   3.174088   3.395887   6.169408
    43  H    5.522026   6.159224   7.295427   6.965415   4.352728
    44  H    2.590713   3.956740   4.771152   4.900318   0.960165
    45  H    8.723359   9.447997  10.863922  10.995038   6.994406
                   21         22         23         24         25
    21  O    0.000000
    22  O    2.804150   0.000000
    23  O    3.084548   4.724313   0.000000
    24  H    5.416524   8.056974   4.565102   0.000000
    25  H    4.235404   6.698044   2.560806   2.507477   0.000000
    26  H    5.129553   6.974474   2.434327   3.624880   2.339963
    27  H    3.047386   4.875473   2.096014   3.808938   3.055027
    28  H    1.720555   4.349604   2.602520   4.330851   2.851108
    29  H    3.869090   6.666095   4.060956   2.556185   2.364835
    30  H    4.991101   7.504996   5.939764   3.150902   4.705154
    31  H    4.830922   7.453174   6.095514   3.762417   4.709222
    32  H    6.723507   9.440990   7.222475   3.412865   5.230570
    33  H    4.030830   2.626769   5.617151   9.180812   7.380781
    34  H    2.597947   2.114405   5.493886   7.811174   6.781402
    35  H    2.107758   2.609096   3.225486   6.766142   4.896815
    36  H    2.680511   4.210295   5.153577   6.595525   5.508703
    37  H    4.386779   4.159028   6.972958   9.149738   7.899775
    38  H    6.128378   5.908115   8.037570  10.469866   8.862768
    39  H    6.286879   5.261071   8.355121  11.212340   9.602436
    40  H    5.944100   4.795121   7.246335  10.758180   8.789575
    41  H    3.365589   0.902406   5.525744   8.597416   7.417219
    42  H    5.735496   3.609081   7.641448  11.099864   9.473328
    43  H    2.907011   3.983945   1.000478   5.348157   3.525906
    44  H    3.756515   5.647281   4.806949   6.134204   4.595210
    45  H    5.340776   7.517871   4.564874   2.377349   3.740218
                   26         27         28         29         30
    26  H    0.000000
    27  H    2.718147   0.000000
    28  H    4.355815   3.083365   0.000000
    29  H    4.509254   3.929360   2.476076   0.000000
    30  H    6.028509   4.627582   4.559601   3.079115   0.000000
    31  H    6.570343   5.331305   4.110673   2.462265   1.793922
    32  H    6.941299   6.376511   5.758850   3.465486   2.455944
    33  H    8.051365   6.548868   4.911061   7.302171   8.877630
    34  H    7.676359   5.430455   4.026224   6.011186   6.614912
    35  H    5.642348   4.299718   2.599945   5.061674   6.902510
    36  H    7.132635   5.487939   2.783862   4.250232   5.646885
    37  H    9.237952   7.431886   5.089374   6.865747   8.004892
    38  H   10.302354   9.017827   6.350283   8.047837   9.799486
    39  H   10.744611   9.202520   6.942671   8.934377  10.405233
    40  H    9.631232   8.475649   6.454911   8.678477  10.567822
    41  H    7.704079   5.444799   5.005430   7.214159   7.752851
    42  H   10.059164   8.300457   6.884537   9.213462  10.395144
    43  H    3.120603   2.196436   2.995113   4.797235   6.390176
    44  H    6.515902   5.781498   2.717286   3.697196   6.173320
    45  H    3.558770   2.912335   4.953824   4.145666   3.502014
                   31         32         33         34         35
    31  H    0.000000
    32  H    2.253434   0.000000
    33  H    8.323335  10.365589   0.000000
    34  H    6.244284   8.421672   3.069736   0.000000
    35  H    6.479151   8.313881   2.495737   3.079758   0.000000
    36  H    4.635222   6.768153   4.013088   2.728594   3.084207
    37  H    7.063959   9.265352   3.081003   2.630117   3.998472
    38  H    8.612235  10.648692   3.770087   4.922625   5.020835
    39  H    9.445733  11.593796   3.143923   4.547020   5.141301
    40  H    9.748228  11.762129   2.182477   4.919066   4.199402
    41  H    7.742259   9.782772   3.068357   2.038083   3.435959
    42  H    9.875954  12.034058   2.208377   3.878201   4.605723
    43  H    6.619951   7.908988   5.101422   5.064944   2.910454
    44  H    4.947420   6.611884   4.897988   4.779679   3.470363
    45  H    4.868286   4.901595   9.237600   7.611501   6.941793
                   36         37         38         39         40
    36  H    0.000000
    37  H    2.623910   0.000000
    38  H    4.174495   2.505088   0.000000
    39  H    4.849476   2.508076   1.792448   0.000000
    40  H    5.199083   3.712594   2.846921   2.248541   0.000000
    41  H    4.553883   4.191456   6.127920   5.304178   5.141988
    42  H    5.500235   3.584961   4.243674   2.723740   2.680795
    43  H    5.219034   6.738601   7.909278   8.013132   6.862749
    44  H    2.326500   4.279864   4.611229   5.807068   5.563926
    45  H    7.236878   9.525102  11.207497  11.597711  11.117719
                   41         42         43         44         45
    41  H    0.000000
    42  H    3.498506   0.000000
    43  H    4.783480   7.008970   0.000000
    44  H    6.245386   6.791135   5.214192   0.000000
    45  H    7.942509  10.948787   4.997408   7.386285   0.000000
 Stoichiometry    C12H22O11
 Framework group  C1[X(C12H22O11)]
 Deg. of freedom   129
 Full point group                 C1      NOp   1
 Largest Abelian subgroup         C1      NOp   1
 Largest concise Abelian subgroup C1      NOp   1
                         Standard orientation:                         
 ---------------------------------------------------------------------
 Center     Atomic      Atomic             Coordinates (Angstroms)
 Number     Number       Type             X           Y           Z
 ---------------------------------------------------------------------
      1          8           0        4.494150   -0.639894   -1.125058
      2          6           0        4.148832   -0.003600    0.129019
      3          6           0        3.425615   -0.995654    1.063485
      4          8           0        4.303475   -2.089912    1.374967
      5          6           0        2.136724   -1.505781    0.373088
      6          6           0        1.270570   -0.340774   -0.246088
      7          8           0        2.047317    0.628801   -0.972681
      8          6           0        3.147566    1.132752   -0.182911
      9          6           0        3.802323    2.264993   -0.997916
     10          8           0        4.957887    2.686904   -0.256247
     11          8           0       -4.980461   -0.646045   -1.575456
     12          6           0       -3.855571   -0.471742   -0.678471
     13          6           0       -2.427576   -0.719774   -1.237594
     14          6           0       -1.390323   -0.386759   -0.137506
     15          6           0       -1.600706    1.040949    0.432990
     16          8           0       -2.948103    1.235117    0.874141
     17          6           0       -3.943379    0.990546   -0.125371
     18          6           0       -5.246995    1.259437    0.641575
     19          8           0       -5.316895    0.378160    1.789538
     20          8           0       -0.819351    1.143781    1.608364
     21          8           0       -0.103378   -0.553375   -0.738070
     22          8           0       -2.279506   -2.103067   -1.590231
     23          8           0        1.401929   -2.230836    1.367781
     24          1           0        5.053846    0.402659    0.613881
     25          1           0        3.137728   -0.452688    1.986584
     26          1           0        3.727180   -2.715569    1.900879
     27          1           0        2.458205   -2.177289   -0.441829
     28          1           0        0.729912    0.159378    0.587796
     29          1           0        2.773067    1.545471    0.775458
     30          1           0        4.074106    1.870813   -1.996256
     31          1           0        3.062226    3.074428   -1.132794
     32          1           0        5.202071    3.575437   -0.634781
     33          1           0       -3.982009   -1.161918    0.174885
     34          1           0       -2.253920   -0.052954   -2.107040
     35          1           0       -1.543398   -1.097113    0.701838
     36          1           0       -1.322013    1.799610   -0.333687
     37          1           0       -3.863634    1.693235   -0.976925
     38          1           0       -5.236282    2.288472    1.032303
     39          1           0       -6.116158    1.138120   -0.023811
     40          1           0       -5.634579   -0.501099    1.438030
     41          1           0       -2.609688   -2.034038   -2.427221
     42          1           0       -5.773065   -1.338205   -1.104948
     43          1           0        0.795010   -2.824515    0.838488
     44          1           0       -0.713027    2.053239    1.897323
     45          1           0        5.175432   -1.310098   -1.030342
 ---------------------------------------------------------------------
 Rotational constants (GHZ):           0.4844936           0.1138904           0.1073726
 Leave Link  202 at Tue Jun 22 14:18:35 2021, MaxMem=  2147483648 cpu:               0.0 elap:               0.0
 (Enter /home/matma/Programs/gaussian/G16_x86_SSE4/tar/g16/l301.exe)
 Standard basis: VSTO-6G (5D, 7F)
 Ernie: Thresh=  0.10000D-02 Tol=  0.10000D-05 Strict=F.
  NNHCO=     0 NNPyr=     0 NCTC=     0               EPep=         0.000000000
    EC=      1130.559709594  ECS=         8.962768614   EG=         0.750981203
   EHC=         0.003240495  EAt=      -175.965002454  AtH=         6.138669069
 EPDDG=         0.000000000  ECC=      1140.276699906 EAtT=       182.103671523
 There are   114 symmetry adapted cartesian basis functions of A   symmetry.
 There are   114 symmetry adapted basis functions of A   symmetry.
   114 basis functions,   684 primitive gaussians,   114 cartesian basis functions
    68 alpha electrons       68 beta electrons
       nuclear repulsion energy      1322.3803714289 Hartrees.
 IExCor=    0 DFT=F Ex=HF Corr=None ExCW=0 ScaHFX=  1.000000
 ScaDFX=  1.000000  1.000000  1.000000  1.000000 ScalE2=  1.000000  1.000000
 IRadAn=  99590 IRanWt=     -1 IRanGd=            0 ICorTp=0 IEmpDi=  4
 Integral buffers will be    131072 words long.
 Regular integral format.
 Two-electron integral symmetry is turned off.
 Leave Link  301 at Tue Jun 22 14:18:35 2021, MaxMem=  2147483648 cpu:               0.2 elap:               0.0
 (Enter /home/matma/Programs/gaussian/G16_x86_SSE4/tar/g16/l302.exe)
 Do NDO integrals.
 NPDir=0 NMtPBC=     1 NCelOv=     1 NCel=       1 NClECP=     1 NCelD=      1
         NCelK=      1 NCelE2=     1 NClLst=     1 CellRange=     0.0.
 One-electron integrals computed using PRISM.
 NBasis=   114 RedAO= F EigKep=  0.00D+00  NBF=   114
 NBsUse=   114 1.00D-04 EigRej=  0.00D+00 NBFU=   114
 Leave Link  302 at Tue Jun 22 14:18:35 2021, MaxMem=  2147483648 cpu:               0.6 elap:               0.0
 (Enter /home/matma/Programs/gaussian/G16_x86_SSE4/tar/g16/l303.exe)
 DipDrv:  MaxL=1.
 Leave Link  303 at Tue Jun 22 14:18:35 2021, MaxMem=  2147483648 cpu:               0.1 elap:               0.0
 (Enter /home/matma/Programs/gaussian/G16_x86_SSE4/tar/g16/l401.exe)
 Simple Huckel Guess.
 JPrj=0 DoOrth=F DoCkMO=F.
 Leave Link  401 at Tue Jun 22 14:18:35 2021, MaxMem=  2147483648 cpu:               0.2 elap:               0.0
 (Enter /home/matma/Programs/gaussian/G16_x86_SSE4/tar/g16/l502.exe)
 Keep J ints in memory in canonical form, NReq=892272.
 FoFCou: FMM=F IPFlag=           0 FMFlag=           0 FMFlg1=           0
         NFxFlg=           0 DoJE=F BraDBF=F KetDBF=F FulRan=T
         wScrn=  0.000000 ICntrl=       600 IOpCl=  2 I1Cent=           0 NGrid=           0
         NMat0=    1 NMatS0=    252 NMatT0=    0 NMatD0=    1 NMtDS0=    0 NMtDT0=    0
 Symmetry not used in FoFCou.
 Two-electron integral symmetry not used.
 Closed shell SCF:
 Using DIIS extrapolation, IDIIS=  1040.
 Overlap will be assumed to be unity.
 NGot=  2147483648 LenX=  2147363403 LenY=  2147349966
 Requested convergence on RMS density matrix=1.00D-08 within 128 cycles.
 Requested convergence on MAX density matrix=1.00D-06.
 Requested convergence on             energy=1.00D-06.
 No special actions if energy rises.

 Cycle   1  Pass 1  IDiag  1:
 E= 0.578973240046253    
 DIIS: error= 5.54D-02 at cycle   1 NSaved=   1.
 NSaved= 1 IEnMin= 1 EnMin= 0.578973240046253     IErMin= 1 ErrMin= 5.54D-02
 ErrMax= 5.54D-02  0.00D+00 EMaxC= 1.00D-01 BMatC= 3.06D-01 BMatP= 3.06D-01
 IDIUse=3 WtCom= 4.46D-01 WtEn= 5.54D-01
 Coeff-Com:  0.100D+01
 Coeff-En:   0.100D+01
 Coeff:      0.100D+01
 GapD=    2.000 DampG=2.000 DampE=0.500 DampFc=1.0000 IDamp=-1.
 RMSDP=8.06D-03 MaxDP=1.24D-01              OVMax= 0.00D+00

 Cycle   2  Pass 1  IDiag  1:
 E=-0.390354519664243     Delta-E=       -0.969327759710 Rises=F Damp=F
 DIIS: error= 1.69D-02 at cycle   2 NSaved=   2.
 NSaved= 2 IEnMin= 2 EnMin=-0.390354519664243     IErMin= 2 ErrMin= 1.69D-02
 ErrMax= 1.69D-02  0.00D+00 EMaxC= 1.00D-01 BMatC= 4.61D-02 BMatP= 3.06D-01
 IDIUse=3 WtCom= 8.31D-01 WtEn= 1.69D-01
 Coeff-Com: -0.440D+00 0.144D+01
 Coeff-En:   0.000D+00 0.100D+01
 Coeff:     -0.366D+00 0.137D+01
 RMSDP=4.85D-03 MaxDP=6.63D-02 DE=-9.69D-01 OVMax= 0.00D+00

 Cycle   3  Pass 1  IDiag  3:
 E=-0.603244726477669     Delta-E=       -0.212890206813 Rises=F Damp=F
 DIIS: error= 5.89D-03 at cycle   3 NSaved=   3.
 NSaved= 3 IEnMin= 3 EnMin=-0.603244726477669     IErMin= 3 ErrMin= 5.89D-03
 ErrMax= 5.89D-03  0.00D+00 EMaxC= 1.00D-01 BMatC= 4.91D-03 BMatP= 4.61D-02
 IDIUse=3 WtCom= 9.41D-01 WtEn= 5.89D-02
 Coeff-Com:  0.243D+00-0.100D+01 0.176D+01
 Coeff-En:   0.000D+00 0.000D+00 0.100D+01
 Coeff:      0.229D+00-0.946D+00 0.172D+01
 Gap=     0.346 Goal=   None    Shift=    0.000
 RMSDP=2.48D-03 MaxDP=4.29D-02 DE=-2.13D-01 OVMax= 2.75D-02

 Cycle   4  Pass 1  IDiag  3:
 E=-0.635678691044177     Delta-E=       -0.032433964567 Rises=F Damp=F
 DIIS: error= 1.19D-03 at cycle   4 NSaved=   4.
 NSaved= 4 IEnMin= 4 EnMin=-0.635678691044177     IErMin= 4 ErrMin= 1.19D-03
 ErrMax= 1.19D-03  0.00D+00 EMaxC= 1.00D-01 BMatC= 2.30D-04 BMatP= 4.91D-03
 IDIUse=3 WtCom= 9.88D-01 WtEn= 1.19D-02
 Coeff-Com: -0.554D-01 0.262D+00-0.647D+00 0.144D+01
 Coeff-En:   0.000D+00 0.000D+00 0.000D+00 0.100D+01
 Coeff:     -0.547D-01 0.259D+00-0.640D+00 0.144D+01
 Gap=     0.347 Goal=   None    Shift=    0.000
 RMSDP=6.12D-04 MaxDP=1.28D-02 DE=-3.24D-02 OVMax= 1.40D-02

 Cycle   5  Pass 1  IDiag  3:
 E=-0.637418781014048     Delta-E=       -0.001740089970 Rises=F Damp=F
 DIIS: error= 4.94D-04 at cycle   5 NSaved=   5.
 NSaved= 5 IEnMin= 5 EnMin=-0.637418781014048     IErMin= 5 ErrMin= 4.94D-04
 ErrMax= 4.94D-04  0.00D+00 EMaxC= 1.00D-01 BMatC= 2.07D-05 BMatP= 2.30D-04
 IDIUse=3 WtCom= 9.95D-01 WtEn= 4.94D-03
 Coeff-Com:  0.998D-02-0.500D-01 0.161D+00-0.598D+00 0.148D+01
 Coeff-En:   0.000D+00 0.000D+00 0.000D+00 0.000D+00 0.100D+01
 Coeff:      0.993D-02-0.497D-01 0.161D+00-0.595D+00 0.147D+01
 Gap=     0.347 Goal=   None    Shift=    0.000
 RMSDP=1.95D-04 MaxDP=5.58D-03 DE=-1.74D-03 OVMax= 7.14D-03

 Cycle   6  Pass 1  IDiag  3:
 E=-0.637601406290060     Delta-E=       -0.000182625276 Rises=F Damp=F
 DIIS: error= 2.57D-04 at cycle   6 NSaved=   6.
 NSaved= 6 IEnMin= 6 EnMin=-0.637601406290060     IErMin= 6 ErrMin= 2.57D-04
 ErrMax= 2.57D-04  0.00D+00 EMaxC= 1.00D-01 BMatC= 3.64D-06 BMatP= 2.07D-05
 IDIUse=3 WtCom= 9.97D-01 WtEn= 2.57D-03
 Coeff-Com:  0.673D-03-0.618D-03-0.222D-01 0.184D+00-0.863D+00 0.170D+01
 Coeff-En:   0.000D+00 0.000D+00 0.000D+00 0.000D+00 0.000D+00 0.100D+01
 Coeff:      0.671D-03-0.616D-03-0.221D-01 0.183D+00-0.861D+00 0.170D+01
 Gap=     0.346 Goal=   None    Shift=    0.000
 RMSDP=1.08D-04 MaxDP=3.49D-03 DE=-1.83D-04 OVMax= 5.03D-03

 Cycle   7  Pass 1  IDiag  3:
 E=-0.637642187231677     Delta-E=       -0.000040780942 Rises=F Damp=F
 DIIS: error= 9.43D-05 at cycle   7 NSaved=   7.
 NSaved= 7 IEnMin= 7 EnMin=-0.637642187231677     IErMin= 7 ErrMin= 9.43D-05
 ErrMax= 9.43D-05  0.00D+00 EMaxC= 1.00D-01 BMatC= 6.12D-07 BMatP= 3.64D-06
 IDIUse=1 WtCom= 1.00D+00 WtEn= 0.00D+00
 Coeff-Com: -0.848D-03 0.373D-02-0.537D-02-0.690D-02 0.143D+00-0.631D+00
 Coeff-Com:  0.150D+01
 Coeff:     -0.848D-03 0.373D-02-0.537D-02-0.690D-02 0.143D+00-0.631D+00
 Coeff:      0.150D+01
 Gap=     0.346 Goal=   None    Shift=    0.000
 RMSDP=4.33D-05 MaxDP=1.41D-03 DE=-4.08D-05 OVMax= 2.26D-03

 Cycle   8  Pass 1  IDiag  3:
 E=-0.637648609937969     Delta-E=       -0.000006422706 Rises=F Damp=F
 DIIS: error= 3.49D-05 at cycle   8 NSaved=   8.
 NSaved= 8 IEnMin= 8 EnMin=-0.637648609937969     IErMin= 8 ErrMin= 3.49D-05
 ErrMax= 3.49D-05  0.00D+00 EMaxC= 1.00D-01 BMatC= 1.07D-07 BMatP= 6.12D-07
 IDIUse=1 WtCom= 1.00D+00 WtEn= 0.00D+00
 Coeff-Com: -0.163D-03 0.578D-03-0.686D-03-0.286D-02 0.239D-01-0.271D-01
 Coeff-Com: -0.387D+00 0.139D+01
 Coeff:     -0.163D-03 0.578D-03-0.686D-03-0.286D-02 0.239D-01-0.271D-01
 Coeff:     -0.387D+00 0.139D+01
 Gap=     0.346 Goal=   None    Shift=    0.000
 RMSDP=1.83D-05 MaxDP=5.50D-04 DE=-6.42D-06 OVMax= 9.98D-04

 Cycle   9  Pass 1  IDiag  3:
 E=-0.637649646909495     Delta-E=       -0.000001036972 Rises=F Damp=F
 DIIS: error= 1.18D-05 at cycle   9 NSaved=   9.
 NSaved= 9 IEnMin= 9 EnMin=-0.637649646909495     IErMin= 9 ErrMin= 1.18D-05
 ErrMax= 1.18D-05  0.00D+00 EMaxC= 1.00D-01 BMatC= 1.60D-08 BMatP= 1.07D-07
 IDIUse=1 WtCom= 1.00D+00 WtEn= 0.00D+00
 Coeff-Com:  0.618D-05 0.490D-05 0.594D-04-0.585D-03 0.136D-02 0.126D-01
 Coeff-Com: -0.245D-01-0.306D+00 0.132D+01
 Coeff:      0.618D-05 0.490D-05 0.594D-04-0.585D-03 0.136D-02 0.126D-01
 Coeff:     -0.245D-01-0.306D+00 0.132D+01
 Gap=     0.346 Goal=   None    Shift=    0.000
 RMSDP=5.99D-06 MaxDP=1.39D-04 DE=-1.04D-06 OVMax= 3.25D-04

 Cycle  10  Pass 1  IDiag  3:
 E=-0.637649774877446     Delta-E=       -0.000000127968 Rises=F Damp=F
 DIIS: error= 6.13D-06 at cycle  10 NSaved=  10.
 NSaved=10 IEnMin=10 EnMin=-0.637649774877446     IErMin=10 ErrMin= 6.13D-06
 ErrMax= 6.13D-06  0.00D+00 EMaxC= 1.00D-01 BMatC= 2.35D-09 BMatP= 1.60D-08
 IDIUse=1 WtCom= 1.00D+00 WtEn= 0.00D+00
 Coeff-Com:  0.228D-04-0.917D-04 0.129D-03 0.594D-04-0.164D-02 0.351D-02
 Coeff-Com:  0.130D-01-0.146D-01-0.364D+00 0.136D+01
 Coeff:      0.228D-04-0.917D-04 0.129D-03 0.594D-04-0.164D-02 0.351D-02
 Coeff:      0.130D-01-0.146D-01-0.364D+00 0.136D+01
 Gap=     0.346 Goal=   None    Shift=    0.000
 RMSDP=2.01D-06 MaxDP=3.75D-05 DE=-1.28D-07 OVMax= 9.66D-05

 Cycle  11  Pass 1  IDiag  3:
 E=-0.637649792330421     Delta-E=       -0.000000017453 Rises=F Damp=F
 DIIS: error= 2.48D-06 at cycle  11 NSaved=  11.
 NSaved=11 IEnMin=11 EnMin=-0.637649792330421     IErMin=11 ErrMin= 2.48D-06
 ErrMax= 2.48D-06  0.00D+00 EMaxC= 1.00D-01 BMatC= 3.12D-10 BMatP= 2.35D-09
 IDIUse=1 WtCom= 1.00D+00 WtEn= 0.00D+00
 Coeff-Com:  0.547D-05-0.224D-04 0.498D-04-0.639D-04-0.206D-03 0.798D-03
 Coeff-Com: -0.104D-02 0.617D-02 0.306D-01-0.461D+00 0.143D+01
 Coeff:      0.547D-05-0.224D-04 0.498D-04-0.639D-04-0.206D-03 0.798D-03
 Coeff:     -0.104D-02 0.617D-02 0.306D-01-0.461D+00 0.143D+01
 Gap=     0.346 Goal=   None    Shift=    0.000
 RMSDP=7.33D-07 MaxDP=1.72D-05 DE=-1.75D-08 OVMax= 2.65D-05

 Cycle  12  Pass 1  IDiag  3:
 E=-0.637649794754452     Delta-E=       -0.000000002424 Rises=F Damp=F
 DIIS: error= 7.22D-07 at cycle  12 NSaved=  12.
 NSaved=12 IEnMin=12 EnMin=-0.637649794754452     IErMin=12 ErrMin= 7.22D-07
 ErrMax= 7.22D-07  0.00D+00 EMaxC= 1.00D-01 BMatC= 3.34D-11 BMatP= 3.12D-10
 IDIUse=1 WtCom= 1.00D+00 WtEn= 0.00D+00
 Coeff-Com:  0.201D-07-0.389D-07-0.209D-05 0.532D-05 0.431D-04-0.247D-03
 Coeff-Com:  0.207D-03-0.323D-03-0.326D-02 0.863D-01-0.553D+00 0.147D+01
 Coeff:      0.201D-07-0.389D-07-0.209D-05 0.532D-05 0.431D-04-0.247D-03
 Coeff:      0.207D-03-0.323D-03-0.326D-02 0.863D-01-0.553D+00 0.147D+01
 Gap=     0.346 Goal=   None    Shift=    0.000
 RMSDP=2.52D-07 MaxDP=6.12D-06 DE=-2.42D-09 OVMax= 6.93D-06

 Cycle  13  Pass 1  IDiag  3:
 E=-0.637649794999106     Delta-E=       -0.000000000245 Rises=F Damp=F
 DIIS: error= 2.08D-07 at cycle  13 NSaved=  13.
 NSaved=13 IEnMin=13 EnMin=-0.637649794999106     IErMin=13 ErrMin= 2.08D-07
 ErrMax= 2.08D-07  0.00D+00 EMaxC= 1.00D-01 BMatC= 2.92D-12 BMatP= 3.34D-11
 IDIUse=1 WtCom= 1.00D+00 WtEn= 0.00D+00
 Coeff-Com: -0.471D-06 0.188D-05-0.254D-05 0.975D-06 0.282D-05 0.131D-05
 Coeff-Com: -0.105D-03 0.323D-03 0.956D-03-0.173D-01 0.139D+00-0.612D+00
 Coeff-Com:  0.149D+01
 Coeff:     -0.471D-06 0.188D-05-0.254D-05 0.975D-06 0.282D-05 0.131D-05
 Coeff:     -0.105D-03 0.323D-03 0.956D-03-0.173D-01 0.139D+00-0.612D+00
 Coeff:      0.149D+01
 Gap=     0.346 Goal=   None    Shift=    0.000
 RMSDP=7.12D-08 MaxDP=1.69D-06 DE=-2.45D-10 OVMax= 1.17D-06

 Cycle  14  Pass 1  IDiag  3:
 E=-0.637649795035486     Delta-E=       -0.000000000036 Rises=F Damp=F
 DIIS: error= 6.64D-08 at cycle  14 NSaved=  14.
 NSaved=14 IEnMin=14 EnMin=-0.637649795035486     IErMin=14 ErrMin= 6.64D-08
 ErrMax= 6.64D-08  0.00D+00 EMaxC= 1.00D-01 BMatC= 2.58D-13 BMatP= 2.92D-12
 IDIUse=1 WtCom= 1.00D+00 WtEn= 0.00D+00
 Coeff-Com:  0.281D-07-0.126D-06-0.287D-06 0.260D-05-0.690D-05 0.970D-05
 Coeff-Com:  0.286D-04-0.124D-03-0.205D-03 0.542D-02-0.394D-01 0.201D+00
 Coeff-Com: -0.728D+00 0.156D+01
 Coeff:      0.281D-07-0.126D-06-0.287D-06 0.260D-05-0.690D-05 0.970D-05
 Coeff:      0.286D-04-0.124D-03-0.205D-03 0.542D-02-0.394D-01 0.201D+00
 Coeff:     -0.728D+00 0.156D+01
 Gap=     0.346 Goal=   None    Shift=    0.000
 RMSDP=2.05D-08 MaxDP=4.92D-07 DE=-3.64D-11 OVMax= 2.51D-07

 Cycle  15  Pass 1  IDiag  3:
 E=-0.637649795035713     Delta-E=       -0.000000000000 Rises=F Damp=F
 DIIS: error= 1.69D-08 at cycle  15 NSaved=  15.
 NSaved=15 IEnMin=15 EnMin=-0.637649795035713     IErMin=15 ErrMin= 1.69D-08
 ErrMax= 1.69D-08  0.00D+00 EMaxC= 1.00D-01 BMatC= 2.16D-14 BMatP= 2.58D-13
 IDIUse=1 WtCom= 1.00D+00 WtEn= 0.00D+00
 Coeff-Com:  0.233D-07-0.740D-07 0.313D-06-0.109D-05 0.154D-05-0.631D-06
 Coeff-Com: -0.713D-05 0.284D-04 0.382D-04-0.195D-02 0.139D-01-0.702D-01
 Coeff-Com:  0.283D+00-0.838D+00 0.161D+01
 Coeff:      0.233D-07-0.740D-07 0.313D-06-0.109D-05 0.154D-05-0.631D-06
 Coeff:     -0.713D-05 0.284D-04 0.382D-04-0.195D-02 0.139D-01-0.702D-01
 Coeff:      0.283D+00-0.838D+00 0.161D+01
 Gap=     0.346 Goal=   None    Shift=    0.000
 RMSDP=6.13D-09 MaxDP=1.22D-07 DE=-2.27D-13 OVMax= 6.36D-08

 Cycle  16  Pass 2  IDiag  1:
 SCF Done:  E(RPM6) = -0.637649795036     A.U. after   16 cycles
            NFock= 15  Conv=0.61D-08     -V/T= 0.9979
 KE=-3.035780834859D+02 PE=-2.248875570490D+03 EE= 1.229435632752D+03
 Leave Link  502 at Tue Jun 22 14:18:35 2021, MaxMem=  2147483648 cpu:               0.5 elap:               0.0
 (Enter /home/matma/Programs/gaussian/G16_x86_SSE4/tar/g16/l601.exe)
 Copying SCF densities to generalized density rwf, IOpCl= 0 IROHF=0.

 **********************************************************************

            Population analysis using the SCF Density.

 **********************************************************************

 Orbital symmetries:
       Occupied  (A) (A) (A) (A) (A) (A) (A) (A) (A) (A) (A) (A)
                 (A) (A) (A) (A) (A) (A) (A) (A) (A) (A) (A) (A)
                 (A) (A) (A) (A) (A) (A) (A) (A) (A) (A) (A) (A)
                 (A) (A) (A) (A) (A) (A) (A) (A) (A) (A) (A) (A)
                 (A) (A) (A) (A) (A) (A) (A) (A) (A) (A) (A) (A)
                 (A) (A) (A) (A) (A) (A) (A) (A)
       Virtual   (A) (A) (A) (A) (A) (A) (A) (A) (A) (A) (A) (A)
                 (A) (A) (A) (A) (A) (A) (A) (A) (A) (A) (A) (A)
                 (A) (A) (A) (A) (A) (A) (A) (A) (A) (A) (A) (A)
                 (A) (A) (A) (A) (A) (A) (A) (A) (A) (A)
 The electronic state is 1-A.
 Alpha  occ. eigenvalues --   -1.17298  -1.15347  -1.14943  -1.13613  -1.12214
 Alpha  occ. eigenvalues --   -1.10735  -1.10244  -1.10055  -1.08044  -1.07809
 Alpha  occ. eigenvalues --   -1.07348  -1.02255  -1.00606  -0.99285  -0.98129
 Alpha  occ. eigenvalues --   -0.91431  -0.89690  -0.87059  -0.82990  -0.80650
 Alpha  occ. eigenvalues --   -0.79061  -0.77749  -0.76449  -0.70564  -0.70043
 Alpha  occ. eigenvalues --   -0.69519  -0.69308  -0.68827  -0.67233  -0.66472
 Alpha  occ. eigenvalues --   -0.65504  -0.65133  -0.63169  -0.62903  -0.61120
 Alpha  occ. eigenvalues --   -0.59652  -0.59182  -0.58246  -0.58001  -0.56690
 Alpha  occ. eigenvalues --   -0.56242  -0.55445  -0.54362  -0.53847  -0.53194
 Alpha  occ. eigenvalues --   -0.52439  -0.50754  -0.50270  -0.50134  -0.49645
 Alpha  occ. eigenvalues --   -0.48971  -0.48342  -0.47743  -0.46975  -0.46400
 Alpha  occ. eigenvalues --   -0.44927  -0.44527  -0.43276  -0.42614  -0.41742
 Alpha  occ. eigenvalues --   -0.40648  -0.40345  -0.39839  -0.39390  -0.39190
 Alpha  occ. eigenvalues --   -0.39007  -0.38151  -0.36130
 Alpha virt. eigenvalues --   -0.01573   0.02899   0.04847   0.04982   0.06016
 Alpha virt. eigenvalues --    0.06786   0.07173   0.07229   0.07792   0.08427
 Alpha virt. eigenvalues --    0.08508   0.08823   0.09438   0.09669   0.09847
 Alpha virt. eigenvalues --    0.10242   0.10599   0.10906   0.11167   0.11814
 Alpha virt. eigenvalues --    0.11865   0.12974   0.13639   0.14384   0.15275
 Alpha virt. eigenvalues --    0.15964   0.16092   0.16556   0.16972   0.17106
 Alpha virt. eigenvalues --    0.17572   0.17860   0.17908   0.17949   0.18044
 Alpha virt. eigenvalues --    0.18361   0.18565   0.18687   0.19084   0.19323
 Alpha virt. eigenvalues --    0.19522   0.19695   0.19840   0.19969   0.20782
 Alpha virt. eigenvalues --    0.21858
          Condensed to atoms (all electrons):
               1          2          3          4          5          6
     1  O    6.540222   0.000000   0.000000   0.000000   0.000000   0.000000
     2  C    0.000000   3.908829   0.000000   0.000000   0.000000   0.000000
     3  C    0.000000   0.000000   3.940062   0.000000   0.000000   0.000000
     4  O    0.000000   0.000000   0.000000   6.522858   0.000000   0.000000
     5  C    0.000000   0.000000   0.000000   0.000000   4.007647   0.000000
     6  C    0.000000   0.000000   0.000000   0.000000   0.000000   3.657348
     7  O    0.000000   0.000000   0.000000   0.000000   0.000000   0.000000
     8  C    0.000000   0.000000   0.000000   0.000000   0.000000   0.000000
     9  C    0.000000   0.000000   0.000000   0.000000   0.000000   0.000000
    10  O    0.000000   0.000000   0.000000   0.000000   0.000000   0.000000
    11  O    0.000000   0.000000   0.000000   0.000000   0.000000   0.000000
    12  C    0.000000   0.000000   0.000000   0.000000   0.000000   0.000000
    13  C    0.000000   0.000000   0.000000   0.000000   0.000000   0.000000
    14  C    0.000000   0.000000   0.000000   0.000000   0.000000   0.000000
    15  C    0.000000   0.000000   0.000000   0.000000   0.000000   0.000000
    16  O    0.000000   0.000000   0.000000   0.000000   0.000000   0.000000
    17  C    0.000000   0.000000   0.000000   0.000000   0.000000   0.000000
    18  C    0.000000   0.000000   0.000000   0.000000   0.000000   0.000000
    19  O    0.000000   0.000000   0.000000   0.000000   0.000000   0.000000
    20  O    0.000000   0.000000   0.000000   0.000000   0.000000   0.000000
    21  O    0.000000   0.000000   0.000000   0.000000   0.000000   0.000000
    22  O    0.000000   0.000000   0.000000   0.000000   0.000000   0.000000
    23  O    0.000000   0.000000   0.000000   0.000000   0.000000   0.000000
    24  H    0.000000   0.000000   0.000000   0.000000   0.000000   0.000000
    25  H    0.000000   0.000000   0.000000   0.000000   0.000000   0.000000
    26  H    0.000000   0.000000   0.000000   0.000000   0.000000   0.000000
    27  H    0.000000   0.000000   0.000000   0.000000   0.000000   0.000000
    28  H    0.000000   0.000000   0.000000   0.000000   0.000000   0.000000
    29  H    0.000000   0.000000   0.000000   0.000000   0.000000   0.000000
    30  H    0.000000   0.000000   0.000000   0.000000   0.000000   0.000000
    31  H    0.000000   0.000000   0.000000   0.000000   0.000000   0.000000
    32  H    0.000000   0.000000   0.000000   0.000000   0.000000   0.000000
    33  H    0.000000   0.000000   0.000000   0.000000   0.000000   0.000000
    34  H    0.000000   0.000000   0.000000   0.000000   0.000000   0.000000
    35  H    0.000000   0.000000   0.000000   0.000000   0.000000   0.000000
    36  H    0.000000   0.000000   0.000000   0.000000   0.000000   0.000000
    37  H    0.000000   0.000000   0.000000   0.000000   0.000000   0.000000
    38  H    0.000000   0.000000   0.000000   0.000000   0.000000   0.000000
    39  H    0.000000   0.000000   0.000000   0.000000   0.000000   0.000000
    40  H    0.000000   0.000000   0.000000   0.000000   0.000000   0.000000
    41  H    0.000000   0.000000   0.000000   0.000000   0.000000   0.000000
    42  H    0.000000   0.000000   0.000000   0.000000   0.000000   0.000000
    43  H    0.000000   0.000000   0.000000   0.000000   0.000000   0.000000
    44  H    0.000000   0.000000   0.000000   0.000000   0.000000   0.000000
    45  H    0.000000   0.000000   0.000000   0.000000   0.000000   0.000000
               7          8          9         10         11         12
     1  O    0.000000   0.000000   0.000000   0.000000   0.000000   0.000000
     2  C    0.000000   0.000000   0.000000   0.000000   0.000000   0.000000
     3  C    0.000000   0.000000   0.000000   0.000000   0.000000   0.000000
     4  O    0.000000   0.000000   0.000000   0.000000   0.000000   0.000000
     5  C    0.000000   0.000000   0.000000   0.000000   0.000000   0.000000
     6  C    0.000000   0.000000   0.000000   0.000000   0.000000   0.000000
     7  O    6.449125   0.000000   0.000000   0.000000   0.000000   0.000000
     8  C    0.000000   3.884769   0.000000   0.000000   0.000000   0.000000
     9  C    0.000000   0.000000   4.052132   0.000000   0.000000   0.000000
    10  O    0.000000   0.000000   0.000000   6.527041   0.000000   0.000000
    11  O    0.000000   0.000000   0.000000   0.000000   6.543968   0.000000
    12  C    0.000000   0.000000   0.000000   0.000000   0.000000   3.982674
    13  C    0.000000   0.000000   0.000000   0.000000   0.000000   0.000000
    14  C    0.000000   0.000000   0.000000   0.000000   0.000000   0.000000
    15  C    0.000000   0.000000   0.000000   0.000000   0.000000   0.000000
    16  O    0.000000   0.000000   0.000000   0.000000   0.000000   0.000000
    17  C    0.000000   0.000000   0.000000   0.000000   0.000000   0.000000
    18  C    0.000000   0.000000   0.000000   0.000000   0.000000   0.000000
    19  O    0.000000   0.000000   0.000000   0.000000   0.000000   0.000000
    20  O    0.000000   0.000000   0.000000   0.000000   0.000000   0.000000
    21  O    0.000000   0.000000   0.000000   0.000000   0.000000   0.000000
    22  O    0.000000   0.000000   0.000000   0.000000   0.000000   0.000000
    23  O    0.000000   0.000000   0.000000   0.000000   0.000000   0.000000
    24  H    0.000000   0.000000   0.000000   0.000000   0.000000   0.000000
    25  H    0.000000   0.000000   0.000000   0.000000   0.000000   0.000000
    26  H    0.000000   0.000000   0.000000   0.000000   0.000000   0.000000
    27  H    0.000000   0.000000   0.000000   0.000000   0.000000   0.000000
    28  H    0.000000   0.000000   0.000000   0.000000   0.000000   0.000000
    29  H    0.000000   0.000000   0.000000   0.000000   0.000000   0.000000
    30  H    0.000000   0.000000   0.000000   0.000000   0.000000   0.000000
    31  H    0.000000   0.000000   0.000000   0.000000   0.000000   0.000000
    32  H    0.000000   0.000000   0.000000   0.000000   0.000000   0.000000
    33  H    0.000000   0.000000   0.000000   0.000000   0.000000   0.000000
    34  H    0.000000   0.000000   0.000000   0.000000   0.000000   0.000000
    35  H    0.000000   0.000000   0.000000   0.000000   0.000000   0.000000
    36  H    0.000000   0.000000   0.000000   0.000000   0.000000   0.000000
    37  H    0.000000   0.000000   0.000000   0.000000   0.000000   0.000000
[...]
 4,-0.00148521,-0.00007092,0.00007610,0.00056491,-0.00008694,-0.0005234
 5,-0.00032600,0.00005939,0.00200860,-0.00101084,0.00032439,-0.00271200
 ,0.00220705,0.00448463,0.00338448,0.00189422,-0.00228122,-0.00682264,0
 .00374777,-0.00006723,0.00037569,0.00029083,0.00075196,0.00018967,-0.0
 0056844,0.00050572,-0.00024391,0.00112169,0.00007522,-0.00008572,-0.00
 013783,-0.00003764,-0.00001201,0.00000202,-0.00001850,0.00001722,-0.00
 001493,-0.00002868,0.00006080,0.00004617,0.00001347,-0.00001887,0.0000
 5431,0.00001027,0.00003024,-0.00005176,-0.00000267,0.00000094,-0.00002
 699,-0.00001208,-0.00001405,0.00004195,0.00000089,-0.00002167,0.000037
 95,-0.00001420,-0.00006051,0.00001656,0.00145209,0.00118186,-0.0013541
 0,-0.00011826,0.00014050,0.00015281,-0.00013425,-0.00001672,-0.0001151
 8,-0.00016721,-0.00005856,0.00014077,-0.00028781,-0.00000299,0.0002355
 2,-0.00017372,0.00009659,0.00002548,-0.00053173,-0.00035751,-0.0001730
 3,0.00119231,-0.00101358,-0.00050020,-0.00011599,0.00034640,-0.0004590
 3,0.20494807,0.00003318,-0.00000929,0.00000697,-0.00001502,0.00001392,
 -0.00002027,0.00000227,-0.00000111,0.00001574,0.00001107,-0.00002878,-
 0.00000865,-0.00000273,0.00005038,0.00000168,0.00002073,0.00005492,0.0
 0001172,0.00002857,-0.00004693,0.00001721,0.00000637,-0.00000937,0.000
 00899,0.00000785,0.00001321,-0.00000325,0.00002618,-0.00001327,-0.0000
 0193,0.02667064,-0.03745486,0.00616775,-0.04448179,-0.00788226,-0.0115
 3941,-0.00240505,-0.00538870,-0.00080830,-0.00076098,0.00002445,-0.000
 10655,-0.00095362,0.00031309,-0.00056718,0.00132310,0.00064597,0.00044
 924,-0.00259367,-0.00345094,0.00097091,-0.00062261,-0.00380997,0.00107
 153,0.00177942,-0.00206753,-0.00030911,0.00023924,-0.00003788,0.000244
 21,-0.00001831,-0.00011365,0.00002249,-0.00023670,0.00024954,-0.000068
 72,-0.00001143,-0.00008219,0.00002152,-0.00000148,-0.00000290,0.000002
 28,-0.00000434,0.00000246,-0.00000339,-0.00000320,0.00002053,0.0000003
 7,-0.00002224,0.00000900,-0.00000416,0.00000519,-0.00000259,-0.0000025
 9,-0.00000295,0.00000045,-0.00000395,-0.00000607,-0.00000269,0.0000029
 8,-0.00002448,-0.00000392,0.00000086,-0.00002280,0.00000620,0.00000166
 ,-0.00093112,-0.00137375,-0.00064801,0.00016818,-0.00040112,-0.0000550
 8,-0.00003627,-0.00014786,0.00008427,0.00007534,-0.00001763,0.00005521
 ,-0.00028799,-0.00000891,0.00023883,0.00030995,-0.00056034,-0.00001511
 ,0.00010842,-0.00030947,0.00002980,-0.00025605,0.00154564,0.00085883,-
 0.00006640,-0.00005632,-0.00005865,0.02303885,0.06018085,-0.00007227,-
 0.00002512,-0.00006597,0.00004396,-0.00001556,0.00004911,-0.00001778,0
 .00001562,0.00002325,-0.00003765,-0.00003694,-0.00005485,0.00000580,0.
 00004481,-0.00001383,-0.00016276,-0.00011476,0.00007121,-0.00000559,0.
 00006543,-0.00011521,-0.00004448,-0.00001335,0.00003950,0.00000424,0.0
 0002002,0.00000939,-0.00001700,0.00000352,-0.00005060,-0.04318871,0.00
 032692,-0.01357315,-0.00742900,-0.00538720,-0.00466296,0.00040978,0.00
 017838,0.00064045,-0.00001820,0.00003482,0.00024886,0.00105201,-0.0002
 7352,0.00070606,-0.00127469,0.00014089,-0.00118703,0.00193609,0.002209
 15,0.00138112,0.00260153,0.00391033,0.00030172,-0.00015421,-0.00477457
 ,-0.00095393,-0.00015216,0.00004877,-0.00049955,0.00016096,0.00008219,
 -0.00030243,0.00057824,0.00022302,-0.00008665,-0.00005149,-0.00003582,
 -0.00009937,-0.00000111,0.00000130,-0.00000430,0.00000622,-0.00000101,
 0.00000807,0.00003224,0.00001818,0.00000966,0.00008219,-0.00000432,0.0
 0003281,-0.00000156,-0.00000727,0.00000466,0.00000863,0.00000199,0.000
 00467,0.00000525,0.00000026,0.00000647,0.00002337,0.00000144,0.0000112
 3,0.00000511,-0.00001447,0.00002876,-0.00060298,-0.00170641,-0.0000941
 8,-0.00001384,0.00008327,0.00023201,-0.00003522,0.00002905,-0.00002554
 ,-0.00012660,0.00002351,-0.00002541,0.00024793,0.00034163,-0.00021702,
 -0.00032910,-0.00000211,0.00052491,-0.00033955,0.00003516,-0.00007771,
 -0.00113545,0.00075267,-0.00234417,-0.00043336,-0.00001512,-0.00007316
 ,0.04837979,0.00399801,0.01988764,-0.00021549,0.00023631,-0.00049399,0
 .00090416,-0.00016867,-0.00011221,-0.00130414,0.00271406,0.00077468,0.
 00015529,-0.00066814,-0.00058177,0.00582546,-0.00184972,-0.00317840,0.
 00220395,0.00063673,-0.00267075,-0.00025157,0.00074868,0.00093560,-0.0
 0023217,-0.00013624,-0.00013243,-0.00001431,-0.00026647,-0.00022689,-0
 .00004148,0.00023191,0.00026080,0.00006359,-0.00018088,-0.00023043,0.0
 0005717,0.00006617,0.00000972,0.00007672,-0.00006660,0.00026353,-0.000
 25476,-0.00029583,-0.00029331,0.00030315,0.00006495,0.00016559,-0.0003
 3603,-0.00031182,-0.00004925,0.00010615,0.00025165,-0.00003471,0.00003
 275,0.00000413,-0.00001055,0.00006751,-0.00015390,-0.00004255,-0.00012
 402,-0.00012029,-0.00005967,-0.00111740,-0.00102127,0.00048869,-0.0000
 7482,-0.00009423,-0.00024515,-0.13781248,-0.07669614,0.06874743,-0.000
 14762,0.00017236,0.00003765,-0.00030792,0.00014065,-0.00005500,-0.0000
 8254,0.00042106,0.00009977,0.00120905,0.00284685,0.00007741,-0.0002799
 3,-0.00008547,-0.00007168,-0.00007025,-0.00005768,-0.00001676,-0.00001
 164,-0.00001922,0.00003944,0.00007314,0.00000957,0.00000829,0.00008613
 ,-0.00004241,-0.00009618,-0.00000067,0.00000998,0.00001999,-0.00007819
 ,0.00025185,0.00026856,0.00014466,0.00001257,-0.00007256,0.00011985,0.
 00003270,-0.00013422,-0.00008033,0.00011029,0.00007518,-0.00000884,0.0
 0002135,0.00001309,-0.00000448,0.00002973,-0.00000473,-0.00008862,0.00
 007570,0.00002959,-0.00001161,0.00001060,0.00006646,-0.00008340,0.0000
 2185,0.00006076,0.13154715,0.00003975,0.00010475,-0.00020916,-0.000697
 81,-0.00030168,0.00054150,0.00107570,-0.00601063,0.00234025,0.00012678
 ,-0.00010741,-0.00097924,-0.03328668,-0.04110622,0.01996654,0.00030890
 ,-0.00492103,-0.00087295,0.00030762,0.00178460,-0.00018199,-0.00060791
 ,-0.00009735,0.00047306,0.00008669,-0.00008716,-0.00026707,-0.00000410
 ,0.00018686,0.00014645,-0.00016312,-0.00029811,-0.00008809,0.00014824,
 0.00017304,0.00004472,0.00006863,0.00010160,-0.00009761,0.00035411,-0.
 00019798,-0.00078161,0.00042223,-0.00026107,0.00007248,-0.00038968,-0.
 00013408,-0.00003047,0.00006269,0.00016751,0.00000471,0.00009041,0.000
 10161,0.00004791,-0.00007524,-0.00018165,-0.00008309,-0.00022875,0.000
 14469,0.00020726,-0.00079066,0.00064678,0.00090930,-0.00008986,-0.0002
 8509,0.00018019,-0.04067980,-0.06888805,0.03269823,-0.00002439,-0.0002
 2037,-0.00002166,0.00026414,0.00002972,-0.00018922,-0.00005888,0.00030
 694,0.00043127,0.00077643,0.00038024,0.00124823,-0.00033428,0.00000034
 ,-0.00013476,-0.00001775,-0.00003069,-0.00004055,-0.00002641,0.0000024
 0,0.00005986,0.00003536,-0.00001821,0.00003621,0.00003520,-0.00007517,
 -0.00004959,-0.00000123,-0.00001520,-0.00001922,-0.00003195,0.00027036
 ,0.00010146,-0.00003942,0.00003241,-0.00003740,0.00004474,-0.00001099,
 -0.00004786,0.00004304,0.00002495,0.00000025,0.00000339,-0.00000187,-0
 .00001272,0.00000250,-0.00000305,0.00000458,-0.00000815,0.00006685,0.0
 0005476,0.00001381,0.00016432,-0.00001188,0.00004361,0.00004068,0.0000
 2465,0.07310283,0.11855383,-0.00013643,-0.00036055,-0.00006192,0.00015
 116,0.00015104,0.00000420,0.00027917,0.00160654,0.00007459,-0.00052027
 ,-0.00046293,0.00011617,0.00555707,0.01048871,-0.00747293,-0.00077007,
 -0.00377204,0.00260277,0.00021881,0.00002026,-0.00119559,-0.00026299,0
 .00001562,0.00033319,0.00007705,0.00018013,0.00000155,0.00001344,-0.00
 006483,-0.00017331,-0.00023171,0.00002188,-0.00008602,0.00004509,0.000
 05672,0.00006934,0.00013029,0.00009542,-0.00000240,0.00011507,-0.00005
 359,-0.00014686,0.00020816,-0.00016381,0.00006508,-0.00012544,0.000105
 31,-0.00016615,-0.00001135,-0.00008489,0.00005975,0.00004619,0.0000637
 9,-0.00004666,-0.00009379,-0.00000958,-0.00012086,-0.00005103,0.000185
 16,0.00000908,-0.00012163,0.00156129,-0.00070691,-0.00026484,0.0001859
 4,0.00018772,0.05872634,0.04499667,-0.03416693,0.00004677,0.00001134,-
 0.00002673,0.00001139,-0.00006531,0.00018176,0.00055198,0.00019542,-0.
 00002742,-0.00030292,0.00110288,-0.00010343,0.00012382,-0.00031368,-0.
 00022586,0.00004871,0.00000249,0.00001194,-0.00000219,0.00002171,0.000
 01713,-0.00000823,-0.00000692,0.00002862,-0.00003874,-0.00002780,0.000
 07255,-0.00001797,-0.00001045,-0.00004079,0.00026699,-0.00023957,-0.00
 019235,-0.00000817,-0.00010733,0.00004043,-0.00009015,-0.00000247,0.00
 010167,-0.00002150,0.00001386,0.00008798,0.00000963,-0.00001277,0.0000
 0746,-0.00001632,-0.00001902,0.00003545,0.00001085,0.00001479,0.000090
 37,0.00014921,-0.00004655,-0.00010783,0.00013285,-0.00001232,0.0000928
 8,-0.06393729,-0.05547994,0.04083870,-0.00003306,0.00000823,-0.0001699
 5,0.00011030,-0.00000591,0.00003840,-0.00007964,0.00001070,0.00013924,
 0.00005324,-0.00011480,-0.00018632,0.00007853,0.00025189,-0.00005609,-
 0.00056382,-0.00026348,0.00026044,0.00023806,0.00025523,-0.00038438,-0
 .00023551,-0.00019472,0.00025252,0.00005531,-0.00002495,-0.00013776,-0
 .00001459,0.00014198,-0.00001461,-0.00020724,0.00039035,0.00011179,0.0
 0010003,-0.00022444,0.00015536,0.00081569,0.00011864,0.00012725,-0.001
 43181,0.00134802,0.00076172,0.00030801,0.00284779,0.00620402,-0.003039
 59,-0.00062018,0.00123418,0.00009920,0.00025129,-0.00104879,-0.0000854
 4,-0.00009762,0.00008796,-0.00003764,0.00024021,0.00021311,-0.07207446
 ,-0.04207821,0.08880591,0.00081624,-0.00062174,-0.00085811,-0.00086541
 ,-0.00045394,0.00019707,0.00000196,-0.00024308,-0.00005846,-0.00003591
 ,-0.00001893,-0.00000353,-0.00001908,0.00001820,-0.00001179,-0.0000179
 7,0.00006992,0.00003259,0.00004721,-0.00000998,0.00004312,-0.00002920,
 0.00001138,-0.00001433,0.00000616,0.00001715,-0.00002484,-0.00000570,-
 0.00002206,0.00004804,0.00001212,-0.00003827,0.00005506,0.00000867,-0.
 00012240,0.00006164,-0.00000496,-0.00046180,-0.00022861,-0.00012715,0.
 00001880,0.00002125,-0.00049980,0.00059706,0.00020045,0.00157163,-0.00
 179158,-0.00060816,0.00006718,-0.00013792,-0.00001531,-0.00007357,-0.0
 0014927,-0.00025667,-0.00000136,0.00000813,-0.00008742,0.00005098,-0.0
 0003143,-0.00010776,0.00023982,-0.00007282,-0.00015617,0.00006095,-0.0
 0009721,-0.00002918,0.00004142,0.00010538,0.00004191,0.07469857,0.0000
 5281,-0.00001687,0.00001131,-0.00001673,0.00004463,-0.00003883,0.00000
 920,-0.00000421,0.00000120,0.00000868,-0.00001987,0.00001758,-0.000016
 27,0.00002981,0.00001176,0.00004302,0.00032267,-0.00004140,0.00027397,
 -0.00005489,0.00003080,0.00003531,-0.00009279,0.00002262,0.00000262,-0
 .00001592,-0.00002865,0.00004182,-0.00003018,0.00007376,0.00038915,0.0
 0020057,0.00045972,-0.00021247,-0.00042546,-0.00017302,-0.00023204,-0.
 00006743,-0.00083316,0.00093810,-0.00075906,-0.00375747,0.01933809,0.0
 0733429,-0.01948253,-0.00430305,-0.00166008,0.00073508,0.00084381,0.00
 130461,-0.00085647,0.00010473,-0.00002591,0.00017404,0.00000941,-0.000
 19128,0.00005282,-0.05729477,-0.05149754,0.05417550,0.00016708,-0.0009
 2325,0.00052831,-0.00056640,0.00137389,0.00019253,-0.00001206,-0.00009
 316,0.00007416,-0.00000022,-0.00000637,-0.00000157,-0.00000708,0.00000
 097,-0.00000695,-0.00000280,0.00001202,-0.00000569,-0.00003158,0.00002
 359,-0.00000618,0.00000740,-0.00001243,-0.00003592,0.00000384,0.000009
 21,-0.00003063,-0.00000799,-0.00000070,0.00000514,-0.00005559,-0.00001
 611,-0.00000112,0.00000212,0.00006201,-0.00006869,-0.00031190,-0.00029
 412,-0.00005147,-0.00000040,-0.00008643,-0.00008659,0.00037066,-0.0002
 1636,-0.00045258,-0.00060861,-0.00257673,-0.00346503,-0.00000487,-0.00
 019536,0.00004512,-0.00003135,0.00006903,-0.00005754,0.00004941,0.0000
 4768,-0.00000828,-0.00002975,0.00002262,-0.00000830,0.00009451,-0.0002
 0129,0.00026236,-0.00023091,0.00010680,-0.00021135,0.00002867,0.000019
 04,-0.00006366,0.04117234,0.04849172,-0.00003998,-0.00000754,0.0000865
 0,-0.00004807,-0.00000512,0.00001312,0.00005409,0.00000710,-0.00010632
 ,-0.00007332,0.00008616,0.00012744,-0.00007976,-0.00021043,0.00003171,
 0.00056003,0.00038349,-0.00028332,-0.00019401,-0.00013936,0.00018692,0
 .00018851,0.00010992,-0.00019565,-0.00006182,0.00000358,0.00014632,-0.
 00009740,-0.00007094,-0.00007269,0.00025799,0.00037078,-0.00036979,-0.
 00018695,-0.00041671,-0.00010592,-0.00014557,-0.00036143,0.00128685,0.
 00151967,-0.00094684,0.00026284,0.02345938,0.00299536,-0.05065168,0.00
 025904,0.00335105,0.00116679,-0.00014016,-0.00214943,0.00040390,-0.000
 31742,0.00000440,-0.00023351,0.00046128,0.00044977,0.00019861,0.068713
 69,0.02602978,-0.11285454,-0.00121290,0.00072173,0.00093839,0.00047316
 ,-0.00042232,-0.00151349,-0.00003556,0.00018719,0.00000255,0.00003169,
 0.00001666,-0.00000196,0.00002719,-0.00001702,0.00002050,0.00003389,-0
 .00005467,-0.00002241,0.00000533,0.00000129,-0.00002228,0.00002323,-0.
 00002476,0.00006809,0.00002174,0.00000155,0.00004131,0.00001988,0.0000
 1661,-0.00004009,0.00006288,0.00002537,-0.00005401,0.00012432,0.000072
 40,0.00002059,-0.00007621,0.00011108,0.00042287,0.00003129,-0.00003401
 ,-0.00010712,0.00040386,-0.00003117,0.00042107,0.00105205,-0.00292337,
 -0.00451686,0.00011121,0.00010380,-0.00016336,-0.00009737,0.00002846,0
 .00018279,-0.00005084,0.00004150,-0.00005966,-0.00002194,-0.00004897,-
 0.00016504,-0.00022112,-0.00001961,0.00012262,-0.00010255,-0.00005070,
 0.00019249,0.00000506,-0.00007652,-0.00001006,-0.09471677,-0.02710482,
 0.16526258,-0.02092201,0.02829770,0.00805574,-0.00726538,-0.01938674,-
 0.03258350,0.00054917,0.00123844,-0.00296300,-0.00322680,0.00184319,-0
 .00010458,-0.00018006,-0.00029451,0.00012092,0.00006891,0.00019026,0.0
 0007390,-0.00039689,-0.00031136,0.00036111,-0.00291996,0.00108873,-0.0
 0240267,-0.00013646,-0.00005383,0.00007137,-0.00008825,0.00006733,0.00
 021407,0.00000374,0.00002033,-0.00004440,-0.00000340,-0.00002028,-0.00
 000240,0.00002520,-0.00000944,0.00005178,-0.00006061,0.00000016,0.0000
 0818,0.00011036,0.00007105,0.00015972,-0.00007490,-0.00005359,-0.00010
 451,0.00000986,0.00001673,0.00001029,-0.00000021,-0.00001707,-0.000039
 52,0.00001210,0.00001162,-0.00003310,-0.00001668,-0.00003948,-0.000103
 34,-0.00009587,0.00000184,-0.00005437,-0.00001926,0.00002116,-0.000060
 40,-0.00023233,0.00019312,-0.00009755,-0.00218199,0.00060546,-0.002197
 81,-0.00000684,-0.00017792,0.00019481,0.00089915,-0.00020707,0.0007455
 0,0.00024920,-0.00028501,0.00046059,0.00001425,-0.00005076,-0.00002612
 ,0.00025353,-0.00016125,-0.00050179,0.00007689,-0.00007930,-0.00013101
 ,0.00013280,-0.00002792,-0.00000388,0.00008261,0.00004387,-0.00005294,
 -0.00000426,0.00000783,0.00000409,0.00000364,-0.00000420,0.00000380,0.
 00002068,0.00000595,0.00000505,0.00002372,0.00001932,0.00000751,-0.000
 02227,0.00000535,0.00005247,-0.00000501,0.00000751,0.00001488,-0.00001
 266,-0.00000140,0.00002565,-0.00001796,-0.00000242,0.00003234,0.000002
 16,-0.00001678,0.00001332,-0.00000248,-0.00001131,0.00003059,0.0000179
 7,-0.00000543,0.00007039,0.00000111,-0.00001007,0.00001918,0.03533501,
 0.01249201,-0.08886406,-0.10152177,-0.00400816,0.00575258,0.00565221,0
 .00260662,0.00114213,0.00653792,-0.00032182,-0.00078325,-0.00174590,0.
 00009114,-0.00011141,-0.00019199,0.00015780,0.00192465,-0.00011516,-0.
 00083053,-0.00178365,0.00053013,0.00412267,0.00025379,0.00152978,-0.00
 008221,-0.00083116,-0.00024122,-0.00010844,0.00030419,0.00040449,-0.00
 002038,-0.00004854,-0.00004632,0.00002481,0.00002116,0.00000025,0.0000
 1707,-0.00003766,0.00001056,-0.00005243,0.00005994,0.00001671,0.000114
 69,0.00012733,0.00013367,-0.00013907,-0.00014778,-0.00004447,0.0000365
 1,0.00009339,-0.00000179,0.00002757,0.00001123,-0.00000860,-0.00000748
 ,-0.00005836,-0.00004661,-0.00005725,-0.00010237,-0.00004904,-0.000298
 89,-0.00047819,-0.00004762,-0.00000213,-0.00002241,-0.00003540,-0.0001
 2232,-0.00015258,-0.00064323,-0.00028708,0.00002089,0.00045783,0.00001
 641,-0.00028561,-0.00042064,-0.00075725,-0.00017412,-0.00067267,-0.000
 06508,-0.00016329,0.00056479,0.00004718,-0.00015217,-0.00011047,-0.000
 46684,0.00036606,0.00056224,0.00008717,-0.00003677,-0.00011233,0.00013
 527,0.00008145,0.00000402,0.00013767,-0.00002704,-0.00018094,-0.000000
 77,0.00000437,0.00000295,-0.00001190,0.00002341,0.00002271,0.00003865,
 0.00002467,-0.00000892,0.00007353,0.00005793,-0.00007344,-0.00002426,0
 .00001934,0.00004574,-0.00000199,0.00000840,0.00000589,-0.00000464,0.0
 0001052,0.00000888,-0.00002062,0.00002442,0.00004117,-0.00000440,0.000
 00992,0.00000461,0.00000280,0.00000682,0.00002418,-0.00001979,-0.00005
 113,0.00028373,0.00001501,0.00000994,-0.00000422,-0.01252958,0.0839539
 6,-0.01415096,-0.07942095,-0.12707652,-0.01067286,-0.01414979,-0.04117
 020,-0.00127730,0.00304299,-0.00068609,-0.00181032,0.00218694,-0.00299
 571,0.00019536,0.00075818,-0.00065607,0.00050933,0.00054482,-0.0007970
 6,-0.00032079,-0.00033622,0.00117323,-0.00247546,0.00035987,-0.0037857
 2,-0.00011949,-0.00058947,-0.00043282,-0.00007199,0.00049741,0.0006099
 4,-0.00016019,-0.00009804,-0.00000888,0.00006607,0.00006949,0.00003343
 ,0.00002343,0.00006093,-0.00006588,0.00007183,-0.00011472,-0.00035479,
 0.00029385,-0.00015258,-0.00002065,-0.00026713,-0.00006311,-0.00001118
 ,0.00003375,0.00009224,0.00001813,0.00007371,0.00007935,0.00002441,-0.
 00011942,-0.00007081,-0.00009136,-0.00018071,0.00007372,0.00017420,-0.
 00057176,-0.00011426,0.00058300,-0.00008053,-0.00008863,0.00014381,-0.
 00033704,-0.00093455,0.00026579,-0.00019757,-0.00129703,0.00150810,-0.
 00030511,-0.00059559,-0.00044711,0.00004303,0.00069643,0.00026990,0.00
 027717,0.00032467,-0.00003701,-0.00010077,0.00003008,-0.00000943,-0.00
 001541,-0.00024579,-0.00044816,-0.00002491,-0.00019551,0.00011466,0.00
 012502,-0.00002369,0.00001216,0.00015377,-0.00001745,-0.00015633,0.000
 00659,-0.00001123,-0.00002302,0.00000767,0.00002597,0.00000141,0.00000
 206,0.00001614,-0.00004405,0.00007922,0.00001580,-0.00010469,0.0000352
 0,0.00000215,-0.00000073,0.00001134,-0.00001168,-0.00001013,0.00000653
 ,-0.00001997,0.00002181,0.00003402,0.00001322,0.00006618,0.00003852,0.
 00005525,-0.00004144,0.00008812,0.00000432,0.00002000,0.00030220,0.000
 11809,-0.00004931,0.00008177,0.00000440,-0.00005660,0.03069962,0.08947
 925,0.17454242\\-0.00000869,-0.00001289,0.00000499,-0.00000017,0.00002
 735,0.00000526,-0.00000590,-0.00003027,0.00000847,0.00000677,-0.000002
 18,0.00000584,0.00000343,-0.00001467,-0.00003459,-0.00001066,0.0000407
 1,0.00000324,0.00000308,-0.00001236,-0.00002722,-0.00001133,0.00000257
 ,-0.00000397,0.00003336,0.00001872,0.00001578,-0.00000572,-0.00001728,
 -0.00001215,-0.00003445,-0.00001277,0.00000944,0.00001797,0.00000408,-
 0.00000806,0.00000666,0.00000885,-0.00002470,-0.00007099,0.00006050,-0
 .00003854,0.00001456,-0.00006405,0.00002316,0.00000735,0.00000870,-0.0
 0001332,-0.00000544,0.00001246,0.00001146,-0.00000851,-0.00004917,-0.0
 0003467,0.00000272,0.00003392,0.00001641,-0.00001716,0.00000072,0.0000
 4752,0.00003059,-0.00005509,0.00003515,-0.00000647,0.00001241,0.000020
 03,0.00000231,0.00000823,0.00003081,-0.00000552,-0.00000880,-0.0000002
 8,-0.00000124,0.00000314,-0.00000208,-0.00000184,0.00000588,-0.0000005
 6,-0.00000264,0.00000232,0.00000527,0.00000264,-0.00001272,0.00000570,
 0.00002247,-0.00000060,0.00000129,-0.00000217,0.00000957,-0.00000289,-
 0.00001312,0.00000184,0.00000379,-0.00000486,0.00000412,-0.00000412,-0
 .00000037,0.00000262,0.00000857,0.00000122,-0.00000090,-0.00000427,0.0
 0001508,-0.00000574,0.00000439,-0.00000268,0.00001908,-0.00001075,-0.0
 0000163,-0.00000233,-0.00000603,-0.00000557,0.00000641,0.00001719,0.00
 000106,0.00000211,-0.00000222,0.00000522,0.00000195,-0.00001453,0.0000
 0669,-0.00001680,0.00000932,0.00001842,-0.00000671,0.00000549,0.000001
 36,0.00000979,-0.00002590,0.00002081,0.00001174,-0.00001907,0.00000335
 ,0.00000552,-0.00000862\\\@


 IF AT FIRST YOU DON'T SUCCEED, TRY, TRY AGAIN.
 THEN GIVE UP;
 THERE'S NO USE BEING A DAMN FOOL ABOUT IT.

                                 -- W. C. FIELDS
 Job cpu time:       0 days  0 hours  0 minutes 11.0 seconds.
 Elapsed time:       0 days  0 hours  0 minutes  0.9 seconds.
 File lengths (MBytes):  RWF=    217 Int=      0 D2E=      0 Chk=      4 Scr=      1
 Normal termination of Gaussian 16 at Tue Jun 22 14:18:50 2021.
