 Entering Gaussian System, Link 0=g09
 Initial command:
 /share/apps//g09/l1.exe "/scratch/Gau-30053.inp" -scrdir="/scratch/"
 Entering Link 1 = /share/apps//g09/l1.exe PID=     30074.
  
 Copyright (c) 1988,1990,1992,1993,1995,1998,2003,2009,2013,
            Gaussian, Inc.  All Rights Reserved.
  
 This is part of the Gaussian(R) 09 program.  It is based on
 the Gaussian(R) 03 system (copyright 2003, Gaussian, Inc.),
 the Gaussian(R) 98 system (copyright 1998, Gaussian, Inc.),
 the Gaussian(R) 94 system (copyright 1995, Gaussian, Inc.),
 the Gaussian 92(TM) system (copyright 1992, Gaussian, Inc.),
 the Gaussian 90(TM) system (copyright 1990, Gaussian, Inc.),
 the Gaussian 88(TM) system (copyright 1988, Gaussian, Inc.),
 the Gaussian 86(TM) system (copyright 1986, Carnegie Mellon
 University), and the Gaussian 82(TM) system (copyright 1983,
 Carnegie Mellon University). Gaussian is a federally registered
 trademark of Gaussian, Inc.
  
 This software contains proprietary and confidential information,
 including trade secrets, belonging to Gaussian, Inc.
  
 This software is provided under written license and may be
 used, copied, transmitted, or stored only in accord with that
 written license.
  
 The following legend is applicable only to US Government
 contracts under FAR:
  
                    RESTRICTED RIGHTS LEGEND
  
 Use, reproduction and disclosure by the US Government is
 subject to restrictions as set forth in subparagraphs (a)
 and (c) of the Commercial Computer Software - Restricted
 Rights clause in FAR 52.227-19.
  
 Gaussian, Inc.
 340 Quinnipiac St., Bldg. 40, Wallingford CT 06492
  
  
 ---------------------------------------------------------------
 Warning -- This program may not be used in any manner that
 competes with the business of Gaussian, Inc. or will provide
 assistance to any competitor of Gaussian, Inc.  The licensee
 of this program is prohibited from giving any competitor of
 Gaussian, Inc. access to this program.  By using this program,
 the user acknowledges that Gaussian, Inc. is engaged in the
 business of creating and licensing software in the field of
 computational chemistry and represents and warrants to the
 licensee that it is not a competitor of Gaussian, Inc. and that
 it will not use this program in any manner prohibited above.
 ---------------------------------------------------------------
  

 Cite this work as:
 Gaussian 09, Revision D.01,
 M. J. Frisch, G. W. Trucks, H. B. Schlegel, G. E. Scuseria, 
 M. A. Robb, J. R. Cheeseman, G. Scalmani, V. Barone, B. Mennucci, 
 G. A. Petersson, H. Nakatsuji, M. Caricato, X. Li, H. P. Hratchian, 
 A. F. Izmaylov, J. Bloino, G. Zheng, J. L. Sonnenberg, M. Hada, 
 M. Ehara, K. Toyota, R. Fukuda, J. Hasegawa, M. Ishida, T. Nakajima, 
 Y. Honda, O. Kitao, H. Nakai, T. Vreven, J. A. Montgomery, Jr., 
 J. E. Peralta, F. Ogliaro, M. Bearpark, J. J. Heyd, E. Brothers, 
 K. N. Kudin, V. N. Staroverov, T. Keith, R. Kobayashi, J. Normand, 
 K. Raghavachari, A. Rendell, J. C. Burant, S. S. Iyengar, J. Tomasi, 
 M. Cossi, N. Rega, J. M. Millam, M. Klene, J. E. Knox, J. B. Cross, 
 V. Bakken, C. Adamo, J. Jaramillo, R. Gomperts, R. E. Stratmann, 
 O. Yazyev, A. J. Austin, R. Cammi, C. Pomelli, J. W. Ochterski, 
 R. L. Martin, K. Morokuma, V. G. Zakrzewski, G. A. Voth, 
 P. Salvador, J. J. Dannenberg, S. Dapprich, A. D. Daniels, 
 O. Farkas, J. B. Foresman, J. V. Ortiz, J. Cioslowski, 
 and D. J. Fox, Gaussian, Inc., Wallingford CT, 2013.
 
 ******************************************
 Gaussian 09:  EM64L-G09RevD.01 24-Apr-2013
                24-Mar-2016 
 ******************************************
 %nproc=20
 Will use up to   20 processors via shared memory.
 %mem=80GB
 %chk=Tri_A154_of.chk
 -------------------------------------------------------------------
 #P PBE1PBE/6-311+G(d,p) opt optcyc=999 freq EmpiricalDispersion=GD3
 -------------------------------------------------------------------
 1/6=999,14=-1,18=20,19=15,26=3,38=1/1,3;
 2/9=110,12=2,17=6,18=5,40=1/2;
 3/5=4,6=6,7=111,11=2,16=1,25=1,30=1,71=1,74=-13,124=31/1,2,3;
 4//1;
 5/5=2,38=5/2;
 6/7=2,8=2,9=2,10=2,28=1/1;
 7//1,2,3,16;
 1/6=999,14=-1,18=20,19=15,26=3/3(2);
 2/9=110/2;
 99//99;
 2/9=110/2;
 3/5=4,6=6,7=111,11=2,16=1,25=1,30=1,71=1,74=-13,124=31/1,2,3;
 4/5=5,16=3,69=1/1;
 5/5=2,38=5/2;
 7//1,2,3,16;
 1/6=999,14=-1,18=20,19=15,26=3/3(-5);
 2/9=110/2;
 6/7=2,8=2,9=2,10=2,19=2,28=1/1;
 99/9=1/99;
 Leave Link    1 at Thu Mar 24 17:35:47 2016, MaxMem= 10737418240 cpu:         1.6
 (Enter /share/apps//g09/l101.exe)
 -------
 disacch
 -------
 Symbolic Z-matrix:
 Charge =  1 Multiplicity = 1
 O                     0.22983   0.13502  -2.84689 
 C                     1.23229  -0.63493  -2.20961 
 C                     0.71991  -2.03642  -1.93305 
 C                     0.17526  -2.67812  -3.19537 
 C                    -0.81544  -1.76403  -3.89963 
 C                    -0.21216  -0.38768  -4.09396 
 C                    -1.16142   0.63017  -4.69638 
 O                    -0.51283   1.82551  -5.03418 
 O                    -2.01352  -1.67386  -3.13563 
 O                    -0.51831  -3.86832  -2.904 
 O                     1.72669  -2.8599   -1.43003 
 O                     1.47058  -0.02305  -1.00076 
 C                     2.70238   0.62788  -0.73856 
 C                     3.26405   0.02194   0.53031 
 O                     3.48654  -1.35571   0.32798 
 C                     2.26905   0.23248   1.65261 
 C                     1.81138   1.69088   1.78105 
 O                     1.5205    2.28613   0.53637 
 C                     2.47996   2.11511  -0.47758 
 C                     2.03073   2.93888  -1.67356 
 O                     0.71094   2.68003  -2.09576 
 O                     0.67337   1.82403   2.57291 
 C                    -0.46963   1.10117   2.16892 
 C                    -0.86525   0.11951   3.26035 
 C                    -2.10814  -0.63209   2.83733 
 C                    -3.23294   0.32452   2.48434 
 O                    -2.79514   1.30417   1.5756 
 C                    -1.64336   2.05358   1.92996 
 C                    -1.43254   3.02602   0.79129 
 O                    -1.36484   2.34613  -0.44563 
 O                    -4.21216  -0.41326   1.84313 
 C                    -5.51725   0.17496   1.86535 
 C                    -6.44617  -0.63208   0.98247 
 C                    -6.42383  -0.36296  -0.52217 
 C                    -5.10534  -0.65139  -1.23973 
 C                    -4.12445   0.51464  -1.17299 
 N                    -2.7236    0.07305  -0.99961 
 O                    -2.46172  -1.48692   3.89105 
 O                     0.18229  -0.79012   3.51006 
 O                     2.85517  -0.21347   2.84244 
 H                     2.13763  -0.66677  -2.83449 
 H                    -0.10591  -1.92487  -1.21347 
 H                     1.01524  -2.87427  -3.87541 
 H                    -1.04757  -2.18558  -4.88361 
 H                     0.64802  -0.48815  -4.77032 
 H                    -2.00245   0.79883  -4.0136 
 H                    -1.57011   0.21567  -5.62049 
 H                    -0.37518   2.36407  -4.25194 
 H                    -2.22046  -2.58323  -2.88379 
 H                     0.0492   -4.43075  -2.37176 
 H                     2.21843  -2.39348  -0.73428 
 H                     3.39914   0.48315  -1.57043 
 H                     4.20956   0.5225    0.7723 
 H                     3.73726  -1.73048   1.17844 
 H                     1.40512  -0.38704   1.40631 
 H                     2.58834   2.25951   2.30504 
 H                     3.45185   2.53304  -0.16897 
 H                     2.06325   3.9921   -1.39563 
 H                     2.74105   2.7904   -2.49415 
 H                     0.64171   1.76895  -2.42543 
 H                    -0.28212   0.57097   1.23065 
 H                    -1.08386   0.69178   4.17228 
 H                    -1.8641   -1.21123   1.93222 
 H                    -3.62299   0.79935   3.3978 
 H                    -1.82408   2.63116   2.84703 
 H                    -2.27821   3.71851   0.77007 
 H                    -0.5202    3.59268   0.97145 
 H                    -0.52612   2.54755  -0.90795 
 H                    -5.46169   1.22427   1.54161 
 H                    -5.87841   0.16396   2.90222 
 H                    -7.45828  -0.4458    1.33563 
 H                    -6.24818  -1.69117   1.16523 
 H                    -6.72781   0.67258  -0.71672 
 H                    -7.19897  -0.98667  -0.97489 
 H                    -5.30899  -0.88845  -2.28667 
 H                    -4.64784  -1.54888  -0.80835 
 H                    -4.15782   1.11921  -2.07598 
 H                    -4.32835   1.16786  -0.33393 
 H                    -2.38442  -0.49172  -1.79525 
 H                    -2.67652  -0.48863  -0.15511 
 H                    -2.11146   0.91167  -0.82983 
 H                    -3.19086  -2.03989   3.6125 
 H                    -0.14755  -1.44602   4.12786 
 H                     2.12683  -0.43417   3.43635 
 
 NAtoms=     84 NQM=       84 NQMF=       0 NMMI=      0 NMMIF=      0
                NMic=       0 NMicF=      0.
                    Isotopes and Nuclear Properties:
 (Nuclear quadrupole moments (NQMom) in fm**2, nuclear magnetic moments (NMagM)
  in nuclear magnetons)

  Atom         1           2           3           4           5           6           7           8           9          10
 IAtWgt=          16          12          12          12          12          12          12          16          16          16
 AtmWgt=  15.9949146  12.0000000  12.0000000  12.0000000  12.0000000  12.0000000  12.0000000  15.9949146  15.9949146  15.9949146
 NucSpn=           0           0           0           0           0           0           0           0           0           0
 AtZEff=   0.0000000   0.0000000   0.0000000   0.0000000   0.0000000   0.0000000   0.0000000   0.0000000   0.0000000   0.0000000
 NQMom=    0.0000000   0.0000000   0.0000000   0.0000000   0.0000000   0.0000000   0.0000000   0.0000000   0.0000000   0.0000000
 NMagM=    0.0000000   0.0000000   0.0000000   0.0000000   0.0000000   0.0000000   0.0000000   0.0000000   0.0000000   0.0000000
 AtZNuc=   8.0000000   6.0000000   6.0000000   6.0000000   6.0000000   6.0000000   6.0000000   8.0000000   8.0000000   8.0000000

  Atom        11          12          13          14          15          16          17          18          19          20
 IAtWgt=          16          16          12          12          16          12          12          16          12          12
 AtmWgt=  15.9949146  15.9949146  12.0000000  12.0000000  15.9949146  12.0000000  12.0000000  15.9949146  12.0000000  12.0000000
 NucSpn=           0           0           0           0           0           0           0           0           0           0
 AtZEff=   0.0000000   0.0000000   0.0000000   0.0000000   0.0000000   0.0000000   0.0000000   0.0000000   0.0000000   0.0000000
 NQMom=    0.0000000   0.0000000   0.0000000   0.0000000   0.0000000   0.0000000   0.0000000   0.0000000   0.0000000   0.0000000
 NMagM=    0.0000000   0.0000000   0.0000000   0.0000000   0.0000000   0.0000000   0.0000000   0.0000000   0.0000000   0.0000000
 AtZNuc=   8.0000000   8.0000000   6.0000000   6.0000000   8.0000000   6.0000000   6.0000000   8.0000000   6.0000000   6.0000000

  Atom        21          22          23          24          25          26          27          28          29          30
 IAtWgt=          16          16          12          12          12          12          16          12          12          16
 AtmWgt=  15.9949146  15.9949146  12.0000000  12.0000000  12.0000000  12.0000000  15.9949146  12.0000000  12.0000000  15.9949146
 NucSpn=           0           0           0           0           0           0           0           0           0           0
 AtZEff=   0.0000000   0.0000000   0.0000000   0.0000000   0.0000000   0.0000000   0.0000000   0.0000000   0.0000000   0.0000000
 NQMom=    0.0000000   0.0000000   0.0000000   0.0000000   0.0000000   0.0000000   0.0000000   0.0000000   0.0000000   0.0000000
 NMagM=    0.0000000   0.0000000   0.0000000   0.0000000   0.0000000   0.0000000   0.0000000   0.0000000   0.0000000   0.0000000
 AtZNuc=   8.0000000   8.0000000   6.0000000   6.0000000   6.0000000   6.0000000   8.0000000   6.0000000   6.0000000   8.0000000

  Atom        31          32          33          34          35          36          37          38          39          40
 IAtWgt=          16          12          12          12          12          12          14          16          16          16
 AtmWgt=  15.9949146  12.0000000  12.0000000  12.0000000  12.0000000  12.0000000  14.0030740  15.9949146  15.9949146  15.9949146
 NucSpn=           0           0           0           0           0           0           2           0           0           0
 AtZEff=   0.0000000   0.0000000   0.0000000   0.0000000   0.0000000   0.0000000   0.0000000   0.0000000   0.0000000   0.0000000
 NQMom=    0.0000000   0.0000000   0.0000000   0.0000000   0.0000000   0.0000000   2.0440000   0.0000000   0.0000000   0.0000000
 NMagM=    0.0000000   0.0000000   0.0000000   0.0000000   0.0000000   0.0000000   0.4037610   0.0000000   0.0000000   0.0000000
 AtZNuc=   8.0000000   6.0000000   6.0000000   6.0000000   6.0000000   6.0000000   7.0000000   8.0000000   8.0000000   8.0000000

  Atom        41          42          43          44          45          46          47          48          49          50
 IAtWgt=           1           1           1           1           1           1           1           1           1           1
 AtmWgt=   1.0078250   1.0078250   1.0078250   1.0078250   1.0078250   1.0078250   1.0078250   1.0078250   1.0078250   1.0078250
 NucSpn=           1           1           1           1           1           1           1           1           1           1
 AtZEff=   0.0000000   0.0000000   0.0000000   0.0000000   0.0000000   0.0000000   0.0000000   0.0000000   0.0000000   0.0000000
 NQMom=    0.0000000   0.0000000   0.0000000   0.0000000   0.0000000   0.0000000   0.0000000   0.0000000   0.0000000   0.0000000
 NMagM=    2.7928460   2.7928460   2.7928460   2.7928460   2.7928460   2.7928460   2.7928460   2.7928460   2.7928460   2.7928460
 AtZNuc=   1.0000000   1.0000000   1.0000000   1.0000000   1.0000000   1.0000000   1.0000000   1.0000000   1.0000000   1.0000000

  Atom        51          52          53          54          55          56          57          58          59          60
 IAtWgt=           1           1           1           1           1           1           1           1           1           1
 AtmWgt=   1.0078250   1.0078250   1.0078250   1.0078250   1.0078250   1.0078250   1.0078250   1.0078250   1.0078250   1.0078250
 NucSpn=           1           1           1           1           1           1           1           1           1           1
 AtZEff=   0.0000000   0.0000000   0.0000000   0.0000000   0.0000000   0.0000000   0.0000000   0.0000000   0.0000000   0.0000000
 NQMom=    0.0000000   0.0000000   0.0000000   0.0000000   0.0000000   0.0000000   0.0000000   0.0000000   0.0000000   0.0000000
 NMagM=    2.7928460   2.7928460   2.7928460   2.7928460   2.7928460   2.7928460   2.7928460   2.7928460   2.7928460   2.7928460
 AtZNuc=   1.0000000   1.0000000   1.0000000   1.0000000   1.0000000   1.0000000   1.0000000   1.0000000   1.0000000   1.0000000

  Atom        61          62          63          64          65          66          67          68          69          70
 IAtWgt=           1           1           1           1           1           1           1           1           1           1
 AtmWgt=   1.0078250   1.0078250   1.0078250   1.0078250   1.0078250   1.0078250   1.0078250   1.0078250   1.0078250   1.0078250
 NucSpn=           1           1           1           1           1           1           1           1           1           1
 AtZEff=   0.0000000   0.0000000   0.0000000   0.0000000   0.0000000   0.0000000   0.0000000   0.0000000   0.0000000   0.0000000
 NQMom=    0.0000000   0.0000000   0.0000000   0.0000000   0.0000000   0.0000000   0.0000000   0.0000000   0.0000000   0.0000000
 NMagM=    2.7928460   2.7928460   2.7928460   2.7928460   2.7928460   2.7928460   2.7928460   2.7928460   2.7928460   2.7928460
 AtZNuc=   1.0000000   1.0000000   1.0000000   1.0000000   1.0000000   1.0000000   1.0000000   1.0000000   1.0000000   1.0000000

  Atom        71          72          73          74          75          76          77          78          79          80
 IAtWgt=           1           1           1           1           1           1           1           1           1           1
 AtmWgt=   1.0078250   1.0078250   1.0078250   1.0078250   1.0078250   1.0078250   1.0078250   1.0078250   1.0078250   1.0078250
 NucSpn=           1           1           1           1           1           1           1           1           1           1
 AtZEff=   0.0000000   0.0000000   0.0000000   0.0000000   0.0000000   0.0000000   0.0000000   0.0000000   0.0000000   0.0000000
 NQMom=    0.0000000   0.0000000   0.0000000   0.0000000   0.0000000   0.0000000   0.0000000   0.0000000   0.0000000   0.0000000
 NMagM=    2.7928460   2.7928460   2.7928460   2.7928460   2.7928460   2.7928460   2.7928460   2.7928460   2.7928460   2.7928460
 AtZNuc=   1.0000000   1.0000000   1.0000000   1.0000000   1.0000000   1.0000000   1.0000000   1.0000000   1.0000000   1.0000000

  Atom        81          82          83          84
 IAtWgt=           1           1           1           1
 AtmWgt=   1.0078250   1.0078250   1.0078250   1.0078250
 NucSpn=           1           1           1           1
 AtZEff=   0.0000000   0.0000000   0.0000000   0.0000000
 NQMom=    0.0000000   0.0000000   0.0000000   0.0000000
 NMagM=    2.7928460   2.7928460   2.7928460   2.7928460
 AtZNuc=   1.0000000   1.0000000   1.0000000   1.0000000
 Leave Link  101 at Thu Mar 24 17:35:47 2016, MaxMem= 10737418240 cpu:         5.3
 (Enter /share/apps//g09/l103.exe)

 GradGradGradGradGradGradGradGradGradGradGradGradGradGradGradGradGradGrad
 Berny optimization.
 Initialization pass.
                           ----------------------------
                           !    Initial Parameters    !
                           ! (Angstroms and Degrees)  !
 --------------------------                            --------------------------
 ! Name  Definition              Value          Derivative Info.                !
 --------------------------------------------------------------------------------
 ! R1    R(1,2)                  1.4156         estimate D2E/DX2                !
 ! R2    R(1,6)                  1.4226         estimate D2E/DX2                !
 ! R3    R(2,3)                  1.5176         estimate D2E/DX2                !
 ! R4    R(2,12)                 1.3757         estimate D2E/DX2                !
 ! R5    R(2,41)                 1.1005         estimate D2E/DX2                !
 ! R6    R(3,4)                  1.5172         estimate D2E/DX2                !
 ! R7    R(3,11)                 1.3945         estimate D2E/DX2                !
 ! R8    R(3,42)                 1.101          estimate D2E/DX2                !
 ! R9    R(4,5)                  1.5209         estimate D2E/DX2                !
 ! R10   R(4,10)                 1.408          estimate D2E/DX2                !
 ! R11   R(4,43)                 1.0984         estimate D2E/DX2                !
 ! R12   R(5,6)                  1.5153         estimate D2E/DX2                !
 ! R13   R(5,9)                  1.4238         estimate D2E/DX2                !
 ! R14   R(5,44)                 1.0954         estimate D2E/DX2                !
 ! R15   R(6,7)                  1.5166         estimate D2E/DX2                !
 ! R16   R(6,45)                 1.0988         estimate D2E/DX2                !
 ! R17   R(7,8)                  1.4013         estimate D2E/DX2                !
 ! R18   R(7,46)                 1.0963         estimate D2E/DX2                !
 ! R19   R(7,47)                 1.0922         estimate D2E/DX2                !
 ! R20   R(8,48)                 0.9596         estimate D2E/DX2                !
 ! R21   R(9,49)                 0.966          estimate D2E/DX2                !
 ! R22   R(10,50)                0.96           estimate D2E/DX2                !
 ! R23   R(11,51)                0.9713         estimate D2E/DX2                !
 ! R24   R(12,13)                1.4177         estimate D2E/DX2                !
 ! R25   R(13,14)                1.5142         estimate D2E/DX2                !
 ! R26   R(13,19)                1.5262         estimate D2E/DX2                !
 ! R27   R(13,52)                1.0947         estimate D2E/DX2                !
 ! R28   R(14,15)                1.4101         estimate D2E/DX2                !
 ! R29   R(14,16)                1.5146         estimate D2E/DX2                !
 ! R30   R(14,53)                1.0969         estimate D2E/DX2                !
 ! R31   R(15,54)                0.9626         estimate D2E/DX2                !
 ! R32   R(16,17)                1.5339         estimate D2E/DX2                !
 ! R33   R(16,40)                1.3993         estimate D2E/DX2                !
 ! R34   R(16,55)                1.0913         estimate D2E/DX2                !
 ! R35   R(17,18)                1.41           estimate D2E/DX2                !
 ! R36   R(17,22)                1.3928         estimate D2E/DX2                !
 ! R37   R(17,56)                1.0962         estimate D2E/DX2                !
 ! R38   R(18,19)                1.4064         estimate D2E/DX2                !
 ! R39   R(19,20)                1.5201         estimate D2E/DX2                !
 ! R40   R(19,57)                1.102          estimate D2E/DX2                !
 ! R41   R(20,21)                1.4096         estimate D2E/DX2                !
 ! R42   R(20,58)                1.0898         estimate D2E/DX2                !
 ! R43   R(20,59)                1.0954         estimate D2E/DX2                !
 ! R44   R(21,60)                0.9714         estimate D2E/DX2                !
 ! R45   R(22,23)                1.4114         estimate D2E/DX2                !
 ! R46   R(23,24)                1.5203         estimate D2E/DX2                !
 ! R47   R(23,28)                1.5303         estimate D2E/DX2                !
 ! R48   R(23,61)                1.0939         estimate D2E/DX2                !
 ! R49   R(24,25)                1.5128         estimate D2E/DX2                !
 ! R50   R(24,39)                1.4097         estimate D2E/DX2                !
 ! R51   R(24,62)                1.0986         estimate D2E/DX2                !
 ! R52   R(25,26)                1.5182         estimate D2E/DX2                !
 ! R53   R(25,38)                1.4022         estimate D2E/DX2                !
 ! R54   R(25,63)                1.1019         estimate D2E/DX2                !
 ! R55   R(26,27)                1.4061         estimate D2E/DX2                !
 ! R56   R(26,31)                1.3836         estimate D2E/DX2                !
 ! R57   R(26,64)                1.1009         estimate D2E/DX2                !
 ! R58   R(27,28)                1.4191         estimate D2E/DX2                !
 ! R59   R(28,29)                1.5122         estimate D2E/DX2                !
 ! R60   R(28,65)                1.0988         estimate D2E/DX2                !
 ! R61   R(29,30)                1.4131         estimate D2E/DX2                !
 ! R62   R(29,66)                1.0932         estimate D2E/DX2                !
 ! R63   R(29,67)                1.089          estimate D2E/DX2                !
 ! R64   R(30,68)                0.9787         estimate D2E/DX2                !
 ! R65   R(31,32)                1.4317         estimate D2E/DX2                !
 ! R66   R(32,33)                1.5145         estimate D2E/DX2                !
 ! R67   R(32,69)                1.0995         estimate D2E/DX2                !
 ! R68   R(32,70)                1.098          estimate D2E/DX2                !
 ! R69   R(33,34)                1.5287         estimate D2E/DX2                !
 ! R70   R(33,71)                1.088          estimate D2E/DX2                !
 ! R71   R(33,72)                1.0928         estimate D2E/DX2                !
 ! R72   R(34,35)                1.5286         estimate D2E/DX2                !
 ! R73   R(34,73)                1.0966         estimate D2E/DX2                !
 ! R74   R(34,74)                1.0931         estimate D2E/DX2                !
 ! R75   R(35,36)                1.5252         estimate D2E/DX2                !
 ! R76   R(35,75)                1.0926         estimate D2E/DX2                !
 ! R77   R(35,76)                1.0958         estimate D2E/DX2                !
 ! R78   R(36,37)                1.479          estimate D2E/DX2                !
 ! R79   R(36,77)                1.0872         estimate D2E/DX2                !
 ! R80   R(36,78)                1.0827         estimate D2E/DX2                !
 ! R81   R(37,79)                1.033          estimate D2E/DX2                !
 ! R82   R(37,80)                1.0153         estimate D2E/DX2                !
 ! R83   R(37,81)                1.0521         estimate D2E/DX2                !
 ! R84   R(38,82)                0.9566         estimate D2E/DX2                !
 ! R85   R(39,83)                0.9595         estimate D2E/DX2                !
 ! R86   R(40,84)                0.9654         estimate D2E/DX2                !
 ! A1    A(2,1,6)              114.5079         estimate D2E/DX2                !
 ! A2    A(1,2,3)              110.1963         estimate D2E/DX2                !
 ! A3    A(1,2,12)             106.0417         estimate D2E/DX2                !
 ! A4    A(1,2,41)             110.0406         estimate D2E/DX2                !
 ! A5    A(3,2,12)             108.0047         estimate D2E/DX2                !
 ! A6    A(3,2,41)             110.7627         estimate D2E/DX2                !
 ! A7    A(12,2,41)            111.6737         estimate D2E/DX2                !
 ! A8    A(2,3,4)              111.1105         estimate D2E/DX2                !
 ! A9    A(2,3,11)             111.5494         estimate D2E/DX2                !
 ! A10   A(2,3,42)             106.1869         estimate D2E/DX2                !
 ! A11   A(4,3,11)             108.0305         estimate D2E/DX2                !
 ! A12   A(4,3,42)             108.5036         estimate D2E/DX2                !
 ! A13   A(11,3,42)            111.4434         estimate D2E/DX2                !
 ! A14   A(3,4,5)              111.4022         estimate D2E/DX2                !
 ! A15   A(3,4,10)             111.2342         estimate D2E/DX2                !
 ! A16   A(3,4,43)             108.4281         estimate D2E/DX2                !
 ! A17   A(5,4,10)             106.4397         estimate D2E/DX2                !
 ! A18   A(5,4,43)             108.5896         estimate D2E/DX2                !
 ! A19   A(10,4,43)            110.7236         estimate D2E/DX2                !
 ! A20   A(4,5,6)              110.241          estimate D2E/DX2                !
 ! A21   A(4,5,9)              109.7381         estimate D2E/DX2                !
 ! A22   A(4,5,44)             108.8275         estimate D2E/DX2                !
 ! A23   A(6,5,9)              110.2616         estimate D2E/DX2                !
 ! A24   A(6,5,44)             108.5864         estimate D2E/DX2                !
 ! A25   A(9,5,44)             109.1521         estimate D2E/DX2                !
 ! A26   A(1,6,5)              110.1828         estimate D2E/DX2                !
 ! A27   A(1,6,7)              107.2226         estimate D2E/DX2                !
 ! A28   A(1,6,45)             109.2662         estimate D2E/DX2                !
 ! A29   A(5,6,7)              114.2902         estimate D2E/DX2                !
 ! A30   A(5,6,45)             107.9115         estimate D2E/DX2                !
 ! A31   A(7,6,45)             107.8688         estimate D2E/DX2                !
 ! A32   A(6,7,8)              112.2442         estimate D2E/DX2                !
 ! A33   A(6,7,46)             109.6349         estimate D2E/DX2                !
 ! A34   A(6,7,47)             108.3975         estimate D2E/DX2                !
 ! A35   A(8,7,46)             111.9604         estimate D2E/DX2                !
 ! A36   A(8,7,47)             107.036          estimate D2E/DX2                !
 ! A37   A(46,7,47)            107.3542         estimate D2E/DX2                !
 ! A38   A(7,8,48)             110.403          estimate D2E/DX2                !
 ! A39   A(5,9,49)             105.1014         estimate D2E/DX2                !
 ! A40   A(4,10,50)            108.5875         estimate D2E/DX2                !
 ! A41   A(3,11,51)            109.896          estimate D2E/DX2                !
 ! A42   A(2,12,13)            121.1481         estimate D2E/DX2                !
 ! A43   A(12,13,14)           107.0709         estimate D2E/DX2                !
 ! A44   A(12,13,19)           110.6353         estimate D2E/DX2                !
 ! A45   A(12,13,52)           110.596          estimate D2E/DX2                !
 ! A46   A(14,13,19)           107.5006         estimate D2E/DX2                !
 ! A47   A(14,13,52)           110.352          estimate D2E/DX2                !
 ! A48   A(19,13,52)           110.58           estimate D2E/DX2                !
 ! A49   A(13,14,15)           109.224          estimate D2E/DX2                !
 ! A50   A(13,14,16)           108.7622         estimate D2E/DX2                !
 ! A51   A(13,14,53)           108.7848         estimate D2E/DX2                !
 ! A52   A(15,14,16)           110.2302         estimate D2E/DX2                !
 ! A53   A(15,14,53)           109.9683         estimate D2E/DX2                !
 ! A54   A(16,14,53)           109.8394         estimate D2E/DX2                !
 ! A55   A(14,15,54)           107.1395         estimate D2E/DX2                !
 ! A56   A(14,16,17)           112.9687         estimate D2E/DX2                !
 ! A57   A(14,16,40)           108.0951         estimate D2E/DX2                !
 ! A58   A(14,16,55)           105.8985         estimate D2E/DX2                !
 ! A59   A(17,16,40)           110.9024         estimate D2E/DX2                !
 ! A60   A(17,16,55)           108.8112         estimate D2E/DX2                !
 ! A61   A(40,16,55)           110.0349         estimate D2E/DX2                !
 ! A62   A(16,17,18)           112.893          estimate D2E/DX2                !
 ! A63   A(16,17,22)           112.4756         estimate D2E/DX2                !
 ! A64   A(16,17,56)           108.7689         estimate D2E/DX2                !
 ! A65   A(18,17,22)           107.0353         estimate D2E/DX2                !
 ! A66   A(18,17,56)           110.4383         estimate D2E/DX2                !
 ! A67   A(22,17,56)           104.9381         estimate D2E/DX2                !
 ! A68   A(17,18,19)           116.3817         estimate D2E/DX2                !
 ! A69   A(13,19,18)           109.9497         estimate D2E/DX2                !
 ! A70   A(13,19,20)           115.8865         estimate D2E/DX2                !
 ! A71   A(13,19,57)           106.7924         estimate D2E/DX2                !
 ! A72   A(18,19,20)           107.4408         estimate D2E/DX2                !
 ! A73   A(18,19,57)           110.7102         estimate D2E/DX2                !
 ! A74   A(20,19,57)           105.9879         estimate D2E/DX2                !
 ! A75   A(19,20,21)           114.3819         estimate D2E/DX2                !
 ! A76   A(19,20,58)           108.3165         estimate D2E/DX2                !
 ! A77   A(19,20,59)           108.9224         estimate D2E/DX2                !
 ! A78   A(21,20,58)           106.3674         estimate D2E/DX2                !
 ! A79   A(21,20,59)           110.9684         estimate D2E/DX2                !
 ! A80   A(58,20,59)           107.6198         estimate D2E/DX2                !
 ! A81   A(20,21,60)           109.914          estimate D2E/DX2                !
 ! A82   A(17,22,23)           116.7426         estimate D2E/DX2                !
 ! A83   A(22,23,24)           109.6294         estimate D2E/DX2                !
 ! A84   A(22,23,28)           110.3082         estimate D2E/DX2                !
 ! A85   A(22,23,61)           110.7884         estimate D2E/DX2                !
 ! A86   A(24,23,28)           108.3228         estimate D2E/DX2                !
 ! A87   A(24,23,61)           110.3286         estimate D2E/DX2                !
 ! A88   A(28,23,61)           107.409          estimate D2E/DX2                !
 ! A89   A(23,24,25)           109.5022         estimate D2E/DX2                !
 ! A90   A(23,24,39)           110.5148         estimate D2E/DX2                !
 ! A91   A(23,24,62)           108.1405         estimate D2E/DX2                !
 ! A92   A(25,24,39)           109.8444         estimate D2E/DX2                !
 ! A93   A(25,24,62)           109.1127         estimate D2E/DX2                !
 ! A94   A(39,24,62)           109.6922         estimate D2E/DX2                !
 ! A95   A(24,25,26)           111.1406         estimate D2E/DX2                !
 ! A96   A(24,25,38)           107.453          estimate D2E/DX2                !
 ! A97   A(24,25,63)           107.99           estimate D2E/DX2                !
 ! A98   A(26,25,38)           111.8416         estimate D2E/DX2                !
 ! A99   A(26,25,63)           107.7144         estimate D2E/DX2                !
 ! A100  A(38,25,63)           110.6531         estimate D2E/DX2                !
 ! A101  A(25,26,27)           111.013          estimate D2E/DX2                !
 ! A102  A(25,26,31)           107.2242         estimate D2E/DX2                !
 ! A103  A(25,26,64)           109.9586         estimate D2E/DX2                !
 ! A104  A(27,26,31)           106.9989         estimate D2E/DX2                !
 ! A105  A(27,26,64)           110.2459         estimate D2E/DX2                !
 ! A106  A(31,26,64)           111.3316         estimate D2E/DX2                !
 ! A107  A(26,27,28)           117.3387         estimate D2E/DX2                !
 ! A108  A(23,28,27)           109.4415         estimate D2E/DX2                !
 ! A109  A(23,28,29)           114.2602         estimate D2E/DX2                !
 ! A110  A(23,28,65)           108.8431         estimate D2E/DX2                !
 ! A111  A(27,28,29)           105.3508         estimate D2E/DX2                !
 ! A112  A(27,28,65)           110.6419         estimate D2E/DX2                !
 ! A113  A(29,28,65)           108.2628         estimate D2E/DX2                !
 ! A114  A(28,29,30)           110.8793         estimate D2E/DX2                !
 ! A115  A(28,29,66)           108.3076         estimate D2E/DX2                !
 ! A116  A(28,29,67)           109.0776         estimate D2E/DX2                !
 ! A117  A(30,29,66)           108.9559         estimate D2E/DX2                !
 ! A118  A(30,29,67)           110.7955         estimate D2E/DX2                !
 ! A119  A(66,29,67)           108.7638         estimate D2E/DX2                !
 ! A120  A(29,30,68)           110.8269         estimate D2E/DX2                !
 ! A121  A(26,31,32)           114.7636         estimate D2E/DX2                !
 ! A122  A(31,32,33)           109.3375         estimate D2E/DX2                !
 ! A123  A(31,32,69)           109.9659         estimate D2E/DX2                !
 ! A124  A(31,32,70)           108.0816         estimate D2E/DX2                !
 ! A125  A(33,32,69)           111.5858         estimate D2E/DX2                !
 ! A126  A(33,32,70)           110.0845         estimate D2E/DX2                !
 ! A127  A(69,32,70)           107.7112         estimate D2E/DX2                !
 ! A128  A(32,33,34)           118.1            estimate D2E/DX2                !
 ! A129  A(32,33,71)           106.8643         estimate D2E/DX2                !
 ! A130  A(32,33,72)           107.9275         estimate D2E/DX2                !
 ! A131  A(34,33,71)           107.6341         estimate D2E/DX2                !
 ! A132  A(34,33,72)           109.4249         estimate D2E/DX2                !
 ! A133  A(71,33,72)           106.2705         estimate D2E/DX2                !
 ! A134  A(33,34,35)           116.1957         estimate D2E/DX2                !
 ! A135  A(33,34,73)           109.6824         estimate D2E/DX2                !
 ! A136  A(33,34,74)           107.268          estimate D2E/DX2                !
 ! A137  A(35,34,73)           109.5118         estimate D2E/DX2                !
 ! A138  A(35,34,74)           108.0342         estimate D2E/DX2                !
 ! A139  A(73,34,74)           105.591          estimate D2E/DX2                !
 ! A140  A(34,35,36)           112.9507         estimate D2E/DX2                !
 ! A141  A(34,35,75)           109.2679         estimate D2E/DX2                !
 ! A142  A(34,35,76)           109.26           estimate D2E/DX2                !
 ! A143  A(36,35,75)           109.128          estimate D2E/DX2                !
 ! A144  A(36,35,76)           109.9017         estimate D2E/DX2                !
 ! A145  A(75,35,76)           106.1004         estimate D2E/DX2                !
 ! A146  A(35,36,37)           112.7063         estimate D2E/DX2                !
 ! A147  A(35,36,77)           111.6567         estimate D2E/DX2                !
 ! A148  A(35,36,78)           111.9647         estimate D2E/DX2                !
 ! A149  A(37,36,77)           107.0057         estimate D2E/DX2                !
 ! A150  A(37,36,78)           105.5249         estimate D2E/DX2                !
 ! A151  A(77,36,78)           107.6005         estimate D2E/DX2                !
 ! A152  A(36,37,79)           112.5785         estimate D2E/DX2                !
 ! A153  A(36,37,80)           107.8542         estimate D2E/DX2                !
 ! A154  A(36,37,81)           109.3917         estimate D2E/DX2                !
 ! A155  A(79,37,80)           108.8424         estimate D2E/DX2                !
 ! A156  A(79,37,81)           111.6581         estimate D2E/DX2                !
 ! A157  A(80,37,81)           106.2461         estimate D2E/DX2                !
 ! A158  A(25,38,82)           109.0144         estimate D2E/DX2                !
 ! A159  A(24,39,83)           107.4398         estimate D2E/DX2                !
 ! A160  A(16,40,84)           106.2576         estimate D2E/DX2                !
 ! D1    D(6,1,2,3)            -59.9465         estimate D2E/DX2                !
 ! D2    D(6,1,2,12)          -176.5913         estimate D2E/DX2                !
 ! D3    D(6,1,2,41)            62.4823         estimate D2E/DX2                !
 ! D4    D(2,1,6,5)             61.0834         estimate D2E/DX2                !
 ! D5    D(2,1,6,7)           -173.9717         estimate D2E/DX2                !
 ! D6    D(2,1,6,45)           -57.3145         estimate D2E/DX2                !
 ! D7    D(1,2,3,4)             53.3132         estimate D2E/DX2                !
 ! D8    D(1,2,3,11)           173.9231         estimate D2E/DX2                !
 ! D9    D(1,2,3,42)           -64.4817         estimate D2E/DX2                !
 ! D10   D(12,2,3,4)           168.7273         estimate D2E/DX2                !
 ! D11   D(12,2,3,11)          -70.6628         estimate D2E/DX2                !
 ! D12   D(12,2,3,42)           50.9324         estimate D2E/DX2                !
 ! D13   D(41,2,3,4)           -68.6893         estimate D2E/DX2                !
 ! D14   D(41,2,3,11)           51.9206         estimate D2E/DX2                !
 ! D15   D(41,2,3,42)          173.5157         estimate D2E/DX2                !
 ! D16   D(1,2,12,13)         -111.8337         estimate D2E/DX2                !
 ! D17   D(3,2,12,13)          130.0558         estimate D2E/DX2                !
 ! D18   D(41,2,12,13)           8.0319         estimate D2E/DX2                !
 ! D19   D(2,3,4,5)            -50.6319         estimate D2E/DX2                !
 ! D20   D(2,3,4,10)          -169.2128         estimate D2E/DX2                !
 ! D21   D(2,3,4,43)            68.8073         estimate D2E/DX2                !
 ! D22   D(11,3,4,5)          -173.2973         estimate D2E/DX2                !
 ! D23   D(11,3,4,10)           68.1217         estimate D2E/DX2                !
 ! D24   D(11,3,4,43)          -53.8582         estimate D2E/DX2                !
 ! D25   D(42,3,4,5)            65.7482         estimate D2E/DX2                !
 ! D26   D(42,3,4,10)          -52.8328         estimate D2E/DX2                !
 ! D27   D(42,3,4,43)         -174.8127         estimate D2E/DX2                !
 ! D28   D(2,3,11,51)           45.8809         estimate D2E/DX2                !
 ! D29   D(4,3,11,51)          168.2776         estimate D2E/DX2                !
 ! D30   D(42,3,11,51)         -72.6165         estimate D2E/DX2                !
 ! D31   D(3,4,5,6)             51.2608         estimate D2E/DX2                !
 ! D32   D(3,4,5,9)            -70.3701         estimate D2E/DX2                !
 ! D33   D(3,4,5,44)           170.2499         estimate D2E/DX2                !
 ! D34   D(10,4,5,6)           172.676          estimate D2E/DX2                !
 ! D35   D(10,4,5,9)            51.0451         estimate D2E/DX2                !
 ! D36   D(10,4,5,44)          -68.3349         estimate D2E/DX2                !
 ! D37   D(43,4,5,6)           -68.0824         estimate D2E/DX2                !
 ! D38   D(43,4,5,9)           170.2867         estimate D2E/DX2                !
 ! D39   D(43,4,5,44)           50.9067         estimate D2E/DX2                !
 ! D40   D(3,4,10,50)          -52.2297         estimate D2E/DX2                !
 ! D41   D(5,4,10,50)         -173.7521         estimate D2E/DX2                !
 ! D42   D(43,4,10,50)          68.408          estimate D2E/DX2                !
 ! D43   D(4,5,6,1)            -54.8618         estimate D2E/DX2                !
 ! D44   D(4,5,6,7)           -175.6582         estimate D2E/DX2                !
 ! D45   D(4,5,6,45)            64.3645         estimate D2E/DX2                !
 ! D46   D(9,5,6,1)             66.4579         estimate D2E/DX2                !
 ! D47   D(9,5,6,7)            -54.3385         estimate D2E/DX2                !
 ! D48   D(9,5,6,45)          -174.3158         estimate D2E/DX2                !
 ! D49   D(44,5,6,1)          -173.9978         estimate D2E/DX2                !
 ! D50   D(44,5,6,7)            65.2058         estimate D2E/DX2                !
 ! D51   D(44,5,6,45)          -54.7716         estimate D2E/DX2                !
 ! D52   D(4,5,9,49)           -45.6763         estimate D2E/DX2                !
 ! D53   D(6,5,9,49)          -167.2949         estimate D2E/DX2                !
 ! D54   D(44,5,9,49)           73.5044         estimate D2E/DX2                !
 ! D55   D(1,6,7,8)             66.1128         estimate D2E/DX2                !
 ! D56   D(1,6,7,46)           -58.9793         estimate D2E/DX2                !
 ! D57   D(1,6,7,47)          -175.878          estimate D2E/DX2                !
 ! D58   D(5,6,7,8)           -171.4623         estimate D2E/DX2                !
 ! D59   D(5,6,7,46)            63.4455         estimate D2E/DX2                !
 ! D60   D(5,6,7,47)           -53.4532         estimate D2E/DX2                !
 ! D61   D(45,6,7,8)           -51.461          estimate D2E/DX2                !
 ! D62   D(45,6,7,46)         -176.5532         estimate D2E/DX2                !
 ! D63   D(45,6,7,47)           66.5481         estimate D2E/DX2                !
 ! D64   D(6,7,8,48)           -78.7737         estimate D2E/DX2                !
 ! D65   D(46,7,8,48)           45.0307         estimate D2E/DX2                !
 ! D66   D(47,7,8,48)          162.4131         estimate D2E/DX2                !
 ! D67   D(2,12,13,14)        -125.1315         estimate D2E/DX2                !
 ! D68   D(2,12,13,19)         118.0103         estimate D2E/DX2                !
 ! D69   D(2,12,13,52)          -4.8627         estimate D2E/DX2                !
 ! D70   D(12,13,14,15)         61.2116         estimate D2E/DX2                !
 ! D71   D(12,13,14,16)        -59.1343         estimate D2E/DX2                !
 ! D72   D(12,13,14,53)       -178.7472         estimate D2E/DX2                !
 ! D73   D(19,13,14,15)       -179.882          estimate D2E/DX2                !
 ! D74   D(19,13,14,16)         59.7721         estimate D2E/DX2                !
 ! D75   D(19,13,14,53)        -59.8408         estimate D2E/DX2                !
 ! D76   D(52,13,14,15)        -59.2129         estimate D2E/DX2                !
 ! D77   D(52,13,14,16)       -179.5588         estimate D2E/DX2                !
 ! D78   D(52,13,14,53)         60.8283         estimate D2E/DX2                !
 ! D79   D(12,13,19,18)         53.4528         estimate D2E/DX2                !
 ! D80   D(12,13,19,20)        -68.5907         estimate D2E/DX2                !
 ! D81   D(12,13,19,57)        173.619          estimate D2E/DX2                !
 ! D82   D(14,13,19,18)        -63.1398         estimate D2E/DX2                !
 ! D83   D(14,13,19,20)        174.8167         estimate D2E/DX2                !
 ! D84   D(14,13,19,57)         57.0264         estimate D2E/DX2                !
 ! D85   D(52,13,19,18)        176.335          estimate D2E/DX2                !
 ! D86   D(52,13,19,20)         54.2915         estimate D2E/DX2                !
 ! D87   D(52,13,19,57)        -63.4988         estimate D2E/DX2                !
 ! D88   D(13,14,15,54)       -173.0997         estimate D2E/DX2                !
 ! D89   D(16,14,15,54)        -53.6579         estimate D2E/DX2                !
 ! D90   D(53,14,15,54)         67.5895         estimate D2E/DX2                !
 ! D91   D(13,14,16,17)        -51.1801         estimate D2E/DX2                !
 ! D92   D(13,14,16,40)       -174.2834         estimate D2E/DX2                !
 ! D93   D(13,14,16,55)         67.8235         estimate D2E/DX2                !
 ! D94   D(15,14,16,17)       -170.9019         estimate D2E/DX2                !
 ! D95   D(15,14,16,40)         65.9948         estimate D2E/DX2                !
 ! D96   D(15,14,16,55)        -51.8983         estimate D2E/DX2                !
 ! D97   D(53,14,16,17)         67.7738         estimate D2E/DX2                !
 ! D98   D(53,14,16,40)        -55.3295         estimate D2E/DX2                !
 ! D99   D(53,14,16,55)       -173.2226         estimate D2E/DX2                !
 ! D100  D(14,16,17,18)         43.8477         estimate D2E/DX2                !
 ! D101  D(14,16,17,22)        165.1028         estimate D2E/DX2                !
 ! D102  D(14,16,17,56)        -79.0978         estimate D2E/DX2                !
 ! D103  D(40,16,17,18)        165.3794         estimate D2E/DX2                !
 ! D104  D(40,16,17,22)        -73.3655         estimate D2E/DX2                !
 ! D105  D(40,16,17,56)         42.4339         estimate D2E/DX2                !
 ! D106  D(55,16,17,18)        -73.4547         estimate D2E/DX2                !
 ! D107  D(55,16,17,22)         47.8004         estimate D2E/DX2                !
 ! D108  D(55,16,17,56)        163.5998         estimate D2E/DX2                !
 ! D109  D(14,16,40,84)       -155.8714         estimate D2E/DX2                !
 ! D110  D(17,16,40,84)         79.7787         estimate D2E/DX2                !
 ! D111  D(55,16,40,84)        -40.6634         estimate D2E/DX2                !
 ! D112  D(16,17,18,19)        -47.9844         estimate D2E/DX2                !
 ! D113  D(22,17,18,19)       -172.276          estimate D2E/DX2                !
 ! D114  D(56,17,18,19)         74.0271         estimate D2E/DX2                !
 ! D115  D(16,17,22,23)        -57.6713         estimate D2E/DX2                !
 ! D116  D(18,17,22,23)         66.8749         estimate D2E/DX2                !
 ! D117  D(56,17,22,23)       -175.7546         estimate D2E/DX2                !
 ! D118  D(17,18,19,13)         58.3323         estimate D2E/DX2                !
 ! D119  D(17,18,19,20)       -174.735          estimate D2E/DX2                !
 ! D120  D(17,18,19,57)        -59.4305         estimate D2E/DX2                !
 ! D121  D(13,19,20,21)         70.4696         estimate D2E/DX2                !
 ! D122  D(13,19,20,58)       -171.1098         estimate D2E/DX2                !
 ! D123  D(13,19,20,59)        -54.3306         estimate D2E/DX2                !
 ! D124  D(18,19,20,21)        -52.8962         estimate D2E/DX2                !
 ! D125  D(18,19,20,58)         65.5244         estimate D2E/DX2                !
 ! D126  D(18,19,20,59)       -177.6964         estimate D2E/DX2                !
 ! D127  D(57,19,20,21)       -171.2953         estimate D2E/DX2                !
 ! D128  D(57,19,20,58)        -52.8747         estimate D2E/DX2                !
 ! D129  D(57,19,20,59)         63.9045         estimate D2E/DX2                !
 ! D130  D(19,20,21,60)        -65.0813         estimate D2E/DX2                !
 ! D131  D(58,20,21,60)        175.3986         estimate D2E/DX2                !
 ! D132  D(59,20,21,60)         58.6284         estimate D2E/DX2                !
 ! D133  D(17,22,23,24)        119.007          estimate D2E/DX2                !
 ! D134  D(17,22,23,28)       -121.7916         estimate D2E/DX2                !
 ! D135  D(17,22,23,61)         -2.9933         estimate D2E/DX2                !
 ! D136  D(22,23,24,25)        178.7661         estimate D2E/DX2                !
 ! D137  D(22,23,24,39)        -60.1004         estimate D2E/DX2                !
 ! D138  D(22,23,24,62)         59.9788         estimate D2E/DX2                !
 ! D139  D(28,23,24,25)         58.35           estimate D2E/DX2                !
 ! D140  D(28,23,24,39)        179.4835         estimate D2E/DX2                !
 ! D141  D(28,23,24,62)        -60.4373         estimate D2E/DX2                !
 ! D142  D(61,23,24,25)        -58.9591         estimate D2E/DX2                !
 ! D143  D(61,23,24,39)         62.1744         estimate D2E/DX2                !
 ! D144  D(61,23,24,62)       -177.7464         estimate D2E/DX2                !
 ! D145  D(22,23,28,27)       -177.7511         estimate D2E/DX2                !
 ! D146  D(22,23,28,29)         64.4088         estimate D2E/DX2                !
 ! D147  D(22,23,28,65)        -56.7224         estimate D2E/DX2                !
 ! D148  D(24,23,28,27)        -57.7587         estimate D2E/DX2                !
 ! D149  D(24,23,28,29)       -175.5988         estimate D2E/DX2                !
 ! D150  D(24,23,28,65)         63.27           estimate D2E/DX2                !
 ! D151  D(61,23,28,27)         61.4086         estimate D2E/DX2                !
 ! D152  D(61,23,28,29)        -56.4315         estimate D2E/DX2                !
 ! D153  D(61,23,28,65)       -177.5627         estimate D2E/DX2                !
 ! D154  D(23,24,25,26)        -55.2308         estimate D2E/DX2                !
 ! D155  D(23,24,25,38)       -177.8947         estimate D2E/DX2                !
 ! D156  D(23,24,25,63)         62.7102         estimate D2E/DX2                !
 ! D157  D(39,24,25,26)       -176.769          estimate D2E/DX2                !
 ! D158  D(39,24,25,38)         60.5671         estimate D2E/DX2                !
 ! D159  D(39,24,25,63)        -58.828          estimate D2E/DX2                !
 ! D160  D(62,24,25,26)         62.9526         estimate D2E/DX2                !
 ! D161  D(62,24,25,38)        -59.7113         estimate D2E/DX2                !
 ! D162  D(62,24,25,63)       -179.1064         estimate D2E/DX2                !
 ! D163  D(23,24,39,83)       -173.6356         estimate D2E/DX2                !
 ! D164  D(25,24,39,83)        -52.7055         estimate D2E/DX2                !
 ! D165  D(62,24,39,83)         67.2208         estimate D2E/DX2                !
 ! D166  D(24,25,26,27)         50.7784         estimate D2E/DX2                !
 ! D167  D(24,25,26,31)        167.3277         estimate D2E/DX2                !
 ! D168  D(24,25,26,64)        -71.49           estimate D2E/DX2                !
 ! D169  D(38,25,26,27)        170.8725         estimate D2E/DX2                !
 ! D170  D(38,25,26,31)        -72.5782         estimate D2E/DX2                !
 ! D171  D(38,25,26,64)         48.6041         estimate D2E/DX2                !
 ! D172  D(63,25,26,27)        -67.3294         estimate D2E/DX2                !
 ! D173  D(63,25,26,31)         49.2199         estimate D2E/DX2                !
 ! D174  D(63,25,26,64)        170.4022         estimate D2E/DX2                !
 ! D175  D(24,25,38,82)       -174.1129         estimate D2E/DX2                !
 ! D176  D(26,25,38,82)         63.6574         estimate D2E/DX2                !
 ! D177  D(63,25,38,82)        -56.4351         estimate D2E/DX2                !
 ! D178  D(25,26,27,28)        -53.6659         estimate D2E/DX2                !
 ! D179  D(31,26,27,28)       -170.3537         estimate D2E/DX2                !
 ! D180  D(64,26,27,28)         68.4354         estimate D2E/DX2                !
 ! D181  D(25,26,31,32)        158.4344         estimate D2E/DX2                !
 ! D182  D(27,26,31,32)        -82.3996         estimate D2E/DX2                !
 ! D183  D(64,26,31,32)         38.1217         estimate D2E/DX2                !
 ! D184  D(26,27,28,23)         57.6215         estimate D2E/DX2                !
 ! D185  D(26,27,28,29)       -179.0976         estimate D2E/DX2                !
 ! D186  D(26,27,28,65)        -62.3104         estimate D2E/DX2                !
 ! D187  D(23,28,29,30)         66.0384         estimate D2E/DX2                !
 ! D188  D(23,28,29,66)       -174.4621         estimate D2E/DX2                !
 ! D189  D(23,28,29,67)        -56.2371         estimate D2E/DX2                !
 ! D190  D(27,28,29,30)        -54.1148         estimate D2E/DX2                !
 ! D191  D(27,28,29,66)         65.3846         estimate D2E/DX2                !
 ! D192  D(27,28,29,67)       -176.3903         estimate D2E/DX2                !
 ! D193  D(65,28,29,30)       -172.51           estimate D2E/DX2                !
 ! D194  D(65,28,29,66)        -53.0105         estimate D2E/DX2                !
 ! D195  D(65,28,29,67)         65.2145         estimate D2E/DX2                !
 ! D196  D(28,29,30,68)       -123.4091         estimate D2E/DX2                !
 ! D197  D(66,29,30,68)        117.4809         estimate D2E/DX2                !
 ! D198  D(67,29,30,68)         -2.1397         estimate D2E/DX2                !
 ! D199  D(26,31,32,33)        172.611          estimate D2E/DX2                !
 ! D200  D(26,31,32,69)         49.7697         estimate D2E/DX2                !
 ! D201  D(26,31,32,70)        -67.5595         estimate D2E/DX2                !
 ! D202  D(31,32,33,34)        -82.2507         estimate D2E/DX2                !
 ! D203  D(31,32,33,71)        156.3692         estimate D2E/DX2                !
 ! D204  D(31,32,33,72)         42.4293         estimate D2E/DX2                !
 ! D205  D(69,32,33,34)         39.6205         estimate D2E/DX2                !
 ! D206  D(69,32,33,71)        -81.7596         estimate D2E/DX2                !
 ! D207  D(69,32,33,72)        164.3005         estimate D2E/DX2                !
 ! D208  D(70,32,33,34)        159.1592         estimate D2E/DX2                !
 ! D209  D(70,32,33,71)         37.7791         estimate D2E/DX2                !
 ! D210  D(70,32,33,72)        -76.1608         estimate D2E/DX2                !
 ! D211  D(32,33,34,35)         62.7211         estimate D2E/DX2                !
 ! D212  D(32,33,34,73)        -62.1205         estimate D2E/DX2                !
 ! D213  D(32,33,34,74)       -176.3325         estimate D2E/DX2                !
 ! D214  D(71,33,34,35)       -176.2937         estimate D2E/DX2                !
 ! D215  D(71,33,34,73)         58.8647         estimate D2E/DX2                !
 ! D216  D(71,33,34,74)        -55.3473         estimate D2E/DX2                !
 ! D217  D(72,33,34,35)        -61.2172         estimate D2E/DX2                !
 ! D218  D(72,33,34,73)        173.9412         estimate D2E/DX2                !
 ! D219  D(72,33,34,74)         59.7292         estimate D2E/DX2                !
 ! D220  D(33,34,35,36)        -85.0556         estimate D2E/DX2                !
 ! D221  D(33,34,35,75)        153.2768         estimate D2E/DX2                !
 ! D222  D(33,34,35,76)         37.5974         estimate D2E/DX2                !
 ! D223  D(73,34,35,36)         39.8732         estimate D2E/DX2                !
 ! D224  D(73,34,35,75)        -81.7944         estimate D2E/DX2                !
 ! D225  D(73,34,35,76)        162.5261         estimate D2E/DX2                !
 ! D226  D(74,34,35,36)        154.408          estimate D2E/DX2                !
 ! D227  D(74,34,35,75)         32.7404         estimate D2E/DX2                !
 ! D228  D(74,34,35,76)        -82.9391         estimate D2E/DX2                !
 ! D229  D(34,35,36,37)        141.8236         estimate D2E/DX2                !
 ! D230  D(34,35,36,77)        -97.6943         estimate D2E/DX2                !
 ! D231  D(34,35,36,78)         23.0328         estimate D2E/DX2                !
 ! D232  D(75,35,36,37)        -96.4299         estimate D2E/DX2                !
 ! D233  D(75,35,36,77)         24.0522         estimate D2E/DX2                !
 ! D234  D(75,35,36,78)        144.7793         estimate D2E/DX2                !
 ! D235  D(76,35,36,37)         19.5294         estimate D2E/DX2                !
 ! D236  D(76,35,36,77)        140.0114         estimate D2E/DX2                !
 ! D237  D(76,35,36,78)        -99.2614         estimate D2E/DX2                !
 ! D238  D(35,36,37,79)         62.8471         estimate D2E/DX2                !
 ! D239  D(35,36,37,80)        -57.2462         estimate D2E/DX2                !
 ! D240  D(35,36,37,81)       -172.3953         estimate D2E/DX2                !
 ! D241  D(77,36,37,79)        -60.2676         estimate D2E/DX2                !
 ! D242  D(77,36,37,80)        179.6391         estimate D2E/DX2                !
 ! D243  D(77,36,37,81)         64.49           estimate D2E/DX2                !
 ! D244  D(78,36,37,79)       -174.6697         estimate D2E/DX2                !
 ! D245  D(78,36,37,80)         65.237          estimate D2E/DX2                !
 ! D246  D(78,36,37,81)        -49.9121         estimate D2E/DX2                !
 --------------------------------------------------------------------------------
 Trust Radius=3.00D-01 FncErr=1.00D-07 GrdErr=1.00D-06
 Number of steps in this run=    504 maximum allowed number of steps=    504.
 GradGradGradGradGradGradGradGradGradGradGradGradGradGradGradGradGradGrad

 Leave Link  103 at Thu Mar 24 17:35:48 2016, MaxMem= 10737418240 cpu:         0.5
 (Enter /share/apps//g09/l202.exe)
 Stoichiometry    C23H44NO16(1+)
 Framework group  C1[X(C23H44NO16)]
 Deg. of freedom   246
 Full point group                 C1      NOp   1
 Largest Abelian subgroup         C1      NOp   1
 Largest concise Abelian subgroup C1      NOp   1
                         Standard orientation:                         
 ---------------------------------------------------------------------
 Center     Atomic      Atomic             Coordinates (Angstroms)
 Number     Number       Type             X           Y           Z
 ---------------------------------------------------------------------
      1          8           0       -1.862404    2.014361   -0.431008
      2          6           0       -2.519853    1.243609    0.557717
      3          6           0       -1.903394    1.503053    1.920017
      4          6           0       -1.872102    2.987514    2.231895
      5          6           0       -1.255208    3.781469    1.090796
      6          6           0       -1.923021    3.419975   -0.220463
      7          6           0       -1.307726    4.083284   -1.437614
      8          8           0       -2.067954    3.875293   -2.596238
      9          8           0        0.142198    3.517459    1.021681
     10          8           0       -1.088487    3.252829    3.371222
     11          8           0       -2.615293    0.863752    2.934536
     12          8           0       -2.288580   -0.072292    0.229972
     13          6           0       -3.340139   -0.913193   -0.213762
     14          6           0       -3.351473   -2.126411    0.692131
     15          8           0       -3.598217   -1.713762    2.017724
     16          6           0       -2.006008   -2.815725    0.600042
     17          6           0       -1.573148   -3.092949   -0.845181
     18          8           0       -1.801827   -1.999530   -1.705589
     19          6           0       -3.073701   -1.403574   -1.634315
     20          6           0       -3.143639   -0.347187   -2.725153
     21          8           0       -2.083206    0.581345   -2.704870
     22          8           0       -0.221495   -3.414092   -0.943865
     23          6           0        0.695308   -2.462115   -0.448490
     24          6           0        1.507911   -3.075105    0.680806
     25          6           0        2.510212   -2.062410    1.189202
     26          6           0        3.385365   -1.544671    0.061846
     27          8           0        2.604536   -1.111372   -1.024316
     28          6           0        1.659753   -2.027949   -1.554463
     29          6           0        0.999507   -1.301779   -2.704857
     30          8           0        0.477095   -0.058654   -2.282327
     31          8           0        4.059892   -0.436454    0.542690
     32          6           0        5.256048   -0.105996   -0.171289
     33          6           0        5.792640    1.216907    0.334359
     34          6           0        5.183386    2.502314   -0.225467
     35          6           0        3.698182    2.724887    0.059372
     36          6           0        2.788727    2.036030   -0.952849
     37          7           0        1.575992    1.460612   -0.331873
     38          8           0        3.266117   -2.685853    2.192200
     39          8           0        0.662822   -3.481862    1.733182
     40          8           0       -2.074677   -4.003190    1.337140
     41          1           0       -3.595159    1.477685    0.565116
     42          1           0       -0.866915    1.136098    1.862806
     43          1           0       -2.904108    3.332834    2.380937
     44          1           0       -1.410304    4.849361    1.278830
     45          1           0       -2.974767    3.732750   -0.161573
     46          1           0       -0.272963    3.742132   -1.559465
     47          1           0       -1.277097    5.161158   -1.264215
     48          1           0       -1.906831    2.997518   -2.949002
     49          1           0        0.454450    3.574056    1.934094
     50          1           0       -1.391053    2.690850    4.088375
     51          1           0       -2.812123   -0.051100    2.674289
     52          1           0       -4.300153   -0.389717   -0.161082
     53          1           0       -4.142915   -2.808755    0.358765
     54          1           0       -3.490725   -2.487405    2.580322
     55          1           0       -1.288283   -2.132733    1.057466
     56          1           0       -2.102021   -3.982161   -1.207351
     57          1           0       -3.861523   -2.136918   -1.870997
     58          1           0       -3.094163   -0.848793   -3.691341
     59          1           0       -4.111695    0.161954   -2.665056
     60          1           0       -2.122609    1.110864   -1.891483
     61          1           0        0.173890   -1.566357   -0.098686
     62          1           0        2.046704   -3.945167    0.281315
     63          1           0        1.950793   -1.206361    1.599583
     64          1           0        4.085389   -2.330380   -0.261635
     65          1           0        2.165460   -2.917900   -1.953865
     66          1           0        1.752560   -1.126311   -3.477691
     67          1           0        0.212993   -1.931163   -3.118617
     68          1           0       -0.480159    0.000764   -2.476997
     69          1           0        5.051853   -0.073493   -1.251194
     70          1           0        5.990029   -0.903167    0.006041
     71          1           0        6.857264    1.232015    0.110450
     72          1           0        5.708856    1.219519    1.423967
     73          1           0        5.360951    2.554984   -1.306343
     74          1           0        5.739588    3.339191    0.204753
     75          1           0        3.487601    3.796991    0.058422
     76          1           0        3.466950    2.370656    1.070281
     77          1           0        2.454454    2.724141   -1.725361
     78          1           0        3.283647    1.207735   -1.444046
     79          1           0        0.970788    2.179535    0.096998
     80          1           0        1.873881    0.810338    0.388743
     81          1           0        1.055006    0.890142   -1.045989
     82          1           0        3.845346   -2.038941    2.593459
     83          1           0        1.223085   -3.766787    2.458164
     84          1           0       -1.167815   -4.217660    1.589176
 ---------------------------------------------------------------------
 Rotational constants (GHZ):      0.1015399      0.0878904      0.0661871
 Leave Link  202 at Thu Mar 24 17:35:48 2016, MaxMem= 10737418240 cpu:         1.2
 (Enter /share/apps//g09/l301.exe)
 Standard basis: 6-311+G(d,p) (5D, 7F)
 Ernie: Thresh=  0.10000D-02 Tol=  0.10000D-05 Strict=F.
 There are  1184 symmetry adapted cartesian basis functions of A   symmetry.
 There are  1144 symmetry adapted basis functions of A   symmetry.
  1144 basis functions,  1792 primitive gaussians,  1184 cartesian basis functions
   158 alpha electrons      158 beta electrons
       nuclear repulsion energy      6060.4439498405 Hartrees.
 IExCor= 1009 DFT=T Ex+Corr=PBE1PBE ExCW=0 ScaHFX=  0.250000
 ScaDFX=  0.750000  0.750000  1.000000  1.000000 ScalE2=  1.000000  1.000000
 IRadAn=      0 IRanWt=     -1 IRanGd=            0 ICorTp=0 IEmpDi=131
 NAtoms=   84 NActive=   84 NUniq=   84 SFac= 1.00D+00 NAtFMM=   60 NAOKFM=T Big=T
 Integral buffers will be    131072 words long.
 Raffenetti 2 integral format.
 Two-electron integral symmetry is turned on.
 R6Disp:  Grimme-D3 Dispersion energy=       -0.0876697560 Hartrees.
 Nuclear repulsion after empirical dispersion term =     6060.3562800845 Hartrees.
 Leave Link  301 at Thu Mar 24 17:35:48 2016, MaxMem= 10737418240 cpu:         1.7
 (Enter /share/apps//g09/l302.exe)
 NPDir=0 NMtPBC=     1 NCelOv=     1 NCel=       1 NClECP=     1 NCelD=      1
         NCelK=      1 NCelE2=     1 NClLst=     1 CellRange=     0.0.
 One-electron integrals computed using PRISM.
 NBasis=  1144 RedAO= T EigKep=  1.51D-06  NBF=  1144
 NBsUse=  1144 1.00D-06 EigRej= -1.00D+00 NBFU=  1144
 Precomputing XC quadrature grid using
 IXCGrd= 4 IRadAn=           0 IRanWt=          -1 IRanGd=           0 AccXCQ= 0.00D+00.
 Generated NRdTot=       0 NPtTot=           0 NUsed=           0 NTot=          32
 NSgBfM=  1126  1126  1126  1126  1126 MxSgAt=    84 MxSgA2=    84.
 Leave Link  302 at Thu Mar 24 17:35:52 2016, MaxMem= 10737418240 cpu:        57.1
 (Enter /share/apps//g09/l303.exe)
 DipDrv:  MaxL=1.
 Leave Link  303 at Thu Mar 24 17:35:54 2016, MaxMem= 10737418240 cpu:        27.0
 (Enter /share/apps//g09/l401.exe)
 ExpMin= 4.38D-02 ExpMax= 8.59D+03 ExpMxC= 1.30D+03 IAcc=2 IRadAn=         4 AccDes= 0.00D+00
 Harris functional with IExCor= 1009 and IRadAn=       4 diagonalized for initial guess.
 HarFok:  IExCor= 1009 AccDes= 0.00D+00 IRadAn=         4 IDoV= 1 UseB2=F ITyADJ=14
 ICtDFT=  3500011 ScaDFX=  1.000000  1.000000  1.000000  1.000000
 FoFCou: FMM=F IPFlag=           0 FMFlag=      100000 FMFlg1=        2001
         NFxFlg=           0 DoJE=T BraDBF=F KetDBF=T FulRan=T
         wScrn=  0.000000 ICntrl=     500 IOpCl=  0 I1Cent=   200000004 NGrid=           0
         NMat0=    1 NMatS0=      1 NMatT0=    0 NMatD0=    1 NMtDS0=    0 NMtDT0=    0
 Petite list used in FoFCou.
 Harris En= -2159.74618440150    
 JPrj=0 DoOrth=F DoCkMO=F.
 Leave Link  401 at Thu Mar 24 17:36:08 2016, MaxMem= 10737418240 cpu:       237.2
 (Enter /share/apps//g09/l502.exe)
 Closed shell SCF:
 Using DIIS extrapolation, IDIIS=  1040.
 Integral symmetry usage will be decided dynamically.
 IVT=     4256630 IEndB=     4256630 NGot= 10737418240 MDV= 10734581291
 LenX= 10734581291 LenY= 10733178251
 Requested convergence on RMS density matrix=1.00D-08 within 128 cycles.
 Requested convergence on MAX density matrix=1.00D-06.
 Requested convergence on             energy=1.00D-06.
 No special actions if energy rises.
 Fock matrices will be formed incrementally for  20 cycles.

 Cycle   1  Pass 1  IDiag  1:
 FoFJK:  IHMeth= 1 ICntrl=       0 DoSepK=F KAlg= 0 I1Cent=   0 FoldK=F
 IRaf= 810000000 NMat=   1 IRICut=       1 DoRegI=T DoRafI=F ISym2E= 0.
 FoFCou: FMM=T IPFlag=           0 FMFlag=      100000 FMFlg1=        2001
         NFxFlg=           0 DoJE=F BraDBF=F KetDBF=F FulRan=T
         wScrn=  0.000000 ICntrl=       0 IOpCl=  0 I1Cent=           0 NGrid=           0
         NMat0=    1 NMatS0=      1 NMatT0=    0 NMatD0=    1 NMtDS0=    0 NMtDT0=    0
 Symmetry not used in FoFCou.
 FMM levels:  10  Number of levels for PrismC:   9
 E= -2158.67480624322    
 DIIS: error= 1.35D-02 at cycle   1 NSaved=   1.
 NSaved= 1 IEnMin= 1 EnMin= -2158.67480624322     IErMin= 1 ErrMin= 1.35D-02
 ErrMax= 1.35D-02  0.00D+00 EMaxC= 1.00D-01 BMatC= 1.07D+00 BMatP= 1.07D+00
 IDIUse=3 WtCom= 8.65D-01 WtEn= 1.35D-01
 Coeff-Com:  0.100D+01
 Coeff-En:   0.100D+01
 Coeff:      0.100D+01
 Gap=     0.270 Goal=   None    Shift=    0.000
 GapD=    0.270 DampG=1.000 DampE=0.500 DampFc=0.5000 IDamp=-1.
 Damping current iteration by 5.00D-01
 RMSDP=1.17D-02 MaxDP=2.05D+00              OVMax= 1.56D-01

 Cycle   2  Pass 1  IDiag  1:
 RMSU=  5.81D-03    CP:  1.02D+00
 E= -2158.97865908143     Delta-E=       -0.303852838202 Rises=F Damp=T
 DIIS: error= 3.33D-03 at cycle   2 NSaved=   2.
 NSaved= 2 IEnMin= 2 EnMin= -2158.97865908143     IErMin= 2 ErrMin= 3.33D-03
 ErrMax= 3.33D-03  0.00D+00 EMaxC= 1.00D-01 BMatC= 7.98D-02 BMatP= 1.07D+00
 IDIUse=3 WtCom= 9.67D-01 WtEn= 3.33D-02
 Coeff-Com:  0.510D-01 0.949D+00
 Coeff-En:   0.141D+00 0.859D+00
 Coeff:      0.540D-01 0.946D+00
 Gap=     0.277 Goal=   None    Shift=    0.000
 RMSDP=4.72D-03 MaxDP=1.16D+00 DE=-3.04D-01 OVMax= 7.91D-02

 Cycle   3  Pass 1  IDiag  1:
 RMSU=  2.99D-03    CP:  9.33D-01  9.34D-01
 E= -2159.36550738883     Delta-E=       -0.386848307402 Rises=F Damp=F
 DIIS: error= 3.12D-03 at cycle   3 NSaved=   3.
 NSaved= 3 IEnMin= 3 EnMin= -2159.36550738883     IErMin= 3 ErrMin= 3.12D-03
 ErrMax= 3.12D-03  0.00D+00 EMaxC= 1.00D-01 BMatC= 4.27D-02 BMatP= 7.98D-02
 IDIUse=3 WtCom= 9.69D-01 WtEn= 3.12D-02
 Coeff-Com: -0.668D-01 0.404D+00 0.663D+00
 Coeff-En:   0.000D+00 0.000D+00 0.100D+01
 Coeff:     -0.647D-01 0.391D+00 0.674D+00
 Gap=     0.267 Goal=   None    Shift=    0.000
 RMSDP=1.61D-03 MaxDP=5.07D-01 DE=-3.87D-01 OVMax= 1.76D-02

 Cycle   4  Pass 1  IDiag  1:
 RMSU=  1.18D-03    CP:  9.55D-01  1.03D+00  9.48D-01
 E= -2159.39171973912     Delta-E=       -0.026212350296 Rises=F Damp=F
 DIIS: error= 9.32D-04 at cycle   4 NSaved=   4.
 NSaved= 4 IEnMin= 4 EnMin= -2159.39171973912     IErMin= 4 ErrMin= 9.32D-04
 ErrMax= 9.32D-04  0.00D+00 EMaxC= 1.00D-01 BMatC= 5.65D-03 BMatP= 4.27D-02
 IDIUse=3 WtCom= 9.91D-01 WtEn= 9.32D-03
 Coeff-Com: -0.357D-01 0.120D+00 0.340D+00 0.575D+00
 Coeff-En:   0.000D+00 0.000D+00 0.713D-01 0.929D+00
 Coeff:     -0.353D-01 0.119D+00 0.337D+00 0.579D+00
 Gap=     0.261 Goal=   None    Shift=    0.000
 RMSDP=1.26D-03 MaxDP=4.47D-01 DE=-2.62D-02 OVMax= 5.92D-03

 Cycle   5  Pass 1  IDiag  1:
 RMSU=  3.53D-04    CP:  9.29D-01  9.95D-01  9.26D-01  5.68D-01
 E= -2159.39649091055     Delta-E=       -0.004771171421 Rises=F Damp=F
 DIIS: error= 2.46D-04 at cycle   5 NSaved=   5.
 NSaved= 5 IEnMin= 5 EnMin= -2159.39649091055     IErMin= 5 ErrMin= 2.46D-04
 ErrMax= 2.46D-04  0.00D+00 EMaxC= 1.00D-01 BMatC= 2.34D-04 BMatP= 5.65D-03
 IDIUse=3 WtCom= 9.98D-01 WtEn= 2.46D-03
 Coeff-Com: -0.112D-01 0.254D-01 0.995D-01 0.245D+00 0.641D+00
 Coeff-En:   0.000D+00 0.000D+00 0.000D+00 0.000D+00 0.100D+01
 Coeff:     -0.111D-01 0.254D-01 0.993D-01 0.245D+00 0.642D+00
 Gap=     0.260 Goal=   None    Shift=    0.000
 RMSDP=2.00D-04 MaxDP=5.34D-02 DE=-4.77D-03 OVMax= 1.49D-03

 Cycle   6  Pass 1  IDiag  1:
 RMSU=  7.66D-05    CP:  9.32D-01  1.01D+00  9.37D-01  5.85D-01  6.98D-01
 E= -2159.39666448552     Delta-E=       -0.000173574979 Rises=F Damp=F
 DIIS: error= 1.14D-04 at cycle   6 NSaved=   6.
 NSaved= 6 IEnMin= 6 EnMin= -2159.39666448552     IErMin= 6 ErrMin= 1.14D-04
 ErrMax= 1.14D-04  0.00D+00 EMaxC= 1.00D-01 BMatC= 2.14D-05 BMatP= 2.34D-04
 IDIUse=3 WtCom= 9.99D-01 WtEn= 1.14D-03
 Coeff-Com: -0.384D-02 0.689D-02 0.335D-01 0.960D-01 0.325D+00 0.542D+00
 Coeff-En:   0.000D+00 0.000D+00 0.000D+00 0.000D+00 0.000D+00 0.100D+01
 Coeff:     -0.383D-02 0.688D-02 0.335D-01 0.959D-01 0.325D+00 0.543D+00
 Gap=     0.260 Goal=   None    Shift=    0.000
 RMSDP=4.05D-05 MaxDP=9.82D-03 DE=-1.74D-04 OVMax= 4.94D-04

 Cycle   7  Pass 1  IDiag  1:
 RMSU=  1.94D-05    CP:  9.32D-01  1.00D+00  9.38D-01  5.99D-01  7.34D-01
                    CP:  6.71D-01
 E= -2159.39668000974     Delta-E=       -0.000015524216 Rises=F Damp=F
 DIIS: error= 4.14D-05 at cycle   7 NSaved=   7.
 NSaved= 7 IEnMin= 7 EnMin= -2159.39668000974     IErMin= 7 ErrMin= 4.14D-05
 ErrMax= 4.14D-05  0.00D+00 EMaxC= 1.00D-01 BMatC= 1.77D-06 BMatP= 2.14D-05
 IDIUse=1 WtCom= 1.00D+00 WtEn= 0.00D+00
 Coeff-Com: -0.998D-03 0.139D-02 0.898D-02 0.297D-01 0.115D+00 0.278D+00
 Coeff-Com:  0.567D+00
 Coeff:     -0.998D-03 0.139D-02 0.898D-02 0.297D-01 0.115D+00 0.278D+00
 Coeff:      0.567D+00
 Gap=     0.260 Goal=   None    Shift=    0.000
 RMSDP=8.07D-06 MaxDP=1.94D-03 DE=-1.55D-05 OVMax= 1.53D-04

 Cycle   8  Pass 1  IDiag  1:
 RMSU=  6.59D-06    CP:  9.32D-01  1.00D+00  9.39D-01  6.00D-01  7.38D-01
                    CP:  6.67D-01  8.64D-01
 E= -2159.39668114348     Delta-E=       -0.000001133743 Rises=F Damp=F
 DIIS: error= 9.39D-06 at cycle   8 NSaved=   8.
 NSaved= 8 IEnMin= 8 EnMin= -2159.39668114348     IErMin= 8 ErrMin= 9.39D-06
 ErrMax= 9.39D-06  0.00D+00 EMaxC= 1.00D-01 BMatC= 1.36D-07 BMatP= 1.77D-06
 IDIUse=1 WtCom= 1.00D+00 WtEn= 0.00D+00
 Coeff-Com:  0.125D-04-0.206D-03 0.539D-04 0.196D-02 0.113D-01 0.560D-01
 Coeff-Com:  0.256D+00 0.675D+00
 Coeff:      0.125D-04-0.206D-03 0.539D-04 0.196D-02 0.113D-01 0.560D-01
 Coeff:      0.256D+00 0.675D+00
 Gap=     0.260 Goal=   None    Shift=    0.000
 RMSDP=3.07D-06 MaxDP=7.06D-04 DE=-1.13D-06 OVMax= 3.74D-05

 Cycle   9  Pass 1  IDiag  1:
 RMSU=  2.22D-06    CP:  9.32D-01  1.00D+00  9.39D-01  5.99D-01  7.40D-01
                    CP:  6.78D-01  8.93D-01  9.39D-01
 E= -2159.39668124274     Delta-E=       -0.000000099259 Rises=F Damp=F
 DIIS: error= 1.58D-06 at cycle   9 NSaved=   9.
 NSaved= 9 IEnMin= 9 EnMin= -2159.39668124274     IErMin= 9 ErrMin= 1.58D-06
 ErrMax= 1.58D-06  0.00D+00 EMaxC= 1.00D-01 BMatC= 8.81D-09 BMatP= 1.36D-07
 IDIUse=1 WtCom= 1.00D+00 WtEn= 0.00D+00
 Coeff-Com:  0.646D-04-0.167D-03-0.552D-03-0.101D-02-0.273D-02 0.497D-02
 Coeff-Com:  0.700D-01 0.287D+00 0.643D+00
 Coeff:      0.646D-04-0.167D-03-0.552D-03-0.101D-02-0.273D-02 0.497D-02
 Coeff:      0.700D-01 0.287D+00 0.643D+00
 Gap=     0.260 Goal=   None    Shift=    0.000
 RMSDP=7.59D-07 MaxDP=1.35D-04 DE=-9.93D-08 OVMax= 9.38D-06

 Cycle  10  Pass 1  IDiag  1:
 RMSU=  4.98D-07    CP:  9.32D-01  1.00D+00  9.39D-01  5.99D-01  7.40D-01
                    CP:  6.81D-01  9.02D-01  9.21D-01  8.03D-01
 E= -2159.39668124968     Delta-E=       -0.000000006938 Rises=F Damp=F
 DIIS: error= 4.80D-07 at cycle  10 NSaved=  10.
 NSaved=10 IEnMin=10 EnMin= -2159.39668124968     IErMin=10 ErrMin= 4.80D-07
 ErrMax= 4.80D-07  0.00D+00 EMaxC= 1.00D-01 BMatC= 1.01D-09 BMatP= 8.81D-09
 IDIUse=1 WtCom= 1.00D+00 WtEn= 0.00D+00
 Coeff-Com:  0.266D-04-0.606D-04-0.259D-03-0.574D-03-0.196D-02-0.121D-02
 Coeff-Com:  0.171D-01 0.930D-01 0.321D+00 0.573D+00
 Coeff:      0.266D-04-0.606D-04-0.259D-03-0.574D-03-0.196D-02-0.121D-02
 Coeff:      0.171D-01 0.930D-01 0.321D+00 0.573D+00
 Gap=     0.260 Goal=   None    Shift=    0.000
 RMSDP=3.00D-07 MaxDP=5.36D-05 DE=-6.94D-09 OVMax= 3.00D-06

 Cycle  11  Pass 1  IDiag  1:
 RMSU=  1.37D-07    CP:  9.32D-01  1.00D+00  9.39D-01  5.99D-01  7.40D-01
                    CP:  6.80D-01  9.04D-01  9.40D-01  8.02D-01  6.65D-01
 E= -2159.39668125049     Delta-E=       -0.000000000813 Rises=F Damp=F
 DIIS: error= 1.08D-07 at cycle  11 NSaved=  11.
 NSaved=11 IEnMin=11 EnMin= -2159.39668125049     IErMin=11 ErrMin= 1.08D-07
 ErrMax= 1.08D-07  0.00D+00 EMaxC= 1.00D-01 BMatC= 7.69D-11 BMatP= 1.01D-09
 IDIUse=1 WtCom= 1.00D+00 WtEn= 0.00D+00
 Coeff-Com:  0.685D-05-0.145D-04-0.809D-04-0.189D-03-0.690D-03-0.928D-03
 Coeff-Com:  0.245D-02 0.203D-01 0.996D-01 0.272D+00 0.608D+00
 Coeff:      0.685D-05-0.145D-04-0.809D-04-0.189D-03-0.690D-03-0.928D-03
 Coeff:      0.245D-02 0.203D-01 0.996D-01 0.272D+00 0.608D+00
 Gap=     0.260 Goal=   None    Shift=    0.000
 RMSDP=8.75D-08 MaxDP=2.79D-05 DE=-8.13D-10 OVMax= 8.81D-07

 Cycle  12  Pass 1  IDiag  1:
 RMSU=  4.15D-08    CP:  9.32D-01  1.00D+00  9.39D-01  5.99D-01  7.40D-01
                    CP:  6.80D-01  9.06D-01  9.39D-01  8.18D-01  6.90D-01
                    CP:  7.88D-01
 E= -2159.39668125066     Delta-E=       -0.000000000164 Rises=F Damp=F
 DIIS: error= 3.81D-08 at cycle  12 NSaved=  12.
 NSaved=12 IEnMin=12 EnMin= -2159.39668125066     IErMin=12 ErrMin= 3.81D-08
 ErrMax= 3.81D-08  0.00D+00 EMaxC= 1.00D-01 BMatC= 8.03D-12 BMatP= 7.69D-11
 IDIUse=1 WtCom= 1.00D+00 WtEn= 0.00D+00
 Coeff-Com:  0.279D-06-0.256D-06-0.116D-04-0.297D-04-0.124D-03-0.320D-03
 Coeff-Com: -0.798D-03-0.807D-03 0.123D-01 0.686D-01 0.291D+00 0.630D+00
 Coeff:      0.279D-06-0.256D-06-0.116D-04-0.297D-04-0.124D-03-0.320D-03
 Coeff:     -0.798D-03-0.807D-03 0.123D-01 0.686D-01 0.291D+00 0.630D+00
 Gap=     0.260 Goal=   None    Shift=    0.000
 RMSDP=1.87D-08 MaxDP=4.75D-06 DE=-1.64D-10 OVMax= 2.49D-07

 Cycle  13  Pass 1  IDiag  1:
 RMSU=  1.34D-08    CP:  9.32D-01  1.00D+00  9.39D-01  5.99D-01  7.40D-01
                    CP:  6.80D-01  9.06D-01  9.40D-01  8.20D-01  6.93D-01
                    CP:  7.96D-01  8.70D-01
 E= -2159.39668125056     Delta-E=        0.000000000100 Rises=F Damp=F
 DIIS: error= 1.33D-08 at cycle  13 NSaved=  13.
 NSaved=13 IEnMin=12 EnMin= -2159.39668125066     IErMin=13 ErrMin= 1.33D-08
 ErrMax= 1.33D-08  0.00D+00 EMaxC= 1.00D-01 BMatC= 5.76D-13 BMatP= 8.03D-12
 IDIUse=1 WtCom= 1.00D+00 WtEn= 0.00D+00
 Coeff-Com: -0.372D-06 0.927D-06 0.555D-06 0.451D-06-0.530D-05-0.709D-04
 Coeff-Com: -0.533D-03-0.181D-02-0.182D-02 0.107D-01 0.856D-01 0.288D+00
 Coeff-Com:  0.620D+00
 Coeff:     -0.372D-06 0.927D-06 0.555D-06 0.451D-06-0.530D-05-0.709D-04
 Coeff:     -0.533D-03-0.181D-02-0.182D-02 0.107D-01 0.856D-01 0.288D+00
 Coeff:      0.620D+00
 Gap=     0.260 Goal=   None    Shift=    0.000
 RMSDP=5.71D-09 MaxDP=7.81D-07 DE= 1.00D-10 OVMax= 7.34D-08

 SCF Done:  E(RPBE1PBE) =  -2159.39668125     A.U. after   13 cycles
[...]
 005335,-0.00017217,-0.00012088,0.00032852,-0.00054727,0.00038148,-0.00
 035930,0.00018470,-0.00007011,0.00001614,-0.00000477,-0.00003124,0.000
 01074,0.00000538,-0.00003035,-0.00002223,0.00003170,-0.00002337,0.0000
 5089,-0.00000482,-0.00000625,-0.00010724,-0.00007111,0.00004301,0.0015
 5546,-0.00061706,0.00139609,-0.10532603,-0.12842898,0.13429892,-0.0017
 4174,0.00035673,0.00005641,-0.00001090,-0.00000548,0.00000111,-0.00001
 879,0.00000862,0.00001588,-0.00000705,0.00000201,0.00000579,-0.0000126
 2,0.00000159,0.00000715,-0.00000671,-0.00000401,-0.00000117,-0.0000084
 5,0.00000575,0.00000677,-0.00000196,0.00000096,-0.00000302,0.00001627,
 0.00000474,0.00000839,0.00003229,-0.00001073,-0.00002472,0.00002538,-0
 .00000465,0.00000502,0.00004089,-0.00001313,0.00008651,-0.00000942,-0.
 00000315,-0.00000550,-0.00003787,0.00002927,0.00008335,-0.00005873,-0.
 00010014,0.00011332,-0.00012543,-0.00016277,-0.00029893,0.00000662,-0.
 00004928,-0.00000033,-0.00000104,-0.00000640,-0.00000536,-0.00000292,-
 0.00000027,-0.00000145,-0.00000321,0.00000078,-0.00000045,0.00001813,0
 .00002459,0.00001448,-0.00002890,-0.00023270,0.00000880,-0.00011658,0.
 00078566,0.00057422,-0.00020981,-0.00022154,0.00041743,0.00001608,0.00
 001819,0.00004879,-0.00001232,-0.00005697,-0.00002292,0.00002012,0.000
 17287,-0.00019420,-0.00000874,-0.00005128,0.00005967,0.00001342,-0.000
 01076,-0.00001003,0.00006046,-0.00006566,0.00002522,0.00000993,0.00000
 653,0.00000095,0.00002264,0.00000311,0.00002474,-0.00002898,-0.0000247
 5,-0.00000465,-0.00000099,-0.00001622,0.00001066,-0.00000166,0.0000085
 5,0.00002112,0.00000460,-0.00000744,0.00002962,0.00000799,-0.00003482,
 -0.00002496,-0.00000096,-0.00000331,0.00001965,0.00000189,0.00003110,-
 0.00002728,0.00005127,-0.00005197,-0.00007435,0.00003626,0.00006339,-0
 .00017205,0.00014144,0.00019405,0.00003828,0.00042398,-0.00138592,0.00
 067755,0.10039357,-0.00005708,-0.00008125,-0.00010110,0.00008660,0.000
 16130,0.00021513,-0.00007194,0.00004378,-0.00006476,0.00004000,0.00008
 588,0.00000272,-0.00000275,0.00000464,-0.00000801,0.00003447,0.0000386
 1,0.00006367,-0.00000307,0.00001854,-0.00000498,-0.00001613,-0.0000282
 9,-0.00001561,0.00000246,-0.00005226,-0.00000992,-0.00004045,-0.000118
 65,0.00004778,-0.00001834,-0.00014967,0.00007636,-0.00010684,-0.000159
 77,-0.00023454,0.00012968,-0.00000709,0.00008226,-0.00003805,0.0004337
 4,0.00018629,0.00004979,-0.00033470,-0.00009727,0.00023579,-0.00009112
 ,-0.00036389,-0.00018159,-0.00023630,0.00036417,0.00010040,0.00014388,
 -0.00038124,-0.00015618,0.00001219,0.00014357,0.00005792,-0.00001188,0
 .00003686,-0.00004284,-0.00002763,-0.00009175,0.00047083,0.00071058,-0
 .00045645,0.00370730,-0.00267873,-0.00112448,-0.00667535,-0.02282921,0
 .02059250,-0.00031770,0.00306612,-0.00006181,-0.00003859,-0.00062043,0
 .00053666,-0.00007657,-0.00014575,-0.00005813,-0.00051541,-0.00035049,
 0.00122076,0.00036920,-0.00022284,-0.00003779,-0.00006422,0.00006356,-
 0.00013025,-0.00062103,0.00000051,-0.00027456,0.00013754,-0.00008236,-
 0.00008604,-0.00003135,0.00005392,0.00001210,-0.00000529,-0.00002107,0
 .00000634,-0.00000763,0.00001737,-0.00001015,0.00004048,0.00000067,0.0
 0000941,-0.00004333,-0.00006617,-0.00004468,0.00038073,-0.00184128,0.0
 0010350,-0.09155516,-0.24863321,0.21210700,0.00053320,-0.00002076,-0.0
 0054938,0.00000037,-0.00001020,-0.00001851,0.00000762,0.00002225,-0.00
 000932,-0.00000896,-0.00000599,0.00000241,-0.00000255,-0.00000302,-0.0
 0000313,0.00000210,-0.00000320,-0.00000634,0.00000489,-0.00000039,0.00
 000308,-0.00000236,-0.00000008,-0.00000691,0.00001338,0.00000650,0.000
 02550,-0.00000322,0.00003226,-0.00001834,0.00001568,0.00003677,-0.0000
 4745,0.00008151,0.00014369,0.00000594,-0.00001210,-0.00000433,-0.00004
 757,0.00006934,-0.00003788,-0.00007733,-0.00001352,0.00017569,0.000004
 29,-0.00012015,0.00008492,0.00047420,-0.00000747,0.00003821,0.00000535
 ,0.00002203,-0.00001020,-0.00000637,-0.00000710,-0.00000291,0.00000528
 ,-0.00000410,-0.00000020,-0.00001994,0.00002129,0.00005841,0.00005752,
 0.00006127,0.00019677,-0.00012398,-0.00093126,0.00010659,-0.00001602,-
 0.00007474,-0.00004391,-0.00020330,0.00005902,-0.00004104,-0.00002793,
 -0.00003243,-0.00005598,-0.00004886,-0.00004214,-0.00006247,0.00006838
 ,0.00000773,-0.00000892,-0.00000443,0.00000573,-0.00002514,0.00005202,
 -0.00001509,0.00000599,0.00000835,-0.00000561,0.00001980,0.00000562,-0
 .00001445,-0.00000864,-0.00001513,0.00000417,-0.00001282,-0.00000365,0
 .00000625,-0.00000282,0.00000427,-0.00000777,-0.00000257,-0.00001052,-
 0.00000441,-0.00000161,-0.00001234,0.00000291,0.00001260,0.00001386,-0
 .00000576,-0.00000242,-0.00000311,0.00001169,-0.00000764,0.00001107,-0
 .00001801,0.00005640,0.00003971,0.00002737,0.00006133,0.00004758,0.000
 05836,0.00007280,0.00006186,-0.00038037,0.00029098,-0.00032120,0.09739
 253,0.27300774,0.00001307,-0.00005303,0.00005865,0.00000040,0.00008025
 ,-0.00001639,0.00006773,0.00000684,-0.00009545,-0.00002297,-0.00000755
 ,-0.00002291,0.00003110,0.00001431,-0.00003778,0.00000132,-0.00000436,
 -0.00004489,0.00001528,0.00003688,-0.00002367,-0.00001294,-0.00004487,
 0.00002093,-0.00001564,0.00000020,0.00008173,-0.00001008,0.00001115,0.
 00007223,-0.00006527,-0.00004913,0.00011575,-0.00007997,-0.00007488,-0
 .00000808,0.00006507,0.00002419,0.00004377,0.00010878,0.00019696,0.000
 03140,-0.00013170,-0.00010281,0.00004433,0.00020213,-0.00002105,-0.000
 49386,0.00033562,-0.00000376,-0.00027293,-0.00007469,-0.00002560,0.000
 09371,0.00004531,0.00000057,-0.00002509,0.00002467,0.00002802,0.000000
 63,-0.00004361,-0.00004813,0.00002420,-0.00012122,-0.00064851,0.000405
 28,-0.00194372,0.00096884,0.00004684,0.00126478,0.00389718,-0.00431383
 ,0.00025131,0.00035202,0.00068745,-0.00004902,0.00118351,-0.00078195,-
 0.00015319,-0.00033175,0.00011416,0.00064487,0.00042789,0.00007307,-0.
 00014666,0.00010494,0.00009608,-0.00002631,-0.00010798,-0.00000157,0.0
 0083547,-0.00029056,0.00021428,-0.00026508,0.00015187,0.00011432,0.000
 05274,-0.00004108,-0.00002575,-0.00000696,0.00001120,-0.00000365,-0.00
 000854,0.00001840,-0.00002820,-0.00004723,0.00000499,0.00000212,0.0000
 0724,-0.00002368,0.00001912,0.00090144,-0.00109738,-0.00078473,0.10809
 203,0.22915497,-0.21603891,-0.00106535,-0.00009822,0.00017500,-0.00001
 191,-0.00001455,0.00000604,-0.00005232,0.00002156,-0.00000737,-0.00000
 439,0.00000393,0.00001537,0.00000044,0.00000036,0.00001214,-0.00000535
 ,0.00000246,0.00000266,-0.00000842,0.00000139,0.00000205,-0.00000072,0
 .00000031,0.00000144,0.00000047,0.00001433,-0.00000872,-0.00001551,-0.
 00000381,-0.00004030,0.00001319,-0.00003053,-0.00005304,0.00009798,0.0
 0005473,-0.00006040,-0.00000844,-0.00000042,0.00000316,0.00001015,-0.0
 0003022,-0.00003358,0.00012077,0.00002307,-0.00000531,0.00010968,0.000
 23590,0.00008291,-0.00005879,-0.00000381,0.00002814,-0.00001458,-0.000
 00906,-0.00000190,0.00000233,-0.00000463,-0.00000232,-0.00000489,0.000
 00186,0.00000692,0.00001422,0.00004046,-0.00000682,0.00003418,-0.00016
 954,0.00021719,0.00075250,-0.00141659,0.00071126,-0.00048131,-0.000032
 54,-0.00069711,0.00019516,-0.00018570,0.00003997,-0.00006365,0.0000307
 0,-0.00001695,0.00004073,0.00001454,-0.00004223,-0.00000964,-0.0000045
 6,0.00001690,0.00003239,0.00001632,-0.00004162,0.00003526,-0.00003309,
 0.00000261,0.00002882,-0.00001710,-0.00001955,0.00003030,0.00000673,0.
 00002097,-0.00002064,0.00000076,0.00000841,0.00000091,-0.00001022,-0.0
 0000237,0.00000625,0.00000739,0.00001007,0.00000379,-0.00000264,0.0000
 1220,-0.00000195,-0.00002564,-0.00000159,0.00001035,-0.00000201,0.0000
 1145,-0.00000133,0.00001464,-0.00001661,0.00001539,-0.00002320,-0.0000
 5729,-0.00004237,0.00005722,-0.00012129,0.00004871,0.00008758,-0.00000
 269,-0.00032757,0.00003475,-0.00031140,-0.11044211,-0.23210658,0.22048
 230,-0.00038242,0.00002738,-0.00029064,0.00046270,0.00019620,0.0006487
 3,0.00028027,-0.00009716,-0.00007704,0.00002612,0.00008741,0.00005099,
 0.00018630,-0.00001216,-0.00010513,0.00006221,0.00008827,0.00014151,0.
 00008231,-0.00001018,-0.00005373,-0.00009653,-0.00001143,-0.00001354,-
 0.00023173,0.00005650,0.00017738,-0.00012437,-0.00010478,0.00001311,-0
 .00038619,-0.00009243,-0.00018395,-0.00061515,-0.00035253,-0.00059351,
 0.00169220,-0.00019168,-0.00054444,-0.00220933,0.00188547,-0.00333806,
 0.00009374,-0.00037665,-0.00050672,0.01459826,0.00563509,-0.01259217,0
 .00321087,-0.00082956,-0.00335063,-0.00137091,0.00161493,-0.00039983,-
 0.00012096,-0.00039255,0.00018843,0.00030122,0.00006894,0.00028309,-0.
 00048716,-0.00003963,-0.00004596,-0.00262844,-0.00089496,0.00148154,0.
 00096375,0.00104159,-0.00104421,-0.00403716,0.00706219,-0.00175751,0.0
 0103169,-0.00181770,-0.00004215,-0.00033307,0.00122821,-0.00080633,-0.
 00015949,-0.00042747,0.00040856,-0.00043913,-0.00006423,0.00035974,0.0
 0039288,-0.00007705,-0.00046876,-0.00041637,-0.00001148,0.00058685,0.0
 0113308,-0.00030092,0.00050322,-0.00044887,0.00025254,0.00005772,0.000
 05268,-0.00005284,-0.00005363,0.00001335,0.00002350,-0.00003216,-0.000
 02761,0.00001967,-0.00002473,0.00002719,-0.00000828,-0.00001931,-0.000
 07762,0.00005444,0.00013199,0.00075330,0.00001904,0.00009014,0.0030772
 3,-0.00240342,0.00115784,-0.31862901,-0.08747383,0.22940686,-0.0000433
 8,-0.00001143,-0.00000164,-0.00007710,0.00002113,0.00003283,-0.0000160
 9,0.00000966,0.00001933,-0.00003822,-0.00000013,0.00001151,-0.00001378
 ,-0.00001006,-0.00000208,-0.00002519,0.00001101,0.00001796,-0.00001280
 ,0.00000883,-0.00001008,0.00007210,-0.00001091,0.00002747,0.00006131,-
 0.00001456,-0.00003464,0.00005260,0.00002861,-0.00001129,0.00033984,0.
 00026858,0.00026317,-0.00022955,0.00014684,-0.00052904,0.00003177,0.00
 017478,0.00015854,-0.00054784,0.00019895,0.00060202,-0.00052536,-0.000
 09177,-0.00261247,-0.00018285,-0.00027388,0.00014564,-0.00003526,-0.00
 003638,0.00000851,-0.00003421,0.00003226,-0.00003462,-0.00004939,-0.00
 002145,0.00000798,0.00010532,0.00000557,0.00004537,0.00010704,-0.00004
 580,0.00000821,0.00069406,-0.00074380,-0.00003846,-0.00014254,0.000040
 64,0.00008625,0.00004874,-0.00004226,0.00007826,-0.00002146,0.00006470
 ,-0.00000125,-0.00002921,-0.00006619,0.00013085,0.00003393,-0.00003334
 ,0.00000209,0.00053879,0.00001865,-0.00026865,0.00004801,-0.00005849,0
 .00000329,0.00002857,-0.00002128,-0.00000326,0.00003826,0.00001331,0.0
 0003915,-0.00002688,-0.00000566,0.00000816,-0.00000682,-0.00001705,0.0
 0000411,0.00000427,0.00001386,0.00002817,0.00001534,0.00000179,0.00004
 183,0.00000639,-0.00004525,-0.00003047,0.00001170,-0.00000456,0.000025
 99,-0.00003670,0.00003587,-0.00004727,0.00014312,-0.00013412,-0.000191
 27,-0.00001183,-0.00000693,-0.00026718,0.00007376,0.00003770,-0.000113
 92,-0.00011822,-0.00019196,0.00008529,0.00155557,-0.00185116,0.0013017
 7,0.30299434,-0.00007857,-0.00011990,-0.00009468,0.00011212,0.00017483
 ,0.00020867,-0.00003992,0.00006321,-0.00011293,0.00001523,0.00005339,0
 .00000904,0.00002135,0.00001408,-0.00002326,0.00004181,0.00004026,0.00
 006381,0.00001517,0.00003659,-0.00001558,-0.00003667,-0.00004893,-0.00
 001621,-0.00002026,-0.00003740,0.00002724,-0.00003176,-0.00009154,0.00
 004232,-0.00005122,-0.00017838,0.00012032,-0.00022633,-0.00031225,-0.0
 0013858,0.00034886,0.00029165,-0.00015369,0.00084378,-0.00026809,-0.00
 066247,-0.00046916,-0.00000610,-0.00082170,-0.00921782,-0.00468411,0.0
 1118552,-0.00109008,-0.00181506,0.00437908,0.00030471,0.00015304,-0.00
 112238,-0.00028181,0.00004332,0.00026441,0.00019029,-0.00002108,0.0000
 4620,-0.00014592,-0.00006661,-0.00013599,-0.00165209,0.00086739,-0.001
 65101,0.00240780,0.00098768,0.00067792,0.00035391,0.00296553,-0.000691
 77,0.00055938,-0.00060823,0.00004582,0.00013101,0.00063881,-0.00032666
 ,-0.00051437,-0.00032382,0.00011051,0.00011116,-0.00010115,0.00008554,
 0.00010042,0.00000800,0.00003095,-0.00014383,-0.00008136,-0.00007573,0
 .00015632,-0.00018491,0.00010037,-0.00005026,0.00005773,0.00001415,0.0
 0001475,-0.00000475,-0.00000897,0.00000078,-0.00000462,-0.00000859,-0.
 00000729,0.00001703,-0.00000906,0.00002894,-0.00000348,0.00000243,-0.0
 0006653,-0.00007617,-0.00002087,0.00003838,-0.00028192,0.00010727,0.00
 113290,-0.00663825,0.00159334,-0.07149102,-0.03850968,0.07297686,-0.00
 000949,-0.00000415,-0.00000074,-0.00002866,0.00001056,-0.00000931,-0.0
 0000660,0.00000211,0.00000817,-0.00000462,-0.00000473,0.00000223,-0.00
 000045,-0.00000179,-0.00000513,-0.00000026,0.00000141,0.00000570,-0.00
 000398,-0.00000156,-0.00000719,0.00002870,0.00001378,0.00003569,-0.000
 00175,0.00001823,-0.00001976,0.00000432,0.00002018,-0.00004151,0.00017
 774,0.00020674,-0.00006533,-0.00005790,-0.00000599,-0.00015938,-0.0000
 0121,-0.00004941,-0.00004115,0.00040863,0.00109169,0.00061823,0.000444
 47,0.00123231,-0.00109193,-0.00018433,-0.00023313,0.00013323,0.0000485
 3,-0.00000817,-0.00001826,-0.00000896,-0.00001312,0.00000982,-0.000030
 19,0.00001779,-0.00004360,0.00004497,0.00011439,0.00008108,-0.00017654
 ,-0.00013278,-0.00015396,0.00057257,-0.00038176,-0.00009242,-0.0001015
 2,-0.00001806,-0.00001362,0.00001289,-0.00003048,0.00003291,0.00002836
 ,-0.00000047,-0.00002578,-0.00003622,-0.00001487,-0.00000457,0.0000140
 1,-0.00008815,0.00003961,0.00010025,-0.00001526,0.00003371,0.00001657,
 -0.00001725,0.00000727,0.00000240,0.00000060,0.00000060,0.00000527,0.0
 0000387,0.00000639,-0.00000526,-0.00000744,-0.00000043,0.00000354,-0.0
 0000536,0.00000336,-0.00000479,0.00000118,0.00000317,-0.00000200,-0.00
 000355,0.00000196,0.00000168,-0.00000736,0.00000186,0.00000183,0.,0.00
 000623,0.00000887,0.00000807,-0.00000451,0.00000442,0.00002175,-0.0000
 0140,0.00000294,0.00005286,-0.00003122,0.00010409,0.00015549,0.0000468
 6,-0.00006918,0.00000628,0.00003428,-0.00190450,-0.00011974,-0.0001454
 3,0.07928726,0.04624048,0.00018614,-0.00003650,0.00024380,-0.00026509,
 -0.00013770,-0.00041085,-0.00009963,0.00008649,-0.00005147,-0.00004497
 ,-0.00008946,-0.00004177,-0.00006529,0.00002286,0.00002408,-0.00003201
 ,-0.00005761,-0.00013132,-0.00002151,0.00003335,0.00000501,0.00003419,
 -0.00002561,0.00003096,0.00010169,-0.00001010,-0.00001163,0.00006820,0
 .00009702,0.00003566,0.00017980,0.00004915,0.00023600,0.00010971,0.000
 00519,0.00086763,0.00163569,-0.00036070,-0.00116202,-0.00367455,0.0030
 0823,-0.00581098,-0.00033313,0.00033484,0.00109919,0.02670170,0.011244
 66,-0.03278149,-0.00083494,0.00172903,0.00034911,0.00030916,-0.0010010
 6,0.00072826,0.00035450,-0.00012808,-0.00028722,-0.00010039,0.00006034
 ,-0.00009342,0.00013174,-0.00002716,0.00010272,0.00105188,-0.00020529,
 -0.00033158,-0.00078665,-0.00003556,0.00030835,0.00078600,-0.00172865,
 0.00011311,-0.00041519,0.00044980,0.00003454,-0.00011781,-0.00038674,0
 .00031022,0.00027395,0.00017368,-0.00017118,-0.00011713,0.00004394,-0.
 00022641,-0.00008233,0.00005657,0.00009008,0.00016869,-0.00005069,-0.0
 0008635,-0.00010565,0.00009665,-0.00011306,0.00001864,-0.00003546,0.00
 000440,-0.00000402,0.00000523,0.00001033,-0.00001158,0.00000255,0.0000
 1307,0.00001211,-0.00001019,-0.00000225,-0.00007400,0.00001189,0.00000
 489,0.00009176,0.00001161,-0.00002350,0.00005232,0.00011964,-0.0001815
 6,-0.00146922,0.00146968,-0.00399740,0.18174932,0.07101734,-0.19277763
 ,-0.00000928,0.00002426,0.00006648,-0.00002418,-0.00002025,-0.00001763
 ,0.00000790,0.00000401,0.00000418,0.00002175,0.00000040,0.00000691,0.0
 0000144,0.00000990,0.00000791,0.00000132,-0.00000488,-0.00000713,0.000
 00586,-0.00000400,0.00000881,-0.00003355,0.00001455,-0.00003218,-0.000
 04396,-0.00000598,-0.00000703,-0.00002554,-0.00005219,-0.00002244,-0.0
 0011535,-0.00016366,-0.00029322,-0.00024491,0.00024193,-0.00033909,-0.
 00021709,0.00010570,0.00026443,0.00051135,-0.00051033,-0.00050686,0.00
 130533,-0.00098538,0.00183354,-0.00003055,-0.00006078,0.00000263,-0.00
 001486,0.00004465,0.00001400,0.00000396,0.00000338,-0.00000091,0.00001
 452,-0.00000647,0.00004606,-0.00002574,0.00001074,-0.00006219,-0.00020
 687,0.00008756,-0.00027700,0.00022164,-0.00002977,0.00000922,-0.000003
 69,-0.00003769,-0.00008580,0.00001164,0.00001132,-0.00003291,0.0000935
 7,-0.00007991,-0.00000401,0.00003472,0.00000037,-0.00000404,-0.0000317
 2,0.00004770,-0.00000127,-0.00015785,0.00003692,0.00001014,-0.00001042
 ,0.00001389,-0.00000013,0.00000287,0.00000235,-0.00000859,-0.00000054,
 -0.00000477,-0.00000837,0.00000054,0.00000398,0.00000066,0.00000015,0.
 00000137,-0.00000407,0.00000638,0.00000049,-0.00000641,-0.00000328,0.0
 0000176,-0.00000977,-0.00000229,0.00000520,0.00001152,0.00000433,0.000
 00144,-0.00000445,0.00000450,-0.00000979,0.00000695,-0.00005017,0.0000
 2504,0.00002540,-0.00005198,-0.00001280,0.00005834,-0.00007295,-0.0000
 4901,-0.00001228,0.00001841,0.00001131,0.00000351,0.00207224,0.0006616
 5,0.00034088,-0.20832972,-0.08513736,0.23310787\\-0.00000345,-0.000001
 26,0.00000693,0.00000212,-0.00000461,0.00000501,-0.00001992,0.00001196
 ,-0.00001727,0.00000170,0.00001752,-0.00000683,0.00001199,-0.00000230,
 -0.00000905,-0.00002063,-0.00000507,-0.00001060,0.00001786,-0.00000364
 ,-0.00000338,-0.00001263,-0.00000322,0.00000042,-0.00000242,0.00000087
 ,-0.00000698,0.,-0.00001718,0.00001583,0.00003709,0.00000633,0.0000297
 7,0.00000588,-0.00002112,0.00001153,0.00000801,0.00001929,0.00001208,-
 0.00000554,0.00000186,-0.00000372,-0.00000301,-0.00000780,-0.00001184,
 -0.00000345,0.00001108,-0.00000171,0.00002673,-0.00001676,0.00001053,-
 0.00001556,0.00000417,-0.00001576,0.00002027,-0.00001724,-0.00000554,0
 .00000077,0.00000194,-0.00000031,-0.00000290,0.00000277,0.00000080,-0.
 00001139,-0.00000026,0.00000512,-0.00000039,0.00000958,0.00000013,0.00
 000106,0.00001672,-0.00000706,-0.00001032,0.00001316,-0.00001138,-0.00
 000413,-0.00001494,0.00002248,-0.00000006,0.00000767,-0.00002149,0.000
 01713,0.00001103,0.00000232,-0.00000245,0.00000114,-0.00000067,0.00000
 475,-0.00000047,-0.00001240,0.00001996,-0.00001338,-0.00000701,-0.0000
 3259,0.00002165,-0.00000834,-0.00000492,-0.00001509,-0.00000401,0.0000
 0340,-0.00000455,0.00001857,-0.00001813,0.00000679,0.00000975,0.000012
 63,0.00000138,0.00000427,0.00002378,-0.00000899,-0.00000569,-0.0000146
 4,-0.00000237,0.00000203,-0.00000784,-0.00001245,0.00000923,0.00000062
 ,0.00000794,-0.00000491,-0.00000412,0.00000230,0.00000428,0.00000700,-
 0.00000335,0.00000123,-0.00000051,-0.00000748,0.00000804,0.00000007,-0
 .00000339,0.00000281,-0.00000059,-0.00000524,0.00000409,0.00000168,0.0
 0000081,0.00000118,0.00000304,-0.00000612,0.00000052,0.00000518,-0.000
 00913,0.00000332,-0.00000058,0.00000027,0.00000661,-0.00000467,-0.0000
 0433,-0.00000219,-0.00001454,-0.00002190,0.00001119,-0.00000039,-0.000
 00299,0.00000383,-0.00000286,0.00000394,-0.00000358,-0.00000575,-0.000
 00237,-0.00000345,0.,-0.00000077,0.00000032,-0.00000050,0.00000307,-0.
 00000368,-0.00000059,0.00000071,0.00000135,-0.00000100,-0.00000246,-0.
 00000389,0.00000033,-0.00000079,-0.00000209,0.00001274,-0.00000017,-0.
 00001138,-0.00000453,0.00000028,0.00000389,-0.00000193,0.00000045,-0.0
 0000119,0.00000062,0.00000194,0.00000463,0.00000188,0.00000210,-0.0000
 0312,-0.00000247,0.00000049,-0.00000541,0.00000139,0.00000015,-0.00000
 259,-0.00000283,0.00000310,-0.00000489,-0.00000801,0.00000239,0.000001
 93,0.00000026,0.00000332,-0.00000029,0.00000340,0.00000588,-0.00000021
 ,0.00000735,0.00000225,-0.00000043,-0.00000397,0.00000608,0.00000552,-
 0.00000397,0.00000564,-0.00000399,0.00000515,0.00000541,-0.00000478,0.
 00000377,-0.00000312,-0.00000466,0.00000307,0.00000045,-0.00000828,-0.
 00000150,-0.00000068,0.00000030,0.00000101,0.00000237,-0.00000566,-0.0
 0001226,-0.00000196,-0.00000007,0.00000252,0.00000894,0.00000451,-0.00
 001726,0.00000027,0.00001057,0.00000850,0.00000437,0.00000608,0.000006
 52,0.00000837,-0.00000031,-0.00000006,-0.00000128,-0.00000089\\\@


 ANYONE WHO IS NOT SHOCKED BY QUANTUM THEORY HAS
 NOT UNDERSTOOD IT. -- NIELS BOHR(1885-1962)
 Job cpu time:      20 days  3 hours 38 minutes 24.2 seconds.
 File lengths (MBytes):  RWF=  23542 Int=      0 D2E=      0 Chk=     97 Scr=      1
 Normal termination of Gaussian 09 at Sun Mar 27 01:41:51 2016.
