 Entering Gaussian System, Link 0=g09
 Initial command:
 /share/apps//g09/l1.exe "/scratch/Gau-15787.inp" -scrdir="/scratch/"
 Entering Link 1 = /share/apps//g09/l1.exe PID=     15788.
  
 Copyright (c) 1988,1990,1992,1993,1995,1998,2003,2009,2013,
            Gaussian, Inc.  All Rights Reserved.
  
 This is part of the Gaussian(R) 09 program.  It is based on
 the Gaussian(R) 03 system (copyright 2003, Gaussian, Inc.),
 the Gaussian(R) 98 system (copyright 1998, Gaussian, Inc.),
 the Gaussian(R) 94 system (copyright 1995, Gaussian, Inc.),
 the Gaussian 92(TM) system (copyright 1992, Gaussian, Inc.),
 the Gaussian 90(TM) system (copyright 1990, Gaussian, Inc.),
 the Gaussian 88(TM) system (copyright 1988, Gaussian, Inc.),
 the Gaussian 86(TM) system (copyright 1986, Carnegie Mellon
 University), and the Gaussian 82(TM) system (copyright 1983,
 Carnegie Mellon University). Gaussian is a federally registered
 trademark of Gaussian, Inc.
  
 This software contains proprietary and confidential information,
 including trade secrets, belonging to Gaussian, Inc.
  
 This software is provided under written license and may be
 used, copied, transmitted, or stored only in accord with that
 written license.
  
 The following legend is applicable only to US Government
 contracts under FAR:
  
                    RESTRICTED RIGHTS LEGEND
  
 Use, reproduction and disclosure by the US Government is
 subject to restrictions as set forth in subparagraphs (a)
 and (c) of the Commercial Computer Software - Restricted
 Rights clause in FAR 52.227-19.
  
 Gaussian, Inc.
 340 Quinnipiac St., Bldg. 40, Wallingford CT 06492
  
  
 ---------------------------------------------------------------
 Warning -- This program may not be used in any manner that
 competes with the business of Gaussian, Inc. or will provide
 assistance to any competitor of Gaussian, Inc.  The licensee
 of this program is prohibited from giving any competitor of
 Gaussian, Inc. access to this program.  By using this program,
 the user acknowledges that Gaussian, Inc. is engaged in the
 business of creating and licensing software in the field of
 computational chemistry and represents and warrants to the
 licensee that it is not a competitor of Gaussian, Inc. and that
 it will not use this program in any manner prohibited above.
 ---------------------------------------------------------------
  

 Cite this work as:
 Gaussian 09, Revision D.01,
 M. J. Frisch, G. W. Trucks, H. B. Schlegel, G. E. Scuseria, 
 M. A. Robb, J. R. Cheeseman, G. Scalmani, V. Barone, B. Mennucci, 
 G. A. Petersson, H. Nakatsuji, M. Caricato, X. Li, H. P. Hratchian, 
 A. F. Izmaylov, J. Bloino, G. Zheng, J. L. Sonnenberg, M. Hada, 
 M. Ehara, K. Toyota, R. Fukuda, J. Hasegawa, M. Ishida, T. Nakajima, 
 Y. Honda, O. Kitao, H. Nakai, T. Vreven, J. A. Montgomery, Jr., 
 J. E. Peralta, F. Ogliaro, M. Bearpark, J. J. Heyd, E. Brothers, 
 K. N. Kudin, V. N. Staroverov, T. Keith, R. Kobayashi, J. Normand, 
 K. Raghavachari, A. Rendell, J. C. Burant, S. S. Iyengar, J. Tomasi, 
 M. Cossi, N. Rega, J. M. Millam, M. Klene, J. E. Knox, J. B. Cross, 
 V. Bakken, C. Adamo, J. Jaramillo, R. Gomperts, R. E. Stratmann, 
 O. Yazyev, A. J. Austin, R. Cammi, C. Pomelli, J. W. Ochterski, 
 R. L. Martin, K. Morokuma, V. G. Zakrzewski, G. A. Voth, 
 P. Salvador, J. J. Dannenberg, S. Dapprich, A. D. Daniels, 
 O. Farkas, J. B. Foresman, J. V. Ortiz, J. Cioslowski, 
 and D. J. Fox, Gaussian, Inc., Wallingford CT, 2013.
 
 ******************************************
 Gaussian 09:  EM64L-G09RevD.01 24-Apr-2013
                21-May-2016 
 ******************************************
 %nproc=20
 Will use up to   20 processors via shared memory.
 %mem=80GB
 %chk=Tri_A154_of.chk
 ----------------------------------------------------------------------
 #P PBE1PBE/6-311+G(d,p) opt=ModRedundant optcyc=999 freq EmpiricalDisp
 ersion=GD3
 ----------------------------------------------------------------------
 1/6=999,14=-1,18=120,19=15,26=3,38=1/1,3;
 2/9=110,12=2,17=6,18=5,40=1/2;
 3/5=4,6=6,7=111,11=2,16=1,25=1,30=1,71=1,74=-13,124=31/1,2,3;
 4//1;
 5/5=2,38=5/2;
 6/7=2,8=2,9=2,10=2,28=1/1;
 7//1,2,3,16;
 1/6=999,14=-1,18=20,19=15,26=3/3(2);
 2/9=110/2;
 99//99;
 2/9=110/2;
 3/5=4,6=6,7=111,11=2,16=1,25=1,30=1,71=1,74=-13,124=31/1,2,3;
 4/5=5,16=3,69=1/1;
 5/5=2,38=5/2;
 7//1,2,3,16;
 1/6=999,14=-1,18=20,19=15,26=3/3(-5);
 2/9=110/2;
 6/7=2,8=2,9=2,10=2,19=2,28=1/1;
 99/9=1/99;
 Leave Link    1 at Sat May 21 16:46:37 2016, MaxMem= 10737418240 cpu:         2.4
 (Enter /share/apps//g09/l101.exe)
 -------
 disacch
 -------
 Symbolic Z-matrix:
 Charge =  1 Multiplicity = 1
 O                     3.94324   1.7887   -0.53116 
 C                     3.07862   1.07514  -1.44642 
 C                     2.78594   1.81685  -2.76068 
 C                     4.04313   2.40729  -3.41972 
 C                     5.29249   2.24005  -2.53932 
 C                     5.05012   2.56327  -1.04817 
 C                     4.86594   4.04106  -0.67934 
 O                     3.67176   4.65532  -1.17759 
 O                     6.33686   3.10288  -3.0141 
 O                     3.81099   3.80812  -3.69432 
 O                     2.18197   0.92693  -3.67769 
 O                     1.85723   0.94779  -0.77853 
 C                     1.49958  -0.33009  -0.21649 
 C                     0.21341  -0.79854  -0.89547 
 O                     0.42898  -0.91165  -2.306 
 C                    -0.90412   0.19972  -0.60624 
 C                    -1.08939   0.39319   0.91269 
 O                     0.15733   0.69837   1.55631 
 C                     1.23592  -0.20034   1.29321 
 C                     2.41972   0.29448   2.13513 
 O                     2.73399   1.67946   1.96679 
 O                    -1.98986   1.41915   1.25071 
 C                    -1.71014   2.73472   0.73545 
 C                    -2.90624   3.17779  -0.11257 
 C                    -2.81873   4.6521   -0.50198 
 C                    -2.56436   5.52293   0.72763 
 O                    -1.3783    5.05216   1.39163 
 C                    -1.52184   3.71687   1.91259 
 C                    -0.30184   3.45907   2.78923 
 O                     0.92545   3.64792   2.07766 
 O                    -2.32771   6.81992   0.28299 
 C                    -2.25872   7.81476   1.33914 
 C                    -1.26141   8.89352   0.9301 
 C                     0.1152    8.3502    0.51886 
 C                     0.88479   7.6147    1.62782 
 C                     2.05646   6.79195   1.09707 
 N                     1.5822    5.57673   0.35097 
 O                    -4.04475   4.96119  -1.15941 
 O                    -2.9812    2.37426  -1.30089 
 O                    -2.08518  -0.29065  -1.22047 
 H                     3.50741   0.07651  -1.65834 
 H                     2.11674   2.65902  -2.49674 
 H                     4.19475   1.87992  -4.37514 
 H                     5.60742   1.18441  -2.59825 
 H                     5.95263   2.23245  -0.5041 
 H                     5.76047   4.59402  -1.0108 
 H                     4.81545   4.10599   0.41738 
 H                     3.64956   4.51787  -2.16724 
 H                     6.98029   2.57699  -3.51769 
 H                     4.65588   4.14601  -4.05701 
 H                     1.48124   0.41132  -3.21068 
 H                     2.30818  -1.05967  -0.39478 
 H                    -0.06092  -1.78977  -0.48592 
 H                    -0.46155  -1.02237  -2.69622 
 H                    -0.6003    1.1577   -1.06037 
 H                    -1.53885  -0.51821   1.34891 
 H                     0.99     -1.21851   1.66452 
 H                     2.1623    0.16778   3.19562 
 H                     3.30328  -0.33219   1.92542 
 H                     3.16278   1.78867   1.08396 
 H                    -0.78676   2.73805   0.13493 
 H                    -3.82237   3.02476   0.4896 
 H                    -1.95705   4.79232  -1.18471 
 H                    -3.42079   5.47913   1.43447 
 H                    -2.41447   3.65735   2.56747 
 H                    -0.33295   4.17277   3.62833 
 H                    -0.35605   2.43904   3.18994 
 H                     1.47015   2.80813   2.05308 
 H                    -1.95082   7.32303   2.27405 
 H                    -3.26218   8.24637   1.48713 
 H                    -1.16661   9.59999   1.77104 
 H                    -1.67762   9.46839   0.08862 
 H                     0.73068   9.18326   0.14454 
 H                    -0.04886   7.6855   -0.34656 
 H                     0.2194    6.94333   2.19191 
 H                     1.28071   8.34261   2.35251 
 H                     2.68641   7.37773   0.41217 
 H                     2.69105   6.42379   1.91389 
 H                     0.78      5.81346  -0.24548 
 H                     1.25146   4.81783   1.03064 
 H                     2.35167   5.18066  -0.25418 
 H                    -3.98775   5.87585  -1.48889 
 H                    -3.70304   2.75189  -1.83865 
 H                    -2.67054   0.49276  -1.32593 
 
 The following ModRedundant input section has been read:
 
 NAtoms=     84 NQM=       84 NQMF=       0 NMMI=      0 NMMIF=      0
                NMic=       0 NMicF=      0.
                    Isotopes and Nuclear Properties:
 (Nuclear quadrupole moments (NQMom) in fm**2, nuclear magnetic moments (NMagM)
  in nuclear magnetons)

  Atom         1           2           3           4           5           6           7           8           9          10
 IAtWgt=          16          12          12          12          12          12          12          16          16          16
 AtmWgt=  15.9949146  12.0000000  12.0000000  12.0000000  12.0000000  12.0000000  12.0000000  15.9949146  15.9949146  15.9949146
 NucSpn=           0           0           0           0           0           0           0           0           0           0
 AtZEff=   0.0000000   0.0000000   0.0000000   0.0000000   0.0000000   0.0000000   0.0000000   0.0000000   0.0000000   0.0000000
 NQMom=    0.0000000   0.0000000   0.0000000   0.0000000   0.0000000   0.0000000   0.0000000   0.0000000   0.0000000   0.0000000
 NMagM=    0.0000000   0.0000000   0.0000000   0.0000000   0.0000000   0.0000000   0.0000000   0.0000000   0.0000000   0.0000000
 AtZNuc=   8.0000000   6.0000000   6.0000000   6.0000000   6.0000000   6.0000000   6.0000000   8.0000000   8.0000000   8.0000000

  Atom        11          12          13          14          15          16          17          18          19          20
 IAtWgt=          16          16          12          12          16          12          12          16          12          12
 AtmWgt=  15.9949146  15.9949146  12.0000000  12.0000000  15.9949146  12.0000000  12.0000000  15.9949146  12.0000000  12.0000000
 NucSpn=           0           0           0           0           0           0           0           0           0           0
 AtZEff=   0.0000000   0.0000000   0.0000000   0.0000000   0.0000000   0.0000000   0.0000000   0.0000000   0.0000000   0.0000000
 NQMom=    0.0000000   0.0000000   0.0000000   0.0000000   0.0000000   0.0000000   0.0000000   0.0000000   0.0000000   0.0000000
 NMagM=    0.0000000   0.0000000   0.0000000   0.0000000   0.0000000   0.0000000   0.0000000   0.0000000   0.0000000   0.0000000
 AtZNuc=   8.0000000   8.0000000   6.0000000   6.0000000   8.0000000   6.0000000   6.0000000   8.0000000   6.0000000   6.0000000

  Atom        21          22          23          24          25          26          27          28          29          30
 IAtWgt=          16          16          12          12          12          12          16          12          12          16
 AtmWgt=  15.9949146  15.9949146  12.0000000  12.0000000  12.0000000  12.0000000  15.9949146  12.0000000  12.0000000  15.9949146
 NucSpn=           0           0           0           0           0           0           0           0           0           0
 AtZEff=   0.0000000   0.0000000   0.0000000   0.0000000   0.0000000   0.0000000   0.0000000   0.0000000   0.0000000   0.0000000
 NQMom=    0.0000000   0.0000000   0.0000000   0.0000000   0.0000000   0.0000000   0.0000000   0.0000000   0.0000000   0.0000000
 NMagM=    0.0000000   0.0000000   0.0000000   0.0000000   0.0000000   0.0000000   0.0000000   0.0000000   0.0000000   0.0000000
 AtZNuc=   8.0000000   8.0000000   6.0000000   6.0000000   6.0000000   6.0000000   8.0000000   6.0000000   6.0000000   8.0000000

  Atom        31          32          33          34          35          36          37          38          39          40
 IAtWgt=          16          12          12          12          12          12          14          16          16          16
 AtmWgt=  15.9949146  12.0000000  12.0000000  12.0000000  12.0000000  12.0000000  14.0030740  15.9949146  15.9949146  15.9949146
 NucSpn=           0           0           0           0           0           0           2           0           0           0
 AtZEff=   0.0000000   0.0000000   0.0000000   0.0000000   0.0000000   0.0000000   0.0000000   0.0000000   0.0000000   0.0000000
 NQMom=    0.0000000   0.0000000   0.0000000   0.0000000   0.0000000   0.0000000   2.0440000   0.0000000   0.0000000   0.0000000
 NMagM=    0.0000000   0.0000000   0.0000000   0.0000000   0.0000000   0.0000000   0.4037610   0.0000000   0.0000000   0.0000000
 AtZNuc=   8.0000000   6.0000000   6.0000000   6.0000000   6.0000000   6.0000000   7.0000000   8.0000000   8.0000000   8.0000000

  Atom        41          42          43          44          45          46          47          48          49          50
 IAtWgt=           1           1           1           1           1           1           1           1           1           1
 AtmWgt=   1.0078250   1.0078250   1.0078250   1.0078250   1.0078250   1.0078250   1.0078250   1.0078250   1.0078250   1.0078250
 NucSpn=           1           1           1           1           1           1           1           1           1           1
 AtZEff=   0.0000000   0.0000000   0.0000000   0.0000000   0.0000000   0.0000000   0.0000000   0.0000000   0.0000000   0.0000000
 NQMom=    0.0000000   0.0000000   0.0000000   0.0000000   0.0000000   0.0000000   0.0000000   0.0000000   0.0000000   0.0000000
 NMagM=    2.7928460   2.7928460   2.7928460   2.7928460   2.7928460   2.7928460   2.7928460   2.7928460   2.7928460   2.7928460
 AtZNuc=   1.0000000   1.0000000   1.0000000   1.0000000   1.0000000   1.0000000   1.0000000   1.0000000   1.0000000   1.0000000

  Atom        51          52          53          54          55          56          57          58          59          60
 IAtWgt=           1           1           1           1           1           1           1           1           1           1
 AtmWgt=   1.0078250   1.0078250   1.0078250   1.0078250   1.0078250   1.0078250   1.0078250   1.0078250   1.0078250   1.0078250
 NucSpn=           1           1           1           1           1           1           1           1           1           1
 AtZEff=   0.0000000   0.0000000   0.0000000   0.0000000   0.0000000   0.0000000   0.0000000   0.0000000   0.0000000   0.0000000
 NQMom=    0.0000000   0.0000000   0.0000000   0.0000000   0.0000000   0.0000000   0.0000000   0.0000000   0.0000000   0.0000000
 NMagM=    2.7928460   2.7928460   2.7928460   2.7928460   2.7928460   2.7928460   2.7928460   2.7928460   2.7928460   2.7928460
 AtZNuc=   1.0000000   1.0000000   1.0000000   1.0000000   1.0000000   1.0000000   1.0000000   1.0000000   1.0000000   1.0000000

  Atom        61          62          63          64          65          66          67          68          69          70
 IAtWgt=           1           1           1           1           1           1           1           1           1           1
 AtmWgt=   1.0078250   1.0078250   1.0078250   1.0078250   1.0078250   1.0078250   1.0078250   1.0078250   1.0078250   1.0078250
 NucSpn=           1           1           1           1           1           1           1           1           1           1
 AtZEff=   0.0000000   0.0000000   0.0000000   0.0000000   0.0000000   0.0000000   0.0000000   0.0000000   0.0000000   0.0000000
 NQMom=    0.0000000   0.0000000   0.0000000   0.0000000   0.0000000   0.0000000   0.0000000   0.0000000   0.0000000   0.0000000
 NMagM=    2.7928460   2.7928460   2.7928460   2.7928460   2.7928460   2.7928460   2.7928460   2.7928460   2.7928460   2.7928460
 AtZNuc=   1.0000000   1.0000000   1.0000000   1.0000000   1.0000000   1.0000000   1.0000000   1.0000000   1.0000000   1.0000000

  Atom        71          72          73          74          75          76          77          78          79          80
 IAtWgt=           1           1           1           1           1           1           1           1           1           1
 AtmWgt=   1.0078250   1.0078250   1.0078250   1.0078250   1.0078250   1.0078250   1.0078250   1.0078250   1.0078250   1.0078250
 NucSpn=           1           1           1           1           1           1           1           1           1           1
 AtZEff=   0.0000000   0.0000000   0.0000000   0.0000000   0.0000000   0.0000000   0.0000000   0.0000000   0.0000000   0.0000000
 NQMom=    0.0000000   0.0000000   0.0000000   0.0000000   0.0000000   0.0000000   0.0000000   0.0000000   0.0000000   0.0000000
 NMagM=    2.7928460   2.7928460   2.7928460   2.7928460   2.7928460   2.7928460   2.7928460   2.7928460   2.7928460   2.7928460
 AtZNuc=   1.0000000   1.0000000   1.0000000   1.0000000   1.0000000   1.0000000   1.0000000   1.0000000   1.0000000   1.0000000

  Atom        81          82          83          84
 IAtWgt=           1           1           1           1
 AtmWgt=   1.0078250   1.0078250   1.0078250   1.0078250
 NucSpn=           1           1           1           1
 AtZEff=   0.0000000   0.0000000   0.0000000   0.0000000
 NQMom=    0.0000000   0.0000000   0.0000000   0.0000000
 NMagM=    2.7928460   2.7928460   2.7928460   2.7928460
 AtZNuc=   1.0000000   1.0000000   1.0000000   1.0000000
 Leave Link  101 at Sat May 21 16:46:38 2016, MaxMem= 10737418240 cpu:         4.9
 (Enter /share/apps//g09/l103.exe)

 GradGradGradGradGradGradGradGradGradGradGradGradGradGradGradGradGradGrad
 Berny optimization.
 Initialization pass.
                           ----------------------------
                           !    Initial Parameters    !
                           ! (Angstroms and Degrees)  !
 --------------------------                            --------------------------
 ! Name  Definition              Value          Derivative Info.                !
 --------------------------------------------------------------------------------
 ! R1    R(1,2)                  1.4472         estimate D2E/DX2                !
 ! R2    R(1,6)                  1.4465         estimate D2E/DX2                !
 ! R3    R(2,3)                  1.5372         estimate D2E/DX2                !
 ! R4    R(2,12)                 1.3979         estimate D2E/DX2                !
 ! R5    R(2,41)                 1.1073         estimate D2E/DX2                !
 ! R6    R(3,4)                  1.5374         estimate D2E/DX2                !
 ! R7    R(3,11)                 1.4134         estimate D2E/DX2                !
 ! R8    R(3,42)                 1.1076         estimate D2E/DX2                !
 ! R9    R(4,5)                  1.5375         estimate D2E/DX2                !
 ! R10   R(4,10)                 1.4462         estimate D2E/DX2                !
 ! R11   R(4,43)                 1.1018         estimate D2E/DX2                !
 ! R12   R(5,6)                  1.5449         estimate D2E/DX2                !
 ! R13   R(5,9)                  1.4355         estimate D2E/DX2                !
 ! R14   R(5,44)                 1.1032         estimate D2E/DX2                !
 ! R15   R(6,7)                  1.5342         estimate D2E/DX2                !
 ! R16   R(6,45)                 1.1045         estimate D2E/DX2                !
 ! R17   R(7,8)                  1.4324         estimate D2E/DX2                !
 ! R18   R(7,46)                 1.1026         estimate D2E/DX2                !
 ! R19   R(7,47)                 1.0998         estimate D2E/DX2                !
 ! R20   R(8,48)                 0.9994         estimate D2E/DX2                !
 ! R21   R(9,49)                 0.9717         estimate D2E/DX2                !
 ! R22   R(10,50)                0.9796         estimate D2E/DX2                !
 ! R23   R(11,51)                0.9874         estimate D2E/DX2                !
 ! R24   R(12,13)                1.4411         estimate D2E/DX2                !
 ! R25   R(13,14)                1.528          estimate D2E/DX2                !
 ! R26   R(13,19)                1.538          estimate D2E/DX2                !
 ! R27   R(13,52)                1.1036         estimate D2E/DX2                !
 ! R28   R(14,15)                1.4314         estimate D2E/DX2                !
 ! R29   R(14,16)                1.5261         estimate D2E/DX2                !
 ! R30   R(14,53)                1.107          estimate D2E/DX2                !
 ! R31   R(15,54)                0.9786         estimate D2E/DX2                !
 ! R32   R(16,17)                1.5424         estimate D2E/DX2                !
 ! R33   R(16,40)                1.4187         estimate D2E/DX2                !
 ! R34   R(16,55)                1.1028         estimate D2E/DX2                !
 ! R35   R(17,18)                1.4359         estimate D2E/DX2                !
 ! R36   R(17,22)                1.4063         estimate D2E/DX2                !
 ! R37   R(17,56)                1.1059         estimate D2E/DX2                !
 ! R38   R(18,19)                1.4284         estimate D2E/DX2                !
 ! R39   R(19,20)                1.5346         estimate D2E/DX2                !
 ! R40   R(19,57)                1.1113         estimate D2E/DX2                !
 ! R41   R(20,21)                1.4301         estimate D2E/DX2                !
 ! R42   R(20,58)                1.0986         estimate D2E/DX2                !
 ! R43   R(20,59)                1.1033         estimate D2E/DX2                !
 ! R44   R(21,60)                0.9875         estimate D2E/DX2                !
 ! R45   R(22,23)                1.4403         estimate D2E/DX2                !
 ! R46   R(23,24)                1.5317         estimate D2E/DX2                !
 ! R47   R(23,28)                1.5446         estimate D2E/DX2                !
 ! R48   R(23,61)                1.1015         estimate D2E/DX2                !
 ! R49   R(24,25)                1.5274         estimate D2E/DX2                !
 ! R50   R(24,39)                1.4364         estimate D2E/DX2                !
 ! R51   R(24,62)                1.1069         estimate D2E/DX2                !
 ! R52   R(25,26)                1.5281         estimate D2E/DX2                !
 ! R53   R(25,38)                1.4251         estimate D2E/DX2                !
 ! R54   R(25,63)                1.1083         estimate D2E/DX2                !
 ! R55   R(26,27)                1.4385         estimate D2E/DX2                !
 ! R56   R(26,31)                1.3914         estimate D2E/DX2                !
 ! R57   R(26,64)                1.1113         estimate D2E/DX2                !
 ! R58   R(27,28)                1.4405         estimate D2E/DX2                !
 ! R59   R(28,29)                1.5243         estimate D2E/DX2                !
 ! R60   R(28,65)                1.1087         estimate D2E/DX2                !
 ! R61   R(29,30)                1.4312         estimate D2E/DX2                !
 ! R62   R(29,66)                1.102          estimate D2E/DX2                !
 ! R63   R(29,67)                1.0973         estimate D2E/DX2                !
 ! R64   R(30,68)                1.0013         estimate D2E/DX2                !
 ! R65   R(31,32)                1.4526         estimate D2E/DX2                !
 ! R66   R(32,33)                1.525          estimate D2E/DX2                !
 ! R67   R(32,69)                1.1003         estimate D2E/DX2                !
 ! R68   R(32,70)                1.1023         estimate D2E/DX2                !
 ! R69   R(33,34)                1.536          estimate D2E/DX2                !
 ! R70   R(33,71)                1.1024         estimate D2E/DX2                !
 ! R71   R(33,72)                1.1008         estimate D2E/DX2                !
 ! R72   R(34,35)                1.5372         estimate D2E/DX2                !
 ! R73   R(34,73)                1.1013         estimate D2E/DX2                !
 ! R74   R(34,74)                1.1035         estimate D2E/DX2                !
 ! R75   R(35,36)                1.5269         estimate D2E/DX2                !
 ! R76   R(35,75)                1.1008         estimate D2E/DX2                !
 ! R77   R(35,76)                1.1008         estimate D2E/DX2                !
 ! R78   R(36,37)                1.5028         estimate D2E/DX2                !
 ! R79   R(36,77)                1.0996         estimate D2E/DX2                !
 ! R80   R(36,78)                1.0979         estimate D2E/DX2                !
 ! R81   R(37,79)                1.0273         estimate D2E/DX2                !
 ! R82   R(37,80)                1.0711         estimate D2E/DX2                !
 ! R83   R(37,81)                1.056          estimate D2E/DX2                !
 ! R84   R(38,82)                0.9739         estimate D2E/DX2                !
 ! R85   R(39,83)                0.9761         estimate D2E/DX2                !
 ! R86   R(40,84)                0.9836         estimate D2E/DX2                !
 ! A1    A(2,1,6)              119.6786         estimate D2E/DX2                !
 ! A2    A(1,2,3)              114.6167         estimate D2E/DX2                !
 ! A3    A(1,2,12)             105.3526         estimate D2E/DX2                !
 ! A4    A(1,2,41)             109.5339         estimate D2E/DX2                !
 ! A5    A(3,2,12)             106.6237         estimate D2E/DX2                !
 ! A6    A(3,2,41)             110.1977         estimate D2E/DX2                !
 ! A7    A(12,2,41)            110.3429         estimate D2E/DX2                !
 ! A8    A(2,3,4)              113.3356         estimate D2E/DX2                !
 ! A9    A(2,3,11)             109.406          estimate D2E/DX2                !
 ! A10   A(2,3,42)             106.1512         estimate D2E/DX2                !
 ! A11   A(4,3,11)             108.2482         estimate D2E/DX2                !
 ! A12   A(4,3,42)             107.7111         estimate D2E/DX2                !
 ! A13   A(11,3,42)            112.0355         estimate D2E/DX2                !
 ! A14   A(3,4,5)              112.1635         estimate D2E/DX2                !
 ! A15   A(3,4,10)             108.7921         estimate D2E/DX2                !
 ! A16   A(3,4,43)             107.4839         estimate D2E/DX2                !
 ! A17   A(5,4,10)             110.1518         estimate D2E/DX2                !
 ! A18   A(5,4,43)             109.4301         estimate D2E/DX2                !
 ! A19   A(10,4,43)            108.7271         estimate D2E/DX2                !
 ! A20   A(4,5,6)              113.7313         estimate D2E/DX2                !
 ! A21   A(4,5,9)              109.6587         estimate D2E/DX2                !
 ! A22   A(4,5,44)             107.7862         estimate D2E/DX2                !
 ! A23   A(6,5,9)              107.916          estimate D2E/DX2                !
 ! A24   A(6,5,44)             107.2501         estimate D2E/DX2                !
 ! A25   A(9,5,44)             110.4755         estimate D2E/DX2                !
 ! A26   A(1,6,5)              110.6706         estimate D2E/DX2                !
 ! A27   A(1,6,7)              109.7545         estimate D2E/DX2                !
 ! A28   A(1,6,45)             106.7866         estimate D2E/DX2                !
 ! A29   A(5,6,7)              116.8973         estimate D2E/DX2                !
 ! A30   A(5,6,45)             106.5343         estimate D2E/DX2                !
 ! A31   A(7,6,45)             105.5554         estimate D2E/DX2                !
 ! A32   A(6,7,8)              115.4381         estimate D2E/DX2                !
 ! A33   A(6,7,46)             108.2634         estimate D2E/DX2                !
 ! A34   A(6,7,47)             107.5842         estimate D2E/DX2                !
 ! A35   A(8,7,46)             110.8999         estimate D2E/DX2                !
 ! A36   A(8,7,47)             106.4565         estimate D2E/DX2                !
 ! A37   A(46,7,47)            107.9027         estimate D2E/DX2                !
 ! A38   A(7,8,48)             107.6981         estimate D2E/DX2                !
 ! A39   A(5,9,49)             109.1394         estimate D2E/DX2                !
 ! A40   A(4,10,50)            105.4242         estimate D2E/DX2                !
 ! A41   A(3,11,51)            108.9766         estimate D2E/DX2                !
 ! A42   A(2,12,13)            118.9447         estimate D2E/DX2                !
 ! A43   A(12,13,14)           107.906          estimate D2E/DX2                !
 ! A44   A(12,13,19)           110.5216         estimate D2E/DX2                !
 ! A45   A(12,13,52)           109.9605         estimate D2E/DX2                !
 ! A46   A(14,13,19)           108.5267         estimate D2E/DX2                !
 ! A47   A(14,13,52)           110.0158         estimate D2E/DX2                !
 ! A48   A(19,13,52)           109.8741         estimate D2E/DX2                !
 ! A49   A(13,14,15)           109.5938         estimate D2E/DX2                !
 ! A50   A(13,14,16)           109.3677         estimate D2E/DX2                !
 ! A51   A(13,14,53)           108.5848         estimate D2E/DX2                !
 ! A52   A(15,14,16)           110.4096         estimate D2E/DX2                !
 ! A53   A(15,14,53)           109.3372         estimate D2E/DX2                !
 ! A54   A(16,14,53)           109.5188         estimate D2E/DX2                !
 ! A55   A(14,15,54)           105.3579         estimate D2E/DX2                !
 ! A56   A(14,16,17)           110.8946         estimate D2E/DX2                !
 ! A57   A(14,16,40)           107.5458         estimate D2E/DX2                !
 ! A58   A(14,16,55)           106.7635         estimate D2E/DX2                !
 ! A59   A(17,16,40)           111.6994         estimate D2E/DX2                !
 ! A60   A(17,16,55)           109.2478         estimate D2E/DX2                !
 ! A61   A(40,16,55)           110.5675         estimate D2E/DX2                !
 ! A62   A(16,17,18)           111.3336         estimate D2E/DX2                !
 ! A63   A(16,17,22)           113.8995         estimate D2E/DX2                !
 ! A64   A(16,17,56)           109.506          estimate D2E/DX2                !
 ! A65   A(18,17,22)           107.0475         estimate D2E/DX2                !
 ! A66   A(18,17,56)           110.5634         estimate D2E/DX2                !
 ! A67   A(22,17,56)           104.2526         estimate D2E/DX2                !
 ! A68   A(17,18,19)           116.0628         estimate D2E/DX2                !
 ! A69   A(13,19,18)           111.3047         estimate D2E/DX2                !
 ! A70   A(13,19,20)           115.6883         estimate D2E/DX2                !
 ! A71   A(13,19,57)           106.7746         estimate D2E/DX2                !
 ! A72   A(18,19,20)           106.1748         estimate D2E/DX2                !
 ! A73   A(18,19,57)           110.3533         estimate D2E/DX2                !
 ! A74   A(20,19,57)           106.428          estimate D2E/DX2                !
 ! A75   A(19,20,21)           114.6576         estimate D2E/DX2                !
 ! A76   A(19,20,58)           108.1584         estimate D2E/DX2                !
 ! A77   A(19,20,59)           109.2885         estimate D2E/DX2                !
 ! A78   A(21,20,58)           106.0693         estimate D2E/DX2                !
 ! A79   A(21,20,59)           110.5909         estimate D2E/DX2                !
 ! A80   A(58,20,59)           107.7947         estimate D2E/DX2                !
 ! A81   A(20,21,60)           107.9237         estimate D2E/DX2                !
 ! A82   A(17,22,23)           117.1308         estimate D2E/DX2                !
 ! A83   A(22,23,24)           108.0968         estimate D2E/DX2                !
 ! A84   A(22,23,28)           109.3803         estimate D2E/DX2                !
 ! A85   A(22,23,61)           111.1376         estimate D2E/DX2                !
 ! A86   A(24,23,28)           109.4633         estimate D2E/DX2                !
 ! A87   A(24,23,61)           110.6043         estimate D2E/DX2                !
 ! A88   A(28,23,61)           108.1421         estimate D2E/DX2                !
 ! A89   A(23,24,25)           112.0632         estimate D2E/DX2                !
 ! A90   A(23,24,39)           109.6911         estimate D2E/DX2                !
 ! A91   A(23,24,62)           107.7652         estimate D2E/DX2                !
 ! A92   A(25,24,39)           109.3919         estimate D2E/DX2                !
 ! A93   A(25,24,62)           108.6359         estimate D2E/DX2                !
 ! A94   A(39,24,62)           109.2387         estimate D2E/DX2                !
 ! A95   A(24,25,26)           110.761          estimate D2E/DX2                !
 ! A96   A(24,25,38)           106.1219         estimate D2E/DX2                !
 ! A97   A(24,25,63)           108.8886         estimate D2E/DX2                !
 ! A98   A(26,25,38)           113.0061         estimate D2E/DX2                !
 ! A99   A(26,25,63)           107.1083         estimate D2E/DX2                !
 ! A100  A(38,25,63)           110.9319         estimate D2E/DX2                !
 ! A101  A(25,26,27)           108.7951         estimate D2E/DX2                !
 ! A102  A(25,26,31)           107.6015         estimate D2E/DX2                !
 ! A103  A(25,26,64)           111.1656         estimate D2E/DX2                !
 ! A104  A(27,26,31)           108.2005         estimate D2E/DX2                !
 ! A105  A(27,26,64)           109.2032         estimate D2E/DX2                !
 ! A106  A(31,26,64)           111.782          estimate D2E/DX2                !
 ! A107  A(26,27,28)           112.8391         estimate D2E/DX2                !
 ! A108  A(23,28,27)           109.0236         estimate D2E/DX2                !
 ! A109  A(23,28,29)           115.3622         estimate D2E/DX2                !
 ! A110  A(23,28,65)           108.5343         estimate D2E/DX2                !
 ! A111  A(27,28,29)           106.5601         estimate D2E/DX2                !
 ! A112  A(27,28,65)           110.0972         estimate D2E/DX2                !
 ! A113  A(29,28,65)           107.1945         estimate D2E/DX2                !
 ! A114  A(28,29,30)           112.2162         estimate D2E/DX2                !
 ! A115  A(28,29,66)           107.8055         estimate D2E/DX2                !
 ! A116  A(28,29,67)           109.1303         estimate D2E/DX2                !
 ! A117  A(30,29,66)           108.5014         estimate D2E/DX2                !
 ! A118  A(30,29,67)           110.28           estimate D2E/DX2                !
 ! A119  A(66,29,67)           108.8197         estimate D2E/DX2                !
 ! A120  A(29,30,68)           111.5949         estimate D2E/DX2                !
 ! A121  A(26,31,32)           114.466          estimate D2E/DX2                !
 ! A122  A(31,32,33)           108.694          estimate D2E/DX2                !
 ! A123  A(31,32,69)           108.9665         estimate D2E/DX2                !
 ! A124  A(31,32,70)           108.8168         estimate D2E/DX2                !
 ! A125  A(33,32,69)           111.1637         estimate D2E/DX2                !
 ! A126  A(33,32,70)           110.7539         estimate D2E/DX2                !
 ! A127  A(69,32,70)           108.3999         estimate D2E/DX2                !
 ! A128  A(32,33,34)           114.0601         estimate D2E/DX2                !
 ! A129  A(32,33,71)           107.7555         estimate D2E/DX2                !
 ! A130  A(32,33,72)           109.0977         estimate D2E/DX2                !
 ! A131  A(34,33,71)           110.7226         estimate D2E/DX2                !
 ! A132  A(34,33,72)           108.5973         estimate D2E/DX2                !
 ! A133  A(71,33,72)           106.318          estimate D2E/DX2                !
 ! A134  A(33,34,35)           115.1367         estimate D2E/DX2                !
 ! A135  A(33,34,73)           108.9227         estimate D2E/DX2                !
 ! A136  A(33,34,74)           106.8455         estimate D2E/DX2                !
 ! A137  A(35,34,73)           109.1066         estimate D2E/DX2                !
 ! A138  A(35,34,74)           110.6093         estimate D2E/DX2                !
 ! A139  A(73,34,74)           105.7933         estimate D2E/DX2                !
 ! A140  A(34,35,36)           113.0304         estimate D2E/DX2                !
 ! A141  A(34,35,75)           111.0316         estimate D2E/DX2                !
 ! A142  A(34,35,76)           109.7916         estimate D2E/DX2                !
 ! A143  A(36,35,75)           108.2603         estimate D2E/DX2                !
 ! A144  A(36,35,76)           108.0081         estimate D2E/DX2                !
 ! A145  A(75,35,76)           106.4604         estimate D2E/DX2                !
 ! A146  A(35,36,37)           111.4776         estimate D2E/DX2                !
 ! A147  A(35,36,77)           111.6585         estimate D2E/DX2                !
 ! A148  A(35,36,78)           111.4447         estimate D2E/DX2                !
 ! A149  A(37,36,77)           107.5988         estimate D2E/DX2                !
 ! A150  A(37,36,78)           106.2968         estimate D2E/DX2                !
 ! A151  A(77,36,78)           108.1138         estimate D2E/DX2                !
 ! A152  A(36,37,79)           110.3867         estimate D2E/DX2                !
 ! A153  A(36,37,80)           110.8149         estimate D2E/DX2                !
 ! A154  A(36,37,81)           110.968          estimate D2E/DX2                !
 ! A155  A(79,37,80)           106.8921         estimate D2E/DX2                !
 ! A156  A(79,37,81)           108.8271         estimate D2E/DX2                !
 ! A157  A(80,37,81)           108.8377         estimate D2E/DX2                !
 ! A158  A(25,38,82)           108.0249         estimate D2E/DX2                !
 ! A159  A(24,39,83)           106.1366         estimate D2E/DX2                !
 ! A160  A(16,40,84)           105.4594         estimate D2E/DX2                !
 ! D1    D(6,1,2,3)            -37.7543         estimate D2E/DX2                !
 ! D2    D(6,1,2,12)          -154.6347         estimate D2E/DX2                !
 ! D3    D(6,1,2,41)            86.6847         estimate D2E/DX2                !
 ! D4    D(2,1,6,5)            -12.1662         estimate D2E/DX2                !
 ! D5    D(2,1,6,7)            118.3185         estimate D2E/DX2                !
 ! D6    D(2,1,6,45)          -127.7304         estimate D2E/DX2                !
 ! D7    D(1,2,3,4)             46.7636         estimate D2E/DX2                !
 ! D8    D(1,2,3,11)           167.6638         estimate D2E/DX2                !
 ! D9    D(1,2,3,42)           -71.2622         estimate D2E/DX2                !
 ! D10   D(12,2,3,4)           162.9139         estimate D2E/DX2                !
 ! D11   D(12,2,3,11)          -76.1859         estimate D2E/DX2                !
 ! D12   D(12,2,3,42)           44.8881         estimate D2E/DX2                !
 ! D13   D(41,2,3,4)           -77.3234         estimate D2E/DX2                !
 ! D14   D(41,2,3,11)           43.5768         estimate D2E/DX2                !
 ! D15   D(41,2,3,42)          164.6508         estimate D2E/DX2                !
 ! D16   D(1,2,12,13)         -104.4588         estimate D2E/DX2                !
 ! D17   D(3,2,12,13)          133.3481         estimate D2E/DX2                !
 ! D18   D(41,2,12,13)          13.6793         estimate D2E/DX2                !
 ! D19   D(2,3,4,5)             -5.6783         estimate D2E/DX2                !
 ! D20   D(2,3,4,10)          -127.7886         estimate D2E/DX2                !
 ! D21   D(2,3,4,43)           114.6468         estimate D2E/DX2                !
 ! D22   D(11,3,4,5)          -127.2297         estimate D2E/DX2                !
 ! D23   D(11,3,4,10)          110.66           estimate D2E/DX2                !
 ! D24   D(11,3,4,43)           -6.9046         estimate D2E/DX2                !
 ! D25   D(42,3,4,5)           111.4381         estimate D2E/DX2                !
 ! D26   D(42,3,4,10)          -10.6723         estimate D2E/DX2                !
 ! D27   D(42,3,4,43)         -128.2368         estimate D2E/DX2                !
 ! D28   D(2,3,11,51)           45.1309         estimate D2E/DX2                !
 ! D29   D(4,3,11,51)          169.0737         estimate D2E/DX2                !
 ! D30   D(42,3,11,51)         -72.3048         estimate D2E/DX2                !
 ! D31   D(3,4,5,6)            -43.6416         estimate D2E/DX2                !
 ! D32   D(3,4,5,9)           -164.5645         estimate D2E/DX2                !
 ! D33   D(3,4,5,44)            75.1238         estimate D2E/DX2                !
 ! D34   D(10,4,5,6)            77.691          estimate D2E/DX2                !
 ! D35   D(10,4,5,9)           -43.2319         estimate D2E/DX2                !
 ! D36   D(10,4,5,44)         -163.5436         estimate D2E/DX2                !
 ! D37   D(43,4,5,6)          -162.8304         estimate D2E/DX2                !
 ! D38   D(43,4,5,9)            76.2467         estimate D2E/DX2                !
 ! D39   D(43,4,5,44)          -44.0651         estimate D2E/DX2                !
 ! D40   D(3,4,10,50)          176.4546         estimate D2E/DX2                !
 ! D41   D(5,4,10,50)           53.1322         estimate D2E/DX2                !
 ! D42   D(43,4,10,50)         -66.7728         estimate D2E/DX2                !
 ! D43   D(4,5,6,1)             54.2065         estimate D2E/DX2                !
 ! D44   D(4,5,6,7)            -72.4096         estimate D2E/DX2                !
 ! D45   D(4,5,6,45)           169.928          estimate D2E/DX2                !
 ! D46   D(9,5,6,1)            176.1004         estimate D2E/DX2                !
 ! D47   D(9,5,6,7)             49.4843         estimate D2E/DX2                !
 ! D48   D(9,5,6,45)           -68.1781         estimate D2E/DX2                !
 ! D49   D(44,5,6,1)           -64.8651         estimate D2E/DX2                !
 ! D50   D(44,5,6,7)           168.5188         estimate D2E/DX2                !
 ! D51   D(44,5,6,45)           50.8563         estimate D2E/DX2                !
 ! D52   D(4,5,9,49)          -102.3235         estimate D2E/DX2                !
 ! D53   D(6,5,9,49)           133.2999         estimate D2E/DX2                !
 ! D54   D(44,5,9,49)           16.3383         estimate D2E/DX2                !
 ! D55   D(1,6,7,8)            -59.6706         estimate D2E/DX2                !
 ! D56   D(1,6,7,46)           175.3725         estimate D2E/DX2                !
 ! D57   D(1,6,7,47)            59.0029         estimate D2E/DX2                !
 ! D58   D(5,6,7,8)             67.3957         estimate D2E/DX2                !
 ! D59   D(5,6,7,46)           -57.5612         estimate D2E/DX2                !
 ! D60   D(5,6,7,47)          -173.9308         estimate D2E/DX2                !
 ! D61   D(45,6,7,8)          -174.4108         estimate D2E/DX2                !
 ! D62   D(45,6,7,46)           60.6324         estimate D2E/DX2                !
 ! D63   D(45,6,7,47)          -55.7372         estimate D2E/DX2                !
 ! D64   D(6,7,8,48)           -54.5931         estimate D2E/DX2                !
 ! D65   D(46,7,8,48)           68.9871         estimate D2E/DX2                !
 ! D66   D(47,7,8,48)         -173.8898         estimate D2E/DX2                !
 ! D67   D(2,12,13,14)        -118.8892         estimate D2E/DX2                !
 ! D68   D(2,12,13,19)         122.5892         estimate D2E/DX2                !
 ! D69   D(2,12,13,52)           1.1136         estimate D2E/DX2                !
 ! D70   D(12,13,14,15)         59.5188         estimate D2E/DX2                !
 ! D71   D(12,13,14,16)        -61.6457         estimate D2E/DX2                !
 ! D72   D(12,13,14,53)        178.8927         estimate D2E/DX2                !
 ! D73   D(19,13,14,15)        179.3085         estimate D2E/DX2                !
 ! D74   D(19,13,14,16)         58.144          estimate D2E/DX2                !
 ! D75   D(19,13,14,53)        -61.3176         estimate D2E/DX2                !
 ! D76   D(52,13,14,15)        -60.4491         estimate D2E/DX2                !
 ! D77   D(52,13,14,16)        178.3864         estimate D2E/DX2                !
 ! D78   D(52,13,14,53)         58.9249         estimate D2E/DX2                !
 ! D79   D(12,13,19,18)         60.772          estimate D2E/DX2                !
 ! D80   D(12,13,19,20)        -60.5186         estimate D2E/DX2                !
 ! D81   D(12,13,19,57)       -178.7329         estimate D2E/DX2                !
 ! D82   D(14,13,19,18)        -57.3707         estimate D2E/DX2                !
 ! D83   D(14,13,19,20)       -178.6614         estimate D2E/DX2                !
 ! D84   D(14,13,19,57)         63.1243         estimate D2E/DX2                !
 ! D85   D(52,13,19,18)       -177.7012         estimate D2E/DX2                !
 ! D86   D(52,13,19,20)         61.0081         estimate D2E/DX2                !
 ! D87   D(52,13,19,57)        -57.2062         estimate D2E/DX2                !
 ! D88   D(13,14,15,54)       -168.1536         estimate D2E/DX2                !
 ! D89   D(16,14,15,54)        -47.6201         estimate D2E/DX2                !
 ! D90   D(53,14,15,54)         72.9361         estimate D2E/DX2                !
 ! D91   D(13,14,16,17)        -55.9702         estimate D2E/DX2                !
 ! D92   D(13,14,16,40)       -178.3667         estimate D2E/DX2                !
 ! D93   D(13,14,16,55)         62.9449         estimate D2E/DX2                !
 ! D94   D(15,14,16,17)       -176.6389         estimate D2E/DX2                !
 ! D95   D(15,14,16,40)         60.9646         estimate D2E/DX2                !
 ! D96   D(15,14,16,55)        -57.7238         estimate D2E/DX2                !
 ! D97   D(53,14,16,17)         62.9136         estimate D2E/DX2                !
 ! D98   D(53,14,16,40)        -59.4829         estimate D2E/DX2                !
 ! D99   D(53,14,16,55)       -178.1713         estimate D2E/DX2                !
 ! D100  D(14,16,17,18)         51.5123         estimate D2E/DX2                !
 ! D101  D(14,16,17,22)        172.6647         estimate D2E/DX2                !
 ! D102  D(14,16,17,56)        -71.062          estimate D2E/DX2                !
 ! D103  D(40,16,17,18)        171.4602         estimate D2E/DX2                !
 ! D104  D(40,16,17,22)        -67.3874         estimate D2E/DX2                !
 ! D105  D(40,16,17,56)         48.8859         estimate D2E/DX2                !
 ! D106  D(55,16,17,18)        -65.8943         estimate D2E/DX2                !
 ! D107  D(55,16,17,22)         55.2581         estimate D2E/DX2                !
 ! D108  D(55,16,17,56)        171.5314         estimate D2E/DX2                !
 ! D109  D(14,16,40,84)       -158.6784         estimate D2E/DX2                !
 ! D110  D(17,16,40,84)         79.4243         estimate D2E/DX2                !
 ! D111  D(55,16,40,84)        -42.4642         estimate D2E/DX2                !
 ! D112  D(16,17,18,19)        -52.3727         estimate D2E/DX2                !
 ! D113  D(22,17,18,19)       -177.4502         estimate D2E/DX2                !
 ! D114  D(56,17,18,19)         69.5909         estimate D2E/DX2                !
 ! D115  D(16,17,22,23)        -56.7762         estimate D2E/DX2                !
 ! D116  D(18,17,22,23)         66.7338         estimate D2E/DX2                !
 ! D117  D(56,17,22,23)       -176.0761         estimate D2E/DX2                !
 ! D118  D(17,18,19,13)         55.9419         estimate D2E/DX2                !
 ! D119  D(17,18,19,20)       -177.3627         estimate D2E/DX2                !
 ! D120  D(17,18,19,57)        -62.4223         estimate D2E/DX2                !
 ! D121  D(13,19,20,21)         72.0534         estimate D2E/DX2                !
 ! D122  D(13,19,20,58)       -169.8412         estimate D2E/DX2                !
 ! D123  D(13,19,20,59)        -52.742          estimate D2E/DX2                !
 ! D124  D(18,19,20,21)        -51.9548         estimate D2E/DX2                !
 ! D125  D(18,19,20,58)         66.1506         estimate D2E/DX2                !
 ! D126  D(18,19,20,59)       -176.7501         estimate D2E/DX2                !
 ! D127  D(57,19,20,21)       -169.5406         estimate D2E/DX2                !
 ! D128  D(57,19,20,58)        -51.4352         estimate D2E/DX2                !
 ! D129  D(57,19,20,59)         65.6641         estimate D2E/DX2                !
 ! D130  D(19,20,21,60)        -73.3165         estimate D2E/DX2                !
 ! D131  D(58,20,21,60)        167.4028         estimate D2E/DX2                !
 ! D132  D(59,20,21,60)         50.79           estimate D2E/DX2                !
 ! D133  D(17,22,23,24)        121.0497         estimate D2E/DX2                !
 ! D134  D(17,22,23,28)       -119.8361         estimate D2E/DX2                !
 ! D135  D(17,22,23,61)         -0.5026         estimate D2E/DX2                !
 ! D136  D(22,23,24,25)        169.9172         estimate D2E/DX2                !
 ! D137  D(22,23,24,39)        -68.3765         estimate D2E/DX2                !
 ! D138  D(22,23,24,62)         50.4498         estimate D2E/DX2                !
 ! D139  D(28,23,24,25)         50.8555         estimate D2E/DX2                !
 ! D140  D(28,23,24,39)        172.5618         estimate D2E/DX2                !
 ! D141  D(28,23,24,62)        -68.6119         estimate D2E/DX2                !
 ! D142  D(61,23,24,25)        -68.2015         estimate D2E/DX2                !
 ! D143  D(61,23,24,39)         53.5048         estimate D2E/DX2                !
 ! D144  D(61,23,24,62)        172.3311         estimate D2E/DX2                !
 ! D145  D(22,23,28,27)       -174.2089         estimate D2E/DX2                !
 ! D146  D(22,23,28,29)         65.9838         estimate D2E/DX2                !
 ! D147  D(22,23,28,65)        -54.2789         estimate D2E/DX2                !
 ! D148  D(24,23,28,27)        -55.9438         estimate D2E/DX2                !
 ! D149  D(24,23,28,29)       -175.751          estimate D2E/DX2                !
 ! D150  D(24,23,28,65)         63.9863         estimate D2E/DX2                !
 ! D151  D(61,23,28,27)         64.6244         estimate D2E/DX2                !
 ! D152  D(61,23,28,29)        -55.1829         estimate D2E/DX2                !
 ! D153  D(61,23,28,65)       -175.4456         estimate D2E/DX2                !
 ! D154  D(23,24,25,26)        -51.1329         estimate D2E/DX2                !
 ! D155  D(23,24,25,38)       -174.1338         estimate D2E/DX2                !
 ! D156  D(23,24,25,63)         66.3975         estimate D2E/DX2                !
 ! D157  D(39,24,25,26)       -173.0106         estimate D2E/DX2                !
 ! D158  D(39,24,25,38)         63.9885         estimate D2E/DX2                !
 ! D159  D(39,24,25,63)        -55.4802         estimate D2E/DX2                !
 ! D160  D(62,24,25,26)         67.8225         estimate D2E/DX2                !
 ! D161  D(62,24,25,38)        -55.1784         estimate D2E/DX2                !
 ! D162  D(62,24,25,63)       -174.6471         estimate D2E/DX2                !
 ! D163  D(23,24,39,83)       -174.8157         estimate D2E/DX2                !
 ! D164  D(25,24,39,83)        -51.5224         estimate D2E/DX2                !
 ! D165  D(62,24,39,83)         67.2711         estimate D2E/DX2                !
 ! D166  D(24,25,26,27)         55.5661         estimate D2E/DX2                !
 ! D167  D(24,25,26,31)        172.5738         estimate D2E/DX2                !
 ! D168  D(24,25,26,64)        -64.7223         estimate D2E/DX2                !
 ! D169  D(38,25,26,27)        174.4858         estimate D2E/DX2                !
 ! D170  D(38,25,26,31)        -68.5064         estimate D2E/DX2                !
 ! D171  D(38,25,26,64)         54.1974         estimate D2E/DX2                !
 ! D172  D(63,25,26,27)        -63.0489         estimate D2E/DX2                !
 ! D173  D(63,25,26,31)         53.9589         estimate D2E/DX2                !
 ! D174  D(63,25,26,64)        176.6628         estimate D2E/DX2                !
 ! D175  D(24,25,38,82)       -175.1554         estimate D2E/DX2                !
 ! D176  D(26,25,38,82)         63.271          estimate D2E/DX2                !
 ! D177  D(63,25,38,82)        -57.0332         estimate D2E/DX2                !
 ! D178  D(25,26,27,28)        -64.2601         estimate D2E/DX2                !
 ! D179  D(31,26,27,28)        179.1148         estimate D2E/DX2                !
 ! D180  D(64,26,27,28)         57.2341         estimate D2E/DX2                !
 ! D181  D(25,26,31,32)        171.4996         estimate D2E/DX2                !
 ! D182  D(27,26,31,32)        -71.1056         estimate D2E/DX2                !
 ! D183  D(64,26,31,32)         49.1762         estimate D2E/DX2                !
 ! D184  D(26,27,28,23)         64.8177         estimate D2E/DX2                !
 ! D185  D(26,27,28,29)       -170.0675         estimate D2E/DX2                !
 ! D186  D(26,27,28,65)        -54.1419         estimate D2E/DX2                !
 ! D187  D(23,28,29,30)         65.084          estimate D2E/DX2                !
 ! D188  D(23,28,29,66)       -175.497          estimate D2E/DX2                !
 ! D189  D(23,28,29,67)        -57.4607         estimate D2E/DX2                !
 ! D190  D(27,28,29,30)        -56.0667         estimate D2E/DX2                !
 ! D191  D(27,28,29,66)         63.3523         estimate D2E/DX2                !
 ! D192  D(27,28,29,67)       -178.6114         estimate D2E/DX2                !
 ! D193  D(65,28,29,30)       -173.9239         estimate D2E/DX2                !
 ! D194  D(65,28,29,66)        -54.5049         estimate D2E/DX2                !
 ! D195  D(65,28,29,67)         63.5314         estimate D2E/DX2                !
 ! D196  D(28,29,30,68)       -119.5096         estimate D2E/DX2                !
 ! D197  D(66,29,30,68)        121.4795         estimate D2E/DX2                !
 ! D198  D(67,29,30,68)          2.3816         estimate D2E/DX2                !
 ! D199  D(26,31,32,33)        147.0623         estimate D2E/DX2                !
 ! D200  D(26,31,32,69)         25.7765         estimate D2E/DX2                !
 ! D201  D(26,31,32,70)        -92.2398         estimate D2E/DX2                !
 ! D202  D(31,32,33,34)        -52.6265         estimate D2E/DX2                !
 ! D203  D(31,32,33,71)       -175.9841         estimate D2E/DX2                !
 ! D204  D(31,32,33,72)         68.9873         estimate D2E/DX2                !
 ! D205  D(69,32,33,34)         67.3027         estimate D2E/DX2                !
 ! D206  D(69,32,33,71)        -56.0549         estimate D2E/DX2                !
 ! D207  D(69,32,33,72)       -171.0835         estimate D2E/DX2                !
 ! D208  D(70,32,33,34)       -172.1221         estimate D2E/DX2                !
 ! D209  D(70,32,33,71)         64.5203         estimate D2E/DX2                !
 ! D210  D(70,32,33,72)        -50.5083         estimate D2E/DX2                !
 ! D211  D(32,33,34,35)        -62.8099         estimate D2E/DX2                !
 ! D212  D(32,33,34,73)        174.2965         estimate D2E/DX2                !
 ! D213  D(32,33,34,74)         60.4419         estimate D2E/DX2                !
 ! D214  D(71,33,34,35)         58.9248         estimate D2E/DX2                !
 ! D215  D(71,33,34,73)        -63.9688         estimate D2E/DX2                !
 ! D216  D(71,33,34,74)       -177.8233         estimate D2E/DX2                !
 ! D217  D(72,33,34,35)        175.3003         estimate D2E/DX2                !
 ! D218  D(72,33,34,73)         52.4067         estimate D2E/DX2                !
 ! D219  D(72,33,34,74)        -61.4479         estimate D2E/DX2                !
 ! D220  D(33,34,35,36)        165.1166         estimate D2E/DX2                !
 ! D221  D(33,34,35,75)         43.2313         estimate D2E/DX2                !
 ! D222  D(33,34,35,76)        -74.2203         estimate D2E/DX2                !
 ! D223  D(73,34,35,36)        -72.0879         estimate D2E/DX2                !
 ! D224  D(73,34,35,75)        166.0267         estimate D2E/DX2                !
 ! D225  D(73,34,35,76)         48.5752         estimate D2E/DX2                !
 ! D226  D(74,34,35,36)         43.8885         estimate D2E/DX2                !
 ! D227  D(74,34,35,75)        -77.9969         estimate D2E/DX2                !
 ! D228  D(74,34,35,76)        164.5516         estimate D2E/DX2                !
 ! D229  D(34,35,36,37)        -71.4467         estimate D2E/DX2                !
 ! D230  D(34,35,36,77)         48.9404         estimate D2E/DX2                !
 ! D231  D(34,35,36,78)        169.9638         estimate D2E/DX2                !
 ! D232  D(75,35,36,37)         51.9825         estimate D2E/DX2                !
 ! D233  D(75,35,36,77)        172.3696         estimate D2E/DX2                !
 ! D234  D(75,35,36,78)        -66.6071         estimate D2E/DX2                !
 ! D235  D(76,35,36,37)        166.8807         estimate D2E/DX2                !
 ! D236  D(76,35,36,77)        -72.7322         estimate D2E/DX2                !
 ! D237  D(76,35,36,78)         48.2911         estimate D2E/DX2                !
 ! D238  D(35,36,37,79)         41.9124         estimate D2E/DX2                !
 ! D239  D(35,36,37,80)        -76.311          estimate D2E/DX2                !
 ! D240  D(35,36,37,81)        162.6503         estimate D2E/DX2                !
 ! D241  D(77,36,37,79)        -80.832          estimate D2E/DX2                !
 ! D242  D(77,36,37,80)        160.9446         estimate D2E/DX2                !
 ! D243  D(77,36,37,81)         39.9058         estimate D2E/DX2                !
 ! D244  D(78,36,37,79)        163.5379         estimate D2E/DX2                !
 ! D245  D(78,36,37,80)         45.3144         estimate D2E/DX2                !
 ! D246  D(78,36,37,81)        -75.7243         estimate D2E/DX2                !
 --------------------------------------------------------------------------------
 Trust Radius=3.00D-01 FncErr=1.00D-07 GrdErr=1.00D-06
 Number of steps in this run=    504 maximum allowed number of steps=    504.
 GradGradGradGradGradGradGradGradGradGradGradGradGradGradGradGradGradGrad

 Leave Link  103 at Sat May 21 16:46:38 2016, MaxMem= 10737418240 cpu:         0.5
 (Enter /share/apps//g09/l202.exe)
 Stoichiometry    C23H44NO16(1+)
 Framework group  C1[X(C23H44NO16)]
 Deg. of freedom   246
 Full point group                 C1      NOp   1
 Largest Abelian subgroup         C1      NOp   1
 Largest concise Abelian subgroup C1      NOp   1
                         Standard orientation:                         
 ---------------------------------------------------------------------
 Center     Atomic      Atomic             Coordinates (Angstroms)
 Number     Number       Type             X           Y           Z
 ---------------------------------------------------------------------
      1          8           0        3.201594    0.964583    0.911023
      2          6           0        3.318773   -0.052043   -0.112294
      3          6           0        3.105880    0.456350   -1.547316
      4          6           0        3.880407    1.747722   -1.857066
      5          6           0        4.584208    2.314498   -0.613119
      6          6           0        3.708354    2.295867    0.659389
      7          6           0        2.558550    3.309476    0.725476
      8          8           0        1.495165    3.095447   -0.209959
      9          8           0        4.978271    3.672913   -0.858114
     10          8           0        2.960733    2.724311   -2.397522
     11          8           0        3.518168   -0.537610   -2.463672
     12          8           0        2.287630   -0.959386    0.147630
     13          6           0        2.609979   -2.226782    0.753089
     14          6           0        2.194880   -3.330647   -0.218439
     15          8           0        2.897253   -3.170594   -1.455336
     16          6           0        0.687916   -3.261325   -0.449314
     17          6           0       -0.077861   -3.348663    0.886673
     18          8           0        0.419290   -2.394082    1.837098
     19          6           0        1.829216   -2.411582    2.065264
     20          6           0        2.099247   -1.363532    3.153259
     21          8           0        1.547393   -0.071308    2.887009
     22          8           0       -1.461457   -3.127869    0.765796
     23          6           0       -1.878657   -1.882826    0.173959
     24          6           0       -2.721457   -2.203404   -1.064194
     25          6           0       -3.415850   -0.962832   -1.622482
     26          6           0       -4.174958   -0.224952   -0.520539
     27          8           0       -3.260255    0.082849    0.546155
     28          6           0       -2.734816   -1.094175    1.189220
     29          6           0       -1.996280   -0.616113    2.433960
     30          8           0       -0.983172    0.346620    2.125746
     31          8           0       -4.635986    0.973198   -1.056991
     32          6           0       -5.544852    1.708184   -0.194624
     33          6           0       -5.337354    3.201314   -0.425212
     34          6           0       -3.876564    3.657993   -0.295181
     35          6           0       -3.253614    3.465251    1.096870
     36          6           0       -1.731549    3.586579    1.092180
     37          7           0       -1.087344    2.403762    0.425628
     38          8           0       -4.264054   -1.422427   -2.671386
     39          8           0       -1.887502   -2.781388   -2.080972
     40          8           0        0.339927   -4.322890   -1.323743
     41          1           0        4.302714   -0.552494   -0.026041
     42          1           0        2.025217    0.681820   -1.637161
     43          1           0        4.632207    1.506558   -2.625553
     44          1           0        5.468482    1.686663   -0.410849
     45          1           0        4.374676    2.548358    1.503333
     46          1           0        2.982848    4.321088    0.613991
     47          1           0        2.110845    3.239191    1.727564
     48          1           0        1.897850    3.055346   -1.123759
     49          1           0        5.930789    3.698940   -1.048370
     50          1           0        3.489587    3.539449   -2.521689
     51          1           0        3.165196   -1.411649   -2.169665
     52          1           0        3.694238   -2.285185    0.950268
     53          1           0        2.456115   -4.309670    0.227427
     54          1           0        2.453823   -3.774143   -2.085156
     55          1           0        0.483151   -2.286508   -0.922676
     56          1           0       -0.000227   -4.375291    1.290357
     57          1           0        2.140183   -3.391055    2.488289
     58          1           0        1.630145   -1.708466    4.084881
     59          1           0        3.186160   -1.292557    3.329202
     60          1           0        2.090441    0.350966    2.178517
     61          1           0       -1.010586   -1.261817   -0.098193
     62          1           0       -3.494521   -2.937325   -0.765775
     63          1           0       -2.647017   -0.265891   -2.011640
     64          1           0       -5.006366   -0.845120   -0.121584
     65          1           0       -3.565233   -1.744701    1.530428
     66          1           0       -2.734090   -0.145194    3.103509
     67          1           0       -1.555821   -1.481298    2.945251
     68          1           0       -0.074995    0.026633    2.400290
     69          1           0       -5.343122    1.436093    0.852242
     70          1           0       -6.579641    1.415606   -0.436969
     71          1           0       -5.980565    3.744022    0.286838
     72          1           0       -5.699113    3.464096   -1.431130
     73          1           0       -3.808121    4.720507   -0.576780
     74          1           0       -3.300234    3.107321   -1.058265
     75          1           0       -3.520028    2.483033    1.516335
     76          1           0       -3.653024    4.219882    1.791696
     77          1           0       -1.398073    4.489836    0.561158
     78          1           0       -1.328571    3.622311    2.112853
     79          1           0       -1.606730    2.143703   -0.421677
     80          1           0       -1.098658    1.549760    1.072020
     81          1           0       -0.087754    2.617482    0.160477
     82          1           0       -4.663081   -0.643894   -3.099255
     83          1           0       -2.453834   -2.886383   -2.869063
     84          1           0       -0.519449   -4.061446   -1.724516
 ---------------------------------------------------------------------
 Rotational constants (GHZ):      0.1062889      0.0741360      0.0568918
 Leave Link  202 at Sat May 21 16:46:38 2016, MaxMem= 10737418240 cpu:         3.6
 (Enter /share/apps//g09/l301.exe)
 Standard basis: 6-311+G(d,p) (5D, 7F)
 Ernie: Thresh=  0.10000D-02 Tol=  0.10000D-05 Strict=F.
 There are  1184 symmetry adapted cartesian basis functions of A   symmetry.
 There are  1144 symmetry adapted basis functions of A   symmetry.
  1144 basis functions,  1792 primitive gaussians,  1184 cartesian basis functions
   158 alpha electrons      158 beta electrons
       nuclear repulsion energy      5885.3558332253 Hartrees.
 IExCor= 1009 DFT=T Ex+Corr=PBE1PBE ExCW=0 ScaHFX=  0.250000
 ScaDFX=  0.750000  0.750000  1.000000  1.000000 ScalE2=  1.000000  1.000000
 IRadAn=      0 IRanWt=     -1 IRanGd=            0 ICorTp=0 IEmpDi=131
 NAtoms=   84 NActive=   84 NUniq=   84 SFac= 1.00D+00 NAtFMM=   60 NAOKFM=T Big=T
 Integral buffers will be    131072 words long.
 Raffenetti 2 integral format.
 Two-electron integral symmetry is turned on.
 R6Disp:  Grimme-D3 Dispersion energy=       -0.0825434390 Hartrees.
 Nuclear repulsion after empirical dispersion term =     5885.2732897863 Hartrees.
 Leave Link  301 at Sat May 21 16:46:39 2016, MaxMem= 10737418240 cpu:         1.7
 (Enter /share/apps//g09/l302.exe)
 NPDir=0 NMtPBC=     1 NCelOv=     1 NCel=       1 NClECP=     1 NCelD=      1
         NCelK=      1 NCelE2=     1 NClLst=     1 CellRange=     0.0.
 One-electron integrals computed using PRISM.
 NBasis=  1144 RedAO= T EigKep=  1.55D-06  NBF=  1144
 NBsUse=  1144 1.00D-06 EigRej= -1.00D+00 NBFU=  1144
 Precomputing XC quadrature grid using
 IXCGrd= 4 IRadAn=           0 IRanWt=          -1 IRanGd=           0 AccXCQ= 0.00D+00.
 Generated NRdTot=       0 NPtTot=           0 NUsed=           0 NTot=          32
 NSgBfM=  1105  1106  1107  1111  1112 MxSgAt=    84 MxSgA2=    84.
 Leave Link  302 at Sat May 21 16:46:43 2016, MaxMem= 10737418240 cpu:        57.1
 (Enter /share/apps//g09/l303.exe)
 DipDrv:  MaxL=1.
 Leave Link  303 at Sat May 21 16:46:46 2016, MaxMem= 10737418240 cpu:        35.5
 (Enter /share/apps//g09/l401.exe)
 ExpMin= 4.38D-02 ExpMax= 8.59D+03 ExpMxC= 1.30D+03 IAcc=2 IRadAn=         4 AccDes= 0.00D+00
 Harris functional with IExCor= 1009 and IRadAn=       4 diagonalized for initial guess.
 HarFok:  IExCor= 1009 AccDes= 0.00D+00 IRadAn=         4 IDoV= 1 UseB2=F ITyADJ=14
 ICtDFT=  3500011 ScaDFX=  1.000000  1.000000  1.000000  1.000000
 FoFCou: FMM=F IPFlag=           0 FMFlag=      100000 FMFlg1=        2001
         NFxFlg=           0 DoJE=T BraDBF=F KetDBF=T FulRan=T
         wScrn=  0.000000 ICntrl=     500 IOpCl=  0 I1Cent=   200000004 NGrid=           0
         NMat0=    1 NMatS0=      1 NMatT0=    0 NMatD0=    1 NMtDS0=    0 NMtDT0=    0
 Petite list used in FoFCou.
 Harris En= -2159.71768022750    
 JPrj=0 DoOrth=F DoCkMO=F.
 Leave Link  401 at Sat May 21 16:46:52 2016, MaxMem= 10737418240 cpu:       114.7
 (Enter /share/apps//g09/l502.exe)
 Closed shell SCF:
 Using DIIS extrapolation, IDIIS=  1040.
 Integral symmetry usage will be decided dynamically.
 IVT=     4256630 IEndB=     4256630 NGot= 10737418240 MDV= 10734581291
 LenX= 10734581291 LenY= 10733178251
 Requested convergence on RMS density matrix=1.00D-08 within 128 cycles.
 Requested convergence on MAX density matrix=1.00D-06.
 Requested convergence on             energy=1.00D-06.
 No special actions if energy rises.
 Fock matrices will be formed incrementally for  20 cycles.

 Cycle   1  Pass 1  IDiag  1:
 FoFJK:  IHMeth= 1 ICntrl=       0 DoSepK=F KAlg= 0 I1Cent=   0 FoldK=F
 IRaf= 780000000 NMat=   1 IRICut=       1 DoRegI=T DoRafI=F ISym2E= 0.
 FoFCou: FMM=T IPFlag=           0 FMFlag=      100000 FMFlg1=        2001
         NFxFlg=           0 DoJE=F BraDBF=F KetDBF=F FulRan=T
         wScrn=  0.000000 ICntrl=       0 IOpCl=  0 I1Cent=           0 NGrid=           0
         NMat0=    1 NMatS0=      1 NMatT0=    0 NMatD0=    1 NMtDS0=    0 NMtDT0=    0
 Symmetry not used in FoFCou.
 FMM levels:  10  Number of levels for PrismC:   9
 E= -2158.70969891198    
 DIIS: error= 1.18D-02 at cycle   1 NSaved=   1.
 NSaved= 1 IEnMin= 1 EnMin= -2158.70969891198     IErMin= 1 ErrMin= 1.18D-02
 ErrMax= 1.18D-02  0.00D+00 EMaxC= 1.00D-01 BMatC= 1.01D+00 BMatP= 1.01D+00
 IDIUse=3 WtCom= 8.82D-01 WtEn= 1.18D-01
 Coeff-Com:  0.100D+01
 Coeff-En:   0.100D+01
 Coeff:      0.100D+01
 Gap=     0.280 Goal=   None    Shift=    0.000
 GapD=    0.280 DampG=1.000 DampE=0.500 DampFc=0.5000 IDamp=-1.
 Damping current iteration by 5.00D-01
 RMSDP=9.27D-03 MaxDP=1.87D+00              OVMax= 1.47D-01

 Cycle   2  Pass 1  IDiag  1:
 RMSU=  4.62D-03    CP:  1.01D+00
 E= -2158.99010973301     Delta-E=       -0.280410821024 Rises=F Damp=T
 DIIS: error= 3.07D-03 at cycle   2 NSaved=   2.
 NSaved= 2 IEnMin= 2 EnMin= -2158.99010973301     IErMin= 2 ErrMin= 3.07D-03
 ErrMax= 3.07D-03  0.00D+00 EMaxC= 1.00D-01 BMatC= 7.99D-02 BMatP= 1.01D+00
 IDIUse=3 WtCom= 9.69D-01 WtEn= 3.07D-02
 Coeff-Com:  0.587D-01 0.941D+00
 Coeff-En:   0.156D+00 0.844D+00
 Coeff:      0.617D-01 0.938D+00
 Gap=     0.297 Goal=   None    Shift=    0.000
 RMSDP=4.47D-03 MaxDP=1.31D+00 DE=-2.80D-01 OVMax= 8.17D-02

 Cycle   3  Pass 1  IDiag  1:
 RMSU=  2.56D-03    CP:  9.21D-01  1.04D+00
 E= -2159.35607990529     Delta-E=       -0.365970172288 Rises=F Damp=F
 DIIS: error= 3.00D-03 at cycle   3 NSaved=   3.
 NSaved= 3 IEnMin= 3 EnMin= -2159.35607990529     IErMin= 3 ErrMin= 3.00D-03
 ErrMax= 3.00D-03  0.00D+00 EMaxC= 1.00D-01 BMatC= 4.40D-02 BMatP= 7.99D-02
 IDIUse=3 WtCom= 9.70D-01 WtEn= 3.00D-02
 Coeff-Com: -0.681D-01 0.407D+00 0.661D+00
 Coeff-En:   0.000D+00 0.000D+00 0.100D+01
 Coeff:     -0.661D-01 0.395D+00 0.671D+00
 Gap=     0.268 Goal=   None    Shift=    0.000
 RMSDP=1.44D-03 MaxDP=3.97D-01 DE=-3.66D-01 OVMax= 1.67D-02

 Cycle   4  Pass 1  IDiag  1:
 RMSU=  1.12D-03    CP:  9.37D-01  1.14D+00  8.46D-01
 E= -2159.38350895652     Delta-E=       -0.027429051230 Rises=F Damp=F
 DIIS: error= 1.07D-03 at cycle   4 NSaved=   4.
 NSaved= 4 IEnMin= 4 EnMin= -2159.38350895652     IErMin= 4 ErrMin= 1.07D-03
 ErrMax= 1.07D-03  0.00D+00 EMaxC= 1.00D-01 BMatC= 5.96D-03 BMatP= 4.40D-02
 IDIUse=3 WtCom= 9.89D-01 WtEn= 1.07D-02
 Coeff-Com: -0.370D-01 0.126D+00 0.344D+00 0.567D+00
 Coeff-En:   0.000D+00 0.000D+00 0.768D-01 0.923D+00
 Coeff:     -0.366D-01 0.125D+00 0.341D+00 0.571D+00
 Gap=     0.261 Goal=   None    Shift=    0.000
 RMSDP=1.08D-03 MaxDP=3.69D-01 DE=-2.74D-02 OVMax= 6.09D-03

 Cycle   5  Pass 1  IDiag  1:
 RMSU=  2.95D-04    CP:  9.15D-01  1.10D+00  8.61D-01  5.93D-01
 E= -2159.38854003990     Delta-E=       -0.005031083377 Rises=F Damp=F
 DIIS: error= 3.37D-04 at cycle   5 NSaved=   5.
 NSaved= 5 IEnMin= 5 EnMin= -2159.38854003990     IErMin= 5 ErrMin= 3.37D-04
 ErrMax= 3.37D-04  0.00D+00 EMaxC= 1.00D-01 BMatC= 2.82D-04 BMatP= 5.96D-03
 IDIUse=3 WtCom= 9.97D-01 WtEn= 3.37D-03
 Coeff-Com: -0.121D-01 0.279D-01 0.106D+00 0.254D+00 0.625D+00
 Coeff-En:   0.000D+00 0.000D+00 0.000D+00 0.000D+00 0.100D+01
 Coeff:     -0.120D-01 0.279D-01 0.106D+00 0.253D+00 0.626D+00
 Gap=     0.261 Goal=   None    Shift=    0.000
 RMSDP=1.36D-04 MaxDP=3.02D-02 DE=-5.03D-03 OVMax= 1.44D-03

 Cycle   6  Pass 1  IDiag  1:
 RMSU=  7.20D-05    CP:  9.17D-01  1.10D+00  8.72D-01  6.04D-01  7.82D-01
 E= -2159.38873898475     Delta-E=       -0.000198944846 Rises=F Damp=F
 DIIS: error= 1.05D-04 at cycle   6 NSaved=   6.
 NSaved= 6 IEnMin= 6 EnMin= -2159.38873898475     IErMin= 6 ErrMin= 1.05D-04
 ErrMax= 1.05D-04  0.00D+00 EMaxC= 1.00D-01 BMatC= 3.01D-05 BMatP= 2.82D-04
 IDIUse=3 WtCom= 9.99D-01 WtEn= 1.05D-03
 Coeff-Com: -0.438D-02 0.795D-02 0.376D-01 0.104D+00 0.336D+00 0.519D+00
 Coeff-En:   0.000D+00 0.000D+00 0.000D+00 0.000D+00 0.000D+00 0.100D+01
 Coeff:     -0.438D-02 0.794D-02 0.375D-01 0.104D+00 0.335D+00 0.519D+00
 Gap=     0.261 Goal=   None    Shift=    0.000
 RMSDP=3.55D-05 MaxDP=1.19D-02 DE=-1.99D-04 OVMax= 5.35D-04

 Cycle   7  Pass 1  IDiag  1:
 RMSU=  1.68D-05    CP:  9.17D-01  1.11D+00  8.73D-01  6.18D-01  7.76D-01
                    CP:  7.92D-01
 E= -2159.38875998600     Delta-E=       -0.000021001249 Rises=F Damp=F
 DIIS: error= 2.62D-05 at cycle   7 NSaved=   7.
 NSaved= 7 IEnMin= 7 EnMin= -2159.38875998600     IErMin= 7 ErrMin= 2.62D-05
 ErrMax= 2.62D-05  0.00D+00 EMaxC= 1.00D-01 BMatC= 2.06D-06 BMatP= 3.01D-05
 IDIUse=1 WtCom= 1.00D+00 WtEn= 0.00D+00
 Coeff-Com: -0.116D-02 0.165D-02 0.102D-01 0.325D-01 0.119D+00 0.265D+00
 Coeff-Com:  0.572D+00
 Coeff:     -0.116D-02 0.165D-02 0.102D-01 0.325D-01 0.119D+00 0.265D+00
 Coeff:      0.572D+00
 Gap=     0.261 Goal=   None    Shift=    0.000
 RMSDP=1.02D-05 MaxDP=1.85D-03 DE=-2.10D-05 OVMax= 1.44D-04

 Cycle   8  Pass 1  IDiag  1:
 RMSU=  7.46D-06    CP:  9.17D-01  1.11D+00  8.72D-01  6.21D-01  7.89D-01
                    CP:  7.57D-01  7.89D-01
 E= -2159.38876142293     Delta-E=       -0.000001436932 Rises=F Damp=F
 DIIS: error= 6.00D-06 at cycle   8 NSaved=   8.
 NSaved= 8 IEnMin= 8 EnMin= -2159.38876142293     IErMin= 8 ErrMin= 6.00D-06
 ErrMax= 6.00D-06  0.00D+00 EMaxC= 1.00D-01 BMatC= 1.32D-07 BMatP= 2.06D-06
 IDIUse=1 WtCom= 1.00D+00 WtEn= 0.00D+00
 Coeff-Com: -0.405D-05-0.185D-03 0.198D-03 0.233D-02 0.120D-01 0.492D-01
 Coeff-Com:  0.241D+00 0.696D+00
 Coeff:     -0.405D-05-0.185D-03 0.198D-03 0.233D-02 0.120D-01 0.492D-01
 Coeff:      0.241D+00 0.696D+00
 Gap=     0.261 Goal=   None    Shift=    0.000
 RMSDP=3.37D-06 MaxDP=8.75D-04 DE=-1.44D-06 OVMax= 3.72D-05

 Cycle   9  Pass 1  IDiag  1:
 RMSU=  2.25D-06    CP:  9.17D-01  1.11D+00  8.73D-01  6.20D-01  7.90D-01
                    CP:  7.75D-01  8.27D-01  9.29D-01
 E= -2159.38876152557     Delta-E=       -0.000000102643 Rises=F Damp=F
 DIIS: error= 1.69D-06 at cycle   9 NSaved=   9.
 NSaved= 9 IEnMin= 9 EnMin= -2159.38876152557     IErMin= 9 ErrMin= 1.69D-06
 ErrMax= 1.69D-06  0.00D+00 EMaxC= 1.00D-01 BMatC= 1.16D-08 BMatP= 1.32D-07
 IDIUse=1 WtCom= 1.00D+00 WtEn= 0.00D+00
 Coeff-Com:  0.704D-04-0.185D-03-0.584D-03-0.103D-02-0.249D-02 0.415D-02
 Coeff-Com:  0.709D-01 0.314D+00 0.616D+00
 Coeff:      0.704D-04-0.185D-03-0.584D-03-0.103D-02-0.249D-02 0.415D-02
 Coeff:      0.709D-01 0.314D+00 0.616D+00
 Gap=     0.261 Goal=   None    Shift=    0.000
 RMSDP=7.49D-07 MaxDP=2.96D-04 DE=-1.03D-07 OVMax= 1.10D-05

 Cycle  10  Pass 1  IDiag  1:
 RMSU=  4.17D-07    CP:  9.17D-01  1.11D+00  8.73D-01  6.20D-01  7.90D-01
                    CP:  7.79D-01  8.40D-01  9.24D-01  8.01D-01
 E= -2159.38876153431     Delta-E=       -0.000000008735 Rises=F Damp=F
 DIIS: error= 4.30D-07 at cycle  10 NSaved=  10.
 NSaved=10 IEnMin=10 EnMin= -2159.38876153431     IErMin=10 ErrMin= 4.30D-07
 ErrMax= 4.30D-07  0.00D+00 EMaxC= 1.00D-01 BMatC= 1.09D-09 BMatP= 1.16D-08
 IDIUse=1 WtCom= 1.00D+00 WtEn= 0.00D+00
 Coeff-Com:  0.287D-04-0.655D-04-0.275D-03-0.596D-03-0.191D-02-0.155D-02
 Coeff-Com:  0.153D-01 0.956D-01 0.296D+00 0.597D+00
 Coeff:      0.287D-04-0.655D-04-0.275D-03-0.596D-03-0.191D-02-0.155D-02
 Coeff:      0.153D-01 0.956D-01 0.296D+00 0.597D+00
 Gap=     0.261 Goal=   None    Shift=    0.000
 RMSDP=2.35D-07 MaxDP=7.59D-05 DE=-8.73D-09 OVMax= 3.66D-06

 Cycle  11  Pass 1  IDiag  1:
 RMSU=  1.36D-07    CP:  9.17D-01  1.11D+00  8.73D-01  6.20D-01  7.90D-01
                    CP:  7.79D-01  8.42D-01  9.39D-01  8.14D-01  7.48D-01
 E= -2159.38876153518     Delta-E=       -0.000000000871 Rises=F Damp=F
 DIIS: error= 1.33D-07 at cycle  11 NSaved=  11.
 NSaved=11 IEnMin=11 EnMin= -2159.38876153518     IErMin=11 ErrMin= 1.33D-07
 ErrMax= 1.33D-07  0.00D+00 EMaxC= 1.00D-01 BMatC= 1.06D-10 BMatP= 1.09D-09
 IDIUse=1 WtCom= 1.00D+00 WtEn= 0.00D+00
 Coeff-Com:  0.824D-05-0.174D-04-0.940D-04-0.215D-03-0.744D-03-0.102D-02
 Coeff-Com:  0.226D-02 0.229D-01 0.984D-01 0.301D+00 0.578D+00
 Coeff:      0.824D-05-0.174D-04-0.940D-04-0.215D-03-0.744D-03-0.102D-02
 Coeff:      0.226D-02 0.229D-01 0.984D-01 0.301D+00 0.578D+00
 Gap=     0.261 Goal=   None    Shift=    0.000
 RMSDP=6.87D-08 MaxDP=1.07D-05 DE=-8.71D-10 OVMax= 9.18D-07

 Cycle  12  Pass 1  IDiag  1:
 RMSU=  5.05D-08    CP:  9.17D-01  1.11D+00  8.73D-01  6.20D-01  7.90D-01
                    CP:  7.79D-01  8.41D-01  9.42D-01  8.13D-01  7.76D-01
                    CP:  7.80D-01
 E= -2159.38876153510     Delta-E=        0.000000000075 Rises=F Damp=F
 DIIS: error= 4.02D-08 at cycle  12 NSaved=  12.
 NSaved=12 IEnMin=11 EnMin= -2159.38876153518     IErMin=12 ErrMin= 4.02D-08
 ErrMax= 4.02D-08  0.00D+00 EMaxC= 1.00D-01 BMatC= 8.63D-12 BMatP= 1.06D-10
 IDIUse=1 WtCom= 1.00D+00 WtEn= 0.00D+00
 Coeff-Com:  0.300D-06-0.253D-06-0.124D-04-0.305D-04-0.121D-03-0.294D-03
 Coeff-Com: -0.800D-03-0.920D-03 0.105D-01 0.692D-01 0.265D+00 0.657D+00
 Coeff:      0.300D-06-0.253D-06-0.124D-04-0.305D-04-0.121D-03-0.294D-03
 Coeff:     -0.800D-03-0.920D-03 0.105D-01 0.692D-01 0.265D+00 0.657D+00
 Gap=     0.261 Goal=   None    Shift=    0.000
 RMSDP=2.74D-08 MaxDP=8.65D-06 DE= 7.46D-11 OVMax= 2.75D-07

 Cycle  13  Pass 1  IDiag  1:
 RMSU=  1.42D-08    CP:  9.17D-01  1.11D+00  8.73D-01  6.20D-01  7.90D-01
                    CP:  7.79D-01  8.41D-01  9.42D-01  8.20D-01  7.79D-01
                    CP:  7.81D-01  7.79D-01
 E= -2159.38876153507     Delta-E=        0.000000000030 Rises=F Damp=F
 DIIS: error= 1.64D-08 at cycle  13 NSaved=  13.
 NSaved=13 IEnMin=11 EnMin= -2159.38876153518     IErMin=13 ErrMin= 1.64D-08
 ErrMax= 1.64D-08  0.00D+00 EMaxC= 1.00D-01 BMatC= 6.31D-13 BMatP= 8.63D-12
 IDIUse=1 WtCom= 1.00D+00 WtEn= 0.00D+00
 Coeff-Com: -0.413D-06 0.104D-05 0.545D-06 0.288D-06-0.627D-05-0.622D-04
 Coeff-Com: -0.502D-03-0.194D-02-0.191D-02 0.116D-01 0.816D-01 0.297D+00
 Coeff-Com:  0.614D+00
 Coeff:     -0.413D-06 0.104D-05 0.545D-06 0.288D-06-0.627D-05-0.622D-04
 Coeff:     -0.502D-03-0.194D-02-0.191D-02 0.116D-01 0.816D-01 0.297D+00
 Coeff:      0.614D+00
 Gap=     0.261 Goal=   None    Shift=    0.000
 RMSDP=6.94D-09 MaxDP=1.19D-06 DE= 3.00D-11 OVMax= 1.09D-07
[...]
 69454,0.00042818,0.00011282,-0.00010950,-0.00019015,-0.00001026,0.0000
 3178,0.00006081,-0.00001173,-0.00001632,-0.00002946,-0.00000081,0.0000
 0426,0.00000475,-0.00001680,-0.00005231,-0.00002229,0.00001858,0.00003
 096,0.00001998,-0.00106442,0.00005012,0.00098647,-0.25166341,0.1391321
 0,-0.21996760,0.00029822,-0.00097438,-0.00002162,0.00000327,-0.0000106
 6,0.00000946,-0.00002174,-0.00002513,-0.00002423,0.,-0.00000064,-0.000
 00261,0.00000176,-0.00000099,0.00000002,0.00000756,-0.00000287,0.00000
 558,0.00001006,0.00000020,-0.00000110,-0.00000113,-0.00000194,0.000004
 50,-0.00003468,-0.00001139,-0.00000846,-0.00001728,0.00000107,0.000005
 66,-0.00001620,-0.00000955,0.00000539,-0.00005659,0.00009381,-0.000037
 22,0.00000629,-0.00000562,-0.00000273,-0.00003075,0.00000712,0.0000263
 0,-0.00001310,0.00010555,-0.00000902,0.00010625,0.00009498,-0.00015796
 ,0.00003104,-0.00005158,-0.00000373,-0.00000056,-0.00001662,0.00000410
 ,-0.00000340,0.00000215,0.00000460,0.00000819,-0.00000336,-0.00000316,
 -0.00000629,0.00000741,-0.00002226,0.00028247,0.00001825,0.00010198,0.
 00046616,0.00048350,0.00166822,-0.00068518,-0.00053486,-0.00007646,0.0
 0000379,0.00012889,0.00023053,-0.00001226,-0.00006243,-0.00006764,-0.0
 0002043,0.00003328,0.00001653,0.00000916,-0.00000453,-0.00000453,-0.00
 004095,0.00002963,-0.00001046,-0.00000229,0.00000538,0.00001589,-0.000
 02070,0.00003052,0.00002759,0.00001846,0.00002585,0.00000220,0.0000046
 7,0.00000048,-0.00001153,0.00001038,0.00000879,0.00000452,-0.00001207,
 0.00000072,0.00002002,-0.00000644,-0.00000418,-0.00001398,0.00000424,0
 .00000752,0.00000584,0.00000044,0.00000452,-0.00000187,0.00000357,0.00
 000570,0.00000581,-0.00004792,-0.00005259,-0.00003928,-0.00001638,0.00
 001824,-0.00003671,-0.00004445,0.00000525,0.00000318,-0.00036889,-0.00
 035241,-0.00034979,0.25270566,-0.00007071,-0.00007425,-0.00001218,0.00
 011402,0.00005999,-0.00001968,0.00002191,0.00009034,0.00005753,-0.0000
 0008,0.00006026,-0.00001286,0.00000690,-0.00000116,0.00000145,0.000043
 03,0.00004602,-0.00001160,-0.00005491,0.00003443,-0.00002855,0.0000842
 8,-0.00008303,-0.00001598,-0.00001025,-0.00001756,0.00000672,0.0000093
 6,-0.00007410,0.00000025,-0.00008483,-0.00010036,-0.00002530,-0.000099
 25,-0.00007711,0.00005071,0.00002970,0.00010803,-0.00001588,-0.0001338
 5,-0.00008704,0.00004376,-0.00006355,-0.00001345,-0.00008687,-0.000065
 39,0.00042810,-0.00008145,-0.00011172,0.00006368,-0.00014126,-0.000126
 88,-0.00002635,-0.00007787,0.00003036,-0.00003696,-0.00000449,0.000029
 45,0.00005358,-0.00000443,-0.00002873,-0.00006517,0.00001060,0.0003817
 7,0.00021829,0.00056910,-0.00007550,-0.00452821,-0.00397220,-0.0191262
 2,0.00887616,-0.01900827,-0.00471001,0.00012855,-0.00496176,-0.0003545
 7,0.00014262,-0.00089084,0.00089705,-0.00057914,0.00125123,-0.00109380
 ,0.00189354,-0.00111138,0.00025681,-0.00049985,-0.00033418,-0.00011536
 ,-0.00012962,0.00013172,0.00031298,0.00020740,0.00066478,-0.00003296,-
 0.00031825,-0.00030109,-0.00002101,0.00000923,0.00003697,-0.00001612,-
 0.00000430,-0.00003864,0.00000039,0.00001241,-0.00001233,-0.00000770,0
 .00001106,0.00002611,0.00002649,-0.00010113,0.00002674,0.00086084,0.00
 157199,0.00159388,0.15965358,-0.11432601,0.12253743,0.00001979,-0.0018
 9358,-0.00062325,-0.00000251,-0.00001147,0.00000336,0.00000352,-0.0000
 0926,-0.00001658,0.00000506,-0.00000535,-0.00000213,0.00000675,-0.0000
 0575,-0.00000185,-0.00000434,-0.00000864,0.00000028,0.00000707,-0.0000
 0501,0.00000417,0.00000213,0.00000381,0.00000132,-0.00001494,0.0000347
 8,0.00002368,-0.00000079,0.00000259,0.00000068,-0.00000646,0.00000940,
 -0.00000063,0.00008092,0.00005703,-0.00000680,-0.00001426,-0.00001020,
 0.00000161,0.00005533,-0.00001726,-0.00001734,0.00010692,-0.00004941,0
 .00006186,-0.00018951,-0.00011683,0.00007406,0.00000475,-0.00001005,0.
 00003663,-0.00000581,0.00000142,0.00000760,-0.00000110,-0.00000356,-0.
 00000059,-0.00000380,-0.00000490,-0.00000141,0.00002094,0.00002125,-0.
 00001581,0.00005105,-0.00006246,0.00020851,0.00065655,0.00000213,-0.00
 054348,0.00023168,-0.00031722,0.00021335,0.00000937,0.00009040,0.00009
 214,-0.00002464,-0.00004197,0.00004812,-0.00018513,0.00001903,-0.00015
 153,0.00006475,-0.00001010,0.00004865,-0.00001016,0.00002560,0.0000209
 1,0.00000914,0.00003984,0.00007970,-0.00001143,0.00002353,0.00001044,0
 .00002687,0.00002731,0.00000919,0.00000880,-0.00002824,-0.00000634,0.0
 0002655,0.00001052,0.00000952,-0.00003861,-0.00000172,0.00002031,-0.00
 002074,0.00000504,-0.00001756,0.00001276,0.00000124,0.00000951,-0.0000
 0631,-0.00000066,-0.00000800,0.00001666,-0.00000220,0.00000619,-0.0001
 0966,0.00000096,-0.00004118,0.00001997,0.00019745,-0.00014114,-0.00008
 191,0.00005986,0.00004904,0.00050472,0.00002168,0.00132075,-0.13998316
 ,0.10786945,0.00009059,0.00005807,-0.00007002,-0.00020450,-0.00007472,
 0.00014405,0.00006326,0.00006495,0.00007208,0.00000214,-0.00004206,0.0
 0002441,-0.00000816,-0.00000275,0.00002661,-0.00004889,-0.00003718,0.0
 0002966,-0.00000234,0.00000222,0.00000058,0.00003908,-0.00000718,-0.00
 007458,0.00001683,0.00001446,-0.00003769,-0.00002143,0.00002570,-0.000
 08104,-0.00009242,0.00004015,-0.00013955,0.00022547,0.00010015,-0.0001
 4836,-0.00009184,-0.00012061,-0.00001731,-0.00019830,-0.00001546,0.000
 40115,0.00010715,-0.00002054,-0.00032502,0.00024285,-0.00007329,-0.000
 21665,-0.00042312,0.00021903,-0.00022257,0.00037762,-0.00010642,0.0001
 3288,-0.00014847,0.00014768,0.00002220,-0.00003169,-0.00004810,-0.0000
 1794,0.00008340,0.00003455,-0.00001571,0.00060314,-0.00045854,0.000780
 09,0.00155112,-0.00406051,-0.00445983,-0.02623518,0.01070094,-0.026100
 87,-0.00112691,-0.00029312,0.00198885,-0.00063467,0.00016335,-0.000805
 36,0.00028332,-0.00001408,0.00019187,-0.00152848,0.00092230,-0.0004579
 9,0.00013527,-0.00042885,-0.00037273,0.00009001,0.00005296,0.00011236,
 0.00024445,0.00070317,0.00035612,0.00007762,-0.00015269,-0.00020425,-0
 .00001525,0.00001386,0.00005976,-0.00000533,0.00001698,-0.00000077,-0.
 00000516,-0.00000944,0.00000045,-0.00001661,-0.00002246,-0.00000525,0.
 00005892,0.00002592,-0.00004479,0.00020649,0.00041186,-0.00155422,-0.1
 9245140,0.08874415,-0.20477235,0.00069775,-0.00095090,-0.00016701,0.00
 001604,-0.00000305,-0.00000997,0.00000736,-0.00001584,0.00001988,0.000
 01219,0.00000056,-0.00000548,-0.00000471,0.00000355,-0.00000110,0.0000
 0760,0.00000180,-0.00000423,0.00000321,0.00000598,0.00000110,-0.000004
 80,-0.00000380,-0.00000669,0.00000994,0.00000679,0.00007444,-0.0000022
 9,-0.00000048,0.00000958,0.00001400,-0.00000057,0.00002495,-0.00000538
 ,-0.00010033,0.00013183,0.00004701,0.00001064,-0.00000155,0.00008034,-
 0.00006180,-0.00004053,-0.00000540,0.00000268,0.00018665,-0.00042836,0
 .00001257,0.00011486,-0.00000060,-0.00000610,0.00004329,0.00000829,-0.
 00002176,-0.00000923,-0.00000487,0.00000578,-0.00000132,0.00001989,0.0
 0000275,0.00000023,-0.00005734,-0.00001485,0.00004947,0.00014809,-0.00
 010817,0.00026262,0.00002414,0.00088968,0.00012008,0.00023634,0.000027
 31,0.00003234,0.00005150,-0.00002715,-0.00007903,0.00003825,0.00004195
 ,-0.00002064,-0.00011588,0.00005075,-0.00008438,0.00001760,-0.00000872
 ,-0.00000245,-0.00005833,-0.00000480,-0.00002322,-0.00000854,0.0000119
 3,0.00001951,-0.00000905,0.00001240,0.00002356,0.00002313,0.00002373,-
 0.00000474,0.00000163,0.00000472,-0.00001263,0.00002014,0.00001245,0.0
 0000374,-0.00001616,-0.00001777,0.00001533,-0.00000827,-0.00000077,-0.
 00002019,0.00000446,0.00000630,0.00000005,0.00000587,0.00000817,-0.000
 00254,0.00000104,-0.00000115,0.00000354,-0.00005651,-0.00002956,0.0000
 3480,-0.00005947,-0.00005336,0.00002587,-0.00006324,0.00002109,0.00006
 395,0.00040629,0.00034131,0.00068266,0.21829344,-0.09886842,0.23377359
 ,0.00030387,0.00022584,0.00007466,-0.00049666,-0.00025847,0.00011879,-
 0.00010547,-0.00013660,-0.00010912,-0.00002078,-0.00010870,0.00004966,
 -0.00008255,-0.00000347,0.00000829,-0.00013689,-0.00012207,0.00004690,
 0.00002715,-0.00002796,0.00000112,-0.00002948,0.00011720,0.00004696,0.
 00011649,0.00005507,-0.00004233,0.00003722,0.00013396,-0.00002908,0.00
 030591,0.00021465,-0.00004098,0.00089157,0.00009211,-0.00003895,-0.001
 10378,0.00154152,0.00039894,-0.00557058,-0.00315227,-0.00329717,0.0011
 7942,-0.00030669,-0.00043391,-0.03264441,0.02684808,-0.00805488,0.0008
 4845,-0.00086468,-0.00191834,0.00071784,0.00029376,0.00125882,-0.00032
 270,0.00036499,0.00012268,-0.00011585,-0.00012493,-0.00006122,0.000073
 47,0.00017202,0.00006071,-0.00046976,0.00115937,0.00014024,0.00052202,
 -0.00095263,-0.00006963,0.00013881,0.00077743,0.00277340,0.00005844,-0
 .00034316,-0.00072633,0.00045245,-0.00011456,0.00049189,-0.00028644,0.
 00030777,-0.00017556,-0.00025007,-0.00011322,-0.00005780,0.00015875,-0
 .00009538,-0.00009007,-0.00018168,0.00019849,0.00009474,-0.00013945,-0
 .00023398,-0.00022232,-0.00000075,0.00006213,0.00010433,0.00001357,-0.
 00000647,-0.00002496,0.00000149,-0.00000925,0.00000904,0.00000633,0.00
 000019,0.00000438,-0.00000865,-0.00004563,-0.00003368,-0.00003202,0.00
 008713,0.00002708,-0.00016763,-0.00003478,-0.00011746,-0.00440043,-0.0
 0254612,-0.00234666,-0.19320162,0.18848980,-0.04600266,0.00004924,-0.0
 0000848,-0.00002920,-0.00002304,-0.00002424,0.00002434,-0.00000129,0.0
 0000783,-0.00000138,-0.00001268,0.00001079,0.00000345,0.00002753,0.000
 01535,0.00000350,0.00000041,0.00001524,-0.00000692,-0.00000630,-0.0000
 0945,0.00000291,-0.00001684,-0.00006291,-0.00002837,-0.00002459,-0.000
 00075,0.00001042,-0.00000805,-0.00002056,0.00001698,-0.00035011,-0.000
 16887,0.00018664,-0.00030856,-0.00020780,-0.00025266,0.00022702,-0.000
 16531,-0.00012232,-0.00063798,0.00046040,0.00059135,0.00189411,0.00116
 435,0.00102847,-0.00004467,0.00000475,0.00007589,0.00001455,-0.0000167
 3,-0.00003906,0.00000366,0.00000596,0.00000584,0.00004492,0.00002118,0
 .00000245,-0.00005900,-0.00003000,-0.00003191,-0.00023269,-0.00022222,
 -0.00013107,-0.00000849,0.00022652,0.00000313,-0.00006560,-0.00000390,
 0.00003389,-0.00004162,-0.00000159,-0.00000979,-0.00000913,0.00007005,
 0.00010155,-0.00002581,0.00003658,0.00000092,0.00000052,-0.00003027,-0
 .00005983,0.00007066,-0.00022164,-0.00008315,0.00000666,-0.00000755,-0
 .00002056,-0.00000502,-0.00000402,-0.00001025,-0.00001190,-0.00001179,
 0.00000330,-0.00000724,0.00000601,0.00000174,-0.00001111,-0.00000336,-
 0.00000312,0.00001552,0.00000746,0.00000056,0.00000911,-0.00000267,0.0
 0000593,-0.00000679,0.00000386,-0.00000045,0.00000380,-0.00000009,0.00
 000565,-0.00000571,0.00000326,-0.00000487,0.00006300,-0.00002149,-0.00
 000294,0.00001005,-0.00009859,0.00004422,0.00007692,-0.00007647,-0.000
 06662,-0.00002284,0.00004682,-0.00002093,-0.00003458,0.00240768,-0.000
 49487,0.23337837,-0.00039334,-0.00040192,-0.00008184,0.00076752,0.0004
 2597,-0.00018814,-0.00001508,0.00023654,0.00010295,0.00001817,0.000160
 10,-0.00004173,0.00005363,0.00001604,-0.00001579,0.00019219,0.00019970
 ,-0.00007347,-0.00015443,0.00009686,-0.00005139,0.00023244,-0.00022758
 ,-0.00007914,-0.00008319,-0.00007200,0.00004874,0.00000271,-0.00021461
 ,0.00002137,-0.00019652,-0.00041568,0.00009816,-0.00066403,-0.00064950
 ,0.00038364,-0.00052076,0.00181973,0.00034104,-0.00360029,-0.00200016,
 -0.00230699,-0.00074798,0.00001544,0.00030256,-0.01051180,0.01456293,-
 0.00290424,-0.00295827,0.00280436,0.00179830,-0.00048161,-0.00121120,-
 0.00190335,0.00020664,-0.00018188,0.00041063,0.00029140,0.00036718,-0.
 00003898,-0.00000851,-0.00053160,-0.00004166,0.00148629,-0.00303796,0.
 00036716,-0.00108662,0.00165526,-0.00101220,-0.00124770,-0.00279416,-0
 .00896448,-0.00008752,0.00065107,0.00222966,-0.00088067,-0.00013994,-0
 .00147216,0.00051694,-0.00030139,0.00046626,0.00039767,-0.00038634,-0.
 00000174,-0.00053452,0.00034977,0.00016564,0.00066023,-0.00039499,-0.0
 0007096,0.00035043,0.00117610,0.00074621,0.00007648,-0.00037362,-0.000
 45132,-0.00003962,0.00003028,0.00009585,-0.00001537,0.00000231,-0.0000
 4344,-0.00001843,-0.00000262,0.00000538,-0.00002862,-0.00001646,0.0000
 0690,0.00014943,-0.00005026,-0.00007260,-0.00008608,0.00077653,0.00020
 922,0.00058117,0.00266878,0.00420416,0.23452898,-0.32703304,0.04508411
 ,-0.00000958,-0.00004943,0.00000365,-0.00000088,-0.00005058,-0.0000378
 1,0.00000321,-0.00001363,-0.00000215,0.00002507,-0.00002255,-0.0000104
 2,-0.00003181,-0.00003017,0.00000269,0.00001988,-0.00002665,0.00001113
 ,0.00000480,0.00001261,-0.00000037,-0.00001822,0.00009125,0.00007364,0
 .00001283,0.00000555,-0.00000688,-0.00001053,0.00001911,-0.00001167,0.
 00029406,0.00045145,-0.00029568,-0.00058888,-0.00021560,-0.00019769,0.
 00019039,0.00002465,-0.00016216,0.00082326,-0.00056967,-0.00041124,-0.
 00296662,-0.00061907,-0.00034298,0.00018604,-0.00026522,0.00024427,0.0
 0000083,-0.00002730,0.00003119,-0.00003793,-0.00003579,-0.00004379,0.0
 0000618,-0.00005788,0.00001691,0.00005002,0.00009195,0.00003332,-0.000
 10710,0.00003244,0.00005501,-0.00019282,0.00058001,0.00103065,0.000044
 95,-0.00014873,-0.00004789,0.00007017,0.00005313,0.00005720,-0.0000136
 8,0.00001286,-0.00003643,0.00014638,-0.00003440,0.00006688,0.00000496,
 0.00003792,0.00006871,-0.00035705,0.00059063,0.00010081,-0.00000780,0.
 00001562,0.00005760,-0.00001695,0.00004548,0.00004145,0.00004657,0.000
 04941,0.00000362,0.00001608,-0.00001358,-0.00002122,0.00003980,0.00002
 418,0.00000770,-0.00004837,-0.00001507,0.00003411,-0.00002646,-0.00000
 968,-0.00004327,0.00002051,0.00001125,0.00000789,-0.00000062,0.0000169
 1,-0.00001322,0.00001095,-0.00000032,0.00002033,-0.00017902,-0.0000584
 2,-0.00000096,-0.00012606,0.00006281,-0.00004846,-0.00025646,0.0001534
 4,0.00017257,0.00013298,-0.00017029,0.00016553,0.00132941,0.00121891,0
 .00231999,-0.21463383,0.31125443,0.00003460,0.00002757,-0.00011319,-0.
 00010899,-0.00005460,0.00012712,0.00010406,0.00007337,0.00009380,0.000
 00145,-0.00000777,0.00000763,0.00001154,-0.00000464,0.00003032,-0.0000
 3832,-0.00003271,0.00002160,0.00001148,-0.00000433,0.00001490,0.000006
 75,-0.00000612,-0.00007391,-0.00000701,0.00000616,-0.00003208,-0.00002
 520,-0.00000129,-0.00006039,-0.00017624,0.00005296,-0.00016967,0.00004
 120,0.00012454,-0.00021463,-0.00002950,-0.00004533,0.00039535,-0.00017
 670,-0.00136549,-0.00126761,0.00117420,0.00045024,0.00017689,-0.014063
 46,0.01315649,-0.00428535,-0.00497602,0.00196015,-0.00137076,0.0011484
 4,-0.00049621,-0.00006133,-0.00022882,0.00026244,0.00014601,0.00000679
 ,-0.00014209,-0.00004537,0.00012082,0.00006970,-0.00005037,0.00194093,
 0.00124211,0.00147549,-0.00067209,-0.00254276,0.00033093,0.00039399,-0
 .00183073,0.00177468,0.00002125,-0.00036513,-0.00051309,0.00024726,-0.
 00028405,0.00038934,-0.00011877,0.00053024,-0.00013696,-0.00001425,-0.
 00019770,-0.00012168,-0.00011606,-0.00004369,0.00001581,0.00017175,0.0
 0012140,-0.00006216,-0.00002783,0.00006245,-0.00013653,-0.00000341,-0.
 00003467,0.00001772,-0.00000124,-0.00000952,-0.00000886,0.00000692,0.0
 0000648,0.00000943,-0.00000700,-0.00000882,0.00000695,-0.00000748,-0.0
 0001799,-0.00001090,0.00004479,0.00006261,-0.00007111,-0.00012039,0.00
 014829,-0.00025581,-0.00150395,0.00067401,-0.00703289,-0.04049568,0.02
 805566,-0.02379438,0.00000422,0.00000233,-0.00000325,0.00002107,0.0000
 0929,0.00001241,0.00000907,-0.00000065,-0.00000509,-0.00000210,0.00000
 281,0.00000005,0.00000156,0.00000161,-0.00000415,0.00000011,0.00000503
 ,-0.00000059,-0.00000495,-0.00000558,-0.00000819,0.00001470,0.00001427
 ,0.00006329,0.00000177,-0.00000085,0.00000718,0.00001166,0.00000388,0.
 00001708,0.00010331,-0.00020947,0.00017958,0.00005453,0.00001212,-0.00
 004171,0.00010388,-0.00003446,-0.00006409,-0.00081188,-0.00048253,0.00
 122146,0.00036009,-0.00082455,0.00115511,-0.00002001,0.00009450,-0.000
 01521,0.00002422,-0.00005220,-0.00001002,-0.00001445,0.00000293,-0.000
 01787,0.00004696,0.00002412,0.00002321,-0.00007234,-0.00002350,0.00010
 509,0.00011219,0.00021496,-0.00007557,0.00019065,-0.00042394,-0.000357
 30,0.00000773,0.00009513,-0.00001177,-0.00001238,-0.00000701,-0.000023
 41,0.00003067,-0.00002619,-0.00001864,0.00002571,0.00003400,0.00000662
 ,-0.00004156,0.00000361,-0.00008192,-0.00008186,-0.00001145,-0.0000093
 6,-0.00000324,-0.00000706,-0.00001273,-0.00000262,0.00000210,0.0000024
 9,0.00000033,-0.00000241,0.00000124,-0.00000112,0.00000658,-0.00000478
 ,0.00000299,0.00000602,-0.00000196,-0.00000252,-0.00000669,0.00000206,
 0.00000340,-0.00000549,-0.00000819,0.00000082,0.00000296,-0.00000120,0
 .00000491,0.00000845,-0.00000081,-0.00000726,-0.00000218,0.00000179,-0
 .00000774,-0.00001120,0.00003672,-0.00006203,-0.00014521,0.00011484,-0
 .00003817,0.00001729,0.00005179,-0.00002554,0.00002972,0.00004282,0.00
 017776,0.00226257,0.00058073,0.05732763,-0.04016485,0.03200731\\0.0000
 0634,0.00000062,-0.00000136,0.00001199,0.00000070,-0.00001386,0.000002
 09,0.00000445,-0.00000140,-0.00000331,-0.00001486,0.00000244,-0.000006
 43,0.00001576,0.00000411,0.00000307,-0.00000011,0.00000745,0.00001533,
 -0.00000391,0.00000986,-0.00000560,-0.00000621,0.00000135,0.00001447,-
 0.00000492,0.00000118,0.00000843,0.00000774,-0.00000643,0.00000634,-0.
 00000103,0.00000691,-0.00000965,-0.00000055,0.00000459,0.00000517,-0.0
 0000656,-0.00000485,0.00000043,0.00001557,0.00002046,-0.00000696,-0.00
 000898,-0.00001282,0.00000391,-0.00000492,0.00000685,-0.00000093,-0.00
 001678,-0.00000860,0.00000341,0.00000676,-0.00000913,0.00000700,-0.000
 00836,0.00000708,-0.00000569,-0.00001266,0.00000297,0.00000452,0.00000
 089,-0.00000706,-0.00000958,0.00000474,-0.00001854,0.00000073,0.000000
 36,0.00000915,0.00000732,-0.00000333,0.00001656,0.00000597,-0.00000116
 ,0.00001105,-0.00002683,0.00000934,-0.00002451,0.00000912,-0.00001107,
 0.00000146,0.00001015,-0.00000615,-0.00000004,-0.00001026,0.00000770,0
 .00000393,-0.00000315,0.00000243,-0.00001538,0.00000188,-0.00001088,0.
 00001042,-0.00000488,0.00001217,-0.00000122,-0.00000292,-0.00001085,0.
 00000151,-0.00000904,0.00000301,0.00000227,0.00000485,-0.00000749,-0.0
 0000306,-0.00001057,0.00000255,0.00000719,-0.00003379,-0.00001633,0.00
 000727,0.00000409,0.00000601,-0.00000838,-0.00000264,0.00000354,-0.000
 00922,0.00000980,0.00000242,-0.00001186,-0.00000039,0.00000778,0.00000
 414,0.00000321,-0.00000408,-0.00000227,0.00000386,0.00000656,0.0000036
 9,0.00000099,0.00000406,0.00000165,-0.00000388,0.00000128,-0.00000145,
 -0.00000380,-0.00000013,0.00000084,-0.00000459,0.00000786,-0.00000661,
 0.00000451,0.00000479,0.00000077,-0.00000428,0.00000740,0.00000350,-0.
 00001158,0.00000123,0.00000790,-0.00000135,0.00000778,0.00000133,-0.00
 000255,0.00000320,-0.00000157,0.00000053,0.00000256,-0.00000627,0.0000
 1020,0.00000100,-0.00000075,0.00000299,-0.00000554,-0.00000055,0.00000
 661,0.00000568,-0.00000008,0.00000180,0.00000500,-0.00000615,0.0000026
 4,0.00000166,-0.00000387,-0.00000126,0.00000377,0.00000018,-0.00000143
 ,0.00000347,0.00000709,-0.00000643,0.00000210,0.00000441,0.00000150,0.
 00000014,-0.00000654,-0.00000783,-0.00000238,0.00000152,0.00000939,-0.
 00000025,-0.00000204,0.00000106,0.00000061,-0.00000231,0.00000158,-0.0
 0000586,-0.00000052,-0.00000214,-0.00000047,-0.00000271,-0.00000059,0.
 00000591,0.00000399,-0.00000239,-0.00000143,-0.00000454,-0.00000080,-0
 .00000323,0.00000015,-0.00000401,-0.00000128,-0.00000080,-0.00000280,-
 0.00000180,0.00000308,-0.00000361,-0.00000208,-0.00000004,0.00000106,0
 .00000002,0.00000529,0.00000373,0.00000265,-0.00000129,-0.00000283,-0.
 00000257,0.00000208,-0.00000450,-0.00000071,0.00000422,0.00000059,-0.0
 0000106,-0.00000148,0.00000971,0.00000087,0.00000275,0.00000948,0.0000
 0838,0.00000019,0.00000883,0.00000492,0.00000064,-0.00000443,-0.000006
 10,0.00000230,0.00000483,-0.00000886,0.00000030,-0.00000574,-0.0000025
 2,0.00000147\\\@


 IN SO FAR AS QUANTUM MECHANICS IS CORRECT, CHEMICAL 
 QUESTIONS ARE PROBLEMS IN APPLIED MATHEMATICS.

                    -- EYRING, WALTER, & KIMBALL, 1944
 Job cpu time:      16 days 12 hours 13 minutes 50.4 seconds.
 File lengths (MBytes):  RWF=  23627 Int=      0 D2E=      0 Chk=     97 Scr=      1
 Normal termination of Gaussian 09 at Mon May 23 21:28:38 2016.
