 Entering Gaussian System, Link 0=g09
 Initial command:
 /share/apps//g09/l1.exe "/scratch/Gau-31347.inp" -scrdir="/scratch/"
 Entering Link 1 = /share/apps//g09/l1.exe PID=     31348.
  
 Copyright (c) 1988,1990,1992,1993,1995,1998,2003,2009,2013,
            Gaussian, Inc.  All Rights Reserved.
  
 This is part of the Gaussian(R) 09 program.  It is based on
 the Gaussian(R) 03 system (copyright 2003, Gaussian, Inc.),
 the Gaussian(R) 98 system (copyright 1998, Gaussian, Inc.),
 the Gaussian(R) 94 system (copyright 1995, Gaussian, Inc.),
 the Gaussian 92(TM) system (copyright 1992, Gaussian, Inc.),
 the Gaussian 90(TM) system (copyright 1990, Gaussian, Inc.),
 the Gaussian 88(TM) system (copyright 1988, Gaussian, Inc.),
 the Gaussian 86(TM) system (copyright 1986, Carnegie Mellon
 University), and the Gaussian 82(TM) system (copyright 1983,
 Carnegie Mellon University). Gaussian is a federally registered
 trademark of Gaussian, Inc.
  
 This software contains proprietary and confidential information,
 including trade secrets, belonging to Gaussian, Inc.
  
 This software is provided under written license and may be
 used, copied, transmitted, or stored only in accord with that
 written license.
  
 The following legend is applicable only to US Government
 contracts under FAR:
  
                    RESTRICTED RIGHTS LEGEND
  
 Use, reproduction and disclosure by the US Government is
 subject to restrictions as set forth in subparagraphs (a)
 and (c) of the Commercial Computer Software - Restricted
 Rights clause in FAR 52.227-19.
  
 Gaussian, Inc.
 340 Quinnipiac St., Bldg. 40, Wallingford CT 06492
  
  
 ---------------------------------------------------------------
 Warning -- This program may not be used in any manner that
 competes with the business of Gaussian, Inc. or will provide
 assistance to any competitor of Gaussian, Inc.  The licensee
 of this program is prohibited from giving any competitor of
 Gaussian, Inc. access to this program.  By using this program,
 the user acknowledges that Gaussian, Inc. is engaged in the
 business of creating and licensing software in the field of
 computational chemistry and represents and warrants to the
 licensee that it is not a competitor of Gaussian, Inc. and that
 it will not use this program in any manner prohibited above.
 ---------------------------------------------------------------
  

 Cite this work as:
 Gaussian 09, Revision D.01,
 M. J. Frisch, G. W. Trucks, H. B. Schlegel, G. E. Scuseria, 
 M. A. Robb, J. R. Cheeseman, G. Scalmani, V. Barone, B. Mennucci, 
 G. A. Petersson, H. Nakatsuji, M. Caricato, X. Li, H. P. Hratchian, 
 A. F. Izmaylov, J. Bloino, G. Zheng, J. L. Sonnenberg, M. Hada, 
 M. Ehara, K. Toyota, R. Fukuda, J. Hasegawa, M. Ishida, T. Nakajima, 
 Y. Honda, O. Kitao, H. Nakai, T. Vreven, J. A. Montgomery, Jr., 
 J. E. Peralta, F. Ogliaro, M. Bearpark, J. J. Heyd, E. Brothers, 
 K. N. Kudin, V. N. Staroverov, T. Keith, R. Kobayashi, J. Normand, 
 K. Raghavachari, A. Rendell, J. C. Burant, S. S. Iyengar, J. Tomasi, 
 M. Cossi, N. Rega, J. M. Millam, M. Klene, J. E. Knox, J. B. Cross, 
 V. Bakken, C. Adamo, J. Jaramillo, R. Gomperts, R. E. Stratmann, 
 O. Yazyev, A. J. Austin, R. Cammi, C. Pomelli, J. W. Ochterski, 
 R. L. Martin, K. Morokuma, V. G. Zakrzewski, G. A. Voth, 
 P. Salvador, J. J. Dannenberg, S. Dapprich, A. D. Daniels, 
 O. Farkas, J. B. Foresman, J. V. Ortiz, J. Cioslowski, 
 and D. J. Fox, Gaussian, Inc., Wallingford CT, 2013.
 
 ******************************************
 Gaussian 09:  EM64L-G09RevD.01 24-Apr-2013
                 3-May-2016 
 ******************************************
 %nproc=20
 Will use up to   20 processors via shared memory.
 %mem=80GB
 %chk=Tri_A131_of.chk
 ----------------------------------------------------------------------
 #P PBE1PBE/6-311+G(d,p) opt=ModRedundant freq optcyc=999 EmpiricalDisp
 ersion=GD3
 ----------------------------------------------------------------------
 1/6=999,14=-1,18=120,19=15,26=3,38=1/1,3;
 2/9=110,12=2,17=6,18=5,40=1/2;
 3/5=4,6=6,7=111,11=2,16=1,25=1,30=1,71=1,74=-13,124=31/1,2,3;
 4//1;
 5/5=2,38=5/2;
 6/7=2,8=2,9=2,10=2,28=1/1;
 7//1,2,3,16;
 1/6=999,14=-1,18=20,19=15,26=3/3(2);
 2/9=110/2;
 99//99;
 2/9=110/2;
 3/5=4,6=6,7=111,11=2,16=1,25=1,30=1,71=1,74=-13,124=31/1,2,3;
 4/5=5,16=3,69=1/1;
 5/5=2,38=5/2;
 7//1,2,3,16;
 1/6=999,14=-1,18=20,19=15,26=3/3(-5);
 2/9=110/2;
 6/7=2,8=2,9=2,10=2,19=2,28=1/1;
 99/9=1/99;
 Leave Link    1 at Tue May  3 13:50:49 2016, MaxMem= 10737418240 cpu:         2.9
 (Enter /share/apps//g09/l101.exe)
 -----
 trich
 -----
 Symbolic Z-matrix:
 Charge =  1 Multiplicity = 1
 O                     0.39557  -6.58527   9.40146 
 C                    -0.32362  -5.41154   9.09672 
 C                    -0.33695  -4.4703    10.3044 
 C                     1.08987  -4.12733   10.74049 
 C                     1.86711  -5.40689   11.05127 
 C                     1.75367  -6.38636   9.86771 
 H                    -1.3406   -5.76081   8.85053 
 H                    -0.85697  -5.00086   11.11953 
 H                     1.59193  -3.59044   9.92024 
 H                     2.93408  -5.15951   11.17646 
 H                     2.36798  -5.96962   9.04757 
 O                     1.32931  -5.91568   12.27923 
 O                     1.04044  -3.23222   11.85091 
 O                    -1.05048  -3.25437   9.99793 
 O                     0.23193  -4.66528   8.01847 
 C                     2.23534  -7.79324   10.22702 
 H                     1.44931  -8.28051   10.82909 
 H                     2.38034  -8.37976   9.30469 
 O                     3.45624  -7.65212   10.96326 
 H                     3.84831  -8.5329    11.08174 
 H                     2.00299  -6.50455   12.66454 
 H                     0.9799   -3.80354   12.64567 
 H                    -0.85243  -2.66992   10.75995 
 O                     0.04479  -5.24476   3.86837 
 C                     1.25571  -4.75197   4.41983 
 C                     1.09466  -4.31987   5.88191 
 C                     0.3573   -5.3283    6.75505 
 C                    -0.99356  -5.63929   6.08705 
 C                    -0.74859  -6.14809   4.65348 
 H                     2.06217  -5.50949   4.32145 
 H                     0.46139  -3.4271    5.85998 
 H                     0.92158  -6.27189   6.87392 
 H                    -1.50147  -6.45341   6.63751 
 H                    -0.25241  -7.13749   4.72104 
 O                    -1.81936  -4.46286   6.10948 
 O                     2.33507  -3.87109   6.43555 
 O                     1.6899   -3.68093   3.61521 
 C                    -2.05062  -6.30684   3.85693 
 H                    -1.81494  -6.68223   2.84925 
 H                    -2.70177  -7.04121   4.35335 
 O                    -2.77615  -5.07256   3.77873 
 H                    -2.34636  -4.49756   3.0805 
 H                    -2.3643   -4.50514   5.26142 
 H                     3.05708  -4.45102   6.13078 
 O                     0.19143  -1.07935   1.51125 
 C                    -0.36986  -0.25419   2.49278 
 C                     0.61004  -0.00837   3.65441 
 C                     1.32834  -1.30549   4.10593 
 C                     0.75715  -2.57539   3.45452 
 C                     0.57221  -2.42303   1.92898 
 H                    -0.58141   0.70152   1.98586 
 H                     0.04987   0.37499   4.52008 
 H                     2.3845   -1.21746   3.79863 
 H                     1.55284  -2.604     1.4593 
 H                    -0.20853  -2.8312    3.91475 
 O                     1.26816  -1.35134   5.5475 
 O                     1.52741   1.02811   3.3217 
 O                    -1.59985  -0.83774   2.96993 
 C                    -0.41788  -3.42665   1.33282 
 H                    -0.50279  -3.21539   0.25437 
 H                    -0.02815  -4.44385   1.4658 
 O                    -1.71757  -3.3912    1.9403 
 H                    -1.92395  -2.44643   2.1368 
 H                     1.97109  -1.96501   5.85556 
 H                     1.97535   0.78499   2.4892 
 C                    -2.64638   0.1132    3.26908 
 H                    -2.23374   0.93748   3.87619 
 H                    -3.02821   0.54701   2.32909 
 C                    -3.75111  -0.62169   4.01579 
 H                    -4.21734  -1.35408   3.33827 
 H                    -4.53588   0.11183   4.26253 
 C                    -3.27676  -1.34873   5.2831 
 H                    -4.1265   -1.90759   5.70717 
 H                    -2.52837  -2.09859   4.98314 
 C                    -2.69156  -0.42084   6.35514 
 H                    -1.82085   0.13027   5.963 
 H                    -3.43373   0.34658   6.62905 
 C                    -2.27949  -1.12033   7.64537 
 H                    -3.11252  -1.68299   8.08924 
 H                    -1.93238  -0.39012   8.38857 
 N                    -1.16621  -2.10522   7.44177 
 H                    -1.46887  -2.94685   6.88254 
 H                    -0.86752  -2.50416   8.36704 
 H                    -0.35606  -1.68229   6.95132 
 
 The following ModRedundant input section has been read:
 B      45      84 B                                                           
 B      58      84 B                                                           
 B      56      84 B                                                           
 B      41      82 B                                                           
 B      62      82 B                                                           
 B      35      82 B                                                           
 B      13      83 B                                                           
 B      19      83 B                                                           
 B      14      83 B                                                           
 
 NAtoms=     84 NQM=       84 NQMF=       0 NMMI=      0 NMMIF=      0
                NMic=       0 NMicF=      0.
                    Isotopes and Nuclear Properties:
 (Nuclear quadrupole moments (NQMom) in fm**2, nuclear magnetic moments (NMagM)
  in nuclear magnetons)

  Atom         1           2           3           4           5           6           7           8           9          10
 IAtWgt=          16          12          12          12          12          12           1           1           1           1
 AtmWgt=  15.9949146  12.0000000  12.0000000  12.0000000  12.0000000  12.0000000   1.0078250   1.0078250   1.0078250   1.0078250
 NucSpn=           0           0           0           0           0           0           1           1           1           1
 AtZEff=   0.0000000   0.0000000   0.0000000   0.0000000   0.0000000   0.0000000   0.0000000   0.0000000   0.0000000   0.0000000
 NQMom=    0.0000000   0.0000000   0.0000000   0.0000000   0.0000000   0.0000000   0.0000000   0.0000000   0.0000000   0.0000000
 NMagM=    0.0000000   0.0000000   0.0000000   0.0000000   0.0000000   0.0000000   2.7928460   2.7928460   2.7928460   2.7928460
 AtZNuc=   8.0000000   6.0000000   6.0000000   6.0000000   6.0000000   6.0000000   1.0000000   1.0000000   1.0000000   1.0000000

  Atom        11          12          13          14          15          16          17          18          19          20
 IAtWgt=           1          16          16          16          16          12           1           1          16           1
 AtmWgt=   1.0078250  15.9949146  15.9949146  15.9949146  15.9949146  12.0000000   1.0078250   1.0078250  15.9949146   1.0078250
 NucSpn=           1           0           0           0           0           0           1           1           0           1
 AtZEff=   0.0000000   0.0000000   0.0000000   0.0000000   0.0000000   0.0000000   0.0000000   0.0000000   0.0000000   0.0000000
 NQMom=    0.0000000   0.0000000   0.0000000   0.0000000   0.0000000   0.0000000   0.0000000   0.0000000   0.0000000   0.0000000
 NMagM=    2.7928460   0.0000000   0.0000000   0.0000000   0.0000000   0.0000000   2.7928460   2.7928460   0.0000000   2.7928460
 AtZNuc=   1.0000000   8.0000000   8.0000000   8.0000000   8.0000000   6.0000000   1.0000000   1.0000000   8.0000000   1.0000000

  Atom        21          22          23          24          25          26          27          28          29          30
 IAtWgt=           1           1           1          16          12          12          12          12          12           1
 AtmWgt=   1.0078250   1.0078250   1.0078250  15.9949146  12.0000000  12.0000000  12.0000000  12.0000000  12.0000000   1.0078250
 NucSpn=           1           1           1           0           0           0           0           0           0           1
 AtZEff=   0.0000000   0.0000000   0.0000000   0.0000000   0.0000000   0.0000000   0.0000000   0.0000000   0.0000000   0.0000000
 NQMom=    0.0000000   0.0000000   0.0000000   0.0000000   0.0000000   0.0000000   0.0000000   0.0000000   0.0000000   0.0000000
 NMagM=    2.7928460   2.7928460   2.7928460   0.0000000   0.0000000   0.0000000   0.0000000   0.0000000   0.0000000   2.7928460
 AtZNuc=   1.0000000   1.0000000   1.0000000   8.0000000   6.0000000   6.0000000   6.0000000   6.0000000   6.0000000   1.0000000

  Atom        31          32          33          34          35          36          37          38          39          40
 IAtWgt=           1           1           1           1          16          16          16          12           1           1
 AtmWgt=   1.0078250   1.0078250   1.0078250   1.0078250  15.9949146  15.9949146  15.9949146  12.0000000   1.0078250   1.0078250
 NucSpn=           1           1           1           1           0           0           0           0           1           1
 AtZEff=   0.0000000   0.0000000   0.0000000   0.0000000   0.0000000   0.0000000   0.0000000   0.0000000   0.0000000   0.0000000
 NQMom=    0.0000000   0.0000000   0.0000000   0.0000000   0.0000000   0.0000000   0.0000000   0.0000000   0.0000000   0.0000000
 NMagM=    2.7928460   2.7928460   2.7928460   2.7928460   0.0000000   0.0000000   0.0000000   0.0000000   2.7928460   2.7928460
 AtZNuc=   1.0000000   1.0000000   1.0000000   1.0000000   8.0000000   8.0000000   8.0000000   6.0000000   1.0000000   1.0000000

  Atom        41          42          43          44          45          46          47          48          49          50
 IAtWgt=          16           1           1           1          16          12          12          12          12          12
 AtmWgt=  15.9949146   1.0078250   1.0078250   1.0078250  15.9949146  12.0000000  12.0000000  12.0000000  12.0000000  12.0000000
 NucSpn=           0           1           1           1           0           0           0           0           0           0
 AtZEff=   0.0000000   0.0000000   0.0000000   0.0000000   0.0000000   0.0000000   0.0000000   0.0000000   0.0000000   0.0000000
 NQMom=    0.0000000   0.0000000   0.0000000   0.0000000   0.0000000   0.0000000   0.0000000   0.0000000   0.0000000   0.0000000
 NMagM=    0.0000000   2.7928460   2.7928460   2.7928460   0.0000000   0.0000000   0.0000000   0.0000000   0.0000000   0.0000000
 AtZNuc=   8.0000000   1.0000000   1.0000000   1.0000000   8.0000000   6.0000000   6.0000000   6.0000000   6.0000000   6.0000000

  Atom        51          52          53          54          55          56          57          58          59          60
 IAtWgt=           1           1           1           1           1          16          16          16          12           1
 AtmWgt=   1.0078250   1.0078250   1.0078250   1.0078250   1.0078250  15.9949146  15.9949146  15.9949146  12.0000000   1.0078250
 NucSpn=           1           1           1           1           1           0           0           0           0           1
 AtZEff=   0.0000000   0.0000000   0.0000000   0.0000000   0.0000000   0.0000000   0.0000000   0.0000000   0.0000000   0.0000000
 NQMom=    0.0000000   0.0000000   0.0000000   0.0000000   0.0000000   0.0000000   0.0000000   0.0000000   0.0000000   0.0000000
 NMagM=    2.7928460   2.7928460   2.7928460   2.7928460   2.7928460   0.0000000   0.0000000   0.0000000   0.0000000   2.7928460
 AtZNuc=   1.0000000   1.0000000   1.0000000   1.0000000   1.0000000   8.0000000   8.0000000   8.0000000   6.0000000   1.0000000

  Atom        61          62          63          64          65          66          67          68          69          70
 IAtWgt=           1          16           1           1           1          12           1           1          12           1
 AtmWgt=   1.0078250  15.9949146   1.0078250   1.0078250   1.0078250  12.0000000   1.0078250   1.0078250  12.0000000   1.0078250
 NucSpn=           1           0           1           1           1           0           1           1           0           1
 AtZEff=   0.0000000   0.0000000   0.0000000   0.0000000   0.0000000   0.0000000   0.0000000   0.0000000   0.0000000   0.0000000
 NQMom=    0.0000000   0.0000000   0.0000000   0.0000000   0.0000000   0.0000000   0.0000000   0.0000000   0.0000000   0.0000000
 NMagM=    2.7928460   0.0000000   2.7928460   2.7928460   2.7928460   0.0000000   2.7928460   2.7928460   0.0000000   2.7928460
 AtZNuc=   1.0000000   8.0000000   1.0000000   1.0000000   1.0000000   6.0000000   1.0000000   1.0000000   6.0000000   1.0000000

  Atom        71          72          73          74          75          76          77          78          79          80
 IAtWgt=           1          12           1           1          12           1           1          12           1           1
 AtmWgt=   1.0078250  12.0000000   1.0078250   1.0078250  12.0000000   1.0078250   1.0078250  12.0000000   1.0078250   1.0078250
 NucSpn=           1           0           1           1           0           1           1           0           1           1
 AtZEff=   0.0000000   0.0000000   0.0000000   0.0000000   0.0000000   0.0000000   0.0000000   0.0000000   0.0000000   0.0000000
 NQMom=    0.0000000   0.0000000   0.0000000   0.0000000   0.0000000   0.0000000   0.0000000   0.0000000   0.0000000   0.0000000
 NMagM=    2.7928460   0.0000000   2.7928460   2.7928460   0.0000000   2.7928460   2.7928460   0.0000000   2.7928460   2.7928460
 AtZNuc=   1.0000000   6.0000000   1.0000000   1.0000000   6.0000000   1.0000000   1.0000000   6.0000000   1.0000000   1.0000000

  Atom        81          82          83          84
 IAtWgt=          14           1           1           1
 AtmWgt=  14.0030740   1.0078250   1.0078250   1.0078250
 NucSpn=           2           1           1           1
 AtZEff=   0.0000000   0.0000000   0.0000000   0.0000000
 NQMom=    2.0440000   0.0000000   0.0000000   0.0000000
 NMagM=    0.4037610   2.7928460   2.7928460   2.7928460
 AtZNuc=   7.0000000   1.0000000   1.0000000   1.0000000
 Leave Link  101 at Tue May  3 13:50:50 2016, MaxMem= 10737418240 cpu:         3.9
 (Enter /share/apps//g09/l103.exe)

 GradGradGradGradGradGradGradGradGradGradGradGradGradGradGradGradGradGrad
 Berny optimization.
 Initialization pass.
                           ----------------------------
                           !    Initial Parameters    !
                           ! (Angstroms and Degrees)  !
 --------------------------                            --------------------------
 ! Name  Definition              Value          Derivative Info.                !
 --------------------------------------------------------------------------------
 ! R1    R(1,2)                  1.4099         estimate D2E/DX2                !
 ! R2    R(1,6)                  1.4496         estimate D2E/DX2                !
 ! R3    R(2,3)                  1.5312         estimate D2E/DX2                !
 ! R4    R(2,7)                  1.1031         estimate D2E/DX2                !
 ! R5    R(2,15)                 1.4241         estimate D2E/DX2                !
 ! R6    R(3,4)                  1.5309         estimate D2E/DX2                !
 ! R7    R(3,8)                  1.1029         estimate D2E/DX2                !
 ! R8    R(3,14)                 1.4428         estimate D2E/DX2                !
 ! R9    R(4,5)                  1.529          estimate D2E/DX2                !
 ! R10   R(4,9)                  1.1014         estimate D2E/DX2                !
 ! R11   R(4,13)                 1.4271         estimate D2E/DX2                !
 ! R12   R(5,6)                  1.5405         estimate D2E/DX2                !
 ! R13   R(5,10)                 1.1024         estimate D2E/DX2                !
 ! R14   R(5,12)                 1.4339         estimate D2E/DX2                !
 ! R15   R(6,11)                 1.1062         estimate D2E/DX2                !
 ! R16   R(6,16)                 1.5298         estimate D2E/DX2                !
 ! R17   R(12,21)                0.9742         estimate D2E/DX2                !
 ! R18   R(13,22)                0.9807         estimate D2E/DX2                !
 ! R19   R(13,83)                4.0383         estimate D2E/DX2                !
 ! R20   R(14,23)                0.9806         estimate D2E/DX2                !
 ! R21   R(14,83)                1.8045         estimate D2E/DX2                !
 ! R22   R(15,27)                1.4323         estimate D2E/DX2                !
 ! R23   R(16,17)                1.1035         estimate D2E/DX2                !
 ! R24   R(16,18)                1.1026         estimate D2E/DX2                !
 ! R25   R(16,19)                1.4327         estimate D2E/DX2                !
 ! R26   R(19,20)                0.9714         estimate D2E/DX2                !
 ! R27   R(19,83)                7.2067         estimate D2E/DX2                !
 ! R28   R(24,25)                1.4189         estimate D2E/DX2                !
 ! R29   R(24,29)                1.4359         estimate D2E/DX2                !
 ! R30   R(25,26)                1.5331         estimate D2E/DX2                !
 ! R31   R(25,30)                1.1108         estimate D2E/DX2                !
 ! R32   R(25,37)                1.4082         estimate D2E/DX2                !
 ! R33   R(26,27)                1.5241         estimate D2E/DX2                !
 ! R34   R(26,31)                1.0948         estimate D2E/DX2                !
 ! R35   R(26,36)                1.4306         estimate D2E/DX2                !
 ! R36   R(27,28)                1.5388         estimate D2E/DX2                !
 ! R37   R(27,32)                1.1058         estimate D2E/DX2                !
 ! R38   R(28,29)                1.5408         estimate D2E/DX2                !
 ! R39   R(28,33)                1.1062         estimate D2E/DX2                !
 ! R40   R(28,35)                1.4375         estimate D2E/DX2                !
 ! R41   R(29,34)                1.1089         estimate D2E/DX2                !
 ! R42   R(29,38)                1.5346         estimate D2E/DX2                !
 ! R43   R(35,43)                1.0089         estimate D2E/DX2                !
 ! R44   R(35,82)                1.7375         estimate D2E/DX2                !
 ! R45   R(36,44)                0.9749         estimate D2E/DX2                !
 ! R46   R(37,49)                1.4554         estimate D2E/DX2                !
 ! R47   R(38,39)                1.1009         estimate D2E/DX2                !
 ! R48   R(38,40)                1.0999         estimate D2E/DX2                !
 ! R49   R(38,41)                1.4339         estimate D2E/DX2                !
 ! R50   R(41,42)                1.0014         estimate D2E/DX2                !
 ! R51   R(41,82)                3.9826         estimate D2E/DX2                !
 ! R52   R(45,46)                1.3998         estimate D2E/DX2                !
 ! R53   R(45,50)                1.4577         estimate D2E/DX2                !
 ! R54   R(45,84)                5.5007         estimate D2E/DX2                !
 ! R55   R(46,47)                1.5395         estimate D2E/DX2                !
 ! R56   R(46,51)                1.1023         estimate D2E/DX2                !
 ! R57   R(46,58)                1.4426         estimate D2E/DX2                !
 ! R58   R(47,48)                1.55           estimate D2E/DX2                !
 ! R59   R(47,52)                1.1001         estimate D2E/DX2                !
 ! R60   R(47,57)                1.4236         estimate D2E/DX2                !
 ! R61   R(48,49)                1.5373         estimate D2E/DX2                !
 ! R62   R(48,53)                1.1035         estimate D2E/DX2                !
 ! R63   R(48,56)                1.4436         estimate D2E/DX2                !
 ! R64   R(49,50)                1.5442         estimate D2E/DX2                !
 ! R65   R(49,55)                1.0999         estimate D2E/DX2                !
 ! R66   R(50,54)                1.1023         estimate D2E/DX2                !
 ! R67   R(50,59)                1.5307         estimate D2E/DX2                !
 ! R68   R(56,64)                0.9827         estimate D2E/DX2                !
 ! R69   R(56,84)                2.1722         estimate D2E/DX2                !
 ! R70   R(57,65)                0.9761         estimate D2E/DX2                !
 ! R71   R(58,66)                1.4453         estimate D2E/DX2                !
 ! R72   R(58,84)                4.2558         estimate D2E/DX2                !
 ! R73   R(59,60)                1.1022         estimate D2E/DX2                !
 ! R74   R(59,61)                1.0974         estimate D2E/DX2                !
 ! R75   R(59,62)                1.4351         estimate D2E/DX2                !
 ! R76   R(62,63)                0.9868         estimate D2E/DX2                !
 ! R77   R(62,82)                4.9684         estimate D2E/DX2                !
 ! R78   R(66,67)                1.1038         estimate D2E/DX2                !
 ! R79   R(66,68)                1.1034         estimate D2E/DX2                !
 ! R80   R(66,69)                1.5225         estimate D2E/DX2                !
 ! R81   R(69,70)                1.1013         estimate D2E/DX2                !
 ! R82   R(69,71)                1.1022         estimate D2E/DX2                !
 ! R83   R(69,72)                1.5361         estimate D2E/DX2                !
 ! R84   R(72,73)                1.1019         estimate D2E/DX2                !
 ! R85   R(72,74)                1.1011         estimate D2E/DX2                !
 ! R86   R(72,75)                1.5339         estimate D2E/DX2                !
 ! R87   R(75,76)                1.1026         estimate D2E/DX2                !
 ! R88   R(75,77)                1.1022         estimate D2E/DX2                !
 ! R89   R(75,78)                1.5244         estimate D2E/DX2                !
 ! R90   R(78,79)                1.0989         estimate D2E/DX2                !
 ! R91   R(78,80)                1.0982         estimate D2E/DX2                !
 ! R92   R(78,81)                1.5003         estimate D2E/DX2                !
 ! R93   R(81,82)                1.0548         estimate D2E/DX2                !
 ! R94   R(81,83)                1.0509         estimate D2E/DX2                !
 ! R95   R(81,84)                1.0372         estimate D2E/DX2                !
 ! A1    A(2,1,6)              115.6704         estimate D2E/DX2                !
 ! A2    A(1,2,3)              110.2251         estimate D2E/DX2                !
 ! A3    A(1,2,7)              104.7694         estimate D2E/DX2                !
 ! A4    A(1,2,15)             113.6345         estimate D2E/DX2                !
 ! A5    A(3,2,7)              111.2616         estimate D2E/DX2                !
 ! A6    A(3,2,15)             106.167          estimate D2E/DX2                !
 ! A7    A(7,2,15)             110.8902         estimate D2E/DX2                !
 ! A8    A(2,3,4)              110.7489         estimate D2E/DX2                !
 ! A9    A(2,3,8)              106.9369         estimate D2E/DX2                !
 ! A10   A(2,3,14)             110.7831         estimate D2E/DX2                !
 ! A11   A(4,3,8)              109.6756         estimate D2E/DX2                !
 ! A12   A(4,3,14)             109.4291         estimate D2E/DX2                !
 ! A13   A(8,3,14)             109.2228         estimate D2E/DX2                !
 ! A14   A(3,4,5)              110.1319         estimate D2E/DX2                !
 ! A15   A(3,4,9)              108.7783         estimate D2E/DX2                !
 ! A16   A(3,4,13)             109.2614         estimate D2E/DX2                !
 ! A17   A(5,4,9)              109.1219         estimate D2E/DX2                !
 ! A18   A(5,4,13)             112.6024         estimate D2E/DX2                !
 ! A19   A(9,4,13)             106.8283         estimate D2E/DX2                !
 ! A20   A(4,5,6)              109.785          estimate D2E/DX2                !
 ! A21   A(4,5,10)             109.1035         estimate D2E/DX2                !
 ! A22   A(4,5,12)             106.2811         estimate D2E/DX2                !
 ! A23   A(6,5,10)             107.5299         estimate D2E/DX2                !
 ! A24   A(6,5,12)             113.8751         estimate D2E/DX2                !
 ! A25   A(10,5,12)            110.2054         estimate D2E/DX2                !
 ! A26   A(1,6,5)              113.788          estimate D2E/DX2                !
 ! A27   A(1,6,11)             109.4817         estimate D2E/DX2                !
 ! A28   A(1,6,16)             104.1421         estimate D2E/DX2                !
 ! A29   A(5,6,11)             106.81           estimate D2E/DX2                !
 ! A30   A(5,6,16)             112.4008         estimate D2E/DX2                !
 ! A31   A(11,6,16)            110.2267         estimate D2E/DX2                !
 ! A32   A(5,12,21)            107.0876         estimate D2E/DX2                !
 ! A33   A(4,13,22)            105.5044         estimate D2E/DX2                !
 ! A34   A(4,13,83)             57.1928         estimate D2E/DX2                !
 ! A35   A(22,13,83)           140.8076         estimate D2E/DX2                !
 ! A36   A(3,14,23)            103.7311         estimate D2E/DX2                !
 ! A37   A(3,14,83)            119.4874         estimate D2E/DX2                !
 ! A38   A(23,14,83)           115.7278         estimate D2E/DX2                !
 ! A39   A(2,15,27)            117.3501         estimate D2E/DX2                !
 ! A40   A(6,16,17)            108.0559         estimate D2E/DX2                !
 ! A41   A(6,16,18)            109.5193         estimate D2E/DX2                !
 ! A42   A(6,16,19)            107.3628         estimate D2E/DX2                !
 ! A43   A(17,16,18)           108.3714         estimate D2E/DX2                !
 ! A44   A(17,16,19)           111.7231         estimate D2E/DX2                !
 ! A45   A(18,16,19)           111.7281         estimate D2E/DX2                !
 ! A46   A(16,19,20)           108.5017         estimate D2E/DX2                !
 ! A47   A(16,19,83)            51.2411         estimate D2E/DX2                !
 ! A48   A(20,19,83)           159.0392         estimate D2E/DX2                !
 ! A49   A(25,24,29)           118.5237         estimate D2E/DX2                !
 ! A50   A(24,25,26)           112.265          estimate D2E/DX2                !
 ! A51   A(24,25,30)           110.3851         estimate D2E/DX2                !
 ! A52   A(24,25,37)           107.771          estimate D2E/DX2                !
 ! A53   A(26,25,30)           110.6674         estimate D2E/DX2                !
 ! A54   A(26,25,37)           111.2808         estimate D2E/DX2                !
 ! A55   A(30,25,37)           104.1356         estimate D2E/DX2                !
 ! A56   A(25,26,27)           114.2477         estimate D2E/DX2                !
 ! A57   A(25,26,31)           105.7538         estimate D2E/DX2                !
 ! A58   A(25,26,36)           111.4948         estimate D2E/DX2                !
 ! A59   A(27,26,31)           105.7346         estimate D2E/DX2                !
 ! A60   A(27,26,36)           113.912          estimate D2E/DX2                !
 ! A61   A(31,26,36)           104.6838         estimate D2E/DX2                !
 ! A62   A(15,27,26)           103.9688         estimate D2E/DX2                !
 ! A63   A(15,27,28)           113.5556         estimate D2E/DX2                !
 ! A64   A(15,27,32)           110.1711         estimate D2E/DX2                !
 ! A65   A(26,27,28)           108.0435         estimate D2E/DX2                !
 ! A66   A(26,27,32)           112.2888         estimate D2E/DX2                !
 ! A67   A(28,27,32)           108.7945         estimate D2E/DX2                !
 ! A68   A(27,28,29)           109.3339         estimate D2E/DX2                !
 ! A69   A(27,28,33)           109.6205         estimate D2E/DX2                !
 ! A70   A(27,28,35)           109.3991         estimate D2E/DX2                !
 ! A71   A(29,28,33)           107.0345         estimate D2E/DX2                !
 ! A72   A(29,28,35)           112.0923         estimate D2E/DX2                !
 ! A73   A(33,28,35)           109.3146         estimate D2E/DX2                !
 ! A74   A(24,29,28)           112.8814         estimate D2E/DX2                !
 ! A75   A(24,29,34)           110.3274         estimate D2E/DX2                !
 ! A76   A(24,29,38)           104.4813         estimate D2E/DX2                !
 ! A77   A(28,29,34)           108.0043         estimate D2E/DX2                !
 ! A78   A(28,29,38)           112.4706         estimate D2E/DX2                !
 ! A79   A(34,29,38)           108.6004         estimate D2E/DX2                !
 ! A80   A(28,35,43)           105.2402         estimate D2E/DX2                !
 ! A81   A(28,35,82)           127.2384         estimate D2E/DX2                !
 ! A82   A(43,35,82)           121.2995         estimate D2E/DX2                !
 ! A83   A(26,36,44)           109.5448         estimate D2E/DX2                !
 ! A84   A(25,37,49)           116.3103         estimate D2E/DX2                !
 ! A85   A(29,38,39)           109.1936         estimate D2E/DX2                !
 ! A86   A(29,38,40)           109.7002         estimate D2E/DX2                !
 ! A87   A(29,38,41)           111.6278         estimate D2E/DX2                !
 ! A88   A(39,38,40)           108.1922         estimate D2E/DX2                !
 ! A89   A(39,38,41)           110.6061         estimate D2E/DX2                !
 ! A90   A(40,38,41)           107.4457         estimate D2E/DX2                !
 ! A91   A(38,41,42)           108.3681         estimate D2E/DX2                !
 ! A92   A(38,41,82)           104.5283         estimate D2E/DX2                !
 ! A93   A(42,41,82)            95.5111         estimate D2E/DX2                !
 ! A94   A(46,45,50)           116.5631         estimate D2E/DX2                !
 ! A95   A(46,45,84)            48.0272         estimate D2E/DX2                !
 ! A96   A(50,45,84)            68.9955         estimate D2E/DX2                !
 ! A97   A(45,46,47)           111.5923         estimate D2E/DX2                !
 ! A98   A(45,46,51)           105.4019         estimate D2E/DX2                !
 ! A99   A(45,46,58)           109.5946         estimate D2E/DX2                !
 ! A100  A(47,46,51)           109.312          estimate D2E/DX2                !
 ! A101  A(47,46,58)           110.9602         estimate D2E/DX2                !
 ! A102  A(51,46,58)           109.8275         estimate D2E/DX2                !
 ! A103  A(46,47,48)           112.4058         estimate D2E/DX2                !
 ! A104  A(46,47,52)           108.9841         estimate D2E/DX2                !
 ! A105  A(46,47,57)           110.4925         estimate D2E/DX2                !
 ! A106  A(48,47,52)           107.3609         estimate D2E/DX2                !
 ! A107  A(48,47,57)           112.2568         estimate D2E/DX2                !
 ! A108  A(52,47,57)           104.9712         estimate D2E/DX2                !
 ! A109  A(47,48,49)           113.3087         estimate D2E/DX2                !
 ! A110  A(47,48,53)           107.198          estimate D2E/DX2                !
 ! A111  A(47,48,56)           107.3479         estimate D2E/DX2                !
 ! A112  A(49,48,53)           107.6692         estimate D2E/DX2                !
 ! A113  A(49,48,56)           112.4224         estimate D2E/DX2                !
 ! A114  A(53,48,56)           108.6954         estimate D2E/DX2                !
 ! A115  A(37,49,48)           110.0347         estimate D2E/DX2                !
 ! A116  A(37,49,50)           105.1163         estimate D2E/DX2                !
 ! A117  A(37,49,55)           109.8662         estimate D2E/DX2                !
 ! A118  A(48,49,50)           112.4331         estimate D2E/DX2                !
 ! A119  A(48,49,55)           109.9399         estimate D2E/DX2                !
 ! A120  A(50,49,55)           109.3392         estimate D2E/DX2                !
 ! A121  A(45,50,49)           113.9111         estimate D2E/DX2                !
 ! A122  A(45,50,54)           105.1662         estimate D2E/DX2                !
 ! A123  A(45,50,59)           108.8932         estimate D2E/DX2                !
 ! A124  A(49,50,54)           107.3495         estimate D2E/DX2                !
 ! A125  A(49,50,59)           113.4242         estimate D2E/DX2                !
 ! A126  A(54,50,59)           107.5688         estimate D2E/DX2                !
 ! A127  A(48,56,64)           107.6428         estimate D2E/DX2                !
 ! A128  A(48,56,84)           132.953          estimate D2E/DX2                !
 ! A129  A(64,56,84)           103.7174         estimate D2E/DX2                !
 ! A130  A(47,57,65)           108.2827         estimate D2E/DX2                !
 ! A131  A(46,58,66)           114.8141         estimate D2E/DX2                !
 ! A132  A(46,58,84)            98.078          estimate D2E/DX2                !
 ! A133  A(66,58,84)            98.543          estimate D2E/DX2                !
 ! A134  A(50,59,60)           107.7723         estimate D2E/DX2                !
 ! A135  A(50,59,61)           109.3202         estimate D2E/DX2                !
 ! A136  A(50,59,62)           113.875          estimate D2E/DX2                !
 ! A137  A(60,59,61)           108.8798         estimate D2E/DX2                !
 ! A138  A(60,59,62)           109.857          estimate D2E/DX2                !
 ! A139  A(61,59,62)           107.0518         estimate D2E/DX2                !
 ! A140  A(59,62,63)           107.2983         estimate D2E/DX2                !
 ! A141  A(59,62,82)           112.2068         estimate D2E/DX2                !
 ! A142  A(63,62,82)            74.1432         estimate D2E/DX2                !
 ! A143  A(58,66,67)           109.5416         estimate D2E/DX2                !
 ! A144  A(58,66,68)           109.4451         estimate D2E/DX2                !
 ! A145  A(58,66,69)           108.0182         estimate D2E/DX2                !
 ! A146  A(67,66,68)           107.718          estimate D2E/DX2                !
 ! A147  A(67,66,69)           111.2207         estimate D2E/DX2                !
 ! A148  A(68,66,69)           110.8841         estimate D2E/DX2                !
 ! A149  A(66,69,70)           109.0539         estimate D2E/DX2                !
 ! A150  A(66,69,71)           107.77           estimate D2E/DX2                !
 ! A151  A(66,69,72)           114.1426         estimate D2E/DX2                !
 ! A152  A(70,69,71)           106.1937         estimate D2E/DX2                !
 ! A153  A(70,69,72)           108.8764         estimate D2E/DX2                !
 ! A154  A(71,69,72)           110.4974         estimate D2E/DX2                !
 ! A155  A(69,72,73)           108.6276         estimate D2E/DX2                !
 ! A156  A(69,72,74)           107.9064         estimate D2E/DX2                !
 ! A157  A(69,72,75)           114.0862         estimate D2E/DX2                !
 ! A158  A(73,72,74)           106.4745         estimate D2E/DX2                !
 ! A159  A(73,72,75)           109.3927         estimate D2E/DX2                !
 ! A160  A(74,72,75)           110.0638         estimate D2E/DX2                !
 ! A161  A(72,75,76)           110.7991         estimate D2E/DX2                !
 ! A162  A(72,75,77)           109.7549         estimate D2E/DX2                !
 ! A163  A(72,75,78)           114.6519         estimate D2E/DX2                !
 ! A164  A(76,75,77)           105.791          estimate D2E/DX2                !
 ! A165  A(76,75,78)           108.4766         estimate D2E/DX2                !
 ! A166  A(77,75,78)           106.9285         estimate D2E/DX2                !
 ! A167  A(75,78,79)           111.8336         estimate D2E/DX2                !
 ! A168  A(75,78,80)           110.6784         estimate D2E/DX2                !
 ! A169  A(75,78,81)           112.7652         estimate D2E/DX2                !
 ! A170  A(79,78,80)           107.8608         estimate D2E/DX2                !
 ! A171  A(79,78,81)           106.3323         estimate D2E/DX2                !
 ! A172  A(80,78,81)           107.0854         estimate D2E/DX2                !
 ! A173  A(78,81,82)           112.5082         estimate D2E/DX2                !
 ! A174  A(78,81,83)           109.9142         estimate D2E/DX2                !
 ! A175  A(78,81,84)           112.0923         estimate D2E/DX2                !
 ! A176  A(82,81,83)           104.2073         estimate D2E/DX2                !
 ! A177  A(82,81,84)           107.3839         estimate D2E/DX2                !
 ! A178  A(83,81,84)           110.4328         estimate D2E/DX2                !
 ! A179  A(35,82,41)            28.515          estimate D2E/DX2                !
 ! A180  A(35,82,62)            57.9453         estimate D2E/DX2                !
 ! A181  A(41,82,62)            32.923          estimate D2E/DX2                !
 ! A182  A(41,82,81)           158.9422         estimate D2E/DX2                !
 ! A183  A(62,82,81)           127.813          estimate D2E/DX2                !
 ! A184  A(13,83,14)            36.2179         estimate D2E/DX2                !
 ! A185  A(13,83,19)            43.6939         estimate D2E/DX2                !
 ! A186  A(13,83,81)           164.2089         estimate D2E/DX2                !
 ! A187  A(14,83,19)            55.8232         estimate D2E/DX2                !
 ! A188  A(14,83,81)           157.6274         estimate D2E/DX2                !
 ! A189  A(19,83,81)           139.3623         estimate D2E/DX2                !
 ! A190  A(45,84,56)            43.0905         estimate D2E/DX2                !
 ! A191  A(45,84,58)            23.3825         estimate D2E/DX2                !
 ! A192  A(45,84,81)           126.1637         estimate D2E/DX2                !
 ! A193  A(56,84,58)            65.3983         estimate D2E/DX2                !
 ! A194  A(56,84,81)           162.1368         estimate D2E/DX2                !
 ! A195  A(58,84,81)           107.1583         estimate D2E/DX2                !
 ! A196  L(35,82,81,41,-1)     187.4572         estimate D2E/DX2                !
 ! A197  L(35,82,81,41,-2)     187.8085         estimate D2E/DX2                !
 ! D1    D(6,1,2,3)            -55.4505         estimate D2E/DX2                !
 ! D2    D(6,1,2,7)           -175.2385         estimate D2E/DX2                !
 ! D3    D(6,1,2,15)            63.5703         estimate D2E/DX2                !
 ! D4    D(2,1,6,5)             52.6432         estimate D2E/DX2                !
 ! D5    D(2,1,6,11)           -66.7749         estimate D2E/DX2                !
 ! D6    D(2,1,6,16)           175.3641         estimate D2E/DX2                !
 ! D7    D(1,2,3,4)             57.3838         estimate D2E/DX2                !
 ! D8    D(1,2,3,8)            -62.0711         estimate D2E/DX2                !
 ! D9    D(1,2,3,14)           179.0015         estimate D2E/DX2                !
 ! D10   D(7,2,3,4)            173.1616         estimate D2E/DX2                !
 ! D11   D(7,2,3,8)             53.7067         estimate D2E/DX2                !
 ! D12   D(7,2,3,14)           -65.2207         estimate D2E/DX2                !
 ! D13   D(15,2,3,4)           -66.0959         estimate D2E/DX2                !
 ! D14   D(15,2,3,8)           174.4492         estimate D2E/DX2                !
 ! D15   D(15,2,3,14)           55.5218         estimate D2E/DX2                !
 ! D16   D(1,2,15,27)           58.6339         estimate D2E/DX2                !
 ! D17   D(3,2,15,27)          179.9502         estimate D2E/DX2                !
 ! D18   D(7,2,15,27)          -59.0678         estimate D2E/DX2                !
 ! D19   D(2,3,4,5)            -56.8236         estimate D2E/DX2                !
 ! D20   D(2,3,4,9)             62.7242         estimate D2E/DX2                !
 ! D21   D(2,3,4,13)           179.002          estimate D2E/DX2                !
 ! D22   D(8,3,4,5)             60.971          estimate D2E/DX2                !
 ! D23   D(8,3,4,9)           -179.4812         estimate D2E/DX2                !
 ! D24   D(8,3,4,13)           -63.2034         estimate D2E/DX2                !
 ! D25   D(14,3,4,5)          -179.2341         estimate D2E/DX2                !
 ! D26   D(14,3,4,9)           -59.6863         estimate D2E/DX2                !
 ! D27   D(14,3,4,13)           56.5915         estimate D2E/DX2                !
 ! D28   D(2,3,14,23)         -169.6176         estimate D2E/DX2                !
 ! D29   D(2,3,14,83)          -38.9597         estimate D2E/DX2                !
 ! D30   D(4,3,14,23)          -47.2276         estimate D2E/DX2                !
 ! D31   D(4,3,14,83)           83.4304         estimate D2E/DX2                !
 ! D32   D(8,3,14,23)           72.845          estimate D2E/DX2                !
 ! D33   D(8,3,14,83)         -156.4971         estimate D2E/DX2                !
 ! D34   D(3,4,5,6)             51.7922         estimate D2E/DX2                !
 ! D35   D(3,4,5,10)           169.3954         estimate D2E/DX2                !
 ! D36   D(3,4,5,12)           -71.7924         estimate D2E/DX2                !
 ! D37   D(9,4,5,6)            -67.5466         estimate D2E/DX2                !
 ! D38   D(9,4,5,10)            50.0566         estimate D2E/DX2                !
 ! D39   D(9,4,5,12)           168.8688         estimate D2E/DX2                !
 ! D40   D(13,4,5,6)           174.0132         estimate D2E/DX2                !
 ! D41   D(13,4,5,10)          -68.3836         estimate D2E/DX2                !
 ! D42   D(13,4,5,12)           50.4286         estimate D2E/DX2                !
 ! D43   D(3,4,13,22)           87.1407         estimate D2E/DX2                !
 ! D44   D(3,4,13,83)          -53.9464         estimate D2E/DX2                !
 ! D45   D(5,4,13,22)          -35.57           estimate D2E/DX2                !
 ! D46   D(5,4,13,83)         -176.6572         estimate D2E/DX2                !
 ! D47   D(9,4,13,22)         -155.3468         estimate D2E/DX2                !
 ! D48   D(9,4,13,83)           63.5661         estimate D2E/DX2                !
 ! D49   D(4,5,6,1)            -49.1392         estimate D2E/DX2                !
 ! D50   D(4,5,6,11)            71.7853         estimate D2E/DX2                !
 ! D51   D(4,5,6,16)          -167.2058         estimate D2E/DX2                !
 ! D52   D(10,5,6,1)          -167.7183         estimate D2E/DX2                !
 ! D53   D(10,5,6,11)          -46.7939         estimate D2E/DX2                !
 ! D54   D(10,5,6,16)           74.2151         estimate D2E/DX2                !
 ! D55   D(12,5,6,1)            69.8759         estimate D2E/DX2                !
 ! D56   D(12,5,6,11)         -169.1996         estimate D2E/DX2                !
 ! D57   D(12,5,6,16)          -48.1907         estimate D2E/DX2                !
 ! D58   D(4,5,12,21)         -158.7881         estimate D2E/DX2                !
 ! D59   D(6,5,12,21)           80.2209         estimate D2E/DX2                !
 ! D60   D(10,5,12,21)         -40.7022         estimate D2E/DX2                !
 ! D61   D(1,6,16,17)          -47.0513         estimate D2E/DX2                !
 ! D62   D(1,6,16,18)           70.8066         estimate D2E/DX2                !
 ! D63   D(1,6,16,19)         -167.7022         estimate D2E/DX2                !
 ! D64   D(5,6,16,17)           76.5745         estimate D2E/DX2                !
 ! D65   D(5,6,16,18)         -165.5676         estimate D2E/DX2                !
 ! D66   D(5,6,16,19)          -44.0765         estimate D2E/DX2                !
 ! D67   D(11,6,16,17)        -164.3977         estimate D2E/DX2                !
 ! D68   D(11,6,16,18)         -46.5399         estimate D2E/DX2                !
 ! D69   D(11,6,16,19)          74.9513         estimate D2E/DX2                !
 ! D70   D(4,13,83,14)          91.0223         estimate D2E/DX2                !
 ! D71   D(4,13,83,19)          -2.0088         estimate D2E/DX2                !
 ! D72   D(4,13,83,81)        -111.6181         estimate D2E/DX2                !
 ! D73   D(22,13,83,14)         17.7202         estimate D2E/DX2                !
 ! D74   D(22,13,83,19)        -75.3109         estimate D2E/DX2                !
 ! D75   D(22,13,83,81)        175.0798         estimate D2E/DX2                !
 ! D76   D(3,14,83,13)         -70.4926         estimate D2E/DX2                !
 ! D77   D(3,14,83,19)         -13.9978         estimate D2E/DX2                !
 ! D78   D(3,14,83,81)         125.4824         estimate D2E/DX2                !
 ! D79   D(23,14,83,13)         54.6198         estimate D2E/DX2                !
 ! D80   D(23,14,83,19)        111.1146         estimate D2E/DX2                !
 ! D81   D(23,14,83,81)       -109.4053         estimate D2E/DX2                !
 ! D82   D(2,15,27,26)        -174.6994         estimate D2E/DX2                !
 ! D83   D(2,15,27,28)          68.1301         estimate D2E/DX2                !
 ! D84   D(2,15,27,32)         -54.1853         estimate D2E/DX2                !
 ! D85   D(6,16,19,20)        -171.3906         estimate D2E/DX2                !
 ! D86   D(6,16,19,83)           2.4114         estimate D2E/DX2                !
 ! D87   D(17,16,19,20)         70.3062         estimate D2E/DX2                !
 ! D88   D(17,16,19,83)       -115.8919         estimate D2E/DX2                !
 ! D89   D(18,16,19,20)        -51.2943         estimate D2E/DX2                !
 ! D90   D(18,16,19,83)        122.5077         estimate D2E/DX2                !
 ! D91   D(16,19,83,13)        134.2006         estimate D2E/DX2                !
 ! D92   D(16,19,83,14)         88.7052         estimate D2E/DX2                !
 ! D93   D(16,19,83,81)        -68.9787         estimate D2E/DX2                !
 ! D94   D(20,19,83,13)        150.8316         estimate D2E/DX2                !
 ! D95   D(20,19,83,14)        105.3363         estimate D2E/DX2                !
 ! D96   D(20,19,83,81)        -52.3477         estimate D2E/DX2                !
 ! D97   D(29,24,25,26)        -44.1821         estimate D2E/DX2                !
 ! D98   D(29,24,25,30)         79.8044         estimate D2E/DX2                !
 ! D99   D(29,24,25,37)       -167.0737         estimate D2E/DX2                !
 ! D100  D(25,24,29,28)         49.4472         estimate D2E/DX2                !
 ! D101  D(25,24,29,34)        -71.491          estimate D2E/DX2                !
 ! D102  D(25,24,29,38)        171.9584         estimate D2E/DX2                !
 ! D103  D(24,25,26,27)         46.9861         estimate D2E/DX2                !
 ! D104  D(24,25,26,31)        -68.8688         estimate D2E/DX2                !
 ! D105  D(24,25,26,36)        177.9177         estimate D2E/DX2                !
 ! D106  D(30,25,26,27)        -76.8431         estimate D2E/DX2                !
 ! D107  D(30,25,26,31)        167.302          estimate D2E/DX2                !
 ! D108  D(30,25,26,36)         54.0886         estimate D2E/DX2                !
 ! D109  D(37,25,26,27)        167.8769         estimate D2E/DX2                !
 ! D110  D(37,25,26,31)         52.022          estimate D2E/DX2                !
 ! D111  D(37,25,26,36)        -61.1914         estimate D2E/DX2                !
 ! D112  D(24,25,37,49)         57.2868         estimate D2E/DX2                !
 ! D113  D(26,25,37,49)        -66.2057         estimate D2E/DX2                !
 ! D114  D(30,25,37,49)        174.5398         estimate D2E/DX2                !
 ! D115  D(25,26,27,15)       -175.2354         estimate D2E/DX2                !
 ! D116  D(25,26,27,28)        -54.2948         estimate D2E/DX2                !
 ! D117  D(25,26,27,32)         65.6872         estimate D2E/DX2                !
 ! D118  D(31,26,27,15)        -59.3694         estimate D2E/DX2                !
 ! D119  D(31,26,27,28)         61.5713         estimate D2E/DX2                !
 ! D120  D(31,26,27,32)       -178.4467         estimate D2E/DX2                !
 ! D121  D(36,26,27,15)         55.024          estimate D2E/DX2                !
 ! D122  D(36,26,27,28)        175.9647         estimate D2E/DX2                !
 ! D123  D(36,26,27,32)        -64.0533         estimate D2E/DX2                !
 ! D124  D(25,26,36,44)        -40.5593         estimate D2E/DX2                !
 ! D125  D(27,26,36,44)         90.5448         estimate D2E/DX2                !
 ! D126  D(31,26,36,44)       -154.4407         estimate D2E/DX2                !
 ! D127  D(15,27,28,29)        171.3627         estimate D2E/DX2                !
 ! D128  D(15,27,28,33)        -71.5937         estimate D2E/DX2                !
 ! D129  D(15,27,28,35)         48.2616         estimate D2E/DX2                !
 ! D130  D(26,27,28,29)         56.5926         estimate D2E/DX2                !
 ! D131  D(26,27,28,33)        173.6363         estimate D2E/DX2                !
 ! D132  D(26,27,28,35)        -66.5085         estimate D2E/DX2                !
 ! D133  D(32,27,28,29)        -65.5631         estimate D2E/DX2                !
 ! D134  D(32,27,28,33)         51.4806         estimate D2E/DX2                !
 ! D135  D(32,27,28,35)        171.3358         estimate D2E/DX2                !
 ! D136  D(27,28,29,24)        -54.6024         estimate D2E/DX2                !
 ! D137  D(27,28,29,34)         67.6486         estimate D2E/DX2                !
 ! D138  D(27,28,29,38)       -172.5253         estimate D2E/DX2                !
 ! D139  D(33,28,29,24)       -173.2673         estimate D2E/DX2                !
 ! D140  D(33,28,29,34)        -51.0163         estimate D2E/DX2                !
 ! D141  D(33,28,29,38)         68.8099         estimate D2E/DX2                !
 ! D142  D(35,28,29,24)         66.8844         estimate D2E/DX2                !
 ! D143  D(35,28,29,34)       -170.8645         estimate D2E/DX2                !
 ! D144  D(35,28,29,38)        -51.0384         estimate D2E/DX2                !
 ! D145  D(27,28,35,43)        146.6525         estimate D2E/DX2                !
 ! D146  D(27,28,35,82)         -5.4055         estimate D2E/DX2                !
 ! D147  D(29,28,35,43)         25.2031         estimate D2E/DX2                !
 ! D148  D(29,28,35,82)       -126.8549         estimate D2E/DX2                !
 ! D149  D(33,28,35,43)        -93.3045         estimate D2E/DX2                !
 ! D150  D(33,28,35,82)        114.6375         estimate D2E/DX2                !
 ! D151  D(24,29,38,39)         57.8591         estimate D2E/DX2                !
 ! D152  D(24,29,38,40)        176.2691         estimate D2E/DX2                !
 ! D153  D(24,29,38,41)        -64.7497         estimate D2E/DX2                !
 ! D154  D(28,29,38,39)       -179.3617         estimate D2E/DX2                !
 ! D155  D(28,29,38,40)        -60.9518         estimate D2E/DX2                !
 ! D156  D(28,29,38,41)         58.0294         estimate D2E/DX2                !
 ! D157  D(34,29,38,39)        -59.8819         estimate D2E/DX2                !
 ! D158  D(34,29,38,40)         58.5281         estimate D2E/DX2                !
 ! D159  D(34,29,38,41)        177.5093         estimate D2E/DX2                !
 ! D160  D(28,35,82,41)        135.5525         estimate D2E/DX2                !
 ! D161  D(28,35,82,62)        112.7749         estimate D2E/DX2                !
 ! D162  D(43,35,82,41)        -12.5026         estimate D2E/DX2                !
 ! D163  D(43,35,82,62)        -35.2802         estimate D2E/DX2                !
 ! D164  D(25,37,49,48)        114.4731         estimate D2E/DX2                !
 ! D165  D(25,37,49,50)       -124.2452         estimate D2E/DX2                !
 ! D166  D(25,37,49,55)         -6.707          estimate D2E/DX2                !
 ! D167  D(29,38,41,42)         78.3753         estimate D2E/DX2                !
 ! D168  D(29,38,41,82)        -22.6115         estimate D2E/DX2                !
 ! D169  D(39,38,41,42)        -43.4217         estimate D2E/DX2                !
 ! D170  D(39,38,41,82)       -144.4085         estimate D2E/DX2                !
 ! D171  D(40,38,41,42)       -161.3125         estimate D2E/DX2                !
 ! D172  D(40,38,41,82)         97.7007         estimate D2E/DX2                !
 ! D173  D(38,41,82,35)        -28.9626         estimate D2E/DX2                !
 ! D174  D(38,41,82,62)        113.9006         estimate D2E/DX2                !
 ! D175  D(38,41,82,81)        143.229          estimate D2E/DX2                !
 ! D176  D(42,41,82,35)       -139.575          estimate D2E/DX2                !
 ! D177  D(42,41,82,62)          3.2882         estimate D2E/DX2                !
 ! D178  D(42,41,82,81)         32.6165         estimate D2E/DX2                !
 ! D179  D(50,45,46,47)         61.2621         estimate D2E/DX2                !
 ! D180  D(50,45,46,51)        179.8135         estimate D2E/DX2                !
 ! D181  D(50,45,46,58)        -62.0537         estimate D2E/DX2                !
 ! D182  D(84,45,46,47)         52.6623         estimate D2E/DX2                !
 ! D183  D(84,45,46,51)        171.2137         estimate D2E/DX2                !
 ! D184  D(84,45,46,58)        -70.6535         estimate D2E/DX2                !
 ! D185  D(46,45,50,49)        -20.1184         estimate D2E/DX2                !
 ! D186  D(46,45,50,54)       -137.386          estimate D2E/DX2                !
 ! D187  D(46,45,50,59)        107.5695         estimate D2E/DX2                !
 ! D188  D(84,45,50,49)        -13.2791         estimate D2E/DX2                !
 ! D189  D(84,45,50,54)       -130.5468         estimate D2E/DX2                !
 ! D190  D(84,45,50,59)        114.4088         estimate D2E/DX2                !
 ! D191  D(46,45,84,56)       -110.1311         estimate D2E/DX2                !
 ! D192  D(46,45,84,58)         49.3954         estimate D2E/DX2                !
 ! D193  D(46,45,84,81)         89.0671         estimate D2E/DX2                !
 ! D194  D(50,45,84,56)         78.1059         estimate D2E/DX2                !
 ! D195  D(50,45,84,58)       -122.3676         estimate D2E/DX2                !
 ! D196  D(50,45,84,81)        -82.6959         estimate D2E/DX2                !
 ! D197  D(45,46,47,48)        -44.3061         estimate D2E/DX2                !
 ! D198  D(45,46,47,52)       -163.1977         estimate D2E/DX2                !
 ! D199  D(45,46,47,57)         81.9539         estimate D2E/DX2                !
 ! D200  D(51,46,47,48)       -160.4963         estimate D2E/DX2                !
 ! D201  D(51,46,47,52)         80.6121         estimate D2E/DX2                !
 ! D202  D(51,46,47,57)        -34.2363         estimate D2E/DX2                !
 ! D203  D(58,46,47,48)         78.2305         estimate D2E/DX2                !
 ! D204  D(58,46,47,52)        -40.6611         estimate D2E/DX2                !
 ! D205  D(58,46,47,57)       -155.5095         estimate D2E/DX2                !
 ! D206  D(45,46,58,66)       -142.963          estimate D2E/DX2                !
 ! D207  D(45,46,58,84)        113.6855         estimate D2E/DX2                !
 ! D208  D(47,46,58,66)         93.3494         estimate D2E/DX2                !
 ! D209  D(47,46,58,84)        -10.0021         estimate D2E/DX2                !
 ! D210  D(51,46,58,66)        -27.6202         estimate D2E/DX2                !
 ! D211  D(51,46,58,84)       -130.9718         estimate D2E/DX2                !
 ! D212  D(46,47,48,49)         -8.8434         estimate D2E/DX2                !
 ! D213  D(46,47,48,53)        109.7973         estimate D2E/DX2                !
 ! D214  D(46,47,48,56)       -133.5734         estimate D2E/DX2                !
 ! D215  D(52,47,48,49)        110.9951         estimate D2E/DX2                !
 ! D216  D(52,47,48,53)       -130.3641         estimate D2E/DX2                !
 ! D217  D(52,47,48,56)        -13.7349         estimate D2E/DX2                !
 ! D218  D(57,47,48,49)       -134.1452         estimate D2E/DX2                !
 ! D219  D(57,47,48,53)        -15.5045         estimate D2E/DX2                !
 ! D220  D(57,47,48,56)        101.1248         estimate D2E/DX2                !
 ! D221  D(46,47,57,65)        -55.7143         estimate D2E/DX2                !
 ! D222  D(48,47,57,65)         70.629          estimate D2E/DX2                !
 ! D223  D(52,47,57,65)       -173.0643         estimate D2E/DX2                !
 ! D224  D(47,48,49,37)        163.9908         estimate D2E/DX2                !
 ! D225  D(47,48,49,50)         47.1927         estimate D2E/DX2                !
 ! D226  D(47,48,49,55)        -74.8732         estimate D2E/DX2                !
 ! D227  D(53,48,49,37)         45.6226         estimate D2E/DX2                !
 ! D228  D(53,48,49,50)        -71.1756         estimate D2E/DX2                !
 ! D229  D(53,48,49,55)        166.7586         estimate D2E/DX2                !
 ! D230  D(56,48,49,37)        -74.071          estimate D2E/DX2                !
 ! D231  D(56,48,49,50)        169.1308         estimate D2E/DX2                !
 ! D232  D(56,48,49,55)         47.065          estimate D2E/DX2                !
 ! D233  D(47,48,56,64)       -160.0634         estimate D2E/DX2                !
 ! D234  D(47,48,56,84)         70.4369         estimate D2E/DX2                !
 ! D235  D(49,48,56,64)         74.6727         estimate D2E/DX2                !
 ! D236  D(49,48,56,84)        -54.8269         estimate D2E/DX2                !
 ! D237  D(53,48,56,64)        -44.4226         estimate D2E/DX2                !
 ! D238  D(53,48,56,84)       -173.9223         estimate D2E/DX2                !
 ! D239  D(37,49,50,45)       -154.0498         estimate D2E/DX2                !
 ! D240  D(37,49,50,54)        -38.0519         estimate D2E/DX2                !
 ! D241  D(37,49,50,59)         80.633          estimate D2E/DX2                !
 ! D242  D(48,49,50,45)        -34.3509         estimate D2E/DX2                !
 ! D243  D(48,49,50,54)         81.647          estimate D2E/DX2                !
 ! D244  D(48,49,50,59)       -159.6681         estimate D2E/DX2                !
 ! D245  D(55,49,50,45)         88.0548         estimate D2E/DX2                !
 ! D246  D(55,49,50,54)       -155.9473         estimate D2E/DX2                !
 ! D247  D(55,49,50,59)        -37.2624         estimate D2E/DX2                !
 ! D248  D(45,50,59,60)         50.2585         estimate D2E/DX2                !
 ! D249  D(45,50,59,61)        168.4523         estimate D2E/DX2                !
 ! D250  D(45,50,59,62)        -71.8786         estimate D2E/DX2                !
 ! D251  D(49,50,59,60)        178.2214         estimate D2E/DX2                !
 ! D252  D(49,50,59,61)        -63.5849         estimate D2E/DX2                !
 ! D253  D(49,50,59,62)         56.0842         estimate D2E/DX2                !
 ! D254  D(54,50,59,60)        -63.2201         estimate D2E/DX2                !
 ! D255  D(54,50,59,61)         54.9736         estimate D2E/DX2                !
 ! D256  D(54,50,59,62)        174.6427         estimate D2E/DX2                !
 ! D257  D(48,56,84,45)         -5.5765         estimate D2E/DX2                !
 ! D258  D(48,56,84,58)        -14.3584         estimate D2E/DX2                !
 ! D259  D(48,56,84,81)         54.3607         estimate D2E/DX2                !
 ! D260  D(64,56,84,45)       -136.3827         estimate D2E/DX2                !
 ! D261  D(64,56,84,58)       -145.1646         estimate D2E/DX2                !
 ! D262  D(64,56,84,81)        -76.4455         estimate D2E/DX2                !
 ! D263  D(46,58,66,67)        -47.3731         estimate D2E/DX2                !
 ! D264  D(46,58,66,68)         70.5168         estimate D2E/DX2                !
 ! D265  D(46,58,66,69)       -168.6613         estimate D2E/DX2                !
 ! D266  D(84,58,66,67)         55.6889         estimate D2E/DX2                !
 ! D267  D(84,58,66,68)        173.5788         estimate D2E/DX2                !
 ! D268  D(84,58,66,69)        -65.5993         estimate D2E/DX2                !
 ! D269  D(46,58,84,45)        -33.5855         estimate D2E/DX2                !
 ! D270  D(46,58,84,56)        -18.3489         estimate D2E/DX2                !
 ! D271  D(46,58,84,81)        179.0572         estimate D2E/DX2                !
 ! D272  D(66,58,84,45)       -150.3265         estimate D2E/DX2                !
 ! D273  D(66,58,84,56)       -135.0899         estimate D2E/DX2                !
 ! D274  D(66,58,84,81)         62.3162         estimate D2E/DX2                !
 ! D275  D(50,59,62,63)         37.7456         estimate D2E/DX2                !
 ! D276  D(50,59,62,82)        -41.7699         estimate D2E/DX2                !
 ! D277  D(60,59,62,63)        -83.235          estimate D2E/DX2                !
 ! D278  D(60,59,62,82)       -162.7506         estimate D2E/DX2                !
 ! D279  D(61,59,62,63)        158.6898         estimate D2E/DX2                !
 ! D280  D(61,59,62,82)         79.1743         estimate D2E/DX2                !
 ! D281  D(59,62,82,35)       -102.7656         estimate D2E/DX2                !
 ! D282  D(59,62,82,41)       -122.6458         estimate D2E/DX2                !
 ! D283  D(59,62,82,81)         70.2262         estimate D2E/DX2                !
 ! D284  D(63,62,82,35)        154.6475         estimate D2E/DX2                !
 ! D285  D(63,62,82,41)        134.7674         estimate D2E/DX2                !
 ! D286  D(63,62,82,81)        -32.3606         estimate D2E/DX2                !
 ! D287  D(58,66,69,70)        -66.4368         estimate D2E/DX2                !
 ! D288  D(58,66,69,71)        178.6956         estimate D2E/DX2                !
 ! D289  D(58,66,69,72)         55.5614         estimate D2E/DX2                !
 ! D290  D(67,66,69,70)        173.323          estimate D2E/DX2                !
 ! D291  D(67,66,69,71)         58.4554         estimate D2E/DX2                !
 ! D292  D(67,66,69,72)        -64.6788         estimate D2E/DX2                !
 ! D293  D(68,66,69,70)         53.4834         estimate D2E/DX2                !
 ! D294  D(68,66,69,71)        -61.3842         estimate D2E/DX2                !
 ! D295  D(68,66,69,72)        175.4816         estimate D2E/DX2                !
 ! D296  D(66,69,72,73)       -175.8348         estimate D2E/DX2                !
 ! D297  D(66,69,72,74)        -60.7846         estimate D2E/DX2                !
 ! D298  D(66,69,72,75)         61.8553         estimate D2E/DX2                !
 ! D299  D(70,69,72,73)        -53.7392         estimate D2E/DX2                !
 ! D300  D(70,69,72,74)         61.3111         estimate D2E/DX2                !
 ! D301  D(70,69,72,75)       -176.049          estimate D2E/DX2                !
 ! D302  D(71,69,72,73)         62.5229         estimate D2E/DX2                !
 ! D303  D(71,69,72,74)        177.5732         estimate D2E/DX2                !
 ! D304  D(71,69,72,75)        -59.7869         estimate D2E/DX2                !
 ! D305  D(69,72,75,76)        -59.6633         estimate D2E/DX2                !
 ! D306  D(69,72,75,77)         56.806          estimate D2E/DX2                !
 ! D307  D(69,72,75,78)        177.1527         estimate D2E/DX2                !
 ! D308  D(73,72,75,76)        178.4471         estimate D2E/DX2                !
 ! D309  D(73,72,75,77)        -65.0835         estimate D2E/DX2                !
 ! D310  D(73,72,75,78)         55.2631         estimate D2E/DX2                !
 ! D311  D(74,72,75,76)         61.7908         estimate D2E/DX2                !
 ! D312  D(74,72,75,77)        178.2602         estimate D2E/DX2                !
 ! D313  D(74,72,75,78)        -61.3932         estimate D2E/DX2                !
 ! D314  D(72,75,78,79)        -55.9993         estimate D2E/DX2                !
 ! D315  D(72,75,78,80)       -176.2894         estimate D2E/DX2                !
 ! D316  D(72,75,78,81)         63.7802         estimate D2E/DX2                !
 ! D317  D(76,75,78,79)        179.5788         estimate D2E/DX2                !
 ! D318  D(76,75,78,80)         59.2887         estimate D2E/DX2                !
 ! D319  D(76,75,78,81)        -60.6417         estimate D2E/DX2                !
 ! D320  D(77,75,78,79)         65.8995         estimate D2E/DX2                !
 ! D321  D(77,75,78,80)        -54.3906         estimate D2E/DX2                !
 ! D322  D(77,75,78,81)       -174.321          estimate D2E/DX2                !
 ! D323  D(75,78,81,82)        -68.7824         estimate D2E/DX2                !
 ! D324  D(75,78,81,83)        175.5795         estimate D2E/DX2                !
 ! D325  D(75,78,81,84)         52.3644         estimate D2E/DX2                !
 ! D326  D(79,78,81,82)         54.1236         estimate D2E/DX2                !
 ! D327  D(79,78,81,83)        -61.5145         estimate D2E/DX2                !
 ! D328  D(79,78,81,84)        175.2704         estimate D2E/DX2                !
 ! D329  D(80,78,81,82)        169.2378         estimate D2E/DX2                !
 ! D330  D(80,78,81,83)         53.5997         estimate D2E/DX2                !
 ! D331  D(80,78,81,84)        -69.6153         estimate D2E/DX2                !
 ! D332  D(78,81,82,41)         64.161          estimate D2E/DX2                !
 ! D333  D(78,81,82,62)         83.854          estimate D2E/DX2                !
 ! D334  D(83,81,82,41)       -176.8107         estimate D2E/DX2                !
 ! D335  D(83,81,82,62)       -157.1177         estimate D2E/DX2                !
 ! D336  D(84,81,82,41)        -59.6413         estimate D2E/DX2                !
 ! D337  D(84,81,82,62)        -39.9483         estimate D2E/DX2                !
 ! D338  D(78,81,83,13)        -95.4076         estimate D2E/DX2                !
 ! D339  D(78,81,83,14)         47.897          estimate D2E/DX2                !
 ! D340  D(78,81,83,19)        172.2756         estimate D2E/DX2                !
 ! D341  D(82,81,83,13)        143.8134         estimate D2E/DX2                !
 ! D342  D(82,81,83,14)        -72.882          estimate D2E/DX2                !
 ! D343  D(82,81,83,19)         51.4966         estimate D2E/DX2                !
 ! D344  D(84,81,83,13)         28.7758         estimate D2E/DX2                !
 ! D345  D(84,81,83,14)        172.0804         estimate D2E/DX2                !
 ! D346  D(84,81,83,19)        -63.5409         estimate D2E/DX2                !
 ! D347  D(78,81,84,45)        -83.4121         estimate D2E/DX2                !
 ! D348  D(78,81,84,56)       -130.4961         estimate D2E/DX2                !
 ! D349  D(78,81,84,58)        -68.0358         estimate D2E/DX2                !
 ! D350  D(82,81,84,45)         40.6437         estimate D2E/DX2                !
 ! D351  D(82,81,84,56)         -6.4402         estimate D2E/DX2                !
 ! D352  D(82,81,84,58)         56.02           estimate D2E/DX2                !
 ! D353  D(83,81,84,45)        153.6655         estimate D2E/DX2                !
 ! D354  D(83,81,84,56)        106.5815         estimate D2E/DX2                !
 ! D355  D(83,81,84,58)        169.0417         estimate D2E/DX2                !
 --------------------------------------------------------------------------------
 Trust Radius=3.00D-01 FncErr=1.00D-07 GrdErr=1.00D-06
 Number of steps in this run=    504 maximum allowed number of steps=    504.
 GradGradGradGradGradGradGradGradGradGradGradGradGradGradGradGradGradGrad

 Leave Link  103 at Tue May  3 13:50:50 2016, MaxMem= 10737418240 cpu:         0.5
 (Enter /share/apps//g09/l202.exe)
 Stoichiometry    C23H44NO16(1+)
 Framework group  C1[X(C23H44NO16)]
 Deg. of freedom   246
 Full point group                 C1      NOp   1
 Largest Abelian subgroup         C1      NOp   1
 Largest concise Abelian subgroup C1      NOp   1
                         Standard orientation:                         
 ---------------------------------------------------------------------
 Center     Atomic      Atomic             Coordinates (Angstroms)
 Number     Number       Type             X           Y           Z
 ---------------------------------------------------------------------
      1          8           0       -4.321645   -0.826011   -0.875739
      2          6           0       -3.324552    0.151492   -1.070770
      3          6           0       -3.884848    1.545501   -0.775123
      4          6           0       -4.435045    1.617492    0.651663
      5          6           0       -5.502336    0.542384    0.859008
      6          6           0       -4.949814   -0.830319    0.430698
      7          1           0       -3.037267    0.052474   -2.131200
      8          1           0       -4.699572    1.723992   -1.496731
      9          1           0       -3.608581    1.446670    1.359407
     10          1           0       -5.749009    0.481022    1.931706
     11          1           0       -4.208676   -1.129625    1.195426
     12          8           0       -6.649777    0.965392    0.110393
     13          8           0       -4.926862    2.933845    0.900719
     14          8           0       -2.867365    2.553560   -0.948558
     15          8           0       -2.193153   -0.009555   -0.220968
     16          6           0       -6.047124   -1.889937    0.314336
     17          1           0       -6.596731   -1.711355   -0.625773
     18          1           0       -5.588412   -2.891316    0.263861
     19          8           0       -6.896921   -1.752949    1.459605
     20          1           0       -7.516356   -2.501008    1.475054
     21          1           0       -7.422034    0.505154    0.485730
     22          1           0       -5.856187    2.930082    0.587582
     23          1           0       -3.275833    3.363151   -0.575469
     24          8           0        1.067262   -2.640499   -0.425835
     25          6           0        0.544754   -2.323172    0.854621
     26          6           0       -0.438763   -1.148169    0.805762
     27          6           0       -1.479336   -1.248595   -0.303349
     28          6           0       -0.737050   -1.443154   -1.637110
     29          6           0        0.165063   -2.688600   -1.541889
     30          1           0        0.066094   -3.216440    1.309429
     31          1           0        0.164025   -0.265668    0.568296
     32          1           0       -2.171362   -2.098044   -0.153542
     33          1           0       -1.468428   -1.633755   -2.444902
     34          1           0       -0.489202   -3.581046   -1.470147
     35          8           0        0.011935   -0.255284   -1.944398
     36          8           0       -0.991490   -0.873231    2.096281
     37          8           0        1.631768   -2.044772    1.705476
     38          6           0        1.076942   -2.847306   -2.765926
     39          1           0        1.687016   -3.755950   -2.647364
     40          1           0        0.464404   -2.960818   -3.672369
     41          8           0        1.914021   -1.698421   -2.953854
     42          1           0        2.673747   -1.751743   -2.303590
     43          1           0        0.838493   -0.579470   -2.423625
     44          1           0       -1.190301   -1.712174    2.551418
     45          8           0        5.021065   -0.675290    1.427152
     46          6           0        4.728988    0.671821    1.183598
     47          6           0        3.630297    1.192967    2.127685
     48          6           0        2.450455    0.197587    2.267460
     49          6           0        2.526882   -0.978743    1.280724
     50          6           0        3.929620   -1.623197    1.239570
     51          1           0        5.667446    1.215245    1.381307
     52          1           0        3.222795    2.129842    1.719829
     53          1           0        2.493794   -0.218444    3.288585
     54          1           0        3.998589   -2.315302    2.094684
     55          1           0        2.251949   -0.639893    0.271080
     56          8           0        1.229498    0.954961    2.127826
     57          8           0        4.185490    1.551534    3.388536
     58          8           0        4.346533    0.842006   -0.196925
     59          6           0        4.189950   -2.433381   -0.032738
     60          1           0        5.220255   -2.821381    0.020393
     61          1           0        3.493205   -3.280263   -0.072816
     62          8           0        4.012781   -1.684982   -1.244346
     63          1           0        4.352545   -0.773465   -1.078541
     64          1           0        0.503197    0.424806    2.524090
     65          1           0        4.659969    0.776840    3.745653
     66          6           0        4.807876    2.068161   -0.807425
     67          1           0        4.592907    2.918114   -0.136857
     68          1           0        5.901215    2.019685   -0.948229
     69          6           0        4.095071    2.226278   -2.143455
     70          1           0        4.426629    1.426997   -2.824644
     71          1           0        4.431989    3.173873   -2.594396
     72          6           0        2.562440    2.192034   -2.045797
     73          1           0        2.143763    2.237877   -3.064044
     74          1           0        2.271337    1.213988   -1.632228
     75          6           0        1.963844    3.321232   -1.197680
     76          1           0        2.346792    3.280108   -0.164582
     77          1           0        2.283812    4.297200   -1.597535
     78          6           0        0.440378    3.339861   -1.147810
     79          1           0       -0.000874    3.388298   -2.153044
     80          1           0        0.081548    4.208842   -0.580226
     81          7           0       -0.134035    2.118151   -0.493341
     82          1           0        0.005435    1.246970   -1.071505
     83          1           0       -1.177907    2.211339   -0.414977
     84          1           0        0.284746    1.941664    0.438983
 ---------------------------------------------------------------------
 Rotational constants (GHZ):      0.1508969      0.0558873      0.0524914
 Leave Link  202 at Tue May  3 13:50:50 2016, MaxMem= 10737418240 cpu:         2.6
 (Enter /share/apps//g09/l301.exe)
 Standard basis: 6-311+G(d,p) (5D, 7F)
 Ernie: Thresh=  0.10000D-02 Tol=  0.10000D-05 Strict=F.
 There are  1184 symmetry adapted cartesian basis functions of A   symmetry.
 There are  1144 symmetry adapted basis functions of A   symmetry.
  1144 basis functions,  1792 primitive gaussians,  1184 cartesian basis functions
[...]
 3154,0.00002709,-0.00003324,0.00029461,-0.00035666,0.00000756,0.000007
 68,-0.00017471,-0.00026003,-0.00002902,0.00006742,-0.00001033,-0.00002
 787,0.00004177,0.00006433,-0.00020552,0.00073032,0.00057164,-0.0001105
 1,-0.00001504,-0.00033443,-0.00013660,0.00025068,-0.00020994,0.0001436
 3,-0.00014775,-0.00002697,-0.00003433,0.00001152,-0.00000978,-0.000001
 86,0.00000475,-0.00000677,-0.00004424,0.00017135,0.00012130,0.00000872
 ,-0.00001575,-0.00000555,-0.00013951,0.00006983,-0.00017430,-0.0000594
 9,-0.00002972,-0.00001812,-0.00005287,0.00009370,0.00005527,0.00009576
 ,-0.00000684,-0.00013466,0.00012100,0.00002065,-0.00011014,-0.00013427
 ,0.00001440,-0.00025845,0.00023780,-0.00014821,0.00001134,-0.00000114,
 -0.00002858,0.00000231,-0.00000278,-0.00000257,0.00000780,-0.00001600,
 0.00007230,0.00000986,-0.00001766,-0.00000602,0.00012771,-0.00000877,-
 0.00000015,0.00001608,-0.00004517,-0.00003812,-0.00001720,-0.00130525,
 0.00005648,0.00030919,-0.00008672,-0.00004157,0.00005366,-0.00006044,-
 0.00001640,0.00013597,0.00004113,-0.00002124,-0.00001767,-0.00000280,0
 .00000334,0.00000680,-0.00000146,0.00000888,0.00000854,-0.00004249,0.0
 0004805,0.00004136,0.00000902,-0.00004666,-0.00004320,-0.00004460,-0.0
 0028023,0.00058494,0.00000904,0.00000214,-0.00000826,0.00001866,-0.000
 00765,-0.00001921,-0.00000765,0.00002076,-0.00000790,-0.00000876,-0.00
 000413,0.00002621,-0.00005036,0.00005014,-0.00004997,0.00002190,-0.000
 01587,0.00001884,0.00003386,-0.00003663,0.00000603,0.00022040,0.000092
 35,0.00043416,-0.00002311,-0.00004539,-0.00003514,0.00000836,-0.000104
 12,-0.00004551,-0.00340802,0.00245901,0.00236938,0.00017354,0.00011168
 ,0.00010794,-0.00008091,0.00054766,-0.00109717,-0.00967081,0.00903549,
 -0.02267026,-0.00057892,-0.00046471,-0.00039781,0.00145832,-0.00049856
 ,0.00012804,-0.09661316,0.03183296,-0.08755380,-0.00424136,0.00327142,
 -0.01147894,0.10403961,-0.00090932,0.00140905,-0.00031924,-0.00004200,
 -0.00343463,0.00177484,0.00085062,-0.00390966,0.00264687,0.00056824,0.
 00052267,0.00028264,-0.00017350,-0.00030011,0.00008103,0.00069616,0.00
 002791,0.00013608,-0.00002568,-0.00008443,-0.00016648,-0.00008929,0.00
 029596,-0.00023169,0.00018446,0.00005691,0.00012132,-0.00007062,0.0000
 9103,-0.00009206,-0.00005554,-0.00003198,-0.00000057,-0.00008967,0.000
 23062,-0.00029127,-0.00068638,-0.00011639,-0.00060606,-0.00013156,-0.0
 0718858,-0.00416748,-0.00056941,0.00074947,0.00224508,0.00012604,-0.00
 018283,0.00005037,-0.00001379,-0.00001266,-0.00000581,-0.00001921,0.00
 002359,0.00001425,-0.00027070,0.00018718,-0.00009327,0.00004874,-0.000
 03626,0.00000302,0.00002687,-0.00004777,0.00008461,0.00008448,-0.00003
 716,0.00017212,0.00101445,0.00396447,-0.00252750,-0.00012030,-0.000241
 85,0.00022406,0.00001696,0.00021489,-0.00047364,0.00014450,0.00059536,
 -0.00007351,0.00029998,-0.00040579,-0.00318928,-0.00116163,0.00050935,
 -0.00007699,0.00051371,-0.00000617,-0.00015780,0.00003485,-0.00005138,
 0.00000941,-0.00029082,0.00032970,0.00010807,-0.00010031,0.00041638,0.
 00059454,0.00005752,-0.00028661,-0.00003823,0.00004627,-0.00008010,-0.
 00006824,0.00089088,-0.00316067,0.00053335,-0.00006622,-0.00049837,0.0
 0029908,0.00012863,-0.00058116,0.00042417,-0.00026382,0.00023118,0.000
 03187,0.00006830,-0.00001509,0.00004070,-0.00001810,-0.00002848,0.0000
 0229,0.00013544,-0.00033646,0.00013714,0.00003335,0.00019265,-0.000087
 28,-0.00010148,0.00035024,-0.00002903,0.00007421,0.00004915,-0.0001306
 0,0.00012376,-0.00024660,-0.00013103,-0.00021913,0.00006762,0.00029371
 ,-0.00014452,-0.00003539,0.00008621,0.00011729,-0.00002352,0.00049075,
 -0.00033080,0.00033721,-0.00007307,-0.00002732,0.00008602,-0.00001164,
 0.00000670,0.00000036,-0.00001629,0.00003253,-0.00007371,-0.00000956,0
 .00002731,0.00001459,-0.00012747,0.00001699,-0.00000332,-0.00002206,0.
 00003495,0.00007244,0.00004952,0.00034613,-0.00016344,-0.00080664,0.00
 011145,0.00005698,-0.00010199,0.00022816,-0.00003243,-0.00028668,-0.00
 004018,0.00004462,0.00001339,-0.00000280,-0.00000893,-0.00000945,0.000
 00908,-0.00001680,-0.00002112,0.00003297,-0.00018788,-0.00004158,-0.00
 002870,0.00014772,0.00012251,-0.00021742,0.00040703,0.00000404,-0.0000
 1868,-0.00000973,0.00002815,-0.00013186,0.00004084,0.00010087,0.000003
 58,-0.00005541,0.00001467,0.00003334,-0.00000101,-0.00006449,-0.000119
 30,-0.00000164,0.00023917,-0.00003763,0.00001914,-0.00008850,-0.000038
 50,0.00008970,-0.00011039,0.00017625,0.00002588,-0.00068928,-0.0000441
 3,0.00003306,0.00005921,-0.00025473,0.00035384,0.00036940,0.00262464,-
 0.00219146,-0.00182565,-0.00006183,0.00013354,-0.00028028,0.00030427,-
 0.00013892,0.00076897,0.01009511,-0.00996614,0.01790147,-0.00087686,0.
 00090084,-0.00017700,-0.00070060,-0.00010531,0.00032891,0.03097419,-0.
 09114440,0.08788719,-0.00959127,0.01604361,-0.02605785,-0.03844903,0.1
 0172861,0.00068843,-0.00062621,-0.00197169,-0.00097375,0.00055235,0.00
 539568,-0.00604705,0.00990272,0.00158807,-0.00081361,-0.00110362,-0.00
 023715,0.00035908,0.00090356,0.00030535,-0.00047872,0.00011374,0.00069
 487,0.00009061,0.00003466,-0.00018856,0.00112053,-0.00255288,0.0004315
 6,-0.00014885,0.00020465,0.00007590,0.00017269,-0.00029741,0.00011708,
 0.00015841,0.00000111,-0.00005177,0.00034606,-0.00076728,0.00024881,0.
 00139228,-0.00054064,0.00066328,0.00166011,-0.00766831,0.00382437,-0.0
 0023088,0.00247834,-0.00471061,-0.00010147,0.00018243,-0.00006952,0.00
 000408,0.00005683,0.00001079,0.00005965,-0.00013185,-0.00004050,0.0002
 7253,-0.00026263,-0.00006182,-0.00009929,0.00003698,0.00000552,-0.0000
 3000,0.00015557,-0.00008760,-0.00022467,0.00010346,-0.00044790,-0.0005
 0739,-0.00312874,-0.00177815,0.00011177,0.00030920,-0.00009687,-0.0001
 4705,-0.00008893,-0.00009837,0.00072827,-0.00095337,0.00025039,0.00026
 980,-0.00035770,0.00088648,0.00105596,-0.00143787,0.00022973,-0.000365
 93,0.00002460,0.00004165,-0.00006254,0.00010387,0.00012583,0.00003171,
 0.00015816,-0.00050698,-0.00010377,0.00007949,-0.00007380,0.00001308,0
 .00038338,0.00003155,-0.00008156,0.00010543,0.00011271,0.00009492,0.00
 265732,0.00099690,-0.00049400,0.00046035,-0.00044316,-0.00014785,0.000
 39151,-0.00014811,0.00017725,-0.00038367,-0.00002432,-0.00005446,0.000
 03043,0.00000775,0.00002110,0.00003051,-0.00002376,0.00000890,0.000506
 81,0.00030294,-0.00003000,-0.00012144,-0.00002770,-0.00034060,0.000050
 80,-0.00047057,0.00004363,-0.00002234,0.00023112,-0.00015197,0.0002350
 8,0.00024662,0.00032426,-0.00002937,-0.00044773,0.00028505,0.00016841,
 -0.00021362,-0.00018974,0.00000654,-0.00079469,0.00030416,-0.00024482,
 0.00002754,0.00001596,-0.00005024,-0.00005600,0.00000554,-0.00001194,0
 .00002851,-0.00001953,0.00013412,0.00002343,-0.00005172,-0.00000524,0.
 00024256,-0.00002287,0.00000480,0.00003094,-0.00007944,-0.00008841,-0.
 00006476,-0.00082731,-0.00014599,0.00137704,-0.00025970,-0.00023243,0.
 00020935,-0.00033617,-0.00000630,0.00044080,0.00008273,-0.00005883,-0.
 00006828,0.00000875,-0.00000046,0.00003849,-0.00001290,0.00001562,-0.0
 0001039,-0.00006179,0.00018514,0.00018296,0.00001638,-0.00017052,-0.00
 018329,0.00046587,-0.00017522,0.00007523,0.00004475,0.00004422,-0.0000
 5797,0.00016797,-0.00007685,-0.00018409,0.00002433,0.00012097,-0.00005
 678,-0.00003744,0.00000888,0.00012303,-0.00000645,0.00019042,-0.000094
 05,0.00002939,-0.00000483,0.00019581,-0.00003501,-0.00006645,0.0000021
 0,-0.00026690,-0.00039161,-0.00017657,0.00004619,0.00003892,0.00001136
 ,-0.00001466,-0.00002033,-0.00019629,0.00353287,-0.00252223,-0.0014777
 1,-0.00019648,0.00026049,-0.00022514,0.00076877,-0.00077088,0.00120541
 ,-0.00225706,0.00026815,0.01412709,0.00107732,-0.00026282,0.00019071,0
 .00063144,-0.00122727,0.00040318,-0.08603250,0.08865970,-0.28436592,-0
 .00652000,0.00155235,-0.01811320,0.09483701,-0.08678799,0.29305545,-0.
 00033737,0.00021789,0.00008894,0.00038550,-0.00037684,-0.00014610,0.00
 054934,-0.00106869,-0.00004189,0.00022645,0.00019461,-0.00009691,-0.00
 007057,-0.00007949,-0.00004132,0.00024814,0.00003469,-0.00005114,-0.00
 008402,-0.00010739,0.00002076,-0.00010157,0.00021908,-0.00003249,-0.00
 000914,0.00000305,-0.00001214,-0.00003522,0.00004080,-0.00003199,-0.00
 004177,-0.00000191,0.00002172,-0.00006204,0.00004063,0.00000408,-0.000
 25937,0.00003646,-0.00005275,-0.00069764,0.00132787,-0.00242832,-0.000
 73461,0.00029656,0.00053816,0.00002535,-0.00003574,0.00001048,-0.00000
 497,-0.00001361,0.00000859,-0.00000160,0.00001550,0.00000278,-0.000080
 18,0.00003625,0.00000467,0.00001791,-0.00000216,-0.00001078,0.00000828
 ,-0.00001258,0.00001266,0.00004151,-0.00001502,0.00004732,0.00012673,0
 .00028919,-0.00006030,-0.00070280,-0.00051880,0.00005115,0.00061654,0.
 00065708,-0.00005448,0.00056379,0.00059480,0.00033600,0.00035904,-0.00
 023689,-0.00055289,0.00078239,-0.00062840,0.00022507,0.00021274,0.0003
 9786,-0.00038908,-0.00003601,-0.00004710,-0.00001058,0.00080000,0.0012
 1396,0.00031781,-0.00011327,0.00000851,0.00007793,-0.00016999,0.000125
 25,-0.00001463,-0.00004566,-0.00001624,0.00010143,-0.00027635,0.001537
 89,0.00069875,-0.00039309,-0.00090374,0.00011147,-0.00027445,-0.000690
 18,0.00014973,0.00009469,-0.00019647,0.00004791,-0.00000707,0.00004006
 ,0.00002379,-0.00003742,-0.00001156,-0.00001488,-0.00011488,0.00015750
 ,0.00034878,0.00015875,0.00014916,-0.00020351,-0.00015151,-0.00008379,
 -0.00044351,-0.00014097,-0.00011412,-0.00018169,-0.00040955,0.00002540
 ,-0.00001316,0.00116918,0.00053282,-0.00018940,0.00025470,-0.00082527,
 -0.00014609,0.00299292,0.00002785,0.00439502,0.00032236,0.00081342,-0.
 00051895,-0.00001038,-0.00050690,0.00021173,-0.00014156,-0.00003801,-0
 .00010897,0.00011099,0.00002971,0.00018424,-0.00002728,0.00001507,-0.0
 0150295,-0.00002751,0.00001905,0.00002775,0.00002132,-0.00006856,0.000
 07824,-0.00254442,0.00067041,-0.00764370,-0.00029918,0.00048259,-0.000
 29010,-0.00113745,-0.00004618,0.00056626,0.00036741,0.00015400,-0.0002
 8931,-0.00011103,-0.00006730,-0.00001955,0.00000160,0.00002172,0.00002
 370,-0.00046214,-0.00004687,0.00016718,0.00015169,-0.00007243,-0.00008
 432,-0.00218966,0.00086125,0.00052027,0.00006731,-0.00015045,0.0001921
 6,0.00055169,-0.00028746,-0.00029114,0.00001760,0.00010530,-0.00006174
 ,-0.00007803,0.00004118,0.00009885,0.00010775,0.00011123,-0.00021054,0
 .00004109,-0.00003341,0.00015216,-0.00002920,-0.00007316,0.00009548,-0
 .00034785,-0.00016812,-0.00007577,0.00016838,0.00001721,0.00011980,-0.
 00005528,-0.00038071,-0.00042274,0.00081774,-0.00095719,-0.00062047,0.
 00016961,0.00077309,-0.00079107,0.00073472,-0.00014635,0.00046611,-0.0
 2101765,-0.00839144,0.01206257,-0.00147762,0.00350277,0.00039584,0.001
 23871,-0.00036285,-0.00003384,-0.24063831,-0.10723357,0.12115694,-0.00
 781668,-0.00559558,0.00423993,0.01551643,0.00526126,-0.00268653,0.2537
 6399,-0.00008358,0.00028562,-0.00030490,-0.00041238,-0.00025225,0.0006
 6634,-0.00006814,0.00008333,0.00003373,0.00001244,0.00004759,0.0001692
 6,0.00000642,-0.00002309,0.00005499,0.00012194,-0.00002109,0.00011450,
 0.00006544,0.00008563,-0.00006096,0.00000626,-0.00002144,-0.00003497,0
 .00005189,0.00003441,0.00003440,-0.00000440,0.00000063,-0.00001355,0.0
 0001230,-0.00000569,-0.00000545,-0.00000231,0.00001735,-0.00009492,-0.
 00002755,-0.00008144,-0.00014051,0.00014557,0.00014023,0.00018240,0.00
 043355,0.00048248,-0.00060001,0.00005405,-0.00003496,0.00002871,-0.000
 00493,0.00000263,-0.00000578,-0.00000155,-0.00000916,-0.00000107,-0.00
 007000,0.00003493,-0.00004956,0.00001172,-0.00001099,0.00000814,0.0000
 0993,-0.00000256,0.00002456,0.00001328,0.00000313,0.00001757,0.0000667
 2,-0.00001395,0.00008906,0.00008272,0.00003466,0.00026667,-0.00033870,
 0.00072492,-0.00113561,0.00142104,-0.00128593,0.00087694,-0.00021331,-
 0.00035423,-0.00001471,-0.00020257,-0.00009181,-0.00023772,0.00006749,
 -0.00019251,-0.00002281,-0.00002925,0.00002831,0.00030582,0.00052788,-
 0.00103838,-0.00169854,0.00003631,0.00017143,-0.00008674,0.00003871,0.
 00004081,0.00001506,0.00000560,-0.00000913,-0.00002613,0.00054423,-0.0
 0038596,-0.00051942,-0.00062942,-0.00024936,0.00012147,0.00008597,-0.0
 0068087,0.00045614,-0.00010339,0.00005596,-0.00002862,0.00001580,-0.00
 000043,0.00002044,0.00000383,-0.00001117,-0.00000105,0.00007209,-0.000
 10268,0.00015447,0.00001210,0.00012786,-0.00013082,-0.00005867,-0.0000
 6930,-0.00024753,-0.00002257,0.00002789,-0.00005110,0.00000715,-0.0003
 8464,-0.00016114,0.00028754,0.00026715,0.00028272,-0.00041144,0.000086
 56,0.00043650,0.00083396,-0.00051324,0.00106289,0.00018213,0.00063087,
 -0.00046007,-0.00020155,0.00005575,-0.00004583,-0.00002290,-0.00002415
 ,-0.00002203,0.00018156,-0.00022489,0.00012311,-0.00002641,-0.00004749
 ,-0.00039358,0.00001600,-0.00000858,0.00003430,-0.00013774,-0.00003393
 ,-0.00010469,-0.00046502,-0.00286136,-0.00047785,0.00010403,0.00000378
 ,-0.00025336,-0.00017688,-0.00017622,-0.00009729,0.00005535,0.00004033
 ,-0.00008902,-0.00001707,-0.00002056,0.00000691,-0.00000290,-0.0000208
 1,-0.00002759,-0.00003877,-0.00014688,0.00007134,-0.00001023,0.0001333
 6,0.00002629,0.00099004,0.00121498,-0.00142607,0.00002455,0.00000036,0
 .00004341,0.00012112,0.00009674,0.00006264,-0.00000966,-0.00007390,-0.
 00001669,-0.00002468,-0.00002794,-0.00001615,0.00008202,-0.00004286,-0
 .00002413,-0.00001396,-0.00001367,-0.00000180,0.00001443,-0.00002178,0
 .00004081,-0.00031921,0.00005396,0.00051677,-0.00010520,-0.00019812,-0
 .00018774,-0.00001270,-0.00012119,-0.00022608,0.00052357,0.00215585,-0
 .00111206,-0.00070807,-0.00104269,0.00087209,-0.00044833,-0.00021528,0
 .00002887,0.01939134,0.01523137,-0.01368099,0.00428673,-0.00362315,-0.
 00077239,-0.00009137,0.00022165,-0.00062709,-0.10709042,-0.12497641,0.
 07358671,-0.01992339,-0.00952057,0.01827945,-0.00800876,-0.00557078,0.
 00188382,0.10951256,0.13223696,0.00020387,-0.00030888,0.00002045,-0.00
 006351,0.00025248,-0.00024618,-0.00015307,0.00040064,-0.00027591,0.000
 08979,0.00007446,-0.00016688,-0.00004188,0.00012215,0.00000292,-0.0001
 4358,-0.00001304,0.00003795,-0.00000569,0.00003943,0.00001506,-0.00001
 050,-0.00004593,0.00001337,-0.00012104,0.00004880,0.00001110,0.0000084
 3,-0.00000460,0.00001747,0.00002260,0.00001668,0.00000531,0.00004168,-
 0.00014299,0.00005760,0.00006849,-0.00010454,0.00012465,-0.00051728,-0
 .00036551,-0.00065030,0.00030197,-0.00071536,-0.00037303,-0.00003823,0
 .00004928,-0.00000441,0.00000531,0.00000572,-0.00000017,0.00000747,-0.
 00002262,-0.00000782,0.00007594,-0.00005601,-0.00000452,-0.00002067,0.
 00000948,0.00000730,-0.00001960,0.00002150,-0.00000899,-0.00002896,0.0
 0002591,-0.00004969,0.00009002,0.00027485,-0.00041952,0.00055371,0.000
 60228,-0.00021454,-0.00051562,-0.00091134,0.00035943,0.00046374,-0.000
 45707,0.00010641,-0.00055721,0.00046492,0.00099185,-0.00059136,0.00034
 481,-0.00048070,-0.00024872,-0.00050603,0.00045226,-0.00001134,0.00010
 582,0.00000353,0.00025528,-0.00169111,0.00015847,0.00012781,-0.0000156
 7,-0.00017171,0.00011528,-0.00005829,0.00001221,0.00003847,0.00003220,
 -0.00012179,0.00040451,-0.00180851,-0.00152124,-0.00012798,0.00072760,
 -0.00055942,-0.00009858,0.00097979,-0.00030723,0.00003409,0.00006149,-
 0.00001565,-0.00002227,-0.00002700,-0.00002820,0.00003946,0.00002603,0
 .00000708,0.00002652,0.00005027,-0.00044694,-0.00017717,-0.00027513,0.
 00023291,0.00018055,-0.00020302,0.00050246,-0.00000064,-0.00001535,0.0
 0003373,0.00020735,0.00014689,0.00020817,-0.00060532,-0.00032474,-0.00
 025465,0.00022214,0.00064053,-0.00032973,-0.00141274,-0.00000320,-0.00
 390467,0.00057556,-0.00071775,0.00015308,-0.00012594,0.00027917,-0.000
 21269,0.00009095,0.00000366,0.00010811,-0.00016542,0.00023144,-0.00002
 883,-0.00006030,-0.00003587,0.00120481,0.00000770,-0.00000991,0.000057
 22,-0.00027698,-0.00021986,-0.00019471,-0.00318841,0.00029506,0.002113
 10,-0.00007503,-0.00049995,0.00043504,0.00084507,-0.00008067,0.0000596
 7,-0.00024116,-0.00016595,0.00015371,0.00008782,0.00005311,0.00003354,
 -0.00000857,-0.00000591,-0.00000895,0.00036479,0.00021502,-0.00003876,
 -0.00013411,-0.00008991,-0.00008537,0.00030665,-0.00119716,0.00231493,
 -0.00003801,0.00009861,-0.00015820,-0.00059407,0.00033224,0.00010359,-
 0.00000025,-0.00000802,0.00001330,0.00008650,-0.00003559,-0.00001230,0
 .00009030,-0.00016965,-0.00006560,-0.00002563,0.00003272,-0.00007753,0
 .00006066,-0.00000953,0.00002291,-0.00014006,0.00048312,-0.00003607,0.
 00030017,-0.00001954,0.00000700,-0.00005730,-0.00049108,-0.00001340,-0
 .00196765,-0.00068207,0.00165712,0.00061395,0.00048891,0.00014985,0.00
 007951,0.00021846,-0.00051820,0.00328563,-0.00189328,-0.00132214,-0.00
 104908,0.00008437,0.00046282,0.00027955,0.00009876,-0.00070574,0.12108
 305,0.07373862,-0.14416129,-0.01600282,-0.00429743,0.01445028,0.025473
 91,0.01179102,-0.01047055,-0.12753248,-0.07526321,0.14179244\\0.000001
 80,-0.00001242,0.00001658,0.00000845,0.00000952,-0.00002536,-0.0000145
 8,0.00002532,0.00000727,0.00001670,0.00000904,0.00001838,0.00000729,0.
 00001224,0.00002385,-0.00001341,-0.00001104,-0.00002133,-0.00000874,0.
 00000260,0.00000067,0.00000293,-0.00000124,0.00000425,0.00000493,0.000
 00964,-0.00000748,0.00001103,0.00000204,-0.00000537,0.00001064,0.00000
 912,0.00000080,-0.00000624,0.00000178,-0.00000809,0.00002905,0.0000177
 2,-0.00001653,0.00004742,0.00002445,-0.00003654,-0.00000154,0.00000776
 ,0.00000077,0.00000846,0.00001601,0.00000558,-0.00000559,-0.00000042,0
 .00000819,-0.00000065,-0.00000512,-0.00000270,0.00002271,0.00001930,0.
 00003850,-0.00000018,-0.00002271,-0.00002911,0.00001399,-0.00000154,0.
 00000559,-0.00000529,-0.00000786,0.00000136,-0.00000219,-0.00000257,0.
 00001434,-0.00000771,-0.00001487,-0.00000694,-0.00001117,0.00001552,-0
 .00002292,-0.00000003,-0.00000099,0.00001600,0.00000849,-0.00000341,0.
 00001769,-0.00001930,0.00001409,-0.00000392,0.00001112,0.00000633,-0.0
 0000332,0.00000877,-0.00000855,0.00000124,-0.00000302,0.00001216,-0.00
 000120,0.00000306,-0.00000443,0.00000126,-0.00000211,-0.00001023,0.000
 00481,-0.00000259,-0.00001240,0.00000805,-0.00001045,-0.00005158,0.000
 00485,-0.00000796,0.00001403,0.00000810,-0.00000762,-0.00000270,-0.000
 00148,-0.00000904,0.00001270,0.00001003,0.00000223,-0.00000381,-0.0000
 0089,-0.00000560,-0.00000679,0.00000648,-0.00000715,0.00001790,0.00001
 155,-0.00000035,-0.00001702,0.00000508,0.00000104,0.00001843,0.0000192
 3,0.00001236,-0.00001437,-0.00000918,0.00000976,-0.00000624,0.00000414
 ,-0.00000745,-0.00001771,-0.00003036,0.00001294,0.00002498,-0.00000053
 ,-0.00000426,-0.00001107,0.00002949,0.00000666,-0.00002655,0.00000663,
 -0.00001205,0.00000801,-0.00001920,-0.00000531,0.00000138,-0.00000961,
 -0.00000074,0.00000109,0.00000399,0.00000984,-0.00000523,-0.00001383,-
 0.00000059,-0.00000476,-0.00000599,-0.00001020,-0.00000539,0.00000108,
 -0.00000874,0.00001558,-0.00003803,-0.00001486,-0.00000288,0.00001635,
 -0.00002044,-0.00000381,0.00001292,-0.00003227,-0.00000993,0.00000443,
 -0.00000398,-0.00000176,-0.00000917,-0.00000080,-0.00001033,-0.0000019
 1,0.00000539,-0.00000845,0.00000522,-0.00000786,0.00001025,-0.00000210
 ,0.00000271,-0.00001720,0.00001170,0.00000526,-0.00001253,-0.00002172,
 0.00001665,-0.00001309,-0.00001165,-0.00000075,0.00000597,0.00000095,-
 0.00000484,0.00000633,-0.00000594,-0.00000662,0.00000048,0.00000493,-0
 .00000415,-0.00000448,-0.00000169,-0.00000298,0.00000308,0.00000047,0.
 00000046,-0.00000218,0.00000034,-0.00000292,-0.00000135,0.00000657,0.0
 0000426,-0.00000379,-0.00000230,0.00000270,0.00000597,0.00000230,0.000
 00618,0.00000360,-0.00000326,-0.00000129,0.00000355,0.00000065,0.00000
 507,-0.00000484,-0.00000328,0.00000049,0.00000030,0.00000623,0.0000054
 5,0.00000846,0.00000251,0.00003151,-0.00001365,-0.00001157,0.00001780,
 0.00003998,-0.00004009,-0.00008335,-0.00001952,0.00005476,0.00001336,0
 .00000615,-0.00000159\\\@


 THE DIFFERENCE BETWEEN A NOOSE AND A HALO IS ONLY 12 INCHES.
 Job cpu time:      19 days  8 hours 16 minutes 39.4 seconds.
 File lengths (MBytes):  RWF=  23974 Int=      0 D2E=      0 Chk=     99 Scr=      1
 Normal termination of Gaussian 09 at Thu May  5 14:01:12 2016.
