 Entering Gaussian System, Link 0=g09
 Initial command:
 /share/apps//g09/l1.exe "/scratch/Gau-22367.inp" -scrdir="/scratch/"
 Entering Link 1 = /share/apps//g09/l1.exe PID=     22369.
  
 Copyright (c) 1988,1990,1992,1993,1995,1998,2003,2009,2013,
            Gaussian, Inc.  All Rights Reserved.
  
 This is part of the Gaussian(R) 09 program.  It is based on
 the Gaussian(R) 03 system (copyright 2003, Gaussian, Inc.),
 the Gaussian(R) 98 system (copyright 1998, Gaussian, Inc.),
 the Gaussian(R) 94 system (copyright 1995, Gaussian, Inc.),
 the Gaussian 92(TM) system (copyright 1992, Gaussian, Inc.),
 the Gaussian 90(TM) system (copyright 1990, Gaussian, Inc.),
 the Gaussian 88(TM) system (copyright 1988, Gaussian, Inc.),
 the Gaussian 86(TM) system (copyright 1986, Carnegie Mellon
 University), and the Gaussian 82(TM) system (copyright 1983,
 Carnegie Mellon University). Gaussian is a federally registered
 trademark of Gaussian, Inc.
  
 This software contains proprietary and confidential information,
 including trade secrets, belonging to Gaussian, Inc.
  
 This software is provided under written license and may be
 used, copied, transmitted, or stored only in accord with that
 written license.
  
 The following legend is applicable only to US Government
 contracts under FAR:
  
                    RESTRICTED RIGHTS LEGEND
  
 Use, reproduction and disclosure by the US Government is
 subject to restrictions as set forth in subparagraphs (a)
 and (c) of the Commercial Computer Software - Restricted
 Rights clause in FAR 52.227-19.
  
 Gaussian, Inc.
 340 Quinnipiac St., Bldg. 40, Wallingford CT 06492
  
  
 ---------------------------------------------------------------
 Warning -- This program may not be used in any manner that
 competes with the business of Gaussian, Inc. or will provide
 assistance to any competitor of Gaussian, Inc.  The licensee
 of this program is prohibited from giving any competitor of
 Gaussian, Inc. access to this program.  By using this program,
 the user acknowledges that Gaussian, Inc. is engaged in the
 business of creating and licensing software in the field of
 computational chemistry and represents and warrants to the
 licensee that it is not a competitor of Gaussian, Inc. and that
 it will not use this program in any manner prohibited above.
 ---------------------------------------------------------------
  

 Cite this work as:
 Gaussian 09, Revision D.01,
 M. J. Frisch, G. W. Trucks, H. B. Schlegel, G. E. Scuseria, 
 M. A. Robb, J. R. Cheeseman, G. Scalmani, V. Barone, B. Mennucci, 
 G. A. Petersson, H. Nakatsuji, M. Caricato, X. Li, H. P. Hratchian, 
 A. F. Izmaylov, J. Bloino, G. Zheng, J. L. Sonnenberg, M. Hada, 
 M. Ehara, K. Toyota, R. Fukuda, J. Hasegawa, M. Ishida, T. Nakajima, 
 Y. Honda, O. Kitao, H. Nakai, T. Vreven, J. A. Montgomery, Jr., 
 J. E. Peralta, F. Ogliaro, M. Bearpark, J. J. Heyd, E. Brothers, 
 K. N. Kudin, V. N. Staroverov, T. Keith, R. Kobayashi, J. Normand, 
 K. Raghavachari, A. Rendell, J. C. Burant, S. S. Iyengar, J. Tomasi, 
 M. Cossi, N. Rega, J. M. Millam, M. Klene, J. E. Knox, J. B. Cross, 
 V. Bakken, C. Adamo, J. Jaramillo, R. Gomperts, R. E. Stratmann, 
 O. Yazyev, A. J. Austin, R. Cammi, C. Pomelli, J. W. Ochterski, 
 R. L. Martin, K. Morokuma, V. G. Zakrzewski, G. A. Voth, 
 P. Salvador, J. J. Dannenberg, S. Dapprich, A. D. Daniels, 
 O. Farkas, J. B. Foresman, J. V. Ortiz, J. Cioslowski, 
 and D. J. Fox, Gaussian, Inc., Wallingford CT, 2013.
 
 ******************************************
 Gaussian 09:  EM64L-G09RevD.01 24-Apr-2013
                 6-Apr-2016 
 ******************************************
 %nproc=20
 Will use up to   20 processors via shared memory.
 %mem=80GB
 %chk=Tri_A131_of.chk
 ----------------------------------------------------------------------
 #P PBE1PBE/6-311+G(d,p) opt=ModRedundant freq optcyc=999 EmpiricalDisp
 ersion=GD3
 ----------------------------------------------------------------------
 1/6=999,14=-1,18=120,19=15,26=3,38=1/1,3;
 2/9=110,12=2,17=6,18=5,40=1/2;
 3/5=4,6=6,7=111,11=2,16=1,25=1,30=1,71=1,74=-13,124=31/1,2,3;
 4//1;
 5/5=2,38=5/2;
 6/7=2,8=2,9=2,10=2,28=1/1;
 7//1,2,3,16;
 1/6=999,14=-1,18=20,19=15,26=3/3(2);
 2/9=110/2;
 99//99;
 2/9=110/2;
 3/5=4,6=6,7=111,11=2,16=1,25=1,30=1,71=1,74=-13,124=31/1,2,3;
 4/5=5,16=3,69=1/1;
 5/5=2,38=5/2;
 7//1,2,3,16;
 1/6=999,14=-1,18=20,19=15,26=3/3(-5);
 2/9=110/2;
 6/7=2,8=2,9=2,10=2,19=2,28=1/1;
 99/9=1/99;
 Leave Link    1 at Wed Apr  6 15:55:04 2016, MaxMem= 10737418240 cpu:         2.4
 (Enter /share/apps//g09/l101.exe)
 -------
 disacch
 -------
 Symbolic Z-matrix:
 Charge =  1 Multiplicity = 1
 O                    -0.71171  -0.02556   7.40473 
 C                    -1.12333  -0.79105   6.3035 
 C                     0.00277  -0.97802   5.2779 
 C                     1.20376  -1.63639   5.96398 
 C                     1.63412  -0.83792   7.19831 
 C                     0.43049  -0.55791   8.11352 
 H                    -1.96515  -0.23331   5.86373 
 H                     0.28662   0.01534   4.89572 
 H                     0.88634  -2.63616   6.29421 
 H                     2.35026  -1.44722   7.77688 
 H                     0.15406  -1.51871   8.5823 
 O                     2.28339   0.34021   6.70148 
 O                     2.29803  -1.82884   5.06821 
 O                    -0.44979  -1.78236   4.17347 
 O                    -1.54114  -2.11546   6.66881 
 C                     0.73965   0.49526   9.17993 
 H                     0.67202   1.49093   8.70941 
 H                    -0.01096   0.43778   9.98451 
 O                     2.06377   0.23677   9.67433 
 H                     2.21742   0.80826   10.44451 
 H                     2.79489   0.71056   7.4444 
 H                     2.79033  -0.98235   5.08231 
 H                    -1.39098  -2.04109   4.36309 
 O                    -3.40795  -4.82734   6.23489 
 C                    -3.01823  -4.79384   7.62615 
 C                    -2.953    -3.32727   8.17267 
 C                    -2.89535  -2.22215   7.09765 
 C                    -3.86436  -2.47435   5.87512 
 C                    -4.46843  -3.88009   5.9619 
 H                    -3.79724  -5.32004   8.2064 
 H                    -2.0459   -3.23777   8.78931 
 H                    -3.19387  -1.29662   7.61224 
 H                    -4.68559  -1.73807   5.92181 
 H                    -5.19416  -3.89595   6.79592 
 O                    -3.13264  -2.28224   4.65272 
 O                    -4.13897  -3.05355   8.93532 
 O                    -1.8841   -5.59616   7.794 
 C                    -5.21483  -4.35805   4.71606 
 H                    -5.58093  -5.3822    4.88685 
 H                    -6.08432  -3.70742   4.54611 
 O                    -4.43609  -4.29443   3.5039 
 H                    -3.76135  -5.00386   3.52295 
 H                    -3.58351  -2.83096   3.96067 
 H                    -4.04836  -3.46681   9.8108 
 O                     0.99359  -5.94815   5.51719 
 C                     2.0923   -6.03108   6.46654 
 C                     1.84727  -5.03145   7.599 
 C                     0.44688  -5.15378   8.21111 
 C                    -0.65188  -5.21901   7.14583 
 C                    -0.27579  -6.30092   6.10771 
 H                     2.14555  -7.0719    6.84595 
 H                     1.95886  -4.02691   7.15559 
 H                     0.4029   -6.09548   8.79289 
 H                    -0.17506  -7.27199   6.63275 
 H                    -0.75154  -4.23804   6.65371 
 O                     0.19198  -4.04122   9.07107 
 O                     2.76551  -5.20976   8.67541 
 O                     3.25405  -5.65005   5.81809 
 C                    -1.27756  -6.51685   4.97704 
 H                    -0.84262  -7.22704   4.25994 
 H                    -2.1901   -6.96429   5.40005 
 O                    -1.59202  -5.32222   4.24626 
 H                    -2.12643  -4.78708   4.8786 
 H                     0.88575  -4.05962   9.7557 
 H                     3.65106  -4.9585    8.35736 
 C                     3.95196  -6.66001   5.03361 
 H                     4.94438  -6.77902   5.49387 
 H                     3.41823  -7.6215    5.10773 
 C                     4.08374  -6.19899   3.58686 
 H                     4.90844  -6.76227   3.12408 
 H                     4.4215   -5.15057   3.6128 
 C                     2.80115  -6.35761   2.73996 
 H                     2.88891  -7.2604    2.11791 
 H                     1.94358  -6.54757   3.4041 
 C                     2.48179  -5.17222   1.81431 
 H                     3.35207  -4.94595   1.17728 
 H                     1.67461  -5.45966   1.11894 
 C                     2.09107  -3.87374   2.5186 
 H                     1.87569  -3.08369   1.78753 
 H                     2.87166  -3.49763   3.19137 
 N                     0.86781  -4.03075   3.37091 
 H                     0.47581  -3.09843   3.70555 
 H                     1.04897  -4.62016   4.21134 
 H                     0.09029  -4.50208   2.88776 
 
 The following ModRedundant input section has been read:
 B      14      82 B                                                           
 B      45      83 B                                                           
 B      62      84 B                                                           
 B      24      63 B                                                           
 B      23      35 B                                                           
 
 NAtoms=     84 NQM=       84 NQMF=       0 NMMI=      0 NMMIF=      0
                NMic=       0 NMicF=      0.
                    Isotopes and Nuclear Properties:
 (Nuclear quadrupole moments (NQMom) in fm**2, nuclear magnetic moments (NMagM)
  in nuclear magnetons)

  Atom         1           2           3           4           5           6           7           8           9          10
 IAtWgt=          16          12          12          12          12          12           1           1           1           1
 AtmWgt=  15.9949146  12.0000000  12.0000000  12.0000000  12.0000000  12.0000000   1.0078250   1.0078250   1.0078250   1.0078250
 NucSpn=           0           0           0           0           0           0           1           1           1           1
 AtZEff=   0.0000000   0.0000000   0.0000000   0.0000000   0.0000000   0.0000000   0.0000000   0.0000000   0.0000000   0.0000000
 NQMom=    0.0000000   0.0000000   0.0000000   0.0000000   0.0000000   0.0000000   0.0000000   0.0000000   0.0000000   0.0000000
 NMagM=    0.0000000   0.0000000   0.0000000   0.0000000   0.0000000   0.0000000   2.7928460   2.7928460   2.7928460   2.7928460
 AtZNuc=   8.0000000   6.0000000   6.0000000   6.0000000   6.0000000   6.0000000   1.0000000   1.0000000   1.0000000   1.0000000

  Atom        11          12          13          14          15          16          17          18          19          20
 IAtWgt=           1          16          16          16          16          12           1           1          16           1
 AtmWgt=   1.0078250  15.9949146  15.9949146  15.9949146  15.9949146  12.0000000   1.0078250   1.0078250  15.9949146   1.0078250
 NucSpn=           1           0           0           0           0           0           1           1           0           1
 AtZEff=   0.0000000   0.0000000   0.0000000   0.0000000   0.0000000   0.0000000   0.0000000   0.0000000   0.0000000   0.0000000
 NQMom=    0.0000000   0.0000000   0.0000000   0.0000000   0.0000000   0.0000000   0.0000000   0.0000000   0.0000000   0.0000000
 NMagM=    2.7928460   0.0000000   0.0000000   0.0000000   0.0000000   0.0000000   2.7928460   2.7928460   0.0000000   2.7928460
 AtZNuc=   1.0000000   8.0000000   8.0000000   8.0000000   8.0000000   6.0000000   1.0000000   1.0000000   8.0000000   1.0000000

  Atom        21          22          23          24          25          26          27          28          29          30
 IAtWgt=           1           1           1          16          12          12          12          12          12           1
 AtmWgt=   1.0078250   1.0078250   1.0078250  15.9949146  12.0000000  12.0000000  12.0000000  12.0000000  12.0000000   1.0078250
 NucSpn=           1           1           1           0           0           0           0           0           0           1
 AtZEff=   0.0000000   0.0000000   0.0000000   0.0000000   0.0000000   0.0000000   0.0000000   0.0000000   0.0000000   0.0000000
 NQMom=    0.0000000   0.0000000   0.0000000   0.0000000   0.0000000   0.0000000   0.0000000   0.0000000   0.0000000   0.0000000
 NMagM=    2.7928460   2.7928460   2.7928460   0.0000000   0.0000000   0.0000000   0.0000000   0.0000000   0.0000000   2.7928460
 AtZNuc=   1.0000000   1.0000000   1.0000000   8.0000000   6.0000000   6.0000000   6.0000000   6.0000000   6.0000000   1.0000000

  Atom        31          32          33          34          35          36          37          38          39          40
 IAtWgt=           1           1           1           1          16          16          16          12           1           1
 AtmWgt=   1.0078250   1.0078250   1.0078250   1.0078250  15.9949146  15.9949146  15.9949146  12.0000000   1.0078250   1.0078250
 NucSpn=           1           1           1           1           0           0           0           0           1           1
 AtZEff=   0.0000000   0.0000000   0.0000000   0.0000000   0.0000000   0.0000000   0.0000000   0.0000000   0.0000000   0.0000000
 NQMom=    0.0000000   0.0000000   0.0000000   0.0000000   0.0000000   0.0000000   0.0000000   0.0000000   0.0000000   0.0000000
 NMagM=    2.7928460   2.7928460   2.7928460   2.7928460   0.0000000   0.0000000   0.0000000   0.0000000   2.7928460   2.7928460
 AtZNuc=   1.0000000   1.0000000   1.0000000   1.0000000   8.0000000   8.0000000   8.0000000   6.0000000   1.0000000   1.0000000

  Atom        41          42          43          44          45          46          47          48          49          50
 IAtWgt=          16           1           1           1          16          12          12          12          12          12
 AtmWgt=  15.9949146   1.0078250   1.0078250   1.0078250  15.9949146  12.0000000  12.0000000  12.0000000  12.0000000  12.0000000
 NucSpn=           0           1           1           1           0           0           0           0           0           0
 AtZEff=   0.0000000   0.0000000   0.0000000   0.0000000   0.0000000   0.0000000   0.0000000   0.0000000   0.0000000   0.0000000
 NQMom=    0.0000000   0.0000000   0.0000000   0.0000000   0.0000000   0.0000000   0.0000000   0.0000000   0.0000000   0.0000000
 NMagM=    0.0000000   2.7928460   2.7928460   2.7928460   0.0000000   0.0000000   0.0000000   0.0000000   0.0000000   0.0000000
 AtZNuc=   8.0000000   1.0000000   1.0000000   1.0000000   8.0000000   6.0000000   6.0000000   6.0000000   6.0000000   6.0000000

  Atom        51          52          53          54          55          56          57          58          59          60
 IAtWgt=           1           1           1           1           1          16          16          16          12           1
 AtmWgt=   1.0078250   1.0078250   1.0078250   1.0078250   1.0078250  15.9949146  15.9949146  15.9949146  12.0000000   1.0078250
 NucSpn=           1           1           1           1           1           0           0           0           0           1
 AtZEff=   0.0000000   0.0000000   0.0000000   0.0000000   0.0000000   0.0000000   0.0000000   0.0000000   0.0000000   0.0000000
 NQMom=    0.0000000   0.0000000   0.0000000   0.0000000   0.0000000   0.0000000   0.0000000   0.0000000   0.0000000   0.0000000
 NMagM=    2.7928460   2.7928460   2.7928460   2.7928460   2.7928460   0.0000000   0.0000000   0.0000000   0.0000000   2.7928460
 AtZNuc=   1.0000000   1.0000000   1.0000000   1.0000000   1.0000000   8.0000000   8.0000000   8.0000000   6.0000000   1.0000000

  Atom        61          62          63          64          65          66          67          68          69          70
 IAtWgt=           1          16           1           1           1          12           1           1          12           1
 AtmWgt=   1.0078250  15.9949146   1.0078250   1.0078250   1.0078250  12.0000000   1.0078250   1.0078250  12.0000000   1.0078250
 NucSpn=           1           0           1           1           1           0           1           1           0           1
 AtZEff=   0.0000000   0.0000000   0.0000000   0.0000000   0.0000000   0.0000000   0.0000000   0.0000000   0.0000000   0.0000000
 NQMom=    0.0000000   0.0000000   0.0000000   0.0000000   0.0000000   0.0000000   0.0000000   0.0000000   0.0000000   0.0000000
 NMagM=    2.7928460   0.0000000   2.7928460   2.7928460   2.7928460   0.0000000   2.7928460   2.7928460   0.0000000   2.7928460
 AtZNuc=   1.0000000   8.0000000   1.0000000   1.0000000   1.0000000   6.0000000   1.0000000   1.0000000   6.0000000   1.0000000

  Atom        71          72          73          74          75          76          77          78          79          80
 IAtWgt=           1          12           1           1          12           1           1          12           1           1
 AtmWgt=   1.0078250  12.0000000   1.0078250   1.0078250  12.0000000   1.0078250   1.0078250  12.0000000   1.0078250   1.0078250
 NucSpn=           1           0           1           1           0           1           1           0           1           1
 AtZEff=   0.0000000   0.0000000   0.0000000   0.0000000   0.0000000   0.0000000   0.0000000   0.0000000   0.0000000   0.0000000
 NQMom=    0.0000000   0.0000000   0.0000000   0.0000000   0.0000000   0.0000000   0.0000000   0.0000000   0.0000000   0.0000000
 NMagM=    2.7928460   0.0000000   2.7928460   2.7928460   0.0000000   2.7928460   2.7928460   0.0000000   2.7928460   2.7928460
 AtZNuc=   1.0000000   6.0000000   1.0000000   1.0000000   6.0000000   1.0000000   1.0000000   6.0000000   1.0000000   1.0000000

  Atom        81          82          83          84
 IAtWgt=          14           1           1           1
 AtmWgt=  14.0030740   1.0078250   1.0078250   1.0078250
 NucSpn=           2           1           1           1
 AtZEff=   0.0000000   0.0000000   0.0000000   0.0000000
 NQMom=    2.0440000   0.0000000   0.0000000   0.0000000
 NMagM=    0.4037610   2.7928460   2.7928460   2.7928460
 AtZNuc=   7.0000000   1.0000000   1.0000000   1.0000000
 Leave Link  101 at Wed Apr  6 15:55:05 2016, MaxMem= 10737418240 cpu:         4.9
 (Enter /share/apps//g09/l103.exe)

 GradGradGradGradGradGradGradGradGradGradGradGradGradGradGradGradGradGrad
 Berny optimization.
 Initialization pass.
                           ----------------------------
                           !    Initial Parameters    !
                           ! (Angstroms and Degrees)  !
 --------------------------                            --------------------------
 ! Name  Definition              Value          Derivative Info.                !
 --------------------------------------------------------------------------------
 ! R1    R(1,2)                  1.4029         estimate D2E/DX2                !
 ! R2    R(1,6)                  1.4458         estimate D2E/DX2                !
 ! R3    R(2,3)                  1.5346         estimate D2E/DX2                !
 ! R4    R(2,7)                  1.1014         estimate D2E/DX2                !
 ! R5    R(2,15)                 1.436          estimate D2E/DX2                !
 ! R6    R(3,4)                  1.5318         estimate D2E/DX2                !
 ! R7    R(3,8)                  1.1015         estimate D2E/DX2                !
 ! R8    R(3,14)                 1.4393         estimate D2E/DX2                !
 ! R9    R(4,5)                  1.5318         estimate D2E/DX2                !
 ! R10   R(4,9)                  1.0997         estimate D2E/DX2                !
 ! R11   R(4,13)                 1.4272         estimate D2E/DX2                !
 ! R12   R(5,6)                  1.5378         estimate D2E/DX2                !
 ! R13   R(5,10)                 1.104          estimate D2E/DX2                !
 ! R14   R(5,12)                 1.434          estimate D2E/DX2                !
 ! R15   R(6,11)                 1.1042         estimate D2E/DX2                !
 ! R16   R(6,16)                 1.5304         estimate D2E/DX2                !
 ! R17   R(12,21)                0.975          estimate D2E/DX2                !
 ! R18   R(13,22)                0.9793         estimate D2E/DX2                !
 ! R19   R(14,23)                0.9944         estimate D2E/DX2                !
 ! R20   R(14,82)                1.6756         estimate D2E/DX2                !
 ! R21   R(15,27)                1.4245         estimate D2E/DX2                !
 ! R22   R(16,17)                1.1033         estimate D2E/DX2                !
 ! R23   R(16,18)                1.1018         estimate D2E/DX2                !
 ! R24   R(16,19)                1.4369         estimate D2E/DX2                !
 ! R25   R(19,20)                0.9713         estimate D2E/DX2                !
 ! R26   R(23,35)                1.782          estimate D2E/DX2                !
 ! R27   R(24,25)                1.4452         estimate D2E/DX2                !
 ! R28   R(24,29)                1.4479         estimate D2E/DX2                !
 ! R29   R(24,63)                1.8664         estimate D2E/DX2                !
 ! R30   R(25,26)                1.5665         estimate D2E/DX2                !
 ! R31   R(25,30)                1.1047         estimate D2E/DX2                !
 ! R32   R(25,37)                1.3993         estimate D2E/DX2                !
 ! R33   R(26,27)                1.5428         estimate D2E/DX2                !
 ! R34   R(26,31)                1.1005         estimate D2E/DX2                !
 ! R35   R(26,36)                1.4363         estimate D2E/DX2                !
 ! R36   R(27,28)                1.5802         estimate D2E/DX2                !
 ! R37   R(27,32)                1.1002         estimate D2E/DX2                !
 ! R38   R(28,29)                1.5325         estimate D2E/DX2                !
 ! R39   R(28,33)                1.104          estimate D2E/DX2                !
 ! R40   R(28,35)                1.4376         estimate D2E/DX2                !
 ! R41   R(29,34)                1.1057         estimate D2E/DX2                !
 ! R42   R(29,38)                1.5289         estimate D2E/DX2                !
 ! R43   R(35,43)                0.9916         estimate D2E/DX2                !
 ! R44   R(36,44)                0.9723         estimate D2E/DX2                !
 ! R45   R(37,49)                1.4425         estimate D2E/DX2                !
 ! R46   R(38,39)                1.1009         estimate D2E/DX2                !
 ! R47   R(38,40)                1.0992         estimate D2E/DX2                !
 ! R48   R(38,41)                1.4422         estimate D2E/DX2                !
 ! R49   R(41,42)                0.9792         estimate D2E/DX2                !
 ! R50   R(45,46)                1.4544         estimate D2E/DX2                !
 ! R51   R(45,50)                1.4438         estimate D2E/DX2                !
 ! R52   R(45,83)                1.8633         estimate D2E/DX2                !
 ! R53   R(46,47)                1.5303         estimate D2E/DX2                !
 ! R54   R(46,51)                1.1091         estimate D2E/DX2                !
 ! R55   R(46,58)                1.384          estimate D2E/DX2                !
 ! R56   R(47,48)                1.5332         estimate D2E/DX2                !
 ! R57   R(47,52)                1.1037         estimate D2E/DX2                !
 ! R58   R(47,57)                1.426          estimate D2E/DX2                !
 ! R59   R(48,49)                1.5318         estimate D2E/DX2                !
 ! R60   R(48,53)                1.1078         estimate D2E/DX2                !
 ! R61   R(48,56)                1.4291         estimate D2E/DX2                !
 ! R62   R(49,50)                1.5459         estimate D2E/DX2                !
 ! R63   R(49,55)                1.102          estimate D2E/DX2                !
 ! R64   R(50,54)                1.1085         estimate D2E/DX2                !
 ! R65   R(50,59)                1.526          estimate D2E/DX2                !
 ! R66   R(56,64)                0.9749         estimate D2E/DX2                !
 ! R67   R(57,65)                0.9739         estimate D2E/DX2                !
 ! R68   R(58,66)                1.4569         estimate D2E/DX2                !
 ! R69   R(59,60)                1.099          estimate D2E/DX2                !
 ! R70   R(59,61)                1.1008         estimate D2E/DX2                !
 ! R71   R(59,62)                1.4353         estimate D2E/DX2                !
 ! R72   R(62,63)                0.9858         estimate D2E/DX2                !
 ! R73   R(62,84)                2.3126         estimate D2E/DX2                !
 ! R74   R(66,67)                1.1004         estimate D2E/DX2                !
 ! R75   R(66,68)                1.1022         estimate D2E/DX2                !
 ! R76   R(66,69)                1.5241         estimate D2E/DX2                !
 ! R77   R(69,70)                1.1007         estimate D2E/DX2                !
 ! R78   R(69,71)                1.1018         estimate D2E/DX2                !
 ! R79   R(69,72)                1.5451         estimate D2E/DX2                !
 ! R80   R(72,73)                1.0999         estimate D2E/DX2                !
 ! R81   R(72,74)                1.1012         estimate D2E/DX2                !
 ! R82   R(72,75)                1.5375         estimate D2E/DX2                !
 ! R83   R(75,76)                1.102          estimate D2E/DX2                !
 ! R84   R(75,77)                1.1035         estimate D2E/DX2                !
 ! R85   R(75,78)                1.528          estimate D2E/DX2                !
 ! R86   R(78,79)                1.0977         estimate D2E/DX2                !
 ! R87   R(78,80)                1.097          estimate D2E/DX2                !
 ! R88   R(78,81)                1.4991         estimate D2E/DX2                !
 ! R89   R(81,82)                1.0653         estimate D2E/DX2                !
 ! R90   R(81,83)                1.0424         estimate D2E/DX2                !
 ! R91   R(81,84)                1.0296         estimate D2E/DX2                !
 ! A1    A(2,1,6)              114.5636         estimate D2E/DX2                !
 ! A2    A(1,2,3)              112.0732         estimate D2E/DX2                !
 ! A3    A(1,2,7)              105.151          estimate D2E/DX2                !
 ! A4    A(1,2,15)             112.8877         estimate D2E/DX2                !
 ! A5    A(3,2,7)              110.837          estimate D2E/DX2                !
 ! A6    A(3,2,15)             105.7332         estimate D2E/DX2                !
 ! A7    A(7,2,15)             110.2568         estimate D2E/DX2                !
 ! A8    A(2,3,4)              109.1694         estimate D2E/DX2                !
 ! A9    A(2,3,8)              108.1254         estimate D2E/DX2                !
 ! A10   A(2,3,14)             110.499          estimate D2E/DX2                !
 ! A11   A(4,3,8)              109.9344         estimate D2E/DX2                !
 ! A12   A(4,3,14)             110.4882         estimate D2E/DX2                !
 ! A13   A(8,3,14)             108.5877         estimate D2E/DX2                !
 ! A14   A(3,4,5)              110.925          estimate D2E/DX2                !
 ! A15   A(3,4,9)              107.3932         estimate D2E/DX2                !
 ! A16   A(3,4,13)             112.2084         estimate D2E/DX2                !
 ! A17   A(5,4,9)              108.2412         estimate D2E/DX2                !
 ! A18   A(5,4,13)             111.1396         estimate D2E/DX2                !
 ! A19   A(9,4,13)             106.6901         estimate D2E/DX2                !
 ! A20   A(4,5,6)              110.7687         estimate D2E/DX2                !
 ! A21   A(4,5,10)             108.4729         estimate D2E/DX2                !
 ! A22   A(4,5,12)             106.0383         estimate D2E/DX2                !
 ! A23   A(6,5,10)             107.2366         estimate D2E/DX2                !
 ! A24   A(6,5,12)             114.2668         estimate D2E/DX2                !
 ! A25   A(10,5,12)            109.9554         estimate D2E/DX2                !
 ! A26   A(1,6,5)              113.1801         estimate D2E/DX2                !
 ! A27   A(1,6,11)             109.313          estimate D2E/DX2                !
 ! A28   A(1,6,16)             104.3485         estimate D2E/DX2                !
 ! A29   A(5,6,11)             106.8681         estimate D2E/DX2                !
 ! A30   A(5,6,16)             112.4524         estimate D2E/DX2                !
 ! A31   A(11,6,16)            110.7042         estimate D2E/DX2                !
 ! A32   A(5,12,21)            106.594          estimate D2E/DX2                !
 ! A33   A(4,13,22)            105.0603         estimate D2E/DX2                !
 ! A34   A(3,14,23)            107.2598         estimate D2E/DX2                !
 ! A35   A(3,14,82)            118.6541         estimate D2E/DX2                !
 ! A36   A(23,14,82)           111.8232         estimate D2E/DX2                !
 ! A37   A(2,15,27)            114.9775         estimate D2E/DX2                !
 ! A38   A(6,16,17)            108.1488         estimate D2E/DX2                !
 ! A39   A(6,16,18)            109.5918         estimate D2E/DX2                !
 ! A40   A(6,16,19)            107.586          estimate D2E/DX2                !
 ! A41   A(17,16,18)           108.4649         estimate D2E/DX2                !
 ! A42   A(17,16,19)           111.4428         estimate D2E/DX2                !
 ! A43   A(18,16,19)           111.5394         estimate D2E/DX2                !
 ! A44   A(16,19,20)           108.2265         estimate D2E/DX2                !
 ! A45   A(25,24,29)           111.3367         estimate D2E/DX2                !
 ! A46   A(25,24,63)           120.9244         estimate D2E/DX2                !
 ! A47   A(29,24,63)           110.5962         estimate D2E/DX2                !
 ! A48   A(24,25,26)           111.6416         estimate D2E/DX2                !
 ! A49   A(24,25,30)           107.7244         estimate D2E/DX2                !
 ! A50   A(24,25,37)           108.7076         estimate D2E/DX2                !
 ! A51   A(26,25,30)           106.9811         estimate D2E/DX2                !
 ! A52   A(26,25,37)           117.4646         estimate D2E/DX2                !
 ! A53   A(30,25,37)           103.616          estimate D2E/DX2                !
 ! A54   A(25,26,27)           115.4092         estimate D2E/DX2                !
 ! A55   A(25,26,31)           107.8159         estimate D2E/DX2                !
 ! A56   A(25,26,36)           109.2252         estimate D2E/DX2                !
 ! A57   A(27,26,31)           107.5404         estimate D2E/DX2                !
 ! A58   A(27,26,36)           105.3267         estimate D2E/DX2                !
 ! A59   A(31,26,36)           111.5659         estimate D2E/DX2                !
 ! A60   A(15,27,26)           107.3939         estimate D2E/DX2                !
 ! A61   A(15,27,28)           111.2232         estimate D2E/DX2                !
 ! A62   A(15,27,32)           109.6173         estimate D2E/DX2                !
 ! A63   A(26,27,28)           113.6926         estimate D2E/DX2                !
 ! A64   A(26,27,32)           105.4576         estimate D2E/DX2                !
 ! A65   A(28,27,32)           109.2513         estimate D2E/DX2                !
 ! A66   A(27,28,29)           110.1389         estimate D2E/DX2                !
 ! A67   A(27,28,33)           108.4816         estimate D2E/DX2                !
 ! A68   A(27,28,35)           108.9289         estimate D2E/DX2                !
 ! A69   A(29,28,33)           108.4311         estimate D2E/DX2                !
 ! A70   A(29,28,35)           111.8001         estimate D2E/DX2                !
 ! A71   A(33,28,35)           108.9947         estimate D2E/DX2                !
 ! A72   A(24,29,28)           108.789          estimate D2E/DX2                !
 ! A73   A(24,29,34)           109.2164         estimate D2E/DX2                !
 ! A74   A(24,29,38)           107.8587         estimate D2E/DX2                !
 ! A75   A(28,29,34)           108.3363         estimate D2E/DX2                !
 ! A76   A(28,29,38)           115.6605         estimate D2E/DX2                !
 ! A77   A(34,29,38)           106.8416         estimate D2E/DX2                !
 ! A78   A(23,35,28)           130.8271         estimate D2E/DX2                !
 ! A79   A(23,35,43)           113.9442         estimate D2E/DX2                !
 ! A80   A(28,35,43)           106.742          estimate D2E/DX2                !
 ! A81   A(26,36,44)           108.671          estimate D2E/DX2                !
 ! A82   A(25,37,49)           119.2442         estimate D2E/DX2                !
 ! A83   A(29,38,39)           109.0705         estimate D2E/DX2                !
 ! A84   A(29,38,40)           109.0935         estimate D2E/DX2                !
 ! A85   A(29,38,41)           114.047          estimate D2E/DX2                !
 ! A86   A(39,38,40)           108.154          estimate D2E/DX2                !
 ! A87   A(39,38,41)           110.5478         estimate D2E/DX2                !
 ! A88   A(40,38,41)           105.7282         estimate D2E/DX2                !
 ! A89   A(38,41,42)           108.8904         estimate D2E/DX2                !
 ! A90   A(46,45,50)           112.5367         estimate D2E/DX2                !
 ! A91   A(46,45,83)           118.4013         estimate D2E/DX2                !
 ! A92   A(50,45,83)           119.1384         estimate D2E/DX2                !
 ! A93   A(45,46,47)           108.9559         estimate D2E/DX2                !
 ! A94   A(45,46,51)           108.2446         estimate D2E/DX2                !
 ! A95   A(45,46,58)           108.2162         estimate D2E/DX2                !
 ! A96   A(47,46,51)           111.5646         estimate D2E/DX2                !
 ! A97   A(47,46,58)           107.536          estimate D2E/DX2                !
 ! A98   A(51,46,58)           112.2317         estimate D2E/DX2                !
 ! A99   A(46,47,48)           112.9282         estimate D2E/DX2                !
 ! A100  A(46,47,52)           106.3226         estimate D2E/DX2                !
 ! A101  A(46,47,57)           111.9508         estimate D2E/DX2                !
 ! A102  A(48,47,52)           108.9871         estimate D2E/DX2                !
 ! A103  A(48,47,57)           106.0692         estimate D2E/DX2                !
 ! A104  A(52,47,57)           110.6065         estimate D2E/DX2                !
 ! A105  A(47,48,49)           112.3906         estimate D2E/DX2                !
 ! A106  A(47,48,53)           108.2855         estimate D2E/DX2                !
 ! A107  A(47,48,56)           109.9402         estimate D2E/DX2                !
 ! A108  A(49,48,53)           107.4909         estimate D2E/DX2                !
 ! A109  A(49,48,56)           108.8869         estimate D2E/DX2                !
 ! A110  A(53,48,56)           109.7967         estimate D2E/DX2                !
 ! A111  A(37,49,48)           108.143          estimate D2E/DX2                !
 ! A112  A(37,49,50)           109.0623         estimate D2E/DX2                !
 ! A113  A(37,49,55)           110.8642         estimate D2E/DX2                !
 ! A114  A(48,49,50)           108.8034         estimate D2E/DX2                !
 ! A115  A(48,49,55)           109.7264         estimate D2E/DX2                !
 ! A116  A(50,49,55)           110.189          estimate D2E/DX2                !
 ! A117  A(45,50,49)           108.5158         estimate D2E/DX2                !
 ! A118  A(45,50,54)           109.14           estimate D2E/DX2                !
 ! A119  A(45,50,59)           107.981          estimate D2E/DX2                !
 ! A120  A(49,50,54)           108.4897         estimate D2E/DX2                !
 ! A121  A(49,50,59)           115.9067         estimate D2E/DX2                !
 ! A122  A(54,50,59)           106.6571         estimate D2E/DX2                !
 ! A123  A(48,56,64)           106.3181         estimate D2E/DX2                !
 ! A124  A(47,57,65)           107.8621         estimate D2E/DX2                !
 ! A125  A(46,58,66)           117.6174         estimate D2E/DX2                !
 ! A126  A(50,59,60)           108.3674         estimate D2E/DX2                !
 ! A127  A(50,59,61)           108.4805         estimate D2E/DX2                !
 ! A128  A(50,59,62)           113.7852         estimate D2E/DX2                !
 ! A129  A(60,59,61)           108.4297         estimate D2E/DX2                !
 ! A130  A(60,59,62)           106.9987         estimate D2E/DX2                !
 ! A131  A(61,59,62)           110.6299         estimate D2E/DX2                !
 ! A132  A(59,62,63)           104.1228         estimate D2E/DX2                !
 ! A133  A(59,62,84)           115.7777         estimate D2E/DX2                !
 ! A134  A(63,62,84)           125.3546         estimate D2E/DX2                !
 ! A135  A(24,63,62)           145.7552         estimate D2E/DX2                !
 ! A136  A(58,66,67)           106.3668         estimate D2E/DX2                !
 ! A137  A(58,66,68)           109.667          estimate D2E/DX2                !
 ! A138  A(58,66,69)           110.0509         estimate D2E/DX2                !
 ! A139  A(67,66,68)           108.3156         estimate D2E/DX2                !
 ! A140  A(67,66,69)           110.5951         estimate D2E/DX2                !
 ! A141  A(68,66,69)           111.689          estimate D2E/DX2                !
 ! A142  A(66,69,70)           108.0037         estimate D2E/DX2                !
 ! A143  A(66,69,71)           106.9768         estimate D2E/DX2                !
 ! A144  A(66,69,72)           114.6741         estimate D2E/DX2                !
 ! A145  A(70,69,71)           105.4957         estimate D2E/DX2                !
 ! A146  A(70,69,72)           109.8131         estimate D2E/DX2                !
 ! A147  A(71,69,72)           111.4111         estimate D2E/DX2                !
 ! A148  A(69,72,73)           109.149          estimate D2E/DX2                !
 ! A149  A(69,72,74)           109.4865         estimate D2E/DX2                !
 ! A150  A(69,72,75)           115.0402         estimate D2E/DX2                !
 ! A151  A(73,72,74)           105.1681         estimate D2E/DX2                !
 ! A152  A(73,72,75)           107.9937         estimate D2E/DX2                !
 ! A153  A(74,72,75)           109.5324         estimate D2E/DX2                !
 ! A154  A(72,75,76)           110.0163         estimate D2E/DX2                !
 ! A155  A(72,75,77)           109.2984         estimate D2E/DX2                !
 ! A156  A(72,75,78)           115.5177         estimate D2E/DX2                !
 ! A157  A(76,75,77)           105.4788         estimate D2E/DX2                !
 ! A158  A(76,75,78)           107.0918         estimate D2E/DX2                !
 ! A159  A(77,75,78)           108.9514         estimate D2E/DX2                !
 ! A160  A(75,78,79)           110.7818         estimate D2E/DX2                !
 ! A161  A(75,78,80)           113.0841         estimate D2E/DX2                !
 ! A162  A(75,78,81)           112.439          estimate D2E/DX2                !
 ! A163  A(79,78,80)           107.5352         estimate D2E/DX2                !
 ! A164  A(79,78,81)           107.0921         estimate D2E/DX2                !
 ! A165  A(80,78,81)           105.5369         estimate D2E/DX2                !
 ! A166  A(78,81,82)           112.7794         estimate D2E/DX2                !
 ! A167  A(78,81,83)           112.0734         estimate D2E/DX2                !
 ! A168  A(78,81,84)           113.4121         estimate D2E/DX2                !
 ! A169  A(82,81,83)           107.791          estimate D2E/DX2                !
 ! A170  A(82,81,84)           105.6736         estimate D2E/DX2                !
 ! A171  A(83,81,84)           104.521          estimate D2E/DX2                !
 ! A172  A(45,83,81)           164.3418         estimate D2E/DX2                !
 ! A173  A(62,84,81)           115.8502         estimate D2E/DX2                !
 ! A174  L(14,23,35,1,-1)      177.7385         estimate D2E/DX2                !
 ! A175  L(14,82,81,13,-1)     191.2852         estimate D2E/DX2                !
 ! A176  L(14,23,35,1,-2)      172.726          estimate D2E/DX2                !
 ! A177  L(14,82,81,13,-2)     175.9709         estimate D2E/DX2                !
 ! D1    D(6,1,2,3)            -57.4756         estimate D2E/DX2                !
 ! D2    D(6,1,2,7)           -177.9711         estimate D2E/DX2                !
 ! D3    D(6,1,2,15)            61.7863         estimate D2E/DX2                !
 ! D4    D(2,1,6,5)             53.2274         estimate D2E/DX2                !
 ! D5    D(2,1,6,11)           -65.7544         estimate D2E/DX2                !
 ! D6    D(2,1,6,16)           175.7995         estimate D2E/DX2                !
 ! D7    D(1,2,3,4)             57.4861         estimate D2E/DX2                !
 ! D8    D(1,2,3,8)            -62.0914         estimate D2E/DX2                !
 ! D9    D(1,2,3,14)           179.1934         estimate D2E/DX2                !
 ! D10   D(7,2,3,4)            174.6225         estimate D2E/DX2                !
 ! D11   D(7,2,3,8)             55.045          estimate D2E/DX2                !
 ! D12   D(7,2,3,14)           -63.6701         estimate D2E/DX2                !
 ! D13   D(15,2,3,4)           -65.8989         estimate D2E/DX2                !
 ! D14   D(15,2,3,8)           174.5236         estimate D2E/DX2                !
 ! D15   D(15,2,3,14)           55.8085         estimate D2E/DX2                !
 ! D16   D(1,2,15,27)           84.4516         estimate D2E/DX2                !
 ! D17   D(3,2,15,27)         -152.68           estimate D2E/DX2                !
 ! D18   D(7,2,15,27)          -32.8197         estimate D2E/DX2                !
 ! D19   D(2,3,4,5)            -54.4334         estimate D2E/DX2                !
 ! D20   D(2,3,4,9)             63.6628         estimate D2E/DX2                !
 ! D21   D(2,3,4,13)          -179.4035         estimate D2E/DX2                !
 ! D22   D(8,3,4,5)             64.0191         estimate D2E/DX2                !
 ! D23   D(8,3,4,9)           -177.8847         estimate D2E/DX2                !
 ! D24   D(8,3,4,13)           -60.951          estimate D2E/DX2                !
 ! D25   D(14,3,4,5)          -176.1473         estimate D2E/DX2                !
 ! D26   D(14,3,4,9)           -58.0512         estimate D2E/DX2                !
 ! D27   D(14,3,4,13)           58.8825         estimate D2E/DX2                !
 ! D28   D(2,3,14,23)           -1.3884         estimate D2E/DX2                !
 ! D29   D(2,3,14,82)         -129.2226         estimate D2E/DX2                !
 ! D30   D(4,3,14,23)          119.5373         estimate D2E/DX2                !
 ! D31   D(4,3,14,82)           -8.2969         estimate D2E/DX2                !
 ! D32   D(8,3,14,23)         -119.8219         estimate D2E/DX2                !
 ! D33   D(8,3,14,82)          112.3439         estimate D2E/DX2                !
 ! D34   D(3,4,5,6)             50.7984         estimate D2E/DX2                !
 ! D35   D(3,4,5,10)           168.2384         estimate D2E/DX2                !
 ! D36   D(3,4,5,12)           -73.6989         estimate D2E/DX2                !
 ! D37   D(9,4,5,6)            -66.7816         estimate D2E/DX2                !
 ! D38   D(9,4,5,10)            50.6584         estimate D2E/DX2                !
 ! D39   D(9,4,5,12)           168.7211         estimate D2E/DX2                !
 ! D40   D(13,4,5,6)           176.3691         estimate D2E/DX2                !
 ! D41   D(13,4,5,10)          -66.1909         estimate D2E/DX2                !
 ! D42   D(13,4,5,12)           51.8718         estimate D2E/DX2                !
 ! D43   D(3,4,13,22)           85.5647         estimate D2E/DX2                !
 ! D44   D(5,4,13,22)          -39.2871         estimate D2E/DX2                !
 ! D45   D(9,4,13,22)         -157.0812         estimate D2E/DX2                !
 ! D46   D(4,5,6,1)            -48.9354         estimate D2E/DX2                !
 ! D47   D(4,5,6,11)            71.4477         estimate D2E/DX2                !
 ! D48   D(4,5,6,16)          -166.8813         estimate D2E/DX2                !
 ! D49   D(10,5,6,1)          -167.1302         estimate D2E/DX2                !
 ! D50   D(10,5,6,11)          -46.7471         estimate D2E/DX2                !
 ! D51   D(10,5,6,16)           74.9239         estimate D2E/DX2                !
 ! D52   D(12,5,6,1)            70.74           estimate D2E/DX2                !
 ! D53   D(12,5,6,11)         -168.8769         estimate D2E/DX2                !
 ! D54   D(12,5,6,16)          -47.2059         estimate D2E/DX2                !
 ! D55   D(4,5,12,21)         -162.9252         estimate D2E/DX2                !
 ! D56   D(6,5,12,21)           74.7775         estimate D2E/DX2                !
 ! D57   D(10,5,12,21)         -45.8522         estimate D2E/DX2                !
 ! D58   D(1,6,16,17)          -43.5753         estimate D2E/DX2                !
 ! D59   D(1,6,16,18)           74.4886         estimate D2E/DX2                !
 ! D60   D(1,6,16,19)         -164.0705         estimate D2E/DX2                !
 ! D61   D(5,6,16,17)           79.4717         estimate D2E/DX2                !
 ! D62   D(5,6,16,18)         -162.4644         estimate D2E/DX2                !
 ! D63   D(5,6,16,19)          -41.0235         estimate D2E/DX2                !
 ! D64   D(11,6,16,17)        -161.0674         estimate D2E/DX2                !
 ! D65   D(11,6,16,18)         -43.0034         estimate D2E/DX2                !
 ! D66   D(11,6,16,19)          78.4375         estimate D2E/DX2                !
 ! D67   D(3,14,35,28)         -33.6643         estimate D2E/DX2                !
 ! D68   D(3,14,35,43)         179.7566         estimate D2E/DX2                !
 ! D69   D(82,14,35,28)        100.3484         estimate D2E/DX2                !
 ! D70   D(82,14,35,43)        -46.2306         estimate D2E/DX2                !
 ! D71   D(3,14,81,78)         -79.6982         estimate D2E/DX2                !
 ! D72   D(3,14,81,83)          49.1793         estimate D2E/DX2                !
 ! D73   D(3,14,81,84)         157.6764         estimate D2E/DX2                !
 ! D74   D(23,14,81,78)        155.8181         estimate D2E/DX2                !
 ! D75   D(23,14,81,83)        -75.3044         estimate D2E/DX2                !
 ! D76   D(23,14,81,84)         33.1927         estimate D2E/DX2                !
 ! D77   D(2,15,27,26)        -146.6457         estimate D2E/DX2                !
 ! D78   D(2,15,27,28)          88.3684         estimate D2E/DX2                !
 ! D79   D(2,15,27,32)         -32.5563         estimate D2E/DX2                !
 ! D80   D(6,16,19,20)        -171.2671         estimate D2E/DX2                !
 ! D81   D(17,16,19,20)         70.3384         estimate D2E/DX2                !
 ! D82   D(18,16,19,20)        -51.0507         estimate D2E/DX2                !
 ! D83   D(29,24,25,26)        -41.3029         estimate D2E/DX2                !
 ! D84   D(29,24,25,30)         75.8698         estimate D2E/DX2                !
 ! D85   D(29,24,25,37)       -172.4664         estimate D2E/DX2                !
 ! D86   D(63,24,25,26)         91.0936         estimate D2E/DX2                !
 ! D87   D(63,24,25,30)       -151.7337         estimate D2E/DX2                !
 ! D88   D(63,24,25,37)        -40.0699         estimate D2E/DX2                !
 ! D89   D(25,24,29,28)         77.5417         estimate D2E/DX2                !
 ! D90   D(25,24,29,34)        -40.5247         estimate D2E/DX2                !
 ! D91   D(25,24,29,38)       -156.2882         estimate D2E/DX2                !
 ! D92   D(63,24,29,28)        -59.8662         estimate D2E/DX2                !
 ! D93   D(63,24,29,34)       -177.9326         estimate D2E/DX2                !
 ! D94   D(63,24,29,38)         66.3039         estimate D2E/DX2                !
 ! D95   D(25,24,63,62)         97.03           estimate D2E/DX2                !
 ! D96   D(29,24,63,62)       -130.2644         estimate D2E/DX2                !
 ! D97   D(24,25,26,27)        -17.1304         estimate D2E/DX2                !
 ! D98   D(24,25,26,31)       -137.3371         estimate D2E/DX2                !
 ! D99   D(24,25,26,36)        101.2661         estimate D2E/DX2                !
 ! D100  D(30,25,26,27)       -134.7512         estimate D2E/DX2                !
 ! D101  D(30,25,26,31)        105.042          estimate D2E/DX2                !
 ! D102  D(30,25,26,36)        -16.3547         estimate D2E/DX2                !
 ! D103  D(37,25,26,27)        109.3912         estimate D2E/DX2                !
 ! D104  D(37,25,26,31)        -10.8155         estimate D2E/DX2                !
 ! D105  D(37,25,26,36)       -132.2123         estimate D2E/DX2                !
 ! D106  D(24,25,37,49)         64.7262         estimate D2E/DX2                !
 ! D107  D(26,25,37,49)        -63.2143         estimate D2E/DX2                !
 ! D108  D(30,25,37,49)        179.1032         estimate D2E/DX2                !
 ! D109  D(25,26,27,15)        -81.7562         estimate D2E/DX2                !
 ! D110  D(25,26,27,28)         41.7296         estimate D2E/DX2                !
 ! D111  D(25,26,27,32)        161.394          estimate D2E/DX2                !
 ! D112  D(31,26,27,15)         38.6009         estimate D2E/DX2                !
 ! D113  D(31,26,27,28)        162.0867         estimate D2E/DX2                !
 ! D114  D(31,26,27,32)        -78.2489         estimate D2E/DX2                !
 ! D115  D(36,26,27,15)        157.7011         estimate D2E/DX2                !
 ! D116  D(36,26,27,28)        -78.8131         estimate D2E/DX2                !
 ! D117  D(36,26,27,32)         40.8512         estimate D2E/DX2                !
 ! D118  D(25,26,36,44)         78.044          estimate D2E/DX2                !
 ! D119  D(27,26,36,44)       -157.4317         estimate D2E/DX2                !
 ! D120  D(31,26,36,44)        -41.0507         estimate D2E/DX2                !
 ! D121  D(15,27,28,29)        112.5654         estimate D2E/DX2                !
 ! D122  D(15,27,28,33)       -128.9035         estimate D2E/DX2                !
 ! D123  D(15,27,28,35)        -10.3862         estimate D2E/DX2                !
 ! D124  D(26,27,28,29)         -8.8083         estimate D2E/DX2                !
 ! D125  D(26,27,28,33)        109.7229         estimate D2E/DX2                !
 ! D126  D(26,27,28,35)       -131.7598         estimate D2E/DX2                !
 ! D127  D(32,27,28,29)       -126.2954         estimate D2E/DX2                !
 ! D128  D(32,27,28,33)         -7.7642         estimate D2E/DX2                !
 ! D129  D(32,27,28,35)        110.7531         estimate D2E/DX2                !
 ! D130  D(27,28,29,24)        -47.4139         estimate D2E/DX2                !
 ! D131  D(27,28,29,34)         71.2071         estimate D2E/DX2                !
 ! D132  D(27,28,29,38)       -168.9355         estimate D2E/DX2                !
 ! D133  D(33,28,29,24)       -165.976          estimate D2E/DX2                !
 ! D134  D(33,28,29,34)        -47.355          estimate D2E/DX2                !
 ! D135  D(33,28,29,38)         72.5023         estimate D2E/DX2                !
 ! D136  D(35,28,29,24)         73.8386         estimate D2E/DX2                !
 ! D137  D(35,28,29,34)       -167.5404         estimate D2E/DX2                !
 ! D138  D(35,28,29,38)        -47.6831         estimate D2E/DX2                !
 ! D139  D(27,28,35,23)          8.8362         estimate D2E/DX2                !
 ! D140  D(27,28,35,43)        153.9203         estimate D2E/DX2                !
 ! D141  D(29,28,35,23)       -113.114          estimate D2E/DX2                !
 ! D142  D(29,28,35,43)         31.9701         estimate D2E/DX2                !
 ! D143  D(33,28,35,23)        127.031          estimate D2E/DX2                !
 ! D144  D(33,28,35,43)        -87.8849         estimate D2E/DX2                !
 ! D145  D(24,29,38,39)         56.6549         estimate D2E/DX2                !
 ! D146  D(24,29,38,40)        174.5935         estimate D2E/DX2                !
 ! D147  D(24,29,38,41)        -67.4647         estimate D2E/DX2                !
 ! D148  D(28,29,38,39)        178.6741         estimate D2E/DX2                !
 ! D149  D(28,29,38,40)        -63.3873         estimate D2E/DX2                !
 ! D150  D(28,29,38,41)         54.5545         estimate D2E/DX2                !
 ! D151  D(34,29,38,39)        -60.6565         estimate D2E/DX2                !
 ! D152  D(34,29,38,40)         57.2821         estimate D2E/DX2                !
 ! D153  D(34,29,38,41)        175.2239         estimate D2E/DX2                !
 ! D154  D(25,37,49,48)        126.0744         estimate D2E/DX2                !
 ! D155  D(25,37,49,50)       -115.7554         estimate D2E/DX2                !
 ! D156  D(25,37,49,55)          5.7425         estimate D2E/DX2                !
 ! D157  D(29,38,41,42)         72.6485         estimate D2E/DX2                !
 ! D158  D(39,38,41,42)        -50.6738         estimate D2E/DX2                !
 ! D159  D(40,38,41,42)       -167.4974         estimate D2E/DX2                !
 ! D160  D(50,45,46,47)        -62.1299         estimate D2E/DX2                !
 ! D161  D(50,45,46,51)         59.3648         estimate D2E/DX2                !
 ! D162  D(50,45,46,58)       -178.7726         estimate D2E/DX2                !
 ! D163  D(83,45,46,47)         83.3266         estimate D2E/DX2                !
 ! D164  D(83,45,46,51)       -155.1788         estimate D2E/DX2                !
 ! D165  D(83,45,46,58)        -33.3161         estimate D2E/DX2                !
 ! D166  D(46,45,50,49)         67.4147         estimate D2E/DX2                !
 ! D167  D(46,45,50,54)        -50.6357         estimate D2E/DX2                !
 ! D168  D(46,45,50,59)       -166.2072         estimate D2E/DX2                !
 ! D169  D(83,45,50,49)        -77.7617         estimate D2E/DX2                !
 ! D170  D(83,45,50,54)        164.1879         estimate D2E/DX2                !
 ! D171  D(83,45,50,59)         48.6164         estimate D2E/DX2                !
 ! D172  D(46,45,83,81)        167.5405         estimate D2E/DX2                !
 ! D173  D(50,45,83,81)        -49.3017         estimate D2E/DX2                !
 ! D174  D(45,46,47,48)         50.7262         estimate D2E/DX2                !
 ! D175  D(45,46,47,52)        -68.7444         estimate D2E/DX2                !
 ! D176  D(45,46,47,57)        170.3638         estimate D2E/DX2                !
 ! D177  D(51,46,47,48)        -68.7251         estimate D2E/DX2                !
 ! D178  D(51,46,47,52)        171.8043         estimate D2E/DX2                !
 ! D179  D(51,46,47,57)         50.9124         estimate D2E/DX2                !
 ! D180  D(58,46,47,48)        167.8021         estimate D2E/DX2                !
 ! D181  D(58,46,47,52)         48.3316         estimate D2E/DX2                !
 ! D182  D(58,46,47,57)        -72.5603         estimate D2E/DX2                !
 ! D183  D(45,46,58,66)        -83.5207         estimate D2E/DX2                !
 ! D184  D(47,46,58,66)        158.9218         estimate D2E/DX2                !
 ! D185  D(51,46,58,66)         35.8577         estimate D2E/DX2                !
 ! D186  D(46,47,48,49)        -47.435          estimate D2E/DX2                !
 ! D187  D(46,47,48,53)         71.1512         estimate D2E/DX2                !
 ! D188  D(46,47,48,56)       -168.8937         estimate D2E/DX2                !
 ! D189  D(52,47,48,49)         70.4861         estimate D2E/DX2                !
 ! D190  D(52,47,48,53)       -170.9277         estimate D2E/DX2                !
 ! D191  D(52,47,48,56)        -50.9725         estimate D2E/DX2                !
 ! D192  D(57,47,48,49)       -170.4068         estimate D2E/DX2                !
 ! D193  D(57,47,48,53)        -51.8205         estimate D2E/DX2                !
 ! D194  D(57,47,48,56)         68.1346         estimate D2E/DX2                !
 ! D195  D(46,47,57,65)         67.8112         estimate D2E/DX2                !
 ! D196  D(48,47,57,65)       -168.6022         estimate D2E/DX2                !
 ! D197  D(52,47,57,65)        -50.5655         estimate D2E/DX2                !
 ! D198  D(47,48,49,37)        168.7912         estimate D2E/DX2                !
 ! D199  D(47,48,49,50)         50.4557         estimate D2E/DX2                !
 ! D200  D(47,48,49,55)        -70.1679         estimate D2E/DX2                !
 ! D201  D(53,48,49,37)         49.7388         estimate D2E/DX2                !
 ! D202  D(53,48,49,50)        -68.5966         estimate D2E/DX2                !
 ! D203  D(53,48,49,55)        170.7797         estimate D2E/DX2                !
 ! D204  D(56,48,49,37)        -69.1504         estimate D2E/DX2                !
 ! D205  D(56,48,49,50)        172.5141         estimate D2E/DX2                !
 ! D206  D(56,48,49,55)         51.8905         estimate D2E/DX2                !
 ! D207  D(47,48,56,64)        -59.0527         estimate D2E/DX2                !
 ! D208  D(49,48,56,64)        177.4164         estimate D2E/DX2                !
 ! D209  D(53,48,56,64)         59.9803         estimate D2E/DX2                !
 ! D210  D(37,49,50,45)       -177.0024         estimate D2E/DX2                !
 ! D211  D(37,49,50,54)        -58.5398         estimate D2E/DX2                !
 ! D212  D(37,49,50,59)         61.3567         estimate D2E/DX2                !
 ! D213  D(48,49,50,45)        -59.2478         estimate D2E/DX2                !
 ! D214  D(48,49,50,54)         59.2149         estimate D2E/DX2                !
 ! D215  D(48,49,50,59)        179.1114         estimate D2E/DX2                !
 ! D216  D(55,49,50,45)         61.0904         estimate D2E/DX2                !
 ! D217  D(55,49,50,54)        179.5531         estimate D2E/DX2                !
 ! D218  D(55,49,50,59)        -60.5504         estimate D2E/DX2                !
 ! D219  D(45,50,59,60)         52.1238         estimate D2E/DX2                !
 ! D220  D(45,50,59,61)        169.6524         estimate D2E/DX2                !
 ! D221  D(45,50,59,62)        -66.7559         estimate D2E/DX2                !
 ! D222  D(49,50,59,60)        174.0493         estimate D2E/DX2                !
 ! D223  D(49,50,59,61)        -68.4222         estimate D2E/DX2                !
 ! D224  D(49,50,59,62)         55.1696         estimate D2E/DX2                !
 ! D225  D(54,50,59,60)        -65.0645         estimate D2E/DX2                !
 ! D226  D(54,50,59,61)         52.464          estimate D2E/DX2                !
 ! D227  D(54,50,59,62)        176.0558         estimate D2E/DX2                !
 ! D228  D(46,58,66,67)       -118.1191         estimate D2E/DX2                !
 ! D229  D(46,58,66,68)         -1.197          estimate D2E/DX2                !
 ! D230  D(46,58,66,69)        122.0486         estimate D2E/DX2                !
 ! D231  D(50,59,62,63)        -70.6098         estimate D2E/DX2                !
 ! D232  D(50,59,62,84)         71.0293         estimate D2E/DX2                !
 ! D233  D(60,59,62,63)        169.7319         estimate D2E/DX2                !
 ! D234  D(60,59,62,84)        -48.629          estimate D2E/DX2                !
 ! D235  D(61,59,62,63)         51.8064         estimate D2E/DX2                !
 ! D236  D(61,59,62,84)       -166.5545         estimate D2E/DX2                !
 ! D237  D(59,62,63,24)        -36.4057         estimate D2E/DX2                !
 ! D238  D(84,62,63,24)       -173.1529         estimate D2E/DX2                !
 ! D239  D(59,62,84,81)        -74.7637         estimate D2E/DX2                !
 ! D240  D(63,62,84,81)         57.6799         estimate D2E/DX2                !
 ! D241  D(58,66,69,70)        159.0069         estimate D2E/DX2                !
 ! D242  D(58,66,69,71)         45.8696         estimate D2E/DX2                !
 ! D243  D(58,66,69,72)        -78.2063         estimate D2E/DX2                !
 ! D244  D(67,66,69,70)         41.7747         estimate D2E/DX2                !
 ! D245  D(67,66,69,71)        -71.3626         estimate D2E/DX2                !
 ! D246  D(67,66,69,72)        164.5615         estimate D2E/DX2                !
 ! D247  D(68,66,69,70)        -78.9385         estimate D2E/DX2                !
 ! D248  D(68,66,69,71)        167.9242         estimate D2E/DX2                !
 ! D249  D(68,66,69,72)         43.8483         estimate D2E/DX2                !
 ! D250  D(66,69,72,73)       -100.6428         estimate D2E/DX2                !
 ! D251  D(66,69,72,74)         13.9821         estimate D2E/DX2                !
 ! D252  D(66,69,72,75)        137.8136         estimate D2E/DX2                !
 ! D253  D(70,69,72,73)         21.1633         estimate D2E/DX2                !
 ! D254  D(70,69,72,74)        135.7883         estimate D2E/DX2                !
 ! D255  D(70,69,72,75)       -100.3802         estimate D2E/DX2                !
 ! D256  D(71,69,72,73)        137.6699         estimate D2E/DX2                !
 ! D257  D(71,69,72,74)       -107.7051         estimate D2E/DX2                !
 ! D258  D(71,69,72,75)         16.1264         estimate D2E/DX2                !
 ! D259  D(69,72,75,76)         53.6431         estimate D2E/DX2                !
 ! D260  D(69,72,75,77)        169.0162         estimate D2E/DX2                !
 ! D261  D(69,72,75,78)        -67.7231         estimate D2E/DX2                !
 ! D262  D(73,72,75,76)        -68.5252         estimate D2E/DX2                !
 ! D263  D(73,72,75,77)         46.848          estimate D2E/DX2                !
 ! D264  D(73,72,75,78)        170.1087         estimate D2E/DX2                !
 ! D265  D(74,72,75,76)        177.4503         estimate D2E/DX2                !
 ! D266  D(74,72,75,77)        -67.1766         estimate D2E/DX2                !
 ! D267  D(74,72,75,78)         56.0841         estimate D2E/DX2                !
 ! D268  D(72,75,78,79)       -179.7186         estimate D2E/DX2                !
 ! D269  D(72,75,78,80)         59.4807         estimate D2E/DX2                !
 ! D270  D(72,75,78,81)        -59.9279         estimate D2E/DX2                !
 ! D271  D(76,75,78,79)         57.353          estimate D2E/DX2                !
 ! D272  D(76,75,78,80)        -63.4477         estimate D2E/DX2                !
 ! D273  D(76,75,78,81)        177.1437         estimate D2E/DX2                !
 ! D274  D(77,75,78,79)        -56.2751         estimate D2E/DX2                !
 ! D275  D(77,75,78,80)       -177.0758         estimate D2E/DX2                !
 ! D276  D(77,75,78,81)         63.5156         estimate D2E/DX2                !
 ! D277  D(75,78,81,82)       -168.4084         estimate D2E/DX2                !
 ! D278  D(75,78,81,83)         69.7281         estimate D2E/DX2                !
 ! D279  D(75,78,81,84)        -48.3338         estimate D2E/DX2                !
 ! D280  D(79,78,81,82)        -46.4978         estimate D2E/DX2                !
 ! D281  D(79,78,81,83)       -168.3614         estimate D2E/DX2                !
 ! D282  D(79,78,81,84)         73.5767         estimate D2E/DX2                !
 ! D283  D(80,78,81,82)         67.874          estimate D2E/DX2                !
 ! D284  D(80,78,81,83)        -53.9896         estimate D2E/DX2                !
 ! D285  D(80,78,81,84)       -172.0515         estimate D2E/DX2                !
 ! D286  D(78,81,83,45)       -122.8            estimate D2E/DX2                !
 ! D287  D(82,81,83,45)        112.5251         estimate D2E/DX2                !
 ! D288  D(84,81,83,45)          0.4265         estimate D2E/DX2                !
 ! D289  D(78,81,84,62)        163.4005         estimate D2E/DX2                !
 ! D290  D(82,81,84,62)        -72.5639         estimate D2E/DX2                !
 ! D291  D(83,81,84,62)         41.0451         estimate D2E/DX2                !
 --------------------------------------------------------------------------------
 Trust Radius=3.00D-01 FncErr=1.00D-07 GrdErr=1.00D-06
 Number of steps in this run=    504 maximum allowed number of steps=    504.
 GradGradGradGradGradGradGradGradGradGradGradGradGradGradGradGradGradGrad

 Leave Link  103 at Wed Apr  6 15:55:05 2016, MaxMem= 10737418240 cpu:         0.5
 (Enter /share/apps//g09/l202.exe)
 Stoichiometry    C23H44NO16(1+)
 Framework group  C1[X(C23H44NO16)]
 Deg. of freedom   246
 Full point group                 C1      NOp   1
 Largest Abelian subgroup         C1      NOp   1
 Largest concise Abelian subgroup C1      NOp   1
                         Standard orientation:                         
 ---------------------------------------------------------------------
 Center     Atomic      Atomic             Coordinates (Angstroms)
 Number     Number       Type             X           Y           Z
 ---------------------------------------------------------------------
      1          8           0       -2.394879    2.744607   -1.139248
      2          6           0       -2.017099    1.463111   -1.567226
      3          6           0       -0.630815    1.460265   -2.225347
      4          6           0        0.397525    2.014561   -1.234485
      5          6           0       -0.026654    3.393564   -0.719941
      6          6           0       -1.476704    3.362555   -0.208929
      7          1           0       -2.793287    1.159649   -2.287347
      8          1           0       -0.674647    2.102094   -3.119511
      9          1           0        0.434902    1.324508   -0.379045
     10          1           0        0.616506    3.660283    0.136828
     11          1           0       -1.471705    2.789026    0.734652
     12          8           0        0.197202    4.306565   -1.802854
     13          8           0        1.712708    2.053663   -1.787326
     14          8           0       -0.269587    0.128310   -2.633943
     15          8           0       -1.939277    0.515313   -0.491261
     16          6           0       -2.048233    4.764694    0.013193
     17          1           0       -2.353531    5.170514   -0.966310
     18          1           0       -2.939338    4.702530    0.658279
     19          8           0       -1.016487    5.563831    0.614378
     20          1           0       -1.407580    6.410196    0.886590
     21          1           0        0.198350    5.201830   -1.416565
     22          1           0        1.760891    2.904759   -2.269422
     23          1           0       -1.012269   -0.474936   -2.363289
     24          8           0       -2.194104   -2.561060    0.732893
     25          6           0       -2.386825   -1.644782    1.833757
     26          6           0       -3.147397   -0.351751    1.382791
     27          6           0       -3.176043   -0.097243   -0.138618
     28          6           0       -3.434209   -1.399621   -0.995547
     29          6           0       -3.376446   -2.641166   -0.099018
     30          1           0       -3.023183   -2.148581    2.583201
     31          1           0       -2.653261    0.511214    1.854180
     32          1           0       -3.999972    0.613465   -0.301582
     33          1           0       -4.444245   -1.334038   -1.436268
     34          1           0       -4.275011   -2.647102    0.545242
     35          8           0       -2.464471   -1.460579   -2.055016
     36          8           0       -4.524965   -0.451579    1.777029
     37          8           0       -1.166210   -1.477256    2.497214
     38          6           0       -3.345954   -3.984195   -0.829100
     39          1           0       -3.281188   -4.795352   -0.087541
     40          1           0       -4.281786   -4.108743   -1.392058
     41          8           0       -2.286714   -4.100930   -1.800799
     42          1           0       -1.433618   -4.197414   -1.329793
     43          1           0       -2.358483   -2.417983   -2.290506
     44          1           0       -4.592065   -0.253948    2.726712
     45          8           0        2.199057   -1.231896    1.012750
     46          6           0        2.804932   -0.217227    1.860492
     47          6           0        1.770992    0.874227    2.145907
     48          6           0        0.436147    0.314857    2.651903
     49          6           0       -0.065504   -0.856409    1.801708
     50          6           0        1.078010   -1.884934    1.646217
     51          1           0        3.150201   -0.705900    2.794345
     52          1           0        1.601269    1.398435    1.189579
     53          1           0        0.585657   -0.062059    3.682816
     54          1           0        1.380786   -2.229251    2.655456
     55          1           0       -0.383455   -0.488771    0.812686
     56          8           0       -0.555046    1.344338    2.651943
     57          8           0        2.220943    1.786510    3.145358
     58          8           0        3.845477    0.367104    1.159664
     59          6           0        0.744119   -3.136180    0.839071
     60          1           0        1.664101   -3.724619    0.716000
     61          1           0        0.020348   -3.737304    1.410626
     62          8           0        0.243787   -2.859400   -0.477411
     63          1           0       -0.654635   -2.485554   -0.319613
     64          1           0       -0.217553    2.049488    3.234382
     65          1           0        2.966897    2.291333    2.774964
     66          6           0        5.134777   -0.311116    1.174792
     67          1           0        5.844186    0.382023    1.651445
     68          1           0        5.068645   -1.219829    1.795027
     69          6           0        5.573278   -0.631791   -0.249243
     70          1           0        6.663774   -0.781361   -0.243889
     71          1           0        5.403612    0.275943   -0.850218
     72          6           0        4.879062   -1.861459   -0.876472
     73          1           0        5.556913   -2.725815   -0.820923
     74          1           0        4.005493   -2.140740   -0.266988
     75          6           0        4.448977   -1.688593   -2.342457
     76          1           0        5.308039   -1.364541   -2.951880
     77          1           0        4.149745   -2.668325   -2.752686
     78          6           0        3.322792   -0.684557   -2.584029
     79          1           0        3.075293   -0.626362   -3.651919
     80          1           0        3.570748    0.329338   -2.246490
     81          7           0        2.063095   -1.052271   -1.859185
     82          1           0        1.223576   -0.476402   -2.172953
     83          1           0        2.158144   -0.940589   -0.827178
     84          1           0        1.789238   -2.036383   -1.988220
 ---------------------------------------------------------------------
 Rotational constants (GHZ):      0.1027038      0.0877284      0.0689914
 Leave Link  202 at Wed Apr  6 15:55:07 2016, MaxMem= 10737418240 cpu:         5.0
 (Enter /share/apps//g09/l301.exe)
 Standard basis: 6-311+G(d,p) (5D, 7F)
 Ernie: Thresh=  0.10000D-02 Tol=  0.10000D-05 Strict=F.
 There are  1184 symmetry adapted cartesian basis functions of A   symmetry.
 There are  1144 symmetry adapted basis functions of A   symmetry.
  1144 basis functions,  1792 primitive gaussians,  1184 cartesian basis functions
   158 alpha electrons      158 beta electrons
       nuclear repulsion energy      6073.4384727136 Hartrees.
 IExCor= 1009 DFT=T Ex+Corr=PBE1PBE ExCW=0 ScaHFX=  0.250000
 ScaDFX=  0.750000  0.750000  1.000000  1.000000 ScalE2=  1.000000  1.000000
 IRadAn=      0 IRanWt=     -1 IRanGd=            0 ICorTp=0 IEmpDi=131
 NAtoms=   84 NActive=   84 NUniq=   84 SFac= 1.00D+00 NAtFMM=   60 NAOKFM=T Big=T
 Integral buffers will be    131072 words long.
 Raffenetti 2 integral format.
 Two-electron integral symmetry is turned on.
 R6Disp:  Grimme-D3 Dispersion energy=       -0.0889060172 Hartrees.
 Nuclear repulsion after empirical dispersion term =     6073.3495666965 Hartrees.
 Leave Link  301 at Wed Apr  6 15:55:08 2016, MaxMem= 10737418240 cpu:         2.9
 (Enter /share/apps//g09/l302.exe)
 NPDir=0 NMtPBC=     1 NCelOv=     1 NCel=       1 NClECP=     1 NCelD=      1
         NCelK=      1 NCelE2=     1 NClLst=     1 CellRange=     0.0.
 One-electron integrals computed using PRISM.
 NBasis=  1144 RedAO= T EigKep=  1.01D-06  NBF=  1144
 NBsUse=  1144 1.00D-06 EigRej= -1.00D+00 NBFU=  1144
 Precomputing XC quadrature grid using
 IXCGrd= 4 IRadAn=           0 IRanWt=          -1 IRanGd=           0 AccXCQ= 0.00D+00.
 Generated NRdTot=       0 NPtTot=           0 NUsed=           0 NTot=          32
 NSgBfM=  1100  1100  1100  1102  1102 MxSgAt=    84 MxSgA2=    84.
 Leave Link  302 at Wed Apr  6 15:55:15 2016, MaxMem= 10737418240 cpu:        65.1
 (Enter /share/apps//g09/l303.exe)
 DipDrv:  MaxL=1.
 Leave Link  303 at Wed Apr  6 15:55:18 2016, MaxMem= 10737418240 cpu:        29.7
 (Enter /share/apps//g09/l401.exe)
 ExpMin= 4.38D-02 ExpMax= 8.59D+03 ExpMxC= 1.30D+03 IAcc=2 IRadAn=         4 AccDes= 0.00D+00
 Harris functional with IExCor= 1009 and IRadAn=       4 diagonalized for initial guess.
 HarFok:  IExCor= 1009 AccDes= 0.00D+00 IRadAn=         4 IDoV= 1 UseB2=F ITyADJ=14
 ICtDFT=  3500011 ScaDFX=  1.000000  1.000000  1.000000  1.000000
 FoFCou: FMM=F IPFlag=           0 FMFlag=      100000 FMFlg1=        2001
         NFxFlg=           0 DoJE=T BraDBF=F KetDBF=T FulRan=T
         wScrn=  0.000000 ICntrl=     500 IOpCl=  0 I1Cent=   200000004 NGrid=           0
         NMat0=    1 NMatS0=      1 NMatT0=    0 NMatD0=    1 NMtDS0=    0 NMtDT0=    0
 Petite list used in FoFCou.
 Harris En= -2159.70245325828    
 JPrj=0 DoOrth=F DoCkMO=F.
 Leave Link  401 at Wed Apr  6 15:55:24 2016, MaxMem= 10737418240 cpu:       126.0
 (Enter /share/apps//g09/l502.exe)
 Closed shell SCF:
 Using DIIS extrapolation, IDIIS=  1040.
 Integral symmetry usage will be decided dynamically.
 IVT=     4256630 IEndB=     4256630 NGot= 10737418240 MDV= 10734581291
 LenX= 10734581291 LenY= 10733178251
 Requested convergence on RMS density matrix=1.00D-08 within 128 cycles.
 Requested convergence on MAX density matrix=1.00D-06.
 Requested convergence on             energy=1.00D-06.
 No special actions if energy rises.
 Fock matrices will be formed incrementally for  20 cycles.

 Cycle   1  Pass 1  IDiag  1:
 FoFJK:  IHMeth= 1 ICntrl=       0 DoSepK=F KAlg= 0 I1Cent=   0 FoldK=F
 IRaf= 810000000 NMat=   1 IRICut=       1 DoRegI=T DoRafI=F ISym2E= 0.
 FoFCou: FMM=T IPFlag=           0 FMFlag=      100000 FMFlg1=        2001
         NFxFlg=           0 DoJE=F BraDBF=F KetDBF=F FulRan=T
         wScrn=  0.000000 ICntrl=       0 IOpCl=  0 I1Cent=           0 NGrid=           0
         NMat0=    1 NMatS0=      1 NMatT0=    0 NMatD0=    1 NMtDS0=    0 NMtDT0=    0
 Symmetry not used in FoFCou.
 FMM levels:  10  Number of levels for PrismC:   9
 E= -2158.69812763114    
 DIIS: error= 1.17D-02 at cycle   1 NSaved=   1.
 NSaved= 1 IEnMin= 1 EnMin= -2158.69812763114     IErMin= 1 ErrMin= 1.17D-02
 ErrMax= 1.17D-02  0.00D+00 EMaxC= 1.00D-01 BMatC= 1.02D+00 BMatP= 1.02D+00
 IDIUse=3 WtCom= 8.83D-01 WtEn= 1.17D-01
 Coeff-Com:  0.100D+01
 Coeff-En:   0.100D+01
 Coeff:      0.100D+01
 Gap=     0.286 Goal=   None    Shift=    0.000
 GapD=    0.286 DampG=1.000 DampE=0.500 DampFc=0.5000 IDamp=-1.
 Damping current iteration by 5.00D-01
 RMSDP=2.06D-02 MaxDP=8.80D+00              OVMax= 1.34D-01

 Cycle   2  Pass 1  IDiag  1:
 RMSU=  9.62D-03    CP:  1.06D+00
 E= -2158.97809980055     Delta-E=       -0.279972169408 Rises=F Damp=T
 DIIS: error= 2.85D-03 at cycle   2 NSaved=   2.
 NSaved= 2 IEnMin= 2 EnMin= -2158.97809980055     IErMin= 2 ErrMin= 2.85D-03
 ErrMax= 2.85D-03  0.00D+00 EMaxC= 1.00D-01 BMatC= 8.04D-02 BMatP= 1.02D+00
 IDIUse=3 WtCom= 9.71D-01 WtEn= 2.85D-02
 Coeff-Com:  0.584D-01 0.942D+00
 Coeff-En:   0.155D+00 0.845D+00
 Coeff:      0.611D-01 0.939D+00
 Gap=     0.309 Goal=   None    Shift=    0.000
 RMSDP=7.52D-03 MaxDP=2.09D+00 DE=-2.80D-01 OVMax= 8.05D-02

 Cycle   3  Pass 1  IDiag  1:
 RMSU=  4.05D-03    CP:  9.59D-01  8.41D-01
 E= -2159.34256015905     Delta-E=       -0.364460358498 Rises=F Damp=F
 DIIS: error= 2.95D-03 at cycle   3 NSaved=   3.
 NSaved= 3 IEnMin= 3 EnMin= -2159.34256015905     IErMin= 2 ErrMin= 2.85D-03
 ErrMax= 2.95D-03  0.00D+00 EMaxC= 1.00D-01 BMatC= 4.38D-02 BMatP= 8.04D-02
 IDIUse=3 WtCom= 9.70D-01 WtEn= 2.95D-02
 Coeff-Com: -0.686D-01 0.406D+00 0.662D+00
 Coeff-En:   0.000D+00 0.000D+00 0.100D+01
 Coeff:     -0.665D-01 0.394D+00 0.672D+00
 Gap=     0.290 Goal=   None    Shift=    0.000
 RMSDP=2.29D-03 MaxDP=8.51D-01 DE=-3.64D-01 OVMax= 1.64D-02

 Cycle   4  Pass 1  IDiag  1:
 RMSU=  1.59D-03    CP:  9.76D-01  9.70D-01  9.17D-01
 E= -2159.37006994554     Delta-E=       -0.027509786498 Rises=F Damp=F
 DIIS: error= 9.90D-04 at cycle   4 NSaved=   4.
 NSaved= 4 IEnMin= 4 EnMin= -2159.37006994554     IErMin= 4 ErrMin= 9.90D-04
 ErrMax= 9.90D-04  0.00D+00 EMaxC= 1.00D-01 BMatC= 5.55D-03 BMatP= 4.38D-02
 IDIUse=3 WtCom= 9.90D-01 WtEn= 9.90D-03
 Coeff-Com: -0.362D-01 0.125D+00 0.340D+00 0.571D+00
 Coeff-En:   0.000D+00 0.000D+00 0.627D-01 0.937D+00
 Coeff:     -0.359D-01 0.124D+00 0.337D+00 0.575D+00
 Gap=     0.279 Goal=   None    Shift=    0.000
 RMSDP=1.67D-03 MaxDP=5.71D-01 DE=-2.75D-02 OVMax= 6.08D-03

 Cycle   5  Pass 1  IDiag  1:
 RMSU=  4.62D-04    CP:  9.53D-01  9.22D-01  8.77D-01  5.70D-01
 E= -2159.37476592186     Delta-E=       -0.004695976317 Rises=F Damp=F
 DIIS: error= 3.32D-04 at cycle   5 NSaved=   5.
 NSaved= 5 IEnMin= 5 EnMin= -2159.37476592186     IErMin= 5 ErrMin= 3.32D-04
 ErrMax= 3.32D-04  0.00D+00 EMaxC= 1.00D-01 BMatC= 2.78D-04 BMatP= 5.55D-03
 IDIUse=3 WtCom= 9.97D-01 WtEn= 3.32D-03
 Coeff-Com: -0.115D-01 0.265D-01 0.102D+00 0.255D+00 0.628D+00
 Coeff-En:   0.000D+00 0.000D+00 0.000D+00 0.000D+00 0.100D+01
 Coeff:     -0.115D-01 0.264D-01 0.102D+00 0.254D+00 0.629D+00
 Gap=     0.279 Goal=   None    Shift=    0.000
 RMSDP=3.23D-04 MaxDP=1.05D-01 DE=-4.70D-03 OVMax= 1.56D-03

 Cycle   6  Pass 1  IDiag  1:
 RMSU=  1.18D-04    CP:  9.57D-01  9.34D-01  9.02D-01  5.95D-01  7.05D-01
 E= -2159.37497705038     Delta-E=       -0.000211128521 Rises=F Damp=F
 DIIS: error= 7.49D-05 at cycle   6 NSaved=   6.
 NSaved= 6 IEnMin= 6 EnMin= -2159.37497705038     IErMin= 6 ErrMin= 7.49D-05
 ErrMax= 7.49D-05  0.00D+00 EMaxC= 1.00D-01 BMatC= 2.35D-05 BMatP= 2.78D-04
 IDIUse=1 WtCom= 1.00D+00 WtEn= 0.00D+00
 Coeff-Com: -0.402D-02 0.725D-02 0.353D-01 0.102D+00 0.321D+00 0.539D+00
 Coeff:     -0.402D-02 0.725D-02 0.353D-01 0.102D+00 0.321D+00 0.539D+00
 Gap=     0.279 Goal=   None    Shift=    0.000
 RMSDP=5.47D-05 MaxDP=1.20D-02 DE=-2.11D-04 OVMax= 4.96D-04

 Cycle   7  Pass 1  IDiag  1:
 RMSU=  2.90D-05    CP:  9.57D-01  9.35D-01  9.03D-01  6.03D-01  7.27D-01
                    CP:  7.21D-01
[...]
 6,0.00000145,-0.00001103,-0.00000675,0.00001558,-0.00002348,-0.0000174
 2,0.00003850,-0.00002555,-0.00000300,0.00004011,-0.00031612,-0.0000204
 6,0.00003006,-0.00006859,-0.00007390,-0.00006582,0.00010841,-0.0002505
 1,-0.00009830,-0.00002517,0.00013754,-0.00001258,0.00000500,-0.0000212
 4,0.00002287,-0.00001276,-0.00001448,0.00027463,-0.00010578,-0.0000138
 7,-0.00035953,0.00003874,-0.00010430,-0.00004271,0.00015512,-0.0000384
 5,-0.00000400,0.00001848,0.00003548,-0.00922502,0.00044969,-0.00177659
 ,0.00384864,0.00348785,-0.00336334,-0.00008911,0.00040177,-0.00017203,
 0.00035463,0.00007446,0.00009773,-0.00005413,-0.00038665,0.00039714,0.
 00048407,-0.00252789,0.00235999,-0.00069943,-0.00023251,-0.00034820,0.
 00001280,-0.00036045,-0.00015737,-0.00008867,-0.00001324,-0.00001813,-
 0.00045589,0.00009927,0.00002680,-0.00023298,0.00036604,0.00019166,-0.
 00023701,-0.00005490,-0.00004878,-0.00021959,-0.00016152,0.00010719,0.
 00044844,-0.00163662,0.00222145,-0.00062045,-0.00249233,0.00133634,-0.
 00009541,0.00000388,-0.00009833,0.00005952,0.00025844,-0.00023770,0.00
 248889,0.00103640,-0.00040609,-0.00055592,0.00063565,0.00033246,0.0000
 5116,-0.00000622,-0.00004019,-0.00002392,-0.00003309,-0.00015430,-0.00
 064741,0.00086415,0.00038331,0.00012413,-0.00012221,-0.00002847,0.0000
 2266,-0.00014736,-0.00007147,-0.00031194,0.00001778,-0.00004499,0.0000
 5666,-0.00007506,-0.00001001,-0.00008404,-0.00002397,0.00003795,-0.000
 34780,0.00012565,-0.00001484,0.00032208,0.00001414,-0.00031339,0.00049
 236,0.00117798,0.00051168,0.00001661,-0.00028621,0.00033761,0.00005058
 ,0.00016063,-0.00021064,-0.00006554,-0.00001240,-0.00008021,0.00205484
 ,-0.02472509,0.02403936,-0.00580453,0.00005788,0.00258638,0.00062548,-
 0.00055141,-0.00024490,-0.06056191,0.00649586,-0.00739066,-0.00038062,
 0.00587589,-0.01096126,0.07050766,-0.00012551,-0.00004269,0.00041492,0
 .00052271,0.00031677,-0.00058113,-0.00044468,-0.00086932,-0.00082605,0
 .00076081,-0.00046159,-0.00056157,-0.00007163,0.00002353,-0.00025473,0
 .00010840,0.00021139,-0.00015714,-0.00003212,-0.00004333,0.00003806,0.
 00004239,0.00009151,0.00011729,0.00004886,0.00006906,-0.00035997,0.000
 07214,0.00002607,0.00004364,-0.00002579,0.00001137,0.00004053,0.000009
 73,0.00015571,0.00032967,0.00021786,0.00070414,0.00081577,-0.00101497,
 0.00184117,0.00030495,-0.00053704,-0.00052579,0.00047074,-0.00009045,-
 0.00002516,-0.00005485,0.00000929,-0.00002436,-0.00000433,-0.00000158,
 0.00002883,0.00004156,0.00004555,-0.00002312,0.00015368,-0.00001396,0.
 00002039,-0.00003826,-0.00004085,-0.00000724,-0.00005855,-0.00021846,-
 0.00003779,0.00007457,0.00104657,0.00004610,-0.00025913,0.00044947,-0.
 00048809,0.00032771,-0.00098993,0.00073039,-0.00040469,-0.00001072,0.0
 0011839,0.00005784,0.00036375,0.00013935,-0.00017315,0.00011312,0.0000
 3373,-0.00032100,-0.00030502,0.00036716,-0.00007911,0.00010223,-0.0000
 6341,0.00001673,-0.00002102,0.00004842,0.00001264,-0.00003152,-0.00002
 425,0.00002442,-0.00004188,-0.00003400,0.00004968,0.00002359,-0.000058
 52,0.00000371,-0.00049501,-0.00027670,0.00041074,0.00006631,-0.0002191
 5,-0.00002526,0.00155274,-0.00103691,-0.00071455,0.00008912,-0.0000346
 6,-0.00008986,-0.00004481,-0.00002463,0.00000070,0.00002187,-0.0000009
 1,0.00002816,-0.00008300,-0.00015222,0.00011769,-0.00006697,0.00010759
 ,-0.00010180,0.00012800,0.00019693,-0.00001588,-0.00002566,0.00004299,
 0.00004182,-0.00005301,-0.00326234,-0.00552467,0.00948300,0.00220065,0
 .00245888,-0.00043201,0.00183268,0.00007602,-0.00007884,0.00044330,0.0
 0067630,-0.00022547,0.00154435,0.00046913,-0.00742231,0.00058763,0.000
 86540,-0.00122975,0.00008752,-0.00116875,-0.00015866,-0.00039100,-0.00
 034656,-0.00001759,-0.00011415,0.00011830,0.00145329,0.00039024,-0.000
 90776,0.00022133,-0.00008615,-0.00019899,0.00005020,-0.00080261,-0.000
 52718,-0.00045145,-0.00115703,-0.00095360,-0.00235000,-0.00040006,0.00
 107201,-0.00133455,0.00118335,-0.00091921,-0.00014999,-0.00030553,-0.0
 0017024,0.00032281,-0.00029378,0.00032653,-0.00020538,-0.00266123,0.00
 084701,0.00031633,0.00048437,-0.00006614,-0.00000187,0.00010123,0.0000
 4825,0.00013418,0.00031669,0.00006291,0.00112763,-0.00097549,-0.000665
 23,-0.00016136,0.00007385,0.00008479,-0.00002036,-0.00014438,0.0000582
 8,0.00007613,0.00008015,0.00013043,-0.00009908,-0.00010776,0.00010702,
 -0.00027812,-0.00006434,-0.00004191,0.00108256,0.00089108,-0.00047256,
 -0.00041480,-0.00022770,0.00040005,0.00014939,-0.00177653,-0.00079360,
 0.00064978,0.00166957,-0.00083720,0.00021836,-0.00075192,-0.00009198,0
 .00004834,-0.00011140,0.00021863,-0.00689894,0.00015037,0.00036085,0.0
 0110154,0.00072851,-0.00093560,0.00024969,0.00027909,0.00000266,0.0097
 8119,-0.19931915,0.15171871,0.00203027,-0.01941266,0.02160873,-0.00817
 552,0.20684967,0.00006200,0.00007664,-0.00054121,-0.00060074,-0.000498
 47,0.00047101,0.00118866,0.00078185,0.00102030,-0.00055277,-0.00054964
 ,0.00075953,-0.00002161,-0.00010263,-0.00003922,0.00007630,-0.00023457
 ,0.00019351,-0.00002008,0.00007344,-0.00001019,-0.00010779,-0.00005435
 ,-0.00015880,0.00022305,-0.00007728,-0.00020014,-0.00009124,-0.0000367
 4,-0.00008284,0.00003224,-0.00000744,-0.00006164,0.00010074,0.00018942
 ,-0.00015239,0.00011588,0.00012360,-0.00113853,0.00195970,-0.00254796,
 -0.00250923,0.00027093,0.00057551,-0.00045787,0.00004224,0.00000147,0.
 00001784,0.00000158,0.00003269,0.00000202,0.00000072,-0.00001692,-0.00
 001357,-0.00001779,0.00005621,-0.00008723,-0.00000986,-0.00002695,0.00
 001794,0.00000352,0.00000298,0.00001797,0.00002287,0.00014102,0.000188
 47,-0.00072578,-0.00047037,0.00021141,-0.00056104,0.00044485,-0.000651
 05,0.00145282,-0.00085470,0.00063505,0.00007939,-0.00012111,-0.0001393
 9,-0.00013754,-0.00004987,0.00017087,-0.00012230,-0.00001681,0.0003818
 9,0.00034891,-0.00037588,0.00004517,-0.00015330,0.00008079,-0.00003664
 ,0.00003414,-0.00006631,-0.00004267,-0.00000718,0.00002960,-0.00002417
 ,0.00003460,0.00003458,-0.00006359,-0.00001495,0.00005781,0.00000415,0
 .00045082,0.00020632,-0.00054116,-0.00017192,0.00021285,0.00008145,-0.
 00198612,0.00064968,0.00087925,-0.00012305,0.00006326,0.00020121,0.000
 04106,0.00001631,-0.00001046,-0.00001642,-0.00000120,-0.00004002,0.000
 12473,0.00006412,-0.00023554,0.00000665,-0.00006850,0.00014791,-0.0000
 9557,-0.00010768,0.00007716,0.00004769,-0.00003793,-0.00005802,-0.0014
 2261,-0.00464887,0.00318509,-0.01000088,0.00019918,-0.00423443,-0.0000
 5440,-0.00011004,-0.00106208,0.00026888,-0.00060715,-0.00101928,0.0004
 7065,-0.00032465,-0.00102841,0.00821739,0.00009721,-0.00196503,0.00132
 817,-0.00034793,0.00119669,-0.00013422,-0.00057359,0.00011172,-0.00003
 812,0.00005698,0.00004568,-0.00162118,-0.00059253,0.00102939,0.0000865
 0,-0.00037977,0.00017311,-0.00017179,0.00078634,0.00072258,0.00087898,
 0.00039838,0.00136818,0.00341384,-0.00054655,-0.00226177,0.00083952,-0
 .00102969,0.00197647,0.00000590,-0.00005520,0.00000097,-0.00027640,0.0
 0021747,-0.00048075,0.00048224,0.00136783,-0.00215976,0.00031354,0.000
 02950,0.00018719,0.00000075,-0.00011092,-0.00013451,-0.00030394,-0.000
 17129,-0.00003750,-0.00136979,0.00127233,0.00182734,0.00018693,-0.0002
 2018,-0.00032208,0.00007830,-0.00005175,-0.00000862,0.00015041,-0.0000
 6792,0.00027627,-0.00015398,0.00008637,-0.00029042,0.00000407,0.000032
 90,-0.00002652,0.00075069,0.00023686,-0.00008052,-0.00044692,0.0002216
 1,0.00006194,-0.00006580,-0.00116586,0.00084519,-0.00019378,-0.0003296
 7,-0.00117426,-0.00022798,0.00027380,0.00040912,0.00006018,0.00014211,
 -0.00024078,0.00542126,0.00536735,-0.00807120,-0.00034454,-0.00064538,
 0.00113965,-0.00161295,-0.00043335,0.00147549,-0.00928015,0.14592329,-
 0.22067164,-0.00374055,-0.00539193,0.01797812,0.00956729,-0.15333628,0
 .23100304,-0.00014578,-0.00006029,-0.00004818,0.00021731,0.00022434,-0
 .00006593,0.00005029,-0.00018825,0.00000425,0.00035072,-0.00025650,-0.
 00031314,-0.00002570,0.00000668,-0.00004424,0.00012613,0.00001340,0.00
 002663,-0.00002477,0.00000992,0.00001440,-0.00001481,-0.00002156,-0.00
 002208,0.00003564,0.00002321,-0.00006571,-0.00000454,-0.00000462,-0.00
 001156,-0.00000152,0.00000385,0.00000302,-0.00003707,0.00006445,0.0000
 8388,0.00019140,0.00045688,0.00037494,-0.00178326,0.00046386,-0.000255
 29,-0.00027099,-0.00021142,0.00002490,0.00000147,-0.00000175,0.0000080
 5,0.00000229,-0.00000040,-0.00000317,-0.00000243,0.00000882,0.00001507
 ,-0.00003013,-0.00000050,0.00000790,0.00000024,0.00000255,-0.00000499,
 0.00000258,-0.00000657,-0.00001569,-0.00005510,-0.00000184,0.00010180,
 0.00029550,0.00072713,0.00038343,0.00008991,-0.00004458,-0.00048155,0.
 00027488,-0.00005373,0.00041424,-0.00003721,0.00002834,-0.00000008,0.0
 0019814,0.00006954,0.00003616,-0.00013425,0.00001106,0.00025259,-0.000
 05276,0.00007720,-0.00006937,-0.00001752,0.00000878,-0.00005510,0.0000
 1215,-0.00000880,-0.00002429,-0.00002231,-0.00000542,-0.00001295,0.000
 03487,-0.00001195,-0.00004652,0.00002280,-0.00000499,-0.00000988,0.000
 06666,-0.00034128,-0.00037177,-0.00001096,-0.00004707,-0.00005482,-0.0
 0030659,0.00000722,-0.00002613,-0.00017347,0.00001511,0.00030293,0.000
 00829,0.00001120,-0.00004895,0.00002547,-0.00001778,-0.00003095,0.0003
 6755,-0.00008353,-0.00028681,-0.00036774,-0.00006874,0.00010990,-0.000
 19697,0.00021887,0.00017374,0.00000044,0.00001486,0.00002716,-0.000793
 36,-0.00083327,0.00072913,0.00012824,0.00013421,-0.00022740,0.00003018
 ,0.00008705,-0.00012278,0.00018446,0.00001519,-0.00004362,-0.00001102,
 0.00004839,0.00000993,0.00096377,0.00032957,-0.00019188,0.00002620,-0.
 00005958,0.00005010,-0.00002321,-0.00005165,-0.00003003,-0.00002503,-0
 .00001131,0.00000371,-0.00022254,-0.00004230,-0.00001576,0.00006253,0.
 00005476,0.00005015,-0.00014844,-0.00002209,0.00002198,-0.00003873,-0.
 00001044,0.00011313,-0.00021575,-0.00001755,0.00031423,0.00103623,-0.0
 0180725,0.00051091,-0.00003598,0.00008893,0.00002128,-0.00008921,0.000
 39502,-0.00029916,-0.00108369,0.00101434,-0.00110050,-0.00033677,0.000
 65967,0.00021440,0.00003293,-0.00000465,-0.00003298,-0.00001619,-0.000
 01077,-0.00003905,0.00014376,-0.00006849,-0.00016893,0.00000642,0.0000
 0823,0.00009018,-0.00001696,0.00001304,-0.00001704,-0.00015474,-0.0002
 2870,-0.00006437,0.00011445,0.00001700,0.00007234,0.00008425,0.0000245
 6,0.00000273,-0.00010884,0.00042790,0.00004165,0.00015795,-0.00005286,
 -0.00006221,0.00001354,0.00032836,-0.00018095,0.00171930,0.00026389,-0
 .00136491,0.00081068,-0.00059352,-0.00006236,-0.00012823,0.00085344,0.
 00150323,-0.02256101,-0.00860972,-0.02047632,0.00055982,-0.00029131,-0
 .00005117,-0.00381508,-0.00117032,0.00386458,-0.21778821,-0.07679442,-
 0.16279674,0.01151753,0.00130365,0.00825036,-0.00068672,0.00060106,-0.
 00224973,0.23204862,-0.00003236,0.00003634,0.00029879,0.00030431,0.000
 14451,-0.00016432,-0.00077175,-0.00028306,-0.00049371,-0.00026664,0.00
 024011,0.00024332,0.00006806,-0.00005339,-0.00003199,-0.00008299,0.000
 04616,-0.00010936,0.00001893,-0.00002186,-0.00000709,0.00003285,0.0000
 7811,0.00007514,0.00001446,-0.00002505,-0.00001485,0.00002313,0.000017
 41,0.00003275,0.00000309,-0.00000362,0.00001469,0.00004304,-0.00000037
 ,0.00002104,-0.00018314,-0.00044515,-0.00018560,0.00147902,0.00079684,
 0.00169900,-0.00016667,-0.00014511,0.00018202,-0.00001070,-0.00001224,
 -0.00002830,0.00000044,-0.00000648,-0.00000103,-0.00000066,0.00000012,
 0.00000329,0.00003064,0.00000255,0.00004713,-0.00000338,0.00000259,-0.
 00001048,-0.00000743,-0.00000536,-0.00000628,-0.00004181,0.00003710,-0
 .00017942,0.00056749,-0.00033372,-0.00052284,0.00018606,-0.00016341,-0
 .00016958,-0.00003529,0.00011284,0.00010750,-0.00000826,0.00004554,-0.
 00001269,0.00012024,0.00003289,-0.00004887,0.00005938,0.00004548,-0.00
 018943,-0.00013378,0.00016266,-0.00003683,-0.00000011,-0.00000562,-0.0
 0002071,-0.00000412,-0.00000185,-0.00000113,-0.00000873,-0.00000411,0.
 00000507,-0.00002855,-0.00001298,0.00003082,0.00001894,-0.00003969,0.0
 0000594,-0.00027344,-0.00020300,0.00031277,-0.00000811,-0.00005796,0.0
 0001082,0.00005505,-0.00010953,-0.00005907,0.00000408,-0.00001229,0.00
 003445,-0.00001902,-0.00001101,0.00000064,0.00001751,-0.00000111,-0.00
 000320,0.00001646,-0.00015361,-0.00000149,-0.00015837,0.00010631,-0.00
 000490,0.00015381,0.00018213,-0.00005534,-0.00000104,0.00001189,0.0000
 0720,-0.00100593,-0.00133739,0.00026675,0.00015888,0.00025128,-0.00024
 092,-0.00000464,0.00015846,-0.00006594,0.00006936,0.00003927,0.0000303
 1,-0.00012885,0.00011326,0.00000709,0.00037649,-0.00011109,0.00020562,
 -0.00000438,-0.00004576,0.00001370,-0.00001759,-0.00005753,-0.00001471
 ,-0.00000816,-0.00001690,0.00000963,-0.00011332,-0.00002971,0.00003042
 ,0.00002723,0.00003968,0.00000623,-0.00003483,-0.00010439,-0.00005878,
 -0.00001055,-0.00009630,-0.00001550,0.00017148,-0.00026966,0.00000233,
 -0.00023565,-0.00036635,0.00075243,-0.00007334,-0.00029331,0.00002099,
 0.00002230,-0.00000554,-0.00011901,0.00057576,-0.00165894,-0.00056585,
 0.00017752,0.00087984,-0.00029929,0.00000536,0.00001123,-0.00000889,-0
 .00000811,0.00003188,0.00000304,-0.00015237,0.00018369,0.00022058,0.00
 000398,-0.00003289,-0.00006181,0.00001660,-0.00005050,0.00002683,-0.00
 006864,0.00005749,0.00017718,-0.00008885,-0.00001808,-0.00007238,-0.00
 014006,-0.00002922,-0.00004042,0.00042748,0.00018767,-0.00039881,-0.00
 009141,-0.00005761,0.00001930,-0.00013888,-0.00036603,0.00050453,0.001
 76146,0.00067423,0.00100714,-0.00015824,-0.00033721,-0.00019944,-0.000
 35899,0.00043234,-0.00037944,-0.00164336,-0.00139650,-0.00071807,-0.00
 074164,-0.00068784,-0.00024648,0.00066255,0.00009971,0.00017009,-0.078
 16452,-0.09326904,-0.07834460,-0.02440128,-0.00756883,-0.02246352,0.01
 938029,0.01161372,0.01683928,0.08298622,0.09344284,0.00004029,0.000088
 46,0.00012974,-0.00000020,-0.00014782,-0.00000878,-0.00027655,-0.00006
 589,-0.00026756,-0.00016502,0.00012869,0.00012523,-0.00000283,-0.00005
 788,0.00001509,-0.00006078,-0.00000453,-0.00003791,0.00000392,0.000002
 93,-0.00000324,0.00003377,0.00005689,0.00005628,-0.00003190,-0.0000055
 7,0.00002402,0.00000765,0.00000916,0.00000501,0.00000532,-0.00000281,-
 0.00000243,0.00004582,0.00003695,-0.00002283,-0.00008401,-0.00017615,0
 .00001307,0.00047615,0.00063344,0.00045696,0.00003758,0.00014871,0.000
 03108,-0.00001262,-0.00001806,-0.00001859,0.00000212,0.00000307,-0.000
 00073,0.00000071,-0.00000334,-0.00000032,0.00002919,0.00001833,0.00002
 197,-0.00000611,-0.00000618,-0.00000354,-0.00000703,-0.00001218,0.0000
 0199,0.00003074,-0.00003507,-0.00007293,0.00021420,-0.00046419,-0.0000
 4321,-0.00025444,0.00009807,0.00029058,0.00000607,-0.00004880,-0.00020
 585,0.00004343,-0.00003205,-0.00004109,-0.00000029,-0.00002600,-0.0000
 2470,0.00004798,-0.00001812,-0.00010953,0.00017743,-0.00013549,0.00006
 416,-0.00000850,-0.00000366,0.00003918,-0.00000585,0.00000487,0.000001
 98,-0.00000148,0.00000989,0.00000323,-0.00002533,0.00002267,0.00002719
 ,-0.00003599,0.00001698,0.00000083,-0.00018467,0.00023208,0.00003422,-
 0.00004885,0.00004327,0.00006752,-0.00003715,0.00004598,0.00012548,0.0
 0004922,0.00002803,-0.00002290,0.00001441,-0.00000459,0.00000574,-0.00
 001321,0.00001010,0.00000574,-0.00019981,0.00001565,-0.00012394,0.0002
 7764,-0.00000376,0.00018052,0.00009644,-0.00008413,0.00012437,0.000009
 19,-0.00001211,-0.00002737,0.00114055,0.00077614,0.00012429,-0.0006116
 4,-0.00025588,0.00012405,-0.00001417,-0.00015555,0.00003619,-0.0001165
 5,-0.00005374,-0.00004498,0.00007164,-0.00002512,-0.00011159,-0.000237
 75,0.00006233,-0.00017741,0.00004433,0.00002438,0.00004831,0.00002097,
 0.00004516,0.00002423,0.00002136,0.00000969,0.00000525,0.00013272,-0.0
 0000779,0.00005141,-0.00003270,-0.00008477,-0.00007397,0.00007626,0.00
 007332,0.00006645,0.00009459,0.00007268,0.00003817,0.00022791,-0.00001
 401,-0.00018479,-0.00053496,0.00150374,-0.00076562,0.00010925,-0.00003
 448,0.00004971,0.00001112,-0.00035032,0.00026436,-0.00167931,-0.001205
 00,0.00104959,0.00031367,-0.00053835,-0.00021360,-0.00001806,-0.000000
 66,-0.00000229,-0.00001339,-0.00000635,0.00000034,-0.00022253,0.000115
 21,0.00005112,0.00002237,0.00000834,-0.00004683,-0.00000313,0.00000268
 ,0.00001143,0.00026530,0.00022741,-0.00012679,-0.00001703,-0.00001460,
 -0.00001823,-0.00003427,-0.00006299,0.00000852,-0.00042481,-0.00039530
 ,-0.00007086,0.00008049,-0.00007955,-0.00003876,0.00000111,0.00024802,
 -0.00006148,0.00137867,0.00052213,0.00325982,-0.00029265,0.00001216,-0
 .00034145,-0.00094157,-0.00001475,-0.00121061,0.01059064,0.00572896,0.
 01519590,0.00015511,0.00039565,0.00008535,0.00378422,0.00032697,-0.001
 16643,-0.15921201,-0.07524894,-0.21766846,-0.00922920,-0.00250952,-0.0
 0945609,-0.01883127,-0.01260966,-0.01797223,0.17373804,0.08322655,0.22
 844424\\-0.00000585,0.00000483,-0.00000776,-0.00000308,0.00000726,0.00
 001066,0.00001679,-0.00000542,0.00002445,-0.00001117,0.00000527,-0.000
 01497,0.00000496,0.00001404,0.00000947,0.00000908,0.00000042,0.0000075
 8,0.00000235,0.00000033,0.00000069,-0.00000909,0.00000237,-0.00000190,
 -0.00000083,-0.00000219,-0.00000541,0.00000046,-0.00000125,-0.00000293
 ,0.00000404,-0.00000175,-0.00000136,-0.00001106,-0.00000393,0.00000061
 ,0.00000364,-0.00001028,0.00000669,0.00001953,-0.00002110,-0.00002689,
 0.00000147,-0.00001503,-0.00000299,0.00002215,-0.00001042,0.00000023,-
 0.00000205,0.00000399,0.00000123,-0.00000377,0.00000161,0.00000047,-0.
 00000700,-0.00000264,-0.00000936,0.00000390,0.00000223,0.00000204,0.00
 000093,-0.00000266,-0.00000209,-0.00000192,0.00000787,-0.00000687,-0.0
 0002901,0.00000410,0.00000610,-0.00000913,-0.00003821,0.00001691,-0.00
 000376,0.00001075,0.00000473,0.00000218,0.00000674,0.00000023,0.000018
 42,0.00000817,0.00001420,-0.00004889,-0.00001275,0.00001608,0.00000850
 ,0.00001520,0.00000749,0.00000226,-0.00000170,0.00000105,0.00000176,-0
 .00000410,0.00000122,0.00000074,-0.00000110,0.00000098,-0.00000014,-0.
 00000437,-0.00000044,0.00000234,-0.00000033,0.00000436,0.00006157,-0.0
 0001018,-0.00001144,-0.00000045,0.00000341,0.00000057,0.00001589,-0.00
 000356,0.00000288,0.00001128,0.00000117,-0.00000581,-0.00000288,-0.000
 00303,0.00000246,-0.00000394,-0.00000017,0.00000938,-0.00001714,0.0000
 0198,0.00000237,0.00000528,-0.00000331,0.00000646,-0.00002292,0.000000
 16,0.00001106,0.00000618,-0.00000509,0.00000647,0.00001102,-0.00003342
 ,-0.00003211,-0.00003885,-0.00000793,0.00001545,0.00001179,-0.00001012
 ,0.00000162,0.00000470,-0.00000974,-0.00000537,-0.00000894,-0.00000408
 ,-0.00000331,-0.00000090,-0.00000816,0.00000839,0.00000441,0.00000177,
 -0.00000731,-0.00000168,0.00000451,-0.00000074,0.00000226,0.00000337,-
 0.00000022,0.00000122,0.00000120,-0.00000327,0.00000490,0.00000133,-0.
 00000010,-0.00000461,0.00000650,0.00000495,-0.00000504,0.00000562,-0.0
 0000092,0.00003107,0.00000997,-0.00003027,-0.00000018,0.00002553,-0.00
 001127,-0.00000299,-0.00000366,-0.00000187,0.00000245,-0.00000467,0.00
 000315,-0.00000742,-0.00002836,0.00002819,-0.00000074,0.00003604,-0.00
 002420,0.00001182,0.00000058,0.00000104,0.00000932,-0.00000139,-0.0000
 0911,-0.00001119,0.00001174,0.00000891,0.00000154,-0.00000361,-0.00000
 466,0.00000068,-0.00000257,-0.00000697,0.00000153,0.00000490,-0.000007
 11,-0.00000318,0.00000022,-0.00000425,-0.00000276,0.00000117,-0.000006
 25,0.00000293,0.00001049,-0.00000553,-0.00000267,0.00000345,-0.0000076
 7,-0.00000581,-0.00000498,-0.00000433,-0.00001301,-0.00000898,0.000010
 56,-0.00000129,0.00000647,-0.00000369,-0.00000286,0.00000065,-0.000004
 10,-0.00000589,-0.00000089,-0.00000085,-0.00000583,-0.00000099,-0.0000
 0661,0.00000193,0.00000430,-0.00000595,0.00002815,-0.00007006,-0.00006
 543,-0.00002557,0.00003575,0.00001952,-0.00000417,0.00008704,0.0000757
 3,-0.00000780,0.00000366,0.00000702\\\@


 IT IS DOUBTED WHETHER A MAN EVER BRINGS HIS FACULTIES TO BEAR WITH THEIR FULL FORCE
 ON A SUBJECT UNTIL HE WRITES UPON IT.

                          -- CICERO
 Job cpu time:      24 days 17 hours 37 minutes 17.0 seconds.
 File lengths (MBytes):  RWF=  24052 Int=      0 D2E=      0 Chk=    103 Scr=      1
 Normal termination of Gaussian 09 at Sat Apr  9 16:03:31 2016.
