 Entering Gaussian System, Link 0=g09
 Initial command:
 /share/apps//g09/l1.exe "/scratch/Gau-8110.inp" -scrdir="/scratch/"
 Entering Link 1 = /share/apps//g09/l1.exe PID=      8111.
  
 Copyright (c) 1988,1990,1992,1993,1995,1998,2003,2009,2013,
            Gaussian, Inc.  All Rights Reserved.
  
 This is part of the Gaussian(R) 09 program.  It is based on
 the Gaussian(R) 03 system (copyright 2003, Gaussian, Inc.),
 the Gaussian(R) 98 system (copyright 1998, Gaussian, Inc.),
 the Gaussian(R) 94 system (copyright 1995, Gaussian, Inc.),
 the Gaussian 92(TM) system (copyright 1992, Gaussian, Inc.),
 the Gaussian 90(TM) system (copyright 1990, Gaussian, Inc.),
 the Gaussian 88(TM) system (copyright 1988, Gaussian, Inc.),
 the Gaussian 86(TM) system (copyright 1986, Carnegie Mellon
 University), and the Gaussian 82(TM) system (copyright 1983,
 Carnegie Mellon University). Gaussian is a federally registered
 trademark of Gaussian, Inc.
  
 This software contains proprietary and confidential information,
 including trade secrets, belonging to Gaussian, Inc.
  
 This software is provided under written license and may be
 used, copied, transmitted, or stored only in accord with that
 written license.
  
 The following legend is applicable only to US Government
 contracts under FAR:
  
                    RESTRICTED RIGHTS LEGEND
  
 Use, reproduction and disclosure by the US Government is
 subject to restrictions as set forth in subparagraphs (a)
 and (c) of the Commercial Computer Software - Restricted
 Rights clause in FAR 52.227-19.
  
 Gaussian, Inc.
 340 Quinnipiac St., Bldg. 40, Wallingford CT 06492
  
  
 ---------------------------------------------------------------
 Warning -- This program may not be used in any manner that
 competes with the business of Gaussian, Inc. or will provide
 assistance to any competitor of Gaussian, Inc.  The licensee
 of this program is prohibited from giving any competitor of
 Gaussian, Inc. access to this program.  By using this program,
 the user acknowledges that Gaussian, Inc. is engaged in the
 business of creating and licensing software in the field of
 computational chemistry and represents and warrants to the
 licensee that it is not a competitor of Gaussian, Inc. and that
 it will not use this program in any manner prohibited above.
 ---------------------------------------------------------------
  

 Cite this work as:
 Gaussian 09, Revision D.01,
 M. J. Frisch, G. W. Trucks, H. B. Schlegel, G. E. Scuseria, 
 M. A. Robb, J. R. Cheeseman, G. Scalmani, V. Barone, B. Mennucci, 
 G. A. Petersson, H. Nakatsuji, M. Caricato, X. Li, H. P. Hratchian, 
 A. F. Izmaylov, J. Bloino, G. Zheng, J. L. Sonnenberg, M. Hada, 
 M. Ehara, K. Toyota, R. Fukuda, J. Hasegawa, M. Ishida, T. Nakajima, 
 Y. Honda, O. Kitao, H. Nakai, T. Vreven, J. A. Montgomery, Jr., 
 J. E. Peralta, F. Ogliaro, M. Bearpark, J. J. Heyd, E. Brothers, 
 K. N. Kudin, V. N. Staroverov, T. Keith, R. Kobayashi, J. Normand, 
 K. Raghavachari, A. Rendell, J. C. Burant, S. S. Iyengar, J. Tomasi, 
 M. Cossi, N. Rega, J. M. Millam, M. Klene, J. E. Knox, J. B. Cross, 
 V. Bakken, C. Adamo, J. Jaramillo, R. Gomperts, R. E. Stratmann, 
 O. Yazyev, A. J. Austin, R. Cammi, C. Pomelli, J. W. Ochterski, 
 R. L. Martin, K. Morokuma, V. G. Zakrzewski, G. A. Voth, 
 P. Salvador, J. J. Dannenberg, S. Dapprich, A. D. Daniels, 
 O. Farkas, J. B. Foresman, J. V. Ortiz, J. Cioslowski, 
 and D. J. Fox, Gaussian, Inc., Wallingford CT, 2013.
 
 ******************************************
 Gaussian 09:  EM64L-G09RevD.01 24-Apr-2013
                30-Apr-2016 
 ******************************************
 %nproc=20
 Will use up to   20 processors via shared memory.
 %mem=80GB
 %chk=Tri_A131_of.chk
 ----------------------------------------------------------------------
 #P PBE1PBE/6-311+G(d,p) opt=ModRedundant freq optcyc=999 EmpiricalDisp
 ersion=GD3
 ----------------------------------------------------------------------
 1/6=999,14=-1,18=120,19=15,26=3,38=1/1,3;
 2/9=110,12=2,17=6,18=5,40=1/2;
 3/5=4,6=6,7=111,11=2,16=1,25=1,30=1,71=1,74=-13,124=31/1,2,3;
 4//1;
 5/5=2,38=5/2;
 6/7=2,8=2,9=2,10=2,28=1/1;
 7//1,2,3,16;
 1/6=999,14=-1,18=20,19=15,26=3/3(2);
 2/9=110/2;
 99//99;
 2/9=110/2;
 3/5=4,6=6,7=111,11=2,16=1,25=1,30=1,71=1,74=-13,124=31/1,2,3;
 4/5=5,16=3,69=1/1;
 5/5=2,38=5/2;
 7//1,2,3,16;
 1/6=999,14=-1,18=20,19=15,26=3/3(-5);
 2/9=110/2;
 6/7=2,8=2,9=2,10=2,19=2,28=1/1;
 99/9=1/99;
 Leave Link    1 at Sat Apr 30 13:53:33 2016, MaxMem= 10737418240 cpu:         2.7
 (Enter /share/apps//g09/l101.exe)
 -----
 trich
 -----
 Symbolic Z-matrix:
 Charge =  1 Multiplicity = 1
 O                     0.72833  -6.57677   9.32842 
 C                    -0.3689   -5.71541   9.14176 
 C                    -0.56249  -4.85087   10.38918 
 C                     0.69896  -4.03731   10.68693 
 C                     1.901    -4.97026   10.845 
 C                     1.98997  -5.92414   9.64066 
 H                    -1.23033  -6.38795   8.9859 
 H                    -0.76292  -5.5394    11.22617 
 H                     0.8909   -3.35094   9.84685 
 H                     2.82412  -4.36688   10.8586 
 H                     2.3144   -5.33026   8.76848 
 O                     1.72528  -5.63116   12.10534 
 O                     0.47722  -3.22996   11.84376 
 O                    -1.69443  -3.96203   10.2368 
 O                    -0.21305  -4.82464   8.03773 
 C                     2.95446  -7.08789   9.8918 
 H                     2.41726  -7.8588    10.47049 
 H                     3.26617  -7.5244    8.9294 
 O                     4.07782  -6.57289   10.62275 
 H                     4.77455  -7.24927   10.63061 
 H                     2.59226  -6.01098   12.34106 
 H                     0.74141  -3.79052   12.60447 
 H                    -1.65652  -3.39705   11.03722 
 O                    -0.32641  -5.36665   3.88685 
 C                     0.92067  -4.97958   4.45718 
 C                     0.77679  -4.47508   5.90968 
 C                    -0.02892  -5.45282   6.75607 
 C                    -1.37195  -5.76798   6.08321 
 C                    -1.13405  -6.26948   4.64705 
 H                     1.64627  -5.81412   4.43531 
 H                     0.22111  -3.52124   5.88506 
 H                     0.54293  -6.38836   6.88728 
 H                    -1.88045  -6.57715   6.64029 
 H                    -0.65207  -7.2669    4.70737 
 O                    -2.20642  -4.59502   6.09743 
 O                     2.05588  -4.28743   6.4889 
 O                     1.48032  -4.00893   3.60043 
 C                    -2.43498  -6.4025    3.84501 
 H                    -2.20198  -6.77519   2.83575 
 H                    -3.10392  -7.12618   4.3331 
 O                    -3.13998  -5.15326   3.76863 
 H                    -2.6738   -4.56835   3.1023 
 H                    -2.73058  -4.6187    5.23144 
 H                     2.40141  -3.46828   6.07463 
 O                     0.10722  -1.31739   1.49846 
 C                    -0.33185  -0.44071   2.48642 
 C                     0.65272  -0.31663   3.67991 
 C                     1.49657  -1.58556   3.84266 
 C                     0.69662  -2.81624   3.41364 
 C                     0.39457  -2.69036   1.90346 
 H                    -0.44649   0.53419   1.98029 
 H                     0.05602  -0.19356   4.60357 
 H                     2.37742  -1.49489   3.18298 
 H                     1.32332  -2.95346   1.37002 
 H                    -0.24644  -2.88891   3.97682 
 O                     1.93502  -1.72334   5.20809 
 O                     1.58762   0.75254   3.53222 
 O                    -1.62133  -0.89262   2.96943 
 C                    -0.70304  -3.61282   1.37581 
 H                    -0.80912  -3.4185    0.29578 
 H                    -0.39234  -4.65517   1.51994 
 O                    -1.97248  -3.45785   2.0248 
 H                    -2.10229  -2.49734   2.19957 
 H                     2.56897  -1.00135   5.36823 
 H                     1.12873   1.60402   3.63745 
 C                    -2.4939    0.13461   3.47285 
 H                    -1.96114   0.75184   4.22068 
 H                    -2.79665   0.79912   2.64443 
 C                    -3.71221  -0.54217   4.08821 
 H                    -4.20574  -1.13893   3.30526 
 H                    -4.43169   0.24411   4.36971 
 C                    -3.4187   -1.44675   5.29701 
 H                    -4.3242   -2.03846   5.50856 
 H                    -2.63712  -2.17019   5.0161 
 C                    -3.01647  -0.68448   6.56896 
 H                    -2.03913  -0.18597   6.44123 
 H                    -3.7402    0.12695   6.75109 
 C                    -2.98195  -1.52411   7.84508 
 H                    -3.93057  -2.05906   7.99376 
 H                    -2.81771  -0.88359   8.72233 
 N                    -1.90466  -2.5637    7.84318 
 H                    -2.0579   -3.33643   7.12436 
 H                    -1.81878  -3.06177   8.7737 
 H                    -0.98325  -2.15357   7.64832 
 
 The following ModRedundant input section has been read:
 B      45      84 B                                                           
 B      58      84 B                                                           
 B      56      84 B                                                           
 B      41      82 B                                                           
 B      62      82 B                                                           
 B      35      82 B                                                           
 B      13      83 B                                                           
 B      19      83 B                                                           
 B      14      83 B                                                           
 
 NAtoms=     84 NQM=       84 NQMF=       0 NMMI=      0 NMMIF=      0
                NMic=       0 NMicF=      0.
                    Isotopes and Nuclear Properties:
 (Nuclear quadrupole moments (NQMom) in fm**2, nuclear magnetic moments (NMagM)
  in nuclear magnetons)

  Atom         1           2           3           4           5           6           7           8           9          10
 IAtWgt=          16          12          12          12          12          12           1           1           1           1
 AtmWgt=  15.9949146  12.0000000  12.0000000  12.0000000  12.0000000  12.0000000   1.0078250   1.0078250   1.0078250   1.0078250
 NucSpn=           0           0           0           0           0           0           1           1           1           1
 AtZEff=   0.0000000   0.0000000   0.0000000   0.0000000   0.0000000   0.0000000   0.0000000   0.0000000   0.0000000   0.0000000
 NQMom=    0.0000000   0.0000000   0.0000000   0.0000000   0.0000000   0.0000000   0.0000000   0.0000000   0.0000000   0.0000000
 NMagM=    0.0000000   0.0000000   0.0000000   0.0000000   0.0000000   0.0000000   2.7928460   2.7928460   2.7928460   2.7928460
 AtZNuc=   8.0000000   6.0000000   6.0000000   6.0000000   6.0000000   6.0000000   1.0000000   1.0000000   1.0000000   1.0000000

  Atom        11          12          13          14          15          16          17          18          19          20
 IAtWgt=           1          16          16          16          16          12           1           1          16           1
 AtmWgt=   1.0078250  15.9949146  15.9949146  15.9949146  15.9949146  12.0000000   1.0078250   1.0078250  15.9949146   1.0078250
 NucSpn=           1           0           0           0           0           0           1           1           0           1
 AtZEff=   0.0000000   0.0000000   0.0000000   0.0000000   0.0000000   0.0000000   0.0000000   0.0000000   0.0000000   0.0000000
 NQMom=    0.0000000   0.0000000   0.0000000   0.0000000   0.0000000   0.0000000   0.0000000   0.0000000   0.0000000   0.0000000
 NMagM=    2.7928460   0.0000000   0.0000000   0.0000000   0.0000000   0.0000000   2.7928460   2.7928460   0.0000000   2.7928460
 AtZNuc=   1.0000000   8.0000000   8.0000000   8.0000000   8.0000000   6.0000000   1.0000000   1.0000000   8.0000000   1.0000000

  Atom        21          22          23          24          25          26          27          28          29          30
 IAtWgt=           1           1           1          16          12          12          12          12          12           1
 AtmWgt=   1.0078250   1.0078250   1.0078250  15.9949146  12.0000000  12.0000000  12.0000000  12.0000000  12.0000000   1.0078250
 NucSpn=           1           1           1           0           0           0           0           0           0           1
 AtZEff=   0.0000000   0.0000000   0.0000000   0.0000000   0.0000000   0.0000000   0.0000000   0.0000000   0.0000000   0.0000000
 NQMom=    0.0000000   0.0000000   0.0000000   0.0000000   0.0000000   0.0000000   0.0000000   0.0000000   0.0000000   0.0000000
 NMagM=    2.7928460   2.7928460   2.7928460   0.0000000   0.0000000   0.0000000   0.0000000   0.0000000   0.0000000   2.7928460
 AtZNuc=   1.0000000   1.0000000   1.0000000   8.0000000   6.0000000   6.0000000   6.0000000   6.0000000   6.0000000   1.0000000

  Atom        31          32          33          34          35          36          37          38          39          40
 IAtWgt=           1           1           1           1          16          16          16          12           1           1
 AtmWgt=   1.0078250   1.0078250   1.0078250   1.0078250  15.9949146  15.9949146  15.9949146  12.0000000   1.0078250   1.0078250
 NucSpn=           1           1           1           1           0           0           0           0           1           1
 AtZEff=   0.0000000   0.0000000   0.0000000   0.0000000   0.0000000   0.0000000   0.0000000   0.0000000   0.0000000   0.0000000
 NQMom=    0.0000000   0.0000000   0.0000000   0.0000000   0.0000000   0.0000000   0.0000000   0.0000000   0.0000000   0.0000000
 NMagM=    2.7928460   2.7928460   2.7928460   2.7928460   0.0000000   0.0000000   0.0000000   0.0000000   2.7928460   2.7928460
 AtZNuc=   1.0000000   1.0000000   1.0000000   1.0000000   8.0000000   8.0000000   8.0000000   6.0000000   1.0000000   1.0000000

  Atom        41          42          43          44          45          46          47          48          49          50
 IAtWgt=          16           1           1           1          16          12          12          12          12          12
 AtmWgt=  15.9949146   1.0078250   1.0078250   1.0078250  15.9949146  12.0000000  12.0000000  12.0000000  12.0000000  12.0000000
 NucSpn=           0           1           1           1           0           0           0           0           0           0
 AtZEff=   0.0000000   0.0000000   0.0000000   0.0000000   0.0000000   0.0000000   0.0000000   0.0000000   0.0000000   0.0000000
 NQMom=    0.0000000   0.0000000   0.0000000   0.0000000   0.0000000   0.0000000   0.0000000   0.0000000   0.0000000   0.0000000
 NMagM=    0.0000000   2.7928460   2.7928460   2.7928460   0.0000000   0.0000000   0.0000000   0.0000000   0.0000000   0.0000000
 AtZNuc=   8.0000000   1.0000000   1.0000000   1.0000000   8.0000000   6.0000000   6.0000000   6.0000000   6.0000000   6.0000000

  Atom        51          52          53          54          55          56          57          58          59          60
 IAtWgt=           1           1           1           1           1          16          16          16          12           1
 AtmWgt=   1.0078250   1.0078250   1.0078250   1.0078250   1.0078250  15.9949146  15.9949146  15.9949146  12.0000000   1.0078250
 NucSpn=           1           1           1           1           1           0           0           0           0           1
 AtZEff=   0.0000000   0.0000000   0.0000000   0.0000000   0.0000000   0.0000000   0.0000000   0.0000000   0.0000000   0.0000000
 NQMom=    0.0000000   0.0000000   0.0000000   0.0000000   0.0000000   0.0000000   0.0000000   0.0000000   0.0000000   0.0000000
 NMagM=    2.7928460   2.7928460   2.7928460   2.7928460   2.7928460   0.0000000   0.0000000   0.0000000   0.0000000   2.7928460
 AtZNuc=   1.0000000   1.0000000   1.0000000   1.0000000   1.0000000   8.0000000   8.0000000   8.0000000   6.0000000   1.0000000

  Atom        61          62          63          64          65          66          67          68          69          70
 IAtWgt=           1          16           1           1           1          12           1           1          12           1
 AtmWgt=   1.0078250  15.9949146   1.0078250   1.0078250   1.0078250  12.0000000   1.0078250   1.0078250  12.0000000   1.0078250
 NucSpn=           1           0           1           1           1           0           1           1           0           1
 AtZEff=   0.0000000   0.0000000   0.0000000   0.0000000   0.0000000   0.0000000   0.0000000   0.0000000   0.0000000   0.0000000
 NQMom=    0.0000000   0.0000000   0.0000000   0.0000000   0.0000000   0.0000000   0.0000000   0.0000000   0.0000000   0.0000000
 NMagM=    2.7928460   0.0000000   2.7928460   2.7928460   2.7928460   0.0000000   2.7928460   2.7928460   0.0000000   2.7928460
 AtZNuc=   1.0000000   8.0000000   1.0000000   1.0000000   1.0000000   6.0000000   1.0000000   1.0000000   6.0000000   1.0000000

  Atom        71          72          73          74          75          76          77          78          79          80
 IAtWgt=           1          12           1           1          12           1           1          12           1           1
 AtmWgt=   1.0078250  12.0000000   1.0078250   1.0078250  12.0000000   1.0078250   1.0078250  12.0000000   1.0078250   1.0078250
 NucSpn=           1           0           1           1           0           1           1           0           1           1
 AtZEff=   0.0000000   0.0000000   0.0000000   0.0000000   0.0000000   0.0000000   0.0000000   0.0000000   0.0000000   0.0000000
 NQMom=    0.0000000   0.0000000   0.0000000   0.0000000   0.0000000   0.0000000   0.0000000   0.0000000   0.0000000   0.0000000
 NMagM=    2.7928460   0.0000000   2.7928460   2.7928460   0.0000000   2.7928460   2.7928460   0.0000000   2.7928460   2.7928460
 AtZNuc=   1.0000000   6.0000000   1.0000000   1.0000000   6.0000000   1.0000000   1.0000000   6.0000000   1.0000000   1.0000000

  Atom        81          82          83          84
 IAtWgt=          14           1           1           1
 AtmWgt=  14.0030740   1.0078250   1.0078250   1.0078250
 NucSpn=           2           1           1           1
 AtZEff=   0.0000000   0.0000000   0.0000000   0.0000000
 NQMom=    2.0440000   0.0000000   0.0000000   0.0000000
 NMagM=    0.4037610   2.7928460   2.7928460   2.7928460
 AtZNuc=   7.0000000   1.0000000   1.0000000   1.0000000
 Leave Link  101 at Sat Apr 30 13:53:34 2016, MaxMem= 10737418240 cpu:         4.3
 (Enter /share/apps//g09/l103.exe)

 GradGradGradGradGradGradGradGradGradGradGradGradGradGradGradGradGradGrad
 Berny optimization.
 Initialization pass.
                           ----------------------------
                           !    Initial Parameters    !
                           ! (Angstroms and Degrees)  !
 --------------------------                            --------------------------
 ! Name  Definition              Value          Derivative Info.                !
 --------------------------------------------------------------------------------
 ! R1    R(1,2)                  1.4074         estimate D2E/DX2                !
 ! R2    R(1,6)                  1.4544         estimate D2E/DX2                !
 ! R3    R(2,3)                  1.53           estimate D2E/DX2                !
 ! R4    R(2,7)                  1.1039         estimate D2E/DX2                !
 ! R5    R(2,15)                 1.4271         estimate D2E/DX2                !
 ! R6    R(3,4)                  1.5303         estimate D2E/DX2                !
 ! R7    R(3,8)                  1.1022         estimate D2E/DX2                !
 ! R8    R(3,14)                 1.4473         estimate D2E/DX2                !
 ! R9    R(4,5)                  1.5298         estimate D2E/DX2                !
 ! R10   R(4,9)                  1.1017         estimate D2E/DX2                !
 ! R11   R(4,13)                 1.428          estimate D2E/DX2                !
 ! R12   R(5,6)                  1.5389         estimate D2E/DX2                !
 ! R13   R(5,10)                 1.1029         estimate D2E/DX2                !
 ! R14   R(5,12)                 1.4339         estimate D2E/DX2                !
 ! R15   R(6,11)                 1.1039         estimate D2E/DX2                !
 ! R16   R(6,16)                 1.5322         estimate D2E/DX2                !
 ! R17   R(12,21)                0.9754         estimate D2E/DX2                !
 ! R18   R(13,22)                0.9812         estimate D2E/DX2                !
 ! R19   R(13,83)                3.8373         estimate D2E/DX2                !
 ! R20   R(14,23)                0.9805         estimate D2E/DX2                !
 ! R21   R(14,83)                1.7224         estimate D2E/DX2                !
 ! R22   R(15,27)                1.4392         estimate D2E/DX2                !
 ! R23   R(16,17)                1.1035         estimate D2E/DX2                !
 ! R24   R(16,18)                1.1018         estimate D2E/DX2                !
 ! R25   R(16,19)                1.4358         estimate D2E/DX2                !
 ! R26   R(19,20)                0.9711         estimate D2E/DX2                !
 ! R27   R(19,83)                7.1075         estimate D2E/DX2                !
 ! R28   R(24,25)                1.4249         estimate D2E/DX2                !
 ! R29   R(24,29)                1.4301         estimate D2E/DX2                !
 ! R30   R(25,26)                1.5443         estimate D2E/DX2                !
 ! R31   R(25,30)                1.1061         estimate D2E/DX2                !
 ! R32   R(25,37)                1.4105         estimate D2E/DX2                !
 ! R33   R(26,27)                1.5237         estimate D2E/DX2                !
 ! R34   R(26,31)                1.1042         estimate D2E/DX2                !
 ! R35   R(26,36)                1.4166         estimate D2E/DX2                !
 ! R36   R(27,28)                1.5349         estimate D2E/DX2                !
 ! R37   R(27,32)                1.1043         estimate D2E/DX2                !
 ! R38   R(28,29)                1.5397         estimate D2E/DX2                !
 ! R39   R(28,33)                1.1062         estimate D2E/DX2                !
 ! R40   R(28,35)                1.4396         estimate D2E/DX2                !
 ! R41   R(29,34)                1.1094         estimate D2E/DX2                !
 ! R42   R(29,38)                1.5341         estimate D2E/DX2                !
 ! R43   R(35,43)                1.0125         estimate D2E/DX2                !
 ! R44   R(35,82)                1.6312         estimate D2E/DX2                !
 ! R45   R(36,44)                0.9808         estimate D2E/DX2                !
 ! R46   R(37,49)                1.4393         estimate D2E/DX2                !
 ! R47   R(38,39)                1.1008         estimate D2E/DX2                !
 ! R48   R(38,40)                1.0997         estimate D2E/DX2                !
 ! R49   R(38,41)                1.4365         estimate D2E/DX2                !
 ! R50   R(41,42)                1.0017         estimate D2E/DX2                !
 ! R51   R(41,82)                3.9664         estimate D2E/DX2                !
 ! R52   R(45,46)                1.3919         estimate D2E/DX2                !
 ! R53   R(45,50)                1.46           estimate D2E/DX2                !
 ! R54   R(45,84)                6.3015         estimate D2E/DX2                !
 ! R55   R(46,47)                1.5522         estimate D2E/DX2                !
 ! R56   R(46,51)                1.1044         estimate D2E/DX2                !
 ! R57   R(46,58)                1.4492         estimate D2E/DX2                !
 ! R58   R(47,48)                1.5326         estimate D2E/DX2                !
 ! R59   R(47,52)                1.1065         estimate D2E/DX2                !
 ! R60   R(47,57)                1.4279         estimate D2E/DX2                !
 ! R61   R(48,49)                1.5292         estimate D2E/DX2                !
 ! R62   R(48,53)                1.1042         estimate D2E/DX2                !
 ! R63   R(48,56)                1.4407         estimate D2E/DX2                !
 ! R64   R(49,50)                1.5452         estimate D2E/DX2                !
 ! R65   R(49,55)                1.1008         estimate D2E/DX2                !
 ! R66   R(50,54)                1.1029         estimate D2E/DX2                !
 ! R67   R(50,59)                1.5278         estimate D2E/DX2                !
 ! R68   R(56,64)                0.9741         estimate D2E/DX2                !
 ! R69   R(56,84)                3.8283         estimate D2E/DX2                !
 ! R70   R(57,65)                0.973          estimate D2E/DX2                !
 ! R71   R(58,66)                1.4388         estimate D2E/DX2                !
 ! R72   R(58,84)                4.8877         estimate D2E/DX2                !
 ! R73   R(59,60)                1.1025         estimate D2E/DX2                !
 ! R74   R(59,61)                1.0972         estimate D2E/DX2                !
 ! R75   R(59,62)                1.4341         estimate D2E/DX2                !
 ! R76   R(62,63)                0.9849         estimate D2E/DX2                !
 ! R77   R(62,82)                5.1017         estimate D2E/DX2                !
 ! R78   R(66,67)                1.1064         estimate D2E/DX2                !
 ! R79   R(66,68)                1.1043         estimate D2E/DX2                !
 ! R80   R(66,69)                1.5235         estimate D2E/DX2                !
 ! R81   R(69,70)                1.1012         estimate D2E/DX2                !
 ! R82   R(69,71)                1.1023         estimate D2E/DX2                !
 ! R83   R(69,72)                1.5381         estimate D2E/DX2                !
 ! R84   R(72,73)                1.1022         estimate D2E/DX2                !
 ! R85   R(72,74)                1.1014         estimate D2E/DX2                !
 ! R86   R(72,75)                1.5365         estimate D2E/DX2                !
 ! R87   R(75,76)                1.1045         estimate D2E/DX2                !
 ! R88   R(75,77)                1.1024         estimate D2E/DX2                !
 ! R89   R(75,78)                1.528          estimate D2E/DX2                !
 ! R90   R(78,79)                1.0992         estimate D2E/DX2                !
 ! R91   R(78,80)                1.0985         estimate D2E/DX2                !
 ! R92   R(78,81)                1.4971         estimate D2E/DX2                !
 ! R93   R(81,82)                1.0664         estimate D2E/DX2                !
 ! R94   R(81,83)                1.0589         estimate D2E/DX2                !
 ! R95   R(81,84)                1.0272         estimate D2E/DX2                !
 ! A1    A(2,1,6)              115.4771         estimate D2E/DX2                !
 ! A2    A(1,2,3)              109.6542         estimate D2E/DX2                !
 ! A3    A(1,2,7)              104.7279         estimate D2E/DX2                !
 ! A4    A(1,2,15)             113.5458         estimate D2E/DX2                !
 ! A5    A(3,2,7)              111.1381         estimate D2E/DX2                !
 ! A6    A(3,2,15)             106.9687         estimate D2E/DX2                !
 ! A7    A(7,2,15)             110.8705         estimate D2E/DX2                !
 ! A8    A(2,3,4)              110.7773         estimate D2E/DX2                !
 ! A9    A(2,3,8)              106.8073         estimate D2E/DX2                !
 ! A10   A(2,3,14)             111.1093         estimate D2E/DX2                !
 ! A11   A(4,3,8)              109.5275         estimate D2E/DX2                !
 ! A12   A(4,3,14)             109.7979         estimate D2E/DX2                !
 ! A13   A(8,3,14)             108.747          estimate D2E/DX2                !
 ! A14   A(3,4,5)              110.096          estimate D2E/DX2                !
 ! A15   A(3,4,9)              109.0548         estimate D2E/DX2                !
 ! A16   A(3,4,13)             109.2803         estimate D2E/DX2                !
 ! A17   A(5,4,9)              108.7747         estimate D2E/DX2                !
 ! A18   A(5,4,13)             112.5254         estimate D2E/DX2                !
 ! A19   A(9,4,13)             107.011          estimate D2E/DX2                !
 ! A20   A(4,5,6)              110.0339         estimate D2E/DX2                !
 ! A21   A(4,5,10)             108.9837         estimate D2E/DX2                !
 ! A22   A(4,5,12)             105.9985         estimate D2E/DX2                !
 ! A23   A(6,5,10)             107.4795         estimate D2E/DX2                !
 ! A24   A(6,5,12)             114.1581         estimate D2E/DX2                !
 ! A25   A(10,5,12)            110.1136         estimate D2E/DX2                !
 ! A26   A(1,6,5)              113.3292         estimate D2E/DX2                !
 ! A27   A(1,6,11)             109.0706         estimate D2E/DX2                !
 ! A28   A(1,6,16)             103.9117         estimate D2E/DX2                !
 ! A29   A(5,6,11)             107.5681         estimate D2E/DX2                !
 ! A30   A(5,6,16)             112.2661         estimate D2E/DX2                !
 ! A31   A(11,6,16)            110.6776         estimate D2E/DX2                !
 ! A32   A(5,12,21)            106.4364         estimate D2E/DX2                !
 ! A33   A(4,13,22)            105.2636         estimate D2E/DX2                !
 ! A34   A(4,13,83)             57.9656         estimate D2E/DX2                !
 ! A35   A(22,13,83)           143.7485         estimate D2E/DX2                !
 ! A36   A(3,14,23)            103.751          estimate D2E/DX2                !
 ! A37   A(3,14,83)            117.8343         estimate D2E/DX2                !
 ! A38   A(23,14,83)           113.2708         estimate D2E/DX2                !
 ! A39   A(2,15,27)            115.4977         estimate D2E/DX2                !
 ! A40   A(6,16,17)            108.0664         estimate D2E/DX2                !
 ! A41   A(6,16,18)            109.6231         estimate D2E/DX2                !
 ! A42   A(6,16,19)            107.6691         estimate D2E/DX2                !
 ! A43   A(17,16,18)           108.6034         estimate D2E/DX2                !
 ! A44   A(17,16,19)           111.3758         estimate D2E/DX2                !
 ! A45   A(18,16,19)           111.4352         estimate D2E/DX2                !
 ! A46   A(16,19,20)           108.3998         estimate D2E/DX2                !
 ! A47   A(16,19,83)            52.8174         estimate D2E/DX2                !
 ! A48   A(20,19,83)           160.2941         estimate D2E/DX2                !
 ! A49   A(25,24,29)           116.9353         estimate D2E/DX2                !
 ! A50   A(24,25,26)           112.5607         estimate D2E/DX2                !
 ! A51   A(24,25,30)           111.1783         estimate D2E/DX2                !
 ! A52   A(24,25,37)           106.923          estimate D2E/DX2                !
 ! A53   A(26,25,30)           109.0378         estimate D2E/DX2                !
 ! A54   A(26,25,37)           112.5481         estimate D2E/DX2                !
 ! A55   A(30,25,37)           104.2957         estimate D2E/DX2                !
 ! A56   A(25,26,27)           111.2293         estimate D2E/DX2                !
 ! A57   A(25,26,31)           107.9457         estimate D2E/DX2                !
 ! A58   A(25,26,36)           110.1033         estimate D2E/DX2                !
 ! A59   A(27,26,31)           107.4939         estimate D2E/DX2                !
 ! A60   A(27,26,36)           109.5932         estimate D2E/DX2                !
 ! A61   A(31,26,36)           110.4316         estimate D2E/DX2                !
 ! A62   A(15,27,26)           106.3954         estimate D2E/DX2                !
 ! A63   A(15,27,28)           111.5975         estimate D2E/DX2                !
 ! A64   A(15,27,32)           109.2827         estimate D2E/DX2                !
 ! A65   A(26,27,28)           110.5456         estimate D2E/DX2                !
 ! A66   A(26,27,32)           109.6219         estimate D2E/DX2                !
 ! A67   A(28,27,32)           109.3449         estimate D2E/DX2                !
 ! A68   A(27,28,29)           109.9127         estimate D2E/DX2                !
 ! A69   A(27,28,33)           109.3696         estimate D2E/DX2                !
 ! A70   A(27,28,35)           109.6078         estimate D2E/DX2                !
 ! A71   A(29,28,33)           107.6082         estimate D2E/DX2                !
 ! A72   A(29,28,35)           111.3564         estimate D2E/DX2                !
 ! A73   A(33,28,35)           108.94           estimate D2E/DX2                !
 ! A74   A(24,29,28)           112.1759         estimate D2E/DX2                !
 ! A75   A(24,29,34)           110.5558         estimate D2E/DX2                !
 ! A76   A(24,29,38)           104.8172         estimate D2E/DX2                !
 ! A77   A(28,29,34)           108.0138         estimate D2E/DX2                !
 ! A78   A(28,29,38)           112.636          estimate D2E/DX2                !
 ! A79   A(34,29,38)           108.5958         estimate D2E/DX2                !
 ! A80   A(28,35,43)           105.8172         estimate D2E/DX2                !
 ! A81   A(28,35,82)           125.6004         estimate D2E/DX2                !
 ! A82   A(43,35,82)           127.1301         estimate D2E/DX2                !
 ! A83   A(26,36,44)           104.834          estimate D2E/DX2                !
 ! A84   A(25,37,49)           115.6612         estimate D2E/DX2                !
 ! A85   A(29,38,39)           109.2201         estimate D2E/DX2                !
 ! A86   A(29,38,40)           109.9286         estimate D2E/DX2                !
 ! A87   A(29,38,41)           111.6286         estimate D2E/DX2                !
 ! A88   A(39,38,40)           108.2323         estimate D2E/DX2                !
 ! A89   A(39,38,41)           110.4604         estimate D2E/DX2                !
 ! A90   A(40,38,41)           107.2981         estimate D2E/DX2                !
 ! A91   A(38,41,42)           108.3467         estimate D2E/DX2                !
 ! A92   A(38,41,82)           102.678          estimate D2E/DX2                !
 ! A93   A(42,41,82)            99.6919         estimate D2E/DX2                !
 ! A94   A(46,45,50)           117.2247         estimate D2E/DX2                !
 ! A95   A(46,45,84)            48.4161         estimate D2E/DX2                !
 ! A96   A(50,45,84)            68.8111         estimate D2E/DX2                !
 ! A97   A(45,46,47)           113.3301         estimate D2E/DX2                !
 ! A98   A(45,46,51)           105.2743         estimate D2E/DX2                !
 ! A99   A(45,46,58)           108.7133         estimate D2E/DX2                !
 ! A100  A(47,46,51)           110.3442         estimate D2E/DX2                !
 ! A101  A(47,46,58)           109.4544         estimate D2E/DX2                !
 ! A102  A(51,46,58)           109.6113         estimate D2E/DX2                !
 ! A103  A(46,47,48)           111.3912         estimate D2E/DX2                !
 ! A104  A(46,47,52)           107.98           estimate D2E/DX2                !
 ! A105  A(46,47,57)           113.3055         estimate D2E/DX2                !
 ! A106  A(48,47,52)           107.48           estimate D2E/DX2                !
 ! A107  A(48,47,57)           105.6903         estimate D2E/DX2                !
 ! A108  A(52,47,57)           110.8628         estimate D2E/DX2                !
 ! A109  A(47,48,49)           110.3962         estimate D2E/DX2                !
 ! A110  A(47,48,53)           107.9268         estimate D2E/DX2                !
 ! A111  A(47,48,56)           110.3282         estimate D2E/DX2                !
 ! A112  A(49,48,53)           108.4071         estimate D2E/DX2                !
 ! A113  A(49,48,56)           110.3725         estimate D2E/DX2                !
 ! A114  A(53,48,56)           109.347          estimate D2E/DX2                !
 ! A115  A(37,49,48)           110.2209         estimate D2E/DX2                !
 ! A116  A(37,49,50)           107.5042         estimate D2E/DX2                !
 ! A117  A(37,49,55)           110.2043         estimate D2E/DX2                !
 ! A118  A(48,49,50)           108.1121         estimate D2E/DX2                !
 ! A119  A(48,49,55)           110.9612         estimate D2E/DX2                !
 ! A120  A(50,49,55)           109.7498         estimate D2E/DX2                !
 ! A121  A(45,50,49)           112.7171         estimate D2E/DX2                !
 ! A122  A(45,50,54)           104.8271         estimate D2E/DX2                !
 ! A123  A(45,50,59)           109.3048         estimate D2E/DX2                !
 ! A124  A(49,50,54)           106.778          estimate D2E/DX2                !
 ! A125  A(49,50,59)           115.3906         estimate D2E/DX2                !
 ! A126  A(54,50,59)           107.0925         estimate D2E/DX2                !
 ! A127  A(48,56,64)           106.4391         estimate D2E/DX2                !
 ! A128  A(48,56,84)           112.5117         estimate D2E/DX2                !
 ! A129  A(64,56,84)           118.3346         estimate D2E/DX2                !
 ! A130  A(47,57,65)           109.5898         estimate D2E/DX2                !
 ! A131  A(46,58,66)           115.6965         estimate D2E/DX2                !
 ! A132  A(46,58,84)           106.4596         estimate D2E/DX2                !
 ! A133  A(66,58,84)            85.895          estimate D2E/DX2                !
 ! A134  A(50,59,60)           107.5202         estimate D2E/DX2                !
 ! A135  A(50,59,61)           108.9536         estimate D2E/DX2                !
 ! A136  A(50,59,62)           114.4817         estimate D2E/DX2                !
 ! A137  A(60,59,61)           108.8677         estimate D2E/DX2                !
 ! A138  A(60,59,62)           109.8222         estimate D2E/DX2                !
 ! A139  A(61,59,62)           107.0902         estimate D2E/DX2                !
 ! A140  A(59,62,63)           107.5994         estimate D2E/DX2                !
 ! A141  A(59,62,82)           118.0173         estimate D2E/DX2                !
 ! A142  A(63,62,82)            78.2994         estimate D2E/DX2                !
 ! A143  A(58,66,67)           110.0465         estimate D2E/DX2                !
 ! A144  A(58,66,68)           109.4758         estimate D2E/DX2                !
 ! A145  A(58,66,69)           108.0083         estimate D2E/DX2                !
 ! A146  A(67,66,68)           107.6603         estimate D2E/DX2                !
 ! A147  A(67,66,69)           111.0937         estimate D2E/DX2                !
 ! A148  A(68,66,69)           110.5535         estimate D2E/DX2                !
 ! A149  A(66,69,70)           108.1766         estimate D2E/DX2                !
 ! A150  A(66,69,71)           107.9527         estimate D2E/DX2                !
 ! A151  A(66,69,72)           115.2211         estimate D2E/DX2                !
 ! A152  A(70,69,71)           105.9968         estimate D2E/DX2                !
 ! A153  A(70,69,72)           109.0014         estimate D2E/DX2                !
 ! A154  A(71,69,72)           110.0818         estimate D2E/DX2                !
 ! A155  A(69,72,73)           108.0479         estimate D2E/DX2                !
 ! A156  A(69,72,74)           108.7397         estimate D2E/DX2                !
 ! A157  A(69,72,75)           114.1295         estimate D2E/DX2                !
 ! A158  A(73,72,74)           106.2193         estimate D2E/DX2                !
 ! A159  A(73,72,75)           108.8157         estimate D2E/DX2                !
 ! A160  A(74,72,75)           110.5626         estimate D2E/DX2                !
 ! A161  A(72,75,76)           111.0892         estimate D2E/DX2                !
 ! A162  A(72,75,77)           109.2728         estimate D2E/DX2                !
 ! A163  A(72,75,78)           115.1311         estimate D2E/DX2                !
 ! A164  A(76,75,77)           105.5329         estimate D2E/DX2                !
 ! A165  A(76,75,78)           108.9413         estimate D2E/DX2                !
 ! A166  A(77,75,78)           106.3385         estimate D2E/DX2                !
 ! A167  A(75,78,79)           111.1564         estimate D2E/DX2                !
 ! A168  A(75,78,80)           110.4822         estimate D2E/DX2                !
 ! A169  A(75,78,81)           113.377          estimate D2E/DX2                !
 ! A170  A(79,78,80)           107.745          estimate D2E/DX2                !
 ! A171  A(79,78,81)           106.4539         estimate D2E/DX2                !
 ! A172  A(80,78,81)           107.3561         estimate D2E/DX2                !
 ! A173  A(78,81,82)           113.6164         estimate D2E/DX2                !
 ! A174  A(78,81,83)           112.573          estimate D2E/DX2                !
 ! A175  A(78,81,84)           111.6205         estimate D2E/DX2                !
 ! A176  A(82,81,83)           105.2567         estimate D2E/DX2                !
 ! A177  A(82,81,84)           106.8778         estimate D2E/DX2                !
 ! A178  A(83,81,84)           106.3643         estimate D2E/DX2                !
 ! A179  A(35,82,41)            24.3699         estimate D2E/DX2                !
 ! A180  A(35,82,62)            49.7487         estimate D2E/DX2                !
 ! A181  A(41,82,62)            31.5696         estimate D2E/DX2                !
 ! A182  A(41,82,81)           160.28           estimate D2E/DX2                !
 ! A183  A(62,82,81)           133.5186         estimate D2E/DX2                !
 ! A184  A(13,83,14)            41.779          estimate D2E/DX2                !
 ! A185  A(13,83,19)            43.4329         estimate D2E/DX2                !
 ! A186  A(13,83,81)           140.5499         estimate D2E/DX2                !
 ! A187  A(14,83,19)            57.378          estimate D2E/DX2                !
 ! A188  A(19,83,81)           121.8872         estimate D2E/DX2                !
 ! A189  A(45,84,56)            39.745          estimate D2E/DX2                !
 ! A190  A(45,84,58)            18.9343         estimate D2E/DX2                !
 ! A191  A(45,84,81)           113.1623         estimate D2E/DX2                !
 ! A192  A(56,84,58)            57.3391         estimate D2E/DX2                !
 ! A193  A(56,84,81)           148.1628         estimate D2E/DX2                !
 ! A194  A(58,84,81)            99.6423         estimate D2E/DX2                !
 ! A195  L(35,82,81,41,-1)     184.6498         estimate D2E/DX2                !
 ! A196  L(14,83,81,13,-1)     182.3289         estimate D2E/DX2                !
 ! A197  L(35,82,81,41,-2)     182.9748         estimate D2E/DX2                !
 ! A198  L(14,83,81,13,-2)     176.0387         estimate D2E/DX2                !
 ! D1    D(6,1,2,3)            -56.961          estimate D2E/DX2                !
 ! D2    D(6,1,2,7)           -176.2896         estimate D2E/DX2                !
 ! D3    D(6,1,2,15)            62.6219         estimate D2E/DX2                !
 ! D4    D(2,1,6,5)             53.6796         estimate D2E/DX2                !
 ! D5    D(2,1,6,11)           -66.1151         estimate D2E/DX2                !
 ! D6    D(2,1,6,16)           175.816          estimate D2E/DX2                !
 ! D7    D(1,2,3,4)             58.3208         estimate D2E/DX2                !
 ! D8    D(1,2,3,8)            -60.8928         estimate D2E/DX2                !
 ! D9    D(1,2,3,14)          -179.3493         estimate D2E/DX2                !
 ! D10   D(7,2,3,4)            173.6309         estimate D2E/DX2                !
 ! D11   D(7,2,3,8)             54.4173         estimate D2E/DX2                !
 ! D12   D(7,2,3,14)           -64.0392         estimate D2E/DX2                !
 ! D13   D(15,2,3,4)           -65.2167         estimate D2E/DX2                !
 ! D14   D(15,2,3,8)           175.5698         estimate D2E/DX2                !
 ! D15   D(15,2,3,14)           57.1133         estimate D2E/DX2                !
 ! D16   D(1,2,15,27)           59.437          estimate D2E/DX2                !
 ! D17   D(3,2,15,27)         -179.4616         estimate D2E/DX2                !
 ! D18   D(7,2,15,27)          -58.1397         estimate D2E/DX2                !
 ! D19   D(2,3,4,5)            -56.7317         estimate D2E/DX2                !
 ! D20   D(2,3,4,9)             62.5399         estimate D2E/DX2                !
 ! D21   D(2,3,4,13)           179.202          estimate D2E/DX2                !
 ! D22   D(8,3,4,5)             60.8299         estimate D2E/DX2                !
 ! D23   D(8,3,4,9)           -179.8985         estimate D2E/DX2                !
 ! D24   D(8,3,4,13)           -63.2364         estimate D2E/DX2                !
 ! D25   D(14,3,4,5)          -179.8233         estimate D2E/DX2                !
 ! D26   D(14,3,4,9)           -60.5517         estimate D2E/DX2                !
 ! D27   D(14,3,4,13)           56.1105         estimate D2E/DX2                !
 ! D28   D(2,3,14,23)         -173.7001         estimate D2E/DX2                !
 ! D29   D(2,3,14,83)          -47.6025         estimate D2E/DX2                !
 ! D30   D(4,3,14,23)          -50.8043         estimate D2E/DX2                !
 ! D31   D(4,3,14,83)           75.2933         estimate D2E/DX2                !
 ! D32   D(8,3,14,23)           69.0195         estimate D2E/DX2                !
 ! D33   D(8,3,14,83)         -164.8829         estimate D2E/DX2                !
 ! D34   D(3,4,5,6)             51.283          estimate D2E/DX2                !
 ! D35   D(3,4,5,10)           168.8987         estimate D2E/DX2                !
 ! D36   D(3,4,5,12)           -72.615          estimate D2E/DX2                !
 ! D37   D(9,4,5,6)            -68.1593         estimate D2E/DX2                !
 ! D38   D(9,4,5,10)            49.4565         estimate D2E/DX2                !
 ! D39   D(9,4,5,12)           167.9428         estimate D2E/DX2                !
 ! D40   D(13,4,5,6)           173.4489         estimate D2E/DX2                !
 ! D41   D(13,4,5,10)          -68.9354         estimate D2E/DX2                !
 ! D42   D(13,4,5,12)           49.551          estimate D2E/DX2                !
 ! D43   D(3,4,13,22)           88.8768         estimate D2E/DX2                !
 ! D44   D(3,4,13,83)          -55.7421         estimate D2E/DX2                !
 ! D45   D(5,4,13,22)          -33.7492         estimate D2E/DX2                !
 ! D46   D(5,4,13,83)         -178.368          estimate D2E/DX2                !
 ! D47   D(9,4,13,22)         -153.1723         estimate D2E/DX2                !
 ! D48   D(9,4,13,83)           62.2089         estimate D2E/DX2                !
 ! D49   D(4,5,6,1)            -49.0138         estimate D2E/DX2                !
 ! D50   D(4,5,6,11)            71.6349         estimate D2E/DX2                !
 ! D51   D(4,5,6,16)          -166.3692         estimate D2E/DX2                !
 ! D52   D(10,5,6,1)          -167.5583         estimate D2E/DX2                !
 ! D53   D(10,5,6,11)          -46.9095         estimate D2E/DX2                !
 ! D54   D(10,5,6,16)           75.0863         estimate D2E/DX2                !
 ! D55   D(12,5,6,1)            70.0038         estimate D2E/DX2                !
 ! D56   D(12,5,6,11)         -169.3474         estimate D2E/DX2                !
 ! D57   D(12,5,6,16)          -47.3516         estimate D2E/DX2                !
 ! D58   D(4,5,12,21)         -163.2428         estimate D2E/DX2                !
 ! D59   D(6,5,12,21)           75.4792         estimate D2E/DX2                !
 ! D60   D(10,5,12,21)         -45.5076         estimate D2E/DX2                !
 ! D61   D(1,6,16,17)          -40.8765         estimate D2E/DX2                !
 ! D62   D(1,6,16,18)           77.3237         estimate D2E/DX2                !
 ! D63   D(1,6,16,19)         -161.2927         estimate D2E/DX2                !
 ! D64   D(5,6,16,17)           81.9616         estimate D2E/DX2                !
 ! D65   D(5,6,16,18)         -159.8382         estimate D2E/DX2                !
 ! D66   D(5,6,16,19)          -38.4546         estimate D2E/DX2                !
 ! D67   D(11,6,16,17)        -157.8299         estimate D2E/DX2                !
 ! D68   D(11,6,16,18)         -39.6298         estimate D2E/DX2                !
 ! D69   D(11,6,16,19)          81.7538         estimate D2E/DX2                !
 ! D70   D(4,13,83,14)          88.5673         estimate D2E/DX2                !
 ! D71   D(4,13,83,19)          -1.737          estimate D2E/DX2                !
 ! D72   D(4,13,83,81)         -87.4714         estimate D2E/DX2                !
 ! D73   D(22,13,83,14)         17.7232         estimate D2E/DX2                !
 ! D74   D(22,13,83,19)        -72.5811         estimate D2E/DX2                !
 ! D75   D(22,13,83,81)       -158.3155         estimate D2E/DX2                !
 ! D76   D(3,14,83,13)         -66.9229         estimate D2E/DX2                !
 ! D77   D(3,14,83,19)         -12.2104         estimate D2E/DX2                !
 ! D78   D(23,14,83,13)         54.3882         estimate D2E/DX2                !
 ! D79   D(23,14,83,19)        109.1007         estimate D2E/DX2                !
 ! D80   D(2,15,27,26)        -152.2801         estimate D2E/DX2                !
 ! D81   D(2,15,27,28)          87.0607         estimate D2E/DX2                !
 ! D82   D(2,15,27,32)         -33.9996         estimate D2E/DX2                !
 ! D83   D(6,16,19,20)        -168.5752         estimate D2E/DX2                !
 ! D84   D(6,16,19,83)           4.6297         estimate D2E/DX2                !
 ! D85   D(17,16,19,20)         73.1176         estimate D2E/DX2                !
 ! D86   D(17,16,19,83)       -113.6775         estimate D2E/DX2                !
 ! D87   D(18,16,19,20)        -48.3292         estimate D2E/DX2                !
 ! D88   D(18,16,19,83)        124.8757         estimate D2E/DX2                !
 ! D89   D(16,19,83,13)        140.2041         estimate D2E/DX2                !
 ! D90   D(16,19,83,14)         87.9213         estimate D2E/DX2                !
 ! D91   D(16,19,83,81)        -88.0637         estimate D2E/DX2                !
 ! D92   D(20,19,83,13)        159.6525         estimate D2E/DX2                !
 ! D93   D(20,19,83,14)        107.3696         estimate D2E/DX2                !
 ! D94   D(20,19,83,81)        -68.6154         estimate D2E/DX2                !
 ! D95   D(29,24,25,26)        -50.8197         estimate D2E/DX2                !
 ! D96   D(29,24,25,30)         71.8483         estimate D2E/DX2                !
 ! D97   D(29,24,25,37)       -174.9057         estimate D2E/DX2                !
 ! D98   D(25,24,29,28)         52.936          estimate D2E/DX2                !
 ! D99   D(25,24,29,34)        -67.695          estimate D2E/DX2                !
 ! D100  D(25,24,29,38)        175.4658         estimate D2E/DX2                !
 ! D101  D(24,25,26,27)         49.9656         estimate D2E/DX2                !
 ! D102  D(24,25,26,31)        -67.7312         estimate D2E/DX2                !
 ! D103  D(24,25,26,36)        171.6524         estimate D2E/DX2                !
 ! D104  D(30,25,26,27)        -73.8971         estimate D2E/DX2                !
 ! D105  D(30,25,26,31)        168.4062         estimate D2E/DX2                !
 ! D106  D(30,25,26,36)         47.7897         estimate D2E/DX2                !
 ! D107  D(37,25,26,27)        170.8824         estimate D2E/DX2                !
 ! D108  D(37,25,26,31)         53.1856         estimate D2E/DX2                !
 ! D109  D(37,25,26,36)        -67.4309         estimate D2E/DX2                !
 ! D110  D(24,25,37,49)         60.1319         estimate D2E/DX2                !
 ! D111  D(26,25,37,49)        -63.9618         estimate D2E/DX2                !
 ! D112  D(30,25,37,49)        177.986          estimate D2E/DX2                !
 ! D113  D(25,26,27,15)       -174.3619         estimate D2E/DX2                !
 ! D114  D(25,26,27,28)        -53.028          estimate D2E/DX2                !
 ! D115  D(25,26,27,32)         67.5814         estimate D2E/DX2                !
 ! D116  D(31,26,27,15)        -56.3917         estimate D2E/DX2                !
 ! D117  D(31,26,27,28)         64.9422         estimate D2E/DX2                !
 ! D118  D(31,26,27,32)       -174.4484         estimate D2E/DX2                !
 ! D119  D(36,26,27,15)         63.6547         estimate D2E/DX2                !
 ! D120  D(36,26,27,28)       -175.0114         estimate D2E/DX2                !
 ! D121  D(36,26,27,32)        -54.402          estimate D2E/DX2                !
 ! D122  D(25,26,36,44)         74.3265         estimate D2E/DX2                !
 ! D123  D(27,26,36,44)       -163.0188         estimate D2E/DX2                !
 ! D124  D(31,26,36,44)        -44.7831         estimate D2E/DX2                !
 ! D125  D(15,27,28,29)        172.7722         estimate D2E/DX2                !
 ! D126  D(15,27,28,33)        -69.2975         estimate D2E/DX2                !
 ! D127  D(15,27,28,35)         50.074          estimate D2E/DX2                !
 ! D128  D(26,27,28,29)         54.5709         estimate D2E/DX2                !
 ! D129  D(26,27,28,33)        172.5012         estimate D2E/DX2                !
 ! D130  D(26,27,28,35)        -68.1274         estimate D2E/DX2                !
 ! D131  D(32,27,28,29)        -66.2037         estimate D2E/DX2                !
 ! D132  D(32,27,28,33)         51.7266         estimate D2E/DX2                !
 ! D133  D(32,27,28,35)        171.0981         estimate D2E/DX2                !
 ! D134  D(27,28,29,24)        -53.3844         estimate D2E/DX2                !
 ! D135  D(27,28,29,34)         68.7061         estimate D2E/DX2                !
 ! D136  D(27,28,29,38)       -171.3656         estimate D2E/DX2                !
 ! D137  D(33,28,29,24)       -172.4007         estimate D2E/DX2                !
 ! D138  D(33,28,29,34)        -50.3102         estimate D2E/DX2                !
 ! D139  D(33,28,29,38)         69.6181         estimate D2E/DX2                !
 ! D140  D(35,28,29,24)         68.2757         estimate D2E/DX2                !
 ! D141  D(35,28,29,34)       -169.6337         estimate D2E/DX2                !
 ! D142  D(35,28,29,38)        -49.7054         estimate D2E/DX2                !
 ! D143  D(27,28,35,43)        144.8682         estimate D2E/DX2                !
 ! D144  D(27,28,35,82)        -22.1439         estimate D2E/DX2                !
 ! D145  D(29,28,35,43)         23.0311         estimate D2E/DX2                !
 ! D146  D(29,28,35,82)       -143.981          estimate D2E/DX2                !
 ! D147  D(33,28,35,43)        -95.4966         estimate D2E/DX2                !
 ! D148  D(33,28,35,82)         97.4913         estimate D2E/DX2                !
 ! D149  D(24,29,38,39)         58.4728         estimate D2E/DX2                !
 ! D150  D(24,29,38,40)        177.0827         estimate D2E/DX2                !
 ! D151  D(24,29,38,41)        -63.9706         estimate D2E/DX2                !
 ! D152  D(28,29,38,39)       -179.2965         estimate D2E/DX2                !
 ! D153  D(28,29,38,40)        -60.6866         estimate D2E/DX2                !
 ! D154  D(28,29,38,41)         58.2601         estimate D2E/DX2                !
 ! D155  D(34,29,38,39)        -59.7049         estimate D2E/DX2                !
 ! D156  D(34,29,38,40)         58.905          estimate D2E/DX2                !
 ! D157  D(34,29,38,41)        177.8517         estimate D2E/DX2                !
 ! D158  D(28,35,82,41)        156.1371         estimate D2E/DX2                !
 ! D159  D(28,35,82,62)        122.9097         estimate D2E/DX2                !
 ! D160  D(43,35,82,41)         -8.126          estimate D2E/DX2                !
 ! D161  D(43,35,82,62)        -41.3534         estimate D2E/DX2                !
 ! D162  D(25,37,49,48)        121.4492         estimate D2E/DX2                !
 ! D163  D(25,37,49,50)       -120.9345         estimate D2E/DX2                !
 ! D164  D(25,37,49,55)         -1.3559         estimate D2E/DX2                !
 ! D165  D(29,38,41,42)         75.995          estimate D2E/DX2                !
 ! D166  D(29,38,41,82)        -28.8614         estimate D2E/DX2                !
 ! D167  D(39,38,41,42)        -45.7345         estimate D2E/DX2                !
 ! D168  D(39,38,41,82)       -150.591          estimate D2E/DX2                !
 ! D169  D(40,38,41,42)       -163.5063         estimate D2E/DX2                !
 ! D170  D(40,38,41,82)         91.6372         estimate D2E/DX2                !
 ! D171  D(38,41,82,35)        -12.5539         estimate D2E/DX2                !
 ! D172  D(38,41,82,62)        114.4275         estimate D2E/DX2                !
 ! D173  D(38,41,82,81)        164.4713         estimate D2E/DX2                !
 ! D174  D(42,41,82,35)       -124.006          estimate D2E/DX2                !
 ! D175  D(42,41,82,62)          2.9754         estimate D2E/DX2                !
 ! D176  D(42,41,82,81)         53.0192         estimate D2E/DX2                !
 ! D177  D(50,45,46,47)         57.0474         estimate D2E/DX2                !
 ! D178  D(50,45,46,51)        177.7284         estimate D2E/DX2                !
 ! D179  D(50,45,46,58)        -64.894          estimate D2E/DX2                !
 ! D180  D(84,45,46,47)         57.6819         estimate D2E/DX2                !
 ! D181  D(84,45,46,51)        178.363          estimate D2E/DX2                !
 ! D182  D(84,45,46,58)        -64.2595         estimate D2E/DX2                !
 ! D183  D(46,45,50,49)        -22.5746         estimate D2E/DX2                !
 ! D184  D(46,45,50,54)       -138.331          estimate D2E/DX2                !
 ! D185  D(46,45,50,59)        107.1572         estimate D2E/DX2                !
 ! D186  D(84,45,50,49)        -23.0836         estimate D2E/DX2                !
 ! D187  D(84,45,50,54)       -138.84           estimate D2E/DX2                !
 ! D188  D(84,45,50,59)        106.6482         estimate D2E/DX2                !
 ! D189  D(46,45,84,56)       -103.5162         estimate D2E/DX2                !
 ! D190  D(46,45,84,58)         51.2239         estimate D2E/DX2                !
 ! D191  D(46,45,84,81)         97.9352         estimate D2E/DX2                !
 ! D192  D(50,45,84,56)         75.8787         estimate D2E/DX2                !
 ! D193  D(50,45,84,58)       -129.3813         estimate D2E/DX2                !
 ! D194  D(50,45,84,81)        -82.6699         estimate D2E/DX2                !
 ! D195  D(45,46,47,48)        -26.6354         estimate D2E/DX2                !
 ! D196  D(45,46,47,52)       -144.4288         estimate D2E/DX2                !
 ! D197  D(45,46,47,57)         92.3767         estimate D2E/DX2                !
 ! D198  D(51,46,47,48)       -144.404          estimate D2E/DX2                !
 ! D199  D(51,46,47,52)         97.8026         estimate D2E/DX2                !
 ! D200  D(51,46,47,57)        -25.3919         estimate D2E/DX2                !
 ! D201  D(58,46,47,48)         94.8915         estimate D2E/DX2                !
 ! D202  D(58,46,47,52)        -22.9019         estimate D2E/DX2                !
 ! D203  D(58,46,47,57)       -146.0964         estimate D2E/DX2                !
 ! D204  D(45,46,58,66)       -151.5275         estimate D2E/DX2                !
 ! D205  D(45,46,58,84)        115.0711         estimate D2E/DX2                !
 ! D206  D(47,46,58,66)         84.202          estimate D2E/DX2                !
 ! D207  D(47,46,58,84)         -9.1994         estimate D2E/DX2                !
 ! D208  D(51,46,58,66)        -36.9472         estimate D2E/DX2                !
 ! D209  D(51,46,58,84)       -130.3487         estimate D2E/DX2                !
 ! D210  D(46,47,48,49)        -32.1407         estimate D2E/DX2                !
 ! D211  D(46,47,48,53)         86.1774         estimate D2E/DX2                !
 ! D212  D(46,47,48,56)       -154.405          estimate D2E/DX2                !
 ! D213  D(52,47,48,49)         85.9541         estimate D2E/DX2                !
 ! D214  D(52,47,48,53)       -155.7278         estimate D2E/DX2                !
 ! D215  D(52,47,48,56)        -36.3103         estimate D2E/DX2                !
 ! D216  D(57,47,48,49)       -155.6029         estimate D2E/DX2                !
 ! D217  D(57,47,48,53)        -37.2848         estimate D2E/DX2                !
 ! D218  D(57,47,48,56)         82.1328         estimate D2E/DX2                !
 ! D219  D(46,47,57,65)         71.2097         estimate D2E/DX2                !
 ! D220  D(48,47,57,65)       -166.5469         estimate D2E/DX2                !
 ! D221  D(52,47,57,65)        -50.3826         estimate D2E/DX2                !
 ! D222  D(47,48,49,37)       -178.5227         estimate D2E/DX2                !
 ! D223  D(47,48,49,50)         64.2372         estimate D2E/DX2                !
 ! D224  D(47,48,49,55)        -56.1624         estimate D2E/DX2                !
 ! D225  D(53,48,49,37)         63.4535         estimate D2E/DX2                !
 ! D226  D(53,48,49,50)        -53.7866         estimate D2E/DX2                !
 ! D227  D(53,48,49,55)       -174.1862         estimate D2E/DX2                !
 ! D228  D(56,48,49,37)        -56.2845         estimate D2E/DX2                !
 ! D229  D(56,48,49,50)       -173.5245         estimate D2E/DX2                !
 ! D230  D(56,48,49,55)         66.0759         estimate D2E/DX2                !
 ! D231  D(47,48,56,64)        -68.0487         estimate D2E/DX2                !
 ! D232  D(47,48,56,84)         63.0952         estimate D2E/DX2                !
 ! D233  D(49,48,56,64)        169.673          estimate D2E/DX2                !
 ! D234  D(49,48,56,84)        -59.1831         estimate D2E/DX2                !
 ! D235  D(53,48,56,64)         50.5042         estimate D2E/DX2                !
 ! D236  D(53,48,56,84)       -178.3519         estimate D2E/DX2                !
 ! D237  D(37,49,50,45)       -156.4217         estimate D2E/DX2                !
 ! D238  D(37,49,50,54)        -41.8403         estimate D2E/DX2                !
 ! D239  D(37,49,50,59)         77.0352         estimate D2E/DX2                !
 ! D240  D(48,49,50,45)        -37.4438         estimate D2E/DX2                !
 ! D241  D(48,49,50,54)         77.1375         estimate D2E/DX2                !
 ! D242  D(48,49,50,59)       -163.987          estimate D2E/DX2                !
 ! D243  D(55,49,50,45)         83.7104         estimate D2E/DX2                !
 ! D244  D(55,49,50,54)       -161.7082         estimate D2E/DX2                !
 ! D245  D(55,49,50,59)        -42.8327         estimate D2E/DX2                !
 ! D246  D(45,50,59,60)         51.8495         estimate D2E/DX2                !
 ! D247  D(45,50,59,61)        169.6872         estimate D2E/DX2                !
 ! D248  D(45,50,59,62)        -70.4586         estimate D2E/DX2                !
 ! D249  D(49,50,59,60)       -179.8928         estimate D2E/DX2                !
 ! D250  D(49,50,59,61)        -62.0551         estimate D2E/DX2                !
 ! D251  D(49,50,59,62)         57.7991         estimate D2E/DX2                !
 ! D252  D(54,50,59,60)        -61.1916         estimate D2E/DX2                !
 ! D253  D(54,50,59,61)         56.6461         estimate D2E/DX2                !
 ! D254  D(54,50,59,62)        176.5003         estimate D2E/DX2                !
 ! D255  D(48,56,84,45)         -0.8926         estimate D2E/DX2                !
 ! D256  D(48,56,84,58)        -10.3592         estimate D2E/DX2                !
 ! D257  D(48,56,84,81)         38.7056         estimate D2E/DX2                !
 ! D258  D(64,56,84,45)        123.9636         estimate D2E/DX2                !
 ! D259  D(64,56,84,58)        114.4971         estimate D2E/DX2                !
 ! D260  D(64,56,84,81)        163.5618         estimate D2E/DX2                !
 ! D261  D(46,58,66,67)        -51.6029         estimate D2E/DX2                !
 ! D262  D(46,58,66,68)         66.5338         estimate D2E/DX2                !
 ! D263  D(46,58,66,69)       -173.0329         estimate D2E/DX2                !
 ! D264  D(84,58,66,67)         54.6997         estimate D2E/DX2                !
 ! D265  D(84,58,66,68)        172.8365         estimate D2E/DX2                !
 ! D266  D(84,58,66,69)        -66.7303         estimate D2E/DX2                !
 ! D267  D(46,58,84,45)        -35.7321         estimate D2E/DX2                !
 ! D268  D(46,58,84,56)        -16.8222         estimate D2E/DX2                !
 ! D269  D(46,58,84,81)       -172.9802         estimate D2E/DX2                !
 ! D270  D(66,58,84,45)       -151.3324         estimate D2E/DX2                !
 ! D271  D(66,58,84,56)       -132.4225         estimate D2E/DX2                !
 ! D272  D(66,58,84,81)         71.4195         estimate D2E/DX2                !
 ! D273  D(50,59,62,63)         38.3041         estimate D2E/DX2                !
 ! D274  D(50,59,62,82)        -47.5547         estimate D2E/DX2                !
 ! D275  D(60,59,62,63)        -82.7432         estimate D2E/DX2                !
 ! D276  D(60,59,62,82)       -168.6021         estimate D2E/DX2                !
 ! D277  D(61,59,62,63)        159.1929         estimate D2E/DX2                !
 ! D278  D(61,59,62,82)         73.334          estimate D2E/DX2                !
 ! D279  D(59,62,82,35)        -91.3465         estimate D2E/DX2                !
 ! D280  D(59,62,82,41)       -116.9334         estimate D2E/DX2                !
 ! D281  D(59,62,82,81)         83.9632         estimate D2E/DX2                !
 ! D282  D(63,62,82,35)        164.7923         estimate D2E/DX2                !
 ! D283  D(63,62,82,41)        139.2055         estimate D2E/DX2                !
 ! D284  D(63,62,82,81)        -19.898          estimate D2E/DX2                !
 ! D285  D(58,66,69,70)        -59.3729         estimate D2E/DX2                !
 ! D286  D(58,66,69,71)       -173.6585         estimate D2E/DX2                !
 ! D287  D(58,66,69,72)         62.866          estimate D2E/DX2                !
 ! D288  D(67,66,69,70)        179.8484         estimate D2E/DX2                !
 ! D289  D(67,66,69,71)         65.5629         estimate D2E/DX2                !
 ! D290  D(67,66,69,72)        -57.9127         estimate D2E/DX2                !
 ! D291  D(68,66,69,70)         60.3829         estimate D2E/DX2                !
 ! D292  D(68,66,69,71)        -53.9026         estimate D2E/DX2                !
 ! D293  D(68,66,69,72)       -177.3782         estimate D2E/DX2                !
 ! D294  D(66,69,72,73)       -167.8812         estimate D2E/DX2                !
 ! D295  D(66,69,72,74)        -52.9988         estimate D2E/DX2                !
 ! D296  D(66,69,72,75)         70.9441         estimate D2E/DX2                !
 ! D297  D(70,69,72,73)        -46.0859         estimate D2E/DX2                !
 ! D298  D(70,69,72,74)         68.7965         estimate D2E/DX2                !
 ! D299  D(70,69,72,75)       -167.2606         estimate D2E/DX2                !
 ! D300  D(71,69,72,73)         69.7774         estimate D2E/DX2                !
 ! D301  D(71,69,72,74)       -175.3403         estimate D2E/DX2                !
 ! D302  D(71,69,72,75)        -51.3974         estimate D2E/DX2                !
 ! D303  D(69,72,75,76)        -66.8641         estimate D2E/DX2                !
 ! D304  D(69,72,75,77)         49.1698         estimate D2E/DX2                !
 ! D305  D(69,72,75,78)        168.7208         estimate D2E/DX2                !
 ! D306  D(73,72,75,76)        172.3877         estimate D2E/DX2                !
 ! D307  D(73,72,75,77)        -71.5784         estimate D2E/DX2                !
 ! D308  D(73,72,75,78)         47.9725         estimate D2E/DX2                !
 ! D309  D(74,72,75,76)         56.0934         estimate D2E/DX2                !
 ! D310  D(74,72,75,77)        172.1273         estimate D2E/DX2                !
 ! D311  D(74,72,75,78)        -68.3218         estimate D2E/DX2                !
 ! D312  D(72,75,78,79)        -52.9518         estimate D2E/DX2                !
 ! D313  D(72,75,78,80)       -172.5174         estimate D2E/DX2                !
 ! D314  D(72,75,78,81)         66.9265         estimate D2E/DX2                !
 ! D315  D(76,75,78,79)       -178.4856         estimate D2E/DX2                !
 ! D316  D(76,75,78,80)         61.9489         estimate D2E/DX2                !
 ! D317  D(76,75,78,81)        -58.6072         estimate D2E/DX2                !
 ! D318  D(77,75,78,79)         68.2086         estimate D2E/DX2                !
 ! D319  D(77,75,78,80)        -51.357          estimate D2E/DX2                !
 ! D320  D(77,75,78,81)       -171.9131         estimate D2E/DX2                !
 ! D321  D(75,78,81,82)        -67.1217         estimate D2E/DX2                !
 ! D322  D(75,78,81,83)        173.3545         estimate D2E/DX2                !
 ! D323  D(75,78,81,84)         53.8184         estimate D2E/DX2                !
 ! D324  D(79,78,81,82)         55.4017         estimate D2E/DX2                !
 ! D325  D(79,78,81,83)        -64.1221         estimate D2E/DX2                !
 ! D326  D(79,78,81,84)        176.3418         estimate D2E/DX2                !
 ! D327  D(80,78,81,82)        170.5688         estimate D2E/DX2                !
 ! D328  D(80,78,81,83)         51.045          estimate D2E/DX2                !
 ! D329  D(80,78,81,84)        -68.491          estimate D2E/DX2                !
 ! D330  D(78,81,82,41)         34.6663         estimate D2E/DX2                !
 ! D331  D(78,81,82,62)         68.2677         estimate D2E/DX2                !
 ! D332  D(83,81,82,41)        158.2745         estimate D2E/DX2                !
 ! D333  D(83,81,82,62)       -168.1241         estimate D2E/DX2                !
 ! D334  D(84,81,82,41)        -88.8994         estimate D2E/DX2                !
 ! D335  D(84,81,82,62)        -55.298          estimate D2E/DX2                !
 ! D336  D(78,81,83,13)       -106.1868         estimate D2E/DX2                !
 ! D337  D(78,81,83,19)       -160.0345         estimate D2E/DX2                !
 ! D338  D(82,81,83,13)        129.5438         estimate D2E/DX2                !
 ! D339  D(82,81,83,19)         75.6961         estimate D2E/DX2                !
 ! D340  D(84,81,83,13)         16.3568         estimate D2E/DX2                !
 ! D341  D(84,81,83,19)        -37.491          estimate D2E/DX2                !
 ! D342  D(78,81,84,45)        -82.5171         estimate D2E/DX2                !
 ! D343  D(78,81,84,56)       -108.8295         estimate D2E/DX2                !
 ! D344  D(78,81,84,58)        -68.6554         estimate D2E/DX2                !
 ! D345  D(82,81,84,45)         42.2734         estimate D2E/DX2                !
 ! D346  D(82,81,84,56)         15.961          estimate D2E/DX2                !
 ! D347  D(82,81,84,58)         56.1351         estimate D2E/DX2                !
 ! D348  D(83,81,84,45)        154.3403         estimate D2E/DX2                !
 ! D349  D(83,81,84,56)        128.0279         estimate D2E/DX2                !
 ! D350  D(83,81,84,58)        168.202          estimate D2E/DX2                !
 --------------------------------------------------------------------------------
 Trust Radius=3.00D-01 FncErr=1.00D-07 GrdErr=1.00D-06
 Number of steps in this run=    504 maximum allowed number of steps=    504.
 GradGradGradGradGradGradGradGradGradGradGradGradGradGradGradGradGradGrad

 Leave Link  103 at Sat Apr 30 13:53:34 2016, MaxMem= 10737418240 cpu:         0.5
 (Enter /share/apps//g09/l202.exe)
 Stoichiometry    C23H44NO16(1+)
 Framework group  C1[X(C23H44NO16)]
 Deg. of freedom   246
 Full point group                 C1      NOp   1
 Largest Abelian subgroup         C1      NOp   1
 Largest concise Abelian subgroup C1      NOp   1
                         Standard orientation:                         
 ---------------------------------------------------------------------
 Center     Atomic      Atomic             Coordinates (Angstroms)
 Number     Number       Type             X           Y           Z
 ---------------------------------------------------------------------
      1          8           0        4.266109   -0.830706    0.938148
      2          6           0        3.439760    0.280751    1.188161
      3          6           0        4.088984    1.543356    0.617811
      4          6           0        4.331514    1.397141   -0.886048
      5          6           0        5.192200    0.162924   -1.162114
      6          6           0        4.590680   -1.067115   -0.459679
      7          1           0        3.365547    0.333473    2.288332
      8          1           0        5.053673    1.667682    1.136189
      9          1           0        3.362825    1.275264   -1.396407
     10          1           0        5.190256   -0.040674   -2.246064
     11          1           0        3.669736   -1.343371   -1.002071
     12          8           0        6.516206    0.498788   -0.725849
     13          8           0        4.919883    2.597728   -1.387695
     14          8           0        3.271005    2.710068    0.871263
     15          8           0        2.145785    0.173828    0.595844
     16          6           0        5.567666   -2.246636   -0.416616
     17          1           0        6.255365   -2.090582    0.432199
     18          1           0        5.010660   -3.182572   -0.250223
     19          8           0        6.275334   -2.272167   -1.665618
     20          1           0        6.760639   -3.111115   -1.725854
     21          1           0        7.115226   -0.153815   -1.134219
     22          1           0        5.887894    2.472090   -1.288333
     23          1           0        3.726538    3.425423    0.379258
     24          8           0       -1.225675   -2.144437    1.487659
     25          6           0       -0.567999   -2.404125    0.250593
     26          6           0        0.426673   -1.288267   -0.137304
     27          6           0        1.362449   -0.957024    1.018603
     28          6           0        0.559733   -0.645014    2.289073
     29          6           0       -0.397008   -1.809515    2.604094
     30          1           0       -0.032265   -3.371419    0.278200
     31          1           0       -0.155176   -0.377802   -0.364688
     32          1           0        2.032527   -1.813569    1.210406
     33          1           0        1.253021   -0.540696    3.144722
     34          1           0        0.214696   -2.682682    2.910994
     35          8           0       -0.157887    0.590853    2.115777
     36          8           0        1.186703   -1.684017   -1.265362
     37          8           0       -1.575463   -2.591516   -0.718578
     38          6           0       -1.378397   -1.477789    3.735560
     39          1           0       -2.024388   -2.349387    3.922123
     40          1           0       -0.824378   -1.256112    4.659328
     41          8           0       -2.172364   -0.321460    3.425757
     42          1           0       -2.874210   -0.589218    2.763067
     43          1           0       -1.033780    0.473024    2.609915
     44          1           0        0.568511   -1.609864   -2.023226
     45          8           0       -4.915808   -1.153106   -1.285269
     46          6           0       -4.560977    0.140914   -1.655437
     47          6           0       -3.323196    0.195249   -2.590391
     48          6           0       -2.409187   -1.016587   -2.378748
     49          6           0       -2.461157   -1.475170   -0.920820
     50          6           0       -3.897083   -1.960859   -0.620908
     51          1           0       -5.448668    0.550252   -2.169428
     52          1           0       -2.740417    1.100026   -2.333311
     53          1           0       -2.780898   -1.838095   -3.016127
     54          1           0       -3.994445   -2.963346   -1.070237
     55          1           0       -2.196981   -0.651950   -0.239399
     56          8           0       -1.056308   -0.694942   -2.755421
     57          8           0       -3.662097    0.185756   -3.977486
     58          8           0       -4.294726    0.910899   -0.456890
     59          6           0       -4.246763   -2.096696    0.860094
     60          1           0       -5.289326   -2.449489    0.923952
     61          1           0       -3.589287   -2.848702    1.313979
     62          8           0       -4.094314   -0.889953    1.619840
     63          1           0       -4.393375   -0.141736    1.053527
     64          1           0       -1.060623   -0.573942   -3.721933
     65          1           0       -4.061997    1.038538   -4.221440
     66          6           0       -4.538237    2.325346   -0.557149
     67          1           0       -4.018185    2.737902   -1.442248
     68          1           0       -5.619782    2.504212   -0.690482
     69          6           0       -4.041824    2.980801    0.725400
     70          1           0       -4.590471    2.538739    1.571729
     71          1           0       -4.331452    4.044041    0.697724
     72          6           0       -2.531429    2.851477    0.985389
     73          1           0       -2.335886    3.162959    2.024401
     74          1           0       -2.251822    1.787827    0.925286
     75          6           0       -1.657508    3.693284    0.042880
     76          1           0       -1.721381    3.322339   -0.995552
     77          1           0       -2.044725    4.725027    0.012162
     78          6           0       -0.186469    3.797985    0.442546
     79          1           0       -0.081128    4.139416    1.482010
     80          1           0        0.336408    4.518454   -0.201140
     81          7           0        0.549118    2.497585    0.346744
     82          1           0        0.222748    1.769025    1.053837
     83          1           0        1.588697    2.605121    0.517120
     84          1           0        0.450635    2.074727   -0.584204
 ---------------------------------------------------------------------
 Rotational constants (GHZ):      0.1382559      0.0569683      0.0549728
 Leave Link  202 at Sat Apr 30 13:53:34 2016, MaxMem= 10737418240 cpu:         1.7
 (Enter /share/apps//g09/l301.exe)
 Standard basis: 6-311+G(d,p) (5D, 7F)
 Ernie: Thresh=  0.10000D-02 Tol=  0.10000D-05 Strict=F.
 There are  1184 symmetry adapted cartesian basis functions of A   symmetry.
 There are  1144 symmetry adapted basis functions of A   symmetry.
  1144 basis functions,  1792 primitive gaussians,  1184 cartesian basis functions
   158 alpha electrons      158 beta electrons
       nuclear repulsion energy      5867.4583654036 Hartrees.
 IExCor= 1009 DFT=T Ex+Corr=PBE1PBE ExCW=0 ScaHFX=  0.250000
 ScaDFX=  0.750000  0.750000  1.000000  1.000000 ScalE2=  1.000000  1.000000
 IRadAn=      0 IRanWt=     -1 IRanGd=            0 ICorTp=0 IEmpDi=131
[...]
 0.00007017,0.00004996,-0.00021323,-0.00036903,0.00001473,0.00004216,-0
 .00001427,-0.00002484,0.00004200,0.00005889,-0.00041596,0.00057730,0.0
 0062648,-0.00013525,0.00005253,-0.00028887,-0.00004308,0.00015672,-0.0
 0017412,0.00014323,-0.00012781,-0.00004265,-0.00003710,0.00001034,-0.0
 0001305,0.00000168,-0.00000219,-0.00000390,-0.00005596,0.00014181,0.00
 011817,0.00001695,0.00000639,-0.00001565,-0.00009151,0.00004578,-0.000
 20207,0.00001498,-0.00010504,0.00007292,-0.00003290,0.00006697,0.00003
 640,0.00006344,-0.00000377,-0.00007631,0.00010977,0.00001754,-0.000087
 85,0.00002797,-0.00001267,0.00000849,0.00011704,-0.00010537,-0.0000138
 1,-0.00000083,-0.00003105,0.00001171,-0.00000442,-0.00000247,0.0000023
 0,-0.00002624,0.00003390,0.00002793,-0.00000830,0.00000100,0.00000565,
 -0.00000629,-0.00000059,0.00000906,-0.00001426,-0.00001280,-0.00001713
 ,-0.00015050,0.00008237,-0.00002902,-0.00007129,-0.00004230,0.00003224
 ,-0.00006340,-0.00000591,0.00007185,0.00004292,-0.00001451,-0.00002202
 ,-0.00000599,0.00000090,0.00000399,-0.00000031,0.00000609,0.00000759,-
 0.00004844,0.00002548,0.00003531,0.00000881,-0.00002445,-0.00002698,0.
 00003967,-0.00001034,0.00003449,0.00001006,0.00001725,-0.00000963,0.00
 002165,-0.00001740,-0.00001150,-0.00000925,0.00001411,-0.00000232,-0.0
 0001010,-0.00000314,0.00001728,-0.00004036,0.00001875,-0.00005895,0.00
 001707,-0.00001704,-0.00000415,0.00003019,-0.00003411,0.00001673,0.000
 12791,0.00000400,0.00035553,-0.00002524,-0.00004591,-0.00003809,-0.000
 00466,-0.00008683,-0.00007118,-0.00349319,0.00264881,0.00171766,0.0002
 0055,0.00011645,0.00011039,0.00026365,0.00072916,-0.00104375,-0.000769
 36,0.01021003,-0.02249116,-0.00055098,-0.00027542,-0.00062697,0.001033
 61,-0.00044026,0.00028428,-0.06447297,0.00722137,-0.01415059,-0.000480
 94,0.00307902,-0.00755742,0.07378844,-0.00149244,0.00070979,0.00050154
 ,0.00180297,-0.00258226,-0.00034075,0.00489788,-0.00484885,0.00105617,
 0.00051815,0.00153686,-0.00025404,-0.00020094,-0.00053831,0.00002081,0
 .00070562,0.00032612,-0.00011951,-0.00010943,-0.00005715,-0.00009947,-
 0.00079735,0.00063197,-0.00018004,-0.00011021,-0.00005710,0.00018993,-
 0.00020904,0.00010614,-0.00009508,-0.00006476,-0.00000628,-0.00005756,
 -0.00029973,0.00014401,-0.00019360,-0.00099229,-0.00056906,-0.00034797
 ,-0.00100441,-0.00760172,-0.00564193,-0.00068438,-0.00070964,0.0028643
 6,0.00019854,-0.00011717,0.00002298,0.00000242,-0.00003229,0.00000424,
 -0.00003877,0.00003314,0.00002193,-0.00036449,0.00005982,-0.00001870,0
 .00006925,-0.00000003,-0.00001503,0.00006720,-0.00005898,0.00008465,0.
 00019034,0.00001381,0.00020488,-0.00094627,0.00576177,-0.00290841,-0.0
 0005214,-0.00018884,0.00019829,0.00001799,-0.00003422,-0.00028106,-0.0
 0041298,0.00081275,-0.00007988,0.00005313,-0.00032264,-0.00263205,-0.0
 0123653,0.00096616,-0.00056953,0.00047638,-0.00017081,-0.00005661,0.00
 003266,-0.00006431,-0.00005865,-0.00001872,-0.00026667,0.00016270,-0.0
 0005224,0.00023726,0.00037627,0.00003761,-0.00040527,-0.00002487,0.000
 06859,-0.00008985,-0.00011461,0.00062726,-0.00445690,-0.00062370,0.000
 22727,-0.00039415,0.00030982,0.00006226,-0.00041894,0.00034016,-0.0002
 2938,0.00033215,0.00002736,0.00006250,-0.00003011,0.00002774,-0.000017
 77,-0.00002955,0.00000888,0.00008335,-0.00041398,-0.00007709,0.0000178
 6,0.00015153,-0.00002378,0.00002424,0.00013996,0.00024201,-0.00008400,
 0.00024688,-0.00002472,0.00014445,-0.00026210,-0.00015821,-0.00035008,
 0.00003707,0.00031379,-0.00022716,-0.00004761,0.00016478,-0.00002668,0
 .00005101,0.00000001,-0.00025061,0.00026269,0.00002428,-0.00002117,0.0
 0014395,-0.00002156,0.00001869,0.00000736,-0.00000420,0.00004232,-0.00
 003673,-0.00008185,0.00001931,-0.00000468,-0.00002018,0.00001878,-0.00
 000699,-0.00002004,0.00002290,0.00004546,0.00002329,0.00023027,-0.0002
 0296,-0.00004473,0.00017190,0.00008826,-0.00009046,0.00039954,-0.00007
 051,-0.00035005,-0.00010672,0.00003436,0.00006753,0.00001286,0.0000019
 3,-0.00001469,0.00000755,-0.00001824,-0.00001816,0.00009916,-0.0001858
 5,-0.00010652,-0.00003907,0.00015051,0.00014406,-0.00011444,0.00003507
 ,0.00000969,-0.00003813,-0.00004720,0.00004874,-0.00021103,0.00013005,
 0.00016465,-0.00002142,-0.00008046,0.00001450,0.00005127,0.00000002,-0
 .00008670,-0.00007493,-0.00010532,0.00020502,-0.00002853,0.00004670,-0
 .00012531,0.00000115,0.00009700,-0.00007536,0.00029633,0.00020173,-0.0
 0035360,-0.00000132,0.00002381,0.00006093,-0.00019355,0.00020367,0.000
 33558,0.00238342,-0.00197172,-0.00123150,0.00005282,0.00009297,-0.0002
 8212,-0.00001954,-0.00009848,0.00065007,0.00363694,-0.01284469,0.01755
 595,-0.00069232,0.00114859,-0.00020822,-0.00098728,0.00009398,0.000075
 76,0.00400864,-0.11580469,0.10750199,-0.00009629,0.02006565,-0.0193153
 0,-0.00862665,0.12713974,0.00073613,-0.00027641,-0.00243982,-0.0003563
 4,-0.00029326,0.00664940,-0.01122993,0.00692928,0.00347139,-0.00054891
 ,-0.00168380,0.00003321,0.00003028,0.00105097,0.00034570,-0.00045119,-
 0.00008079,0.00079710,0.00003872,0.00022572,-0.00034008,0.00256934,-0.
 00211873,0.00009104,-0.00004394,0.00023143,0.00009100,0.00035123,-0.00
 021708,0.00009636,0.00012727,-0.00003898,0.00009294,0.00076028,-0.0005
 4469,0.00012557,0.00172858,0.00019254,0.00037344,0.00741388,-0.0092907
 6,0.00381870,-0.00121804,0.00236217,-0.00456542,-0.00018920,0.00012872
 ,-0.00004429,-0.00002304,0.00005973,0.00000390,0.00011025,-0.00010674,
 -0.00005002,0.00039437,-0.00012334,-0.00012772,-0.00011308,-0.00002052
 ,0.00002518,-0.00013259,0.00014759,-0.00006994,-0.00033976,-0.00002406
 ,-0.00045142,0.00064825,-0.00254700,-0.00284567,-0.00014962,0.00015671
 ,-0.00008261,0.00013692,0.00008200,0.00001213,0.00092576,-0.00071184,0
 .00014525,0.00023543,0.00021051,0.00049358,0.00136185,-0.00201353,0.00
 039446,-0.00029592,0.00021227,-0.00013810,-0.00005073,0.00008658,0.000
 09505,-0.00004894,0.00035393,-0.00028276,-0.00010843,0.00008146,0.0001
 5377,0.00000926,0.00039260,-0.00000768,-0.00010686,0.00011680,0.000171
 68,-0.00023825,0.00296930,0.00235888,-0.00066896,0.00025684,-0.0004317
 3,-0.00016665,0.00026334,-0.00014104,0.00018776,-0.00050235,-0.0000200
 5,-0.00005716,0.00004893,0.00002361,0.00001132,0.00002407,-0.00003234,
 0.00003847,0.00061307,0.00058757,0.00001721,-0.00005370,-0.00011534,-0
 .00062422,0.00010171,-0.00079621,0.00015174,-0.00017960,0.00005852,-0.
 00019861,0.00027084,0.00025145,0.00052340,0.00001889,-0.00044890,0.000
 36463,0.00015812,-0.00025535,0.00008508,-0.00006307,0.00002175,0.00029
 386,-0.00017937,-0.00006941,0.00001885,-0.00014573,-0.00000505,-0.0000
 1959,-0.00002569,0.00000508,-0.00005538,0.00005302,0.00012407,-0.00003
 376,0.00001080,0.00002620,-0.00002872,0.00000738,0.00002514,-0.0000379
 8,-0.00004702,-0.00001995,-0.00037910,0.00016416,-0.00000853,-0.000309
 21,-0.00024664,0.00011257,-0.00061054,0.00005862,0.00050206,0.00019121
 ,-0.00004695,-0.00014519,-0.00002018,-0.00001414,0.00003980,-0.0000082
 5,0.00002312,-0.00000593,-0.00018692,0.00017419,0.00025492,0.00004334,
 -0.00016825,-0.00020437,0.00017354,-0.00002421,0.00006813,0.00007152,0
 .00009107,-0.00004735,0.00031008,-0.00018282,-0.00026753,0.00005791,0.
 00013434,-0.00004266,-0.00006669,-0.00000107,0.00014330,0.00000178,0.0
 0028329,-0.00005602,0.00001169,-0.00004704,0.00023659,-0.00006831,-0.0
 0004886,-0.00001990,-0.00019909,-0.00045824,-0.00028031,-0.00000712,0.
 00003376,0.00000890,0.00005314,0.00001387,-0.00014530,0.00328674,-0.00
 281029,-0.00082934,-0.00012314,0.00033611,-0.00020087,0.00046356,-0.00
 094521,0.00128236,-0.00697985,0.00039586,0.01121144,0.00055553,-0.0002
 4788,0.00020107,0.00056105,-0.00144665,0.00044939,-0.00836183,0.111953
 77,-0.26963774,-0.00087766,0.00539900,-0.02363574,0.00975956,-0.108397
 98,0.27623493,-0.00020020,-0.00000084,0.00005851,0.00011871,-0.0000783
 9,-0.00017866,0.00067729,-0.00046511,-0.00002929,0.00022794,0.00032346
 ,-0.00050493,-0.00011933,0.00002085,-0.00002963,0.00015210,0.00010805,
 -0.00003881,-0.00002649,-0.00010672,0.00005654,-0.00016646,0.00006583,
 -0.00001341,-0.00010530,-0.00004819,-0.00006220,-0.00004460,0.00001171
 ,-0.00001761,-0.00003188,0.00002948,0.00000455,0.00001514,-0.00009352,
 0.00010419,-0.00015738,-0.00003869,0.00021084,-0.00069591,0.00086637,-
 0.00105864,-0.00048696,0.00021982,0.00011855,-0.00002129,-0.00000184,0
 .00000403,0.00000519,-0.00001622,0.00001156,0.00000475,0.00000413,-0.0
 0000283,-0.00000379,-0.00002023,0.00001696,-0.00000527,0.00000690,-0.0
 0001051,-0.00001096,0.00000196,0.00000118,-0.00000610,0.00001232,0.000
 01256,0.00003996,0.00005611,0.00007573,-0.00036853,-0.00015413,-0.0000
 9031,0.00038443,-0.00009820,0.00038818,0.00001224,0.00060346,0.0000800
 4,0.00025072,0.00003517,0.00001221,0.00061196,-0.00053470,0.00013759,0
 .00004292,0.00020912,-0.00017057,-0.00001767,-0.00000605,-0.00009862,0
 .00029568,0.00018701,0.00051644,-0.00007560,-0.00002528,0.00001214,-0.
 00009456,0.00009982,-0.00001824,-0.00003496,0.00001443,0.00005884,-0.0
 0022106,0.00113825,0.00068347,-0.00013978,-0.00052704,-0.00047331,-0.0
 0015915,0.00003196,-0.00011280,0.00008225,-0.00015237,0.00001078,-0.00
 001486,0.00001951,0.00000742,-0.00001592,0.00000123,-0.00001030,-0.000
 05195,0.00014956,0.00018512,0.00005478,0.00002472,-0.00005529,-0.00010
 998,-0.00000002,-0.00027618,-0.00023599,0.00020006,0.00028584,-0.00014
 603,0.00007339,0.00000287,0.00040364,0.00007499,-0.00009694,0.00002064
 ,0.00000302,-0.00006441,0.00033653,-0.00002286,0.00061613,0.00013901,0
 .00000731,-0.00003558,0.00003585,-0.00009357,0.00007096,-0.00003791,-0
 .00000926,-0.00002041,0.00005892,0.00002086,0.00002917,-0.00004744,0.0
 0001942,-0.00013156,-0.00001313,0.00000451,0.00000587,0.00004126,-0.00
 002087,-0.00000409,0.00006107,-0.00006687,-0.00089130,-0.00010167,0.00
 000740,-0.00007103,-0.00040218,0.00002682,0.00021165,0.00012974,0.0000
 0621,-0.00007492,-0.00002938,-0.00000792,0.00000274,-0.00000073,0.0000
 1117,0.00001092,-0.00015944,0.00003327,0.00007850,0.00004971,-0.000047
 08,-0.00005448,-0.00011082,-0.00005759,0.00011802,0.00002259,-0.000004
 68,0.00002141,0.00018679,-0.00009680,-0.00012660,0.00001599,0.00003779
 ,-0.00002157,-0.00003302,0.00000762,0.00004586,0.00009932,0.00007369,-
 0.00007474,0.00000366,-0.00002790,0.00008368,-0.00002661,-0.00003235,0
 .00003187,-0.00025773,-0.00011191,-0.00011687,0.00008209,0.00001587,0.
 00010773,-0.00002293,-0.00013124,-0.00024355,0.00172218,-0.00062714,-0
 .00062070,-0.00007018,0.00082326,-0.00088679,0.00047372,-0.00022265,0.
 00051973,-0.02264312,-0.00745586,0.00431125,-0.00091168,0.00407954,0.0
 0025793,0.00096808,-0.00022776,0.00037017,-0.35052398,-0.12722747,0.06
 306034,-0.00578532,-0.00356819,0.00104544,0.00331477,-0.00031660,0.000
 92294,0.37380361,-0.00045020,0.00043960,-0.00049440,-0.00017265,-0.000
 60676,0.00166797,-0.00033972,0.00011261,0.00035731,-0.00005555,-0.0000
 2891,0.00044114,0.00008364,-0.00001972,0.00006250,0.00022607,0.0000678
 5,0.00015316,0.00006914,0.00021156,-0.00019659,0.00007648,-0.00006810,
 -0.00006159,0.00022688,0.00018157,0.00015652,-0.00001090,-0.00000442,-
 0.00002139,0.00002455,-0.00002908,-0.00000426,-0.00004477,0.00002896,-
 0.00015943,-0.00000019,-0.00016058,-0.00032188,0.00070805,-0.00036872,
 0.00043394,0.00027691,0.00169743,-0.00105356,0.00010332,-0.00002602,0.
 00002379,-0.00001085,0.00000323,-0.00000591,0.00000077,-0.00001098,0.0
 0000031,-0.00013328,0.00000208,-0.00005626,0.00002190,-0.00000626,0.00
 000602,0.00002243,0.00001044,0.00002804,0.00002652,0.00000395,-0.00000
 025,0.00005924,0.00005920,0.00006811,0.00017849,0.00003798,0.00023215,
 -0.00031095,0.00048996,-0.00093921,0.00092612,-0.00094008,0.00069239,0
 .00004514,-0.00066073,-0.00097758,-0.00047971,0.00013012,-0.00028776,0
 .00015596,-0.00022408,0.00002002,-0.00001432,0.00003167,0.00021231,0.0
 0002059,0.00060313,-0.00084109,0.00000706,0.00020590,0.00012899,0.0000
 3093,0.00000021,0.00001125,0.00001959,-0.00002356,-0.00005411,0.001024
 78,-0.00101054,-0.00081853,-0.00064088,0.00002478,0.00012234,0.0000523
 1,-0.00046532,0.00040040,-0.00014044,0.00011481,-0.00001224,0.00003019
 ,-0.00000978,0.00002404,0.00000456,-0.00001073,-0.00000062,0.00006969,
 -0.00016088,0.00008236,-0.00000284,0.00010149,-0.00006787,0.00003843,0
 .00007322,-0.00020325,0.00017336,0.00031047,-0.00020496,0.00007029,-0.
 00028233,-0.00011185,-0.00004723,0.00010273,0.00020824,-0.00025609,0.0
 0007814,0.00022138,0.00005877,0.00008071,0.00006523,-0.00003390,0.0003
 2267,-0.00009015,-0.00008893,0.00016849,-0.00005651,0.00000428,-0.0000
 1474,0.00000075,0.00009436,-0.00001995,-0.00005283,-0.00000007,-0.0000
 2268,-0.00003211,0.00001269,-0.00000999,0.00000907,-0.00005299,0.00002
 488,-0.00004695,0.00020387,-0.00045882,-0.00020728,0.00009398,-0.00003
 676,-0.00014811,0.00012430,-0.00015225,-0.00016862,-0.00003331,0.00001
 026,0.00000055,0.00000960,-0.00000448,0.00000836,-0.00000541,-0.000016
 82,-0.00003059,0.00003829,-0.00012861,0.00001021,-0.00002417,0.0001221
 5,0.00005217,-0.00017474,0.00006843,0.00015433,-0.00001079,-0.00002987
 ,0.00009033,-0.00002938,0.00016192,0.00015711,-0.00003840,-0.00007758,
 -0.00002281,-0.00000292,-0.00002741,-0.00003836,0.00002866,-0.00008171
 ,0.00001209,-0.00001290,0.00000598,-0.00004362,0.00002624,-0.00000630,
 0.00001634,-0.00032535,0.00003149,0.00043552,-0.00011267,-0.00014847,-
 0.00022795,0.00000037,0.00000411,-0.00013626,0.00111101,0.00222667,-0.
 00078610,-0.00116178,-0.00069739,0.00041887,-0.00049713,-0.00009470,-0
 .00021539,0.02723248,0.01339555,-0.00566744,0.00403902,-0.00414654,-0.
 00000938,-0.00010506,0.00048621,-0.00058206,-0.12669877,-0.11183114,0.
 02758005,-0.02251735,-0.00703110,0.00992015,-0.01579136,-0.00605839,-0
 .00050420,0.13297665,0.11398067,0.00006318,-0.00013932,-0.00019175,-0.
 00005266,0.00014550,0.00021232,-0.00000526,0.00035901,-0.00034767,0.00
 036148,0.00050652,-0.00073741,-0.00028557,0.00014498,0.00010727,0.0000
 2616,0.00002316,0.00013596,-0.00002472,-0.00005301,-0.00000676,-0.0000
 9742,-0.00004920,-0.00000448,-0.00042718,-0.00005717,0.00014662,-0.000
 01180,0.00000476,0.00000764,-0.00000927,-0.00000011,0.00006951,0.00019
 715,-0.00025264,0.00007472,0.00004555,-0.00020275,0.00029197,-0.001288
 69,-0.00026211,-0.00066338,0.00024596,-0.00061339,-0.00111913,-0.00004
 246,0.00001829,0.00000349,0.00000297,0.00000282,0.00000163,0.00002664,
 -0.00003250,-0.00001259,0.00006302,-0.00002866,-0.00004458,-0.00002310
 ,-0.00000518,0.00001143,-0.00004862,0.00001047,0.00002085,-0.00005682,
 0.00002822,-0.00004834,0.00015753,0.00028341,-0.00036667,0.00030595,0.
 00027322,0.00000792,-0.00044709,0.00022352,-0.00042019,0.00140496,-0.0
 0128764,0.00083474,-0.00037498,-0.00016858,0.00102385,-0.00007506,-0.0
 0009913,-0.00047525,-0.00016730,-0.00032691,0.00020917,-0.00002846,0.0
 0007946,0.00019815,0.00001056,0.00020236,-0.00074234,0.00010169,0.0000
 0889,-0.00019630,0.00005183,0.00006042,0.00001053,0.00001239,0.0000169
 9,-0.00005661,0.00082061,-0.00085889,-0.00115403,-0.00073301,0.0002152
 3,-0.00044782,-0.00001251,0.00017264,0.00000903,0.00003574,-0.00002817
 ,-0.00001369,-0.00001906,-0.00000425,-0.00000929,0.00002141,0.00001126
 ,0.00000073,0.00000375,0.00006983,-0.00012890,-0.00008176,-0.00009419,
 0.00005380,0.00008506,-0.00011319,0.00005827,0.00020556,-0.00009770,0.
 00003371,0.00002797,0.00005947,0.00014285,-0.00007063,0.00000505,-0.00
 017335,0.00033708,0.00012339,-0.00025179,0.00003418,-0.00000641,-0.000
 28125,0.00026081,-0.00007703,-0.00009132,-0.00009258,0.00000382,-0.000
 07363,0.00001225,-0.00001649,0.00002671,-0.00008855,0.00008302,0.00012
 124,-0.00001895,-0.00000655,0.00005540,-0.00000132,-0.00000246,0.00003
 592,-0.00014573,-0.00006827,-0.00007251,-0.00051092,0.00005024,0.00017
 025,-0.00019502,-0.00023970,0.00012084,0.00008953,-0.00007186,0.000146
 08,-0.00002681,-0.00003323,-0.00001735,0.00001715,0.00000145,0.0000168
 0,-0.00000768,0.00000138,-0.00000777,0.00008477,0.00008546,0.00005453,
 -0.00004273,-0.00005954,-0.00007696,0.00009010,0.00003953,0.00017145,0
 .00002094,0.00006519,-0.00000773,-0.00011884,0.00009156,-0.00004179,0.
 00001577,0.00004279,-0.00000555,0.00001549,-0.00000735,0.00003669,0.00
 011736,-0.00004623,-0.00011932,0.00000424,0.00000412,0.00001051,0.0000
 1663,-0.00004311,0.00004904,-0.00025554,0.00022450,-0.00009618,0.00023
 546,-0.00001074,0.00006657,-0.00003882,-0.00034312,-0.00030086,-0.0019
 4547,-0.00076741,0.00059530,0.00051302,0.00031998,0.00025481,0.0003526
 8,0.00009996,-0.00017228,-0.00027378,-0.00087343,-0.00044523,-0.000546
 63,0.00007216,0.00032527,0.00081136,-0.00009480,-0.00047769,0.06158442
 ,0.02683896,-0.06823343,-0.02477824,-0.00662608,0.00876033,0.03277144,
 0.01182000,-0.00240093,-0.06819075,-0.02872450,0.06585021\\-0.00000099
 ,0.00001471,-0.00000906,-0.00000127,-0.00001088,0.00002023,0.00001359,
 -0.00000851,0.00000350,0.00000091,-0.00000771,-0.00000836,-0.00000477,
 0.00000427,0.00000059,-0.00000457,-0.00000145,0.00000714,0.00000363,0.
 00000546,-0.00000060,-0.00000087,0.00000591,-0.00000109,-0.00000023,-0
 .00000333,0.00000365,-0.00000172,-0.00000431,-0.00000192,-0.00000100,-
 0.00000554,0.00000064,0.00000554,-0.00000175,-0.00000331,0.00000788,-0
 .00000276,0.00001148,0.00002011,0.00001048,0.00000203,0.00000186,-0.00
 000075,-0.00000610,0.00000532,0.00000055,0.00000485,0.00000324,0.00000
 555,-0.00000339,-0.00000172,-0.00000009,0.00000190,-0.00000891,-0.0000
 2696,-0.00000742,-0.00000005,0.00001610,0.00000403,-0.00000626,0.00000
 304,-0.00000249,-0.00000513,0.00000094,-0.00000957,0.00000172,-0.00000
 158,-0.00000400,0.00000046,0.00000042,0.00000606,0.00000067,-0.0000108
 2,0.00001801,-0.00000035,-0.00000930,-0.00000717,-0.00000461,0.0000041
 6,-0.00000913,0.00001297,-0.00001912,-0.00000736,-0.00000929,-0.000000
 19,0.00000776,-0.00000946,0.00000232,-0.00000399,-0.00000018,-0.000005
 97,0.00000178,-0.00000344,0.00000382,-0.00000302,0.,0.00000742,-0.0000
 0125,-0.00000342,0.00000393,-0.00000114,0.00000774,0.00000620,0.000015
 33,-0.00000400,0.00000815,-0.00000607,0.00000147,0.00000238,-0.0000006
 5,0.00000025,0.00000153,-0.00000127,-0.00000617,-0.00000020,0.00000438
 ,0.00000015,0.00000365,0.00000218,-0.00000409,-0.00002213,0.00000372,0
 .00000608,0.00001546,0.00000259,-0.00000428,0.00000443,-0.00000455,0.0
 0000206,-0.00000684,0.00000403,-0.00001663,-0.00001672,-0.00000345,0.0
 0000233,0.00001404,0.00002219,-0.00000109,-0.00001611,-0.00000169,-0.0
 0000667,-0.00000160,-0.00001728,-0.00000502,0.00001007,-0.00001299,0.0
 0000856,0.00000259,0.00000335,0.00000342,-0.00000482,0.00000276,0.0000
 0571,-0.00000178,-0.00000572,-0.00000485,-0.00000092,0.00000652,-0.000
 00273,-0.00000260,0.00000314,0.00000532,0.00000203,-0.00000184,0.00001
 099,0.00000908,0.00000656,-0.00000759,0.00001550,-0.00000405,0.0000119
 8,-0.00000906,-0.00001206,0.00001348,-0.00000624,-0.00000516,-0.000002
 61,-0.00000136,0.00000457,-0.00000661,0.00000522,-0.00000128,-0.000003
 92,0.00001352,0.00000263,-0.00000540,-0.00000790,-0.00000001,-0.000004
 35,-0.00001023,-0.00000159,0.00000879,-0.00000970,-0.00000046,-0.00001
 077,0.00000937,0.00000392,-0.00000105,-0.00000315,-0.00000181,0.000002
 50,-0.00000550,0.00000296,0.00000208,0.00000177,-0.00000434,0.00000263
 ,0.00000346,0.00000487,0.00000298,0.00000012,0.00000191,0.00000179,0.0
 0000164,0.00000448,0.00000269,0.00000441,-0.00000092,-0.00000320,0.000
 00312,0.00000145,0.00000254,-0.00000072,-0.00000206,-0.00000186,-0.000
 00020,0.00000138,0.00000298,-0.00000091,-0.00000011,-0.00000024,0.0000
 0218,0.00000315,0.00000391,0.00000453,-0.00000069,0.00000143,-0.000000
 78,-0.00000327,-0.00000111,-0.00001238,0.00000838,-0.00002332,0.000026
 22,-0.00001949,0.00000562,0.00000363,-0.00001508,-0.00000159,-0.000000
 52,0.00000814\\\@


 IMAGINATION WILL OFTEN CARRY US TO WORLDS THAT NEVER WERE.
 BUT WITHOUT IT, WE GO NOWHERE. -- CARL SAGAN (COSMOS)
 Job cpu time:      17 days 12 hours 48 minutes 53.0 seconds.
 File lengths (MBytes):  RWF=  17383 Int=      0 D2E=      0 Chk=    104 Scr=      1
 Normal termination of Gaussian 09 at Mon May  2 05:09:13 2016.
