 Entering Gaussian System, Link 0=g09
 Initial command:
 /share/apps//g09/l1.exe "/scratch/Gau-42504.inp" -scrdir="/scratch/"
 Entering Link 1 = /share/apps//g09/l1.exe PID=     42505.
  
 Copyright (c) 1988,1990,1992,1993,1995,1998,2003,2009,2013,
            Gaussian, Inc.  All Rights Reserved.
  
 This is part of the Gaussian(R) 09 program.  It is based on
 the Gaussian(R) 03 system (copyright 2003, Gaussian, Inc.),
 the Gaussian(R) 98 system (copyright 1998, Gaussian, Inc.),
 the Gaussian(R) 94 system (copyright 1995, Gaussian, Inc.),
 the Gaussian 92(TM) system (copyright 1992, Gaussian, Inc.),
 the Gaussian 90(TM) system (copyright 1990, Gaussian, Inc.),
 the Gaussian 88(TM) system (copyright 1988, Gaussian, Inc.),
 the Gaussian 86(TM) system (copyright 1986, Carnegie Mellon
 University), and the Gaussian 82(TM) system (copyright 1983,
 Carnegie Mellon University). Gaussian is a federally registered
 trademark of Gaussian, Inc.
  
 This software contains proprietary and confidential information,
 including trade secrets, belonging to Gaussian, Inc.
  
 This software is provided under written license and may be
 used, copied, transmitted, or stored only in accord with that
 written license.
  
 The following legend is applicable only to US Government
 contracts under FAR:
  
                    RESTRICTED RIGHTS LEGEND
  
 Use, reproduction and disclosure by the US Government is
 subject to restrictions as set forth in subparagraphs (a)
 and (c) of the Commercial Computer Software - Restricted
 Rights clause in FAR 52.227-19.
  
 Gaussian, Inc.
 340 Quinnipiac St., Bldg. 40, Wallingford CT 06492
  
  
 ---------------------------------------------------------------
 Warning -- This program may not be used in any manner that
 competes with the business of Gaussian, Inc. or will provide
 assistance to any competitor of Gaussian, Inc.  The licensee
 of this program is prohibited from giving any competitor of
 Gaussian, Inc. access to this program.  By using this program,
 the user acknowledges that Gaussian, Inc. is engaged in the
 business of creating and licensing software in the field of
 computational chemistry and represents and warrants to the
 licensee that it is not a competitor of Gaussian, Inc. and that
 it will not use this program in any manner prohibited above.
 ---------------------------------------------------------------
  

 Cite this work as:
 Gaussian 09, Revision D.01,
 M. J. Frisch, G. W. Trucks, H. B. Schlegel, G. E. Scuseria, 
 M. A. Robb, J. R. Cheeseman, G. Scalmani, V. Barone, B. Mennucci, 
 G. A. Petersson, H. Nakatsuji, M. Caricato, X. Li, H. P. Hratchian, 
 A. F. Izmaylov, J. Bloino, G. Zheng, J. L. Sonnenberg, M. Hada, 
 M. Ehara, K. Toyota, R. Fukuda, J. Hasegawa, M. Ishida, T. Nakajima, 
 Y. Honda, O. Kitao, H. Nakai, T. Vreven, J. A. Montgomery, Jr., 
 J. E. Peralta, F. Ogliaro, M. Bearpark, J. J. Heyd, E. Brothers, 
 K. N. Kudin, V. N. Staroverov, T. Keith, R. Kobayashi, J. Normand, 
 K. Raghavachari, A. Rendell, J. C. Burant, S. S. Iyengar, J. Tomasi, 
 M. Cossi, N. Rega, J. M. Millam, M. Klene, J. E. Knox, J. B. Cross, 
 V. Bakken, C. Adamo, J. Jaramillo, R. Gomperts, R. E. Stratmann, 
 O. Yazyev, A. J. Austin, R. Cammi, C. Pomelli, J. W. Ochterski, 
 R. L. Martin, K. Morokuma, V. G. Zakrzewski, G. A. Voth, 
 P. Salvador, J. J. Dannenberg, S. Dapprich, A. D. Daniels, 
 O. Farkas, J. B. Foresman, J. V. Ortiz, J. Cioslowski, 
 and D. J. Fox, Gaussian, Inc., Wallingford CT, 2013.
 
 ******************************************
 Gaussian 09:  EM64L-G09RevD.01 24-Apr-2013
                27-Apr-2016 
 ******************************************
 %nproc=20
 Will use up to   20 processors via shared memory.
 %mem=80GB
 %chk=Tri_A131_of.chk
 ----------------------------------------------------------------------
 #P PBE1PBE/6-311+G(d,p) opt=ModRedundant freq optcyc=999 EmpiricalDisp
 ersion=GD3
 ----------------------------------------------------------------------
 1/6=999,14=-1,18=120,19=15,26=3,38=1/1,3;
 2/9=110,12=2,17=6,18=5,40=1/2;
 3/5=4,6=6,7=111,11=2,16=1,25=1,30=1,71=1,74=-13,124=31/1,2,3;
 4//1;
 5/5=2,38=5/2;
 6/7=2,8=2,9=2,10=2,28=1/1;
 7//1,2,3,16;
 1/6=999,14=-1,18=20,19=15,26=3/3(2);
 2/9=110/2;
 99//99;
 2/9=110/2;
 3/5=4,6=6,7=111,11=2,16=1,25=1,30=1,71=1,74=-13,124=31/1,2,3;
 4/5=5,16=3,69=1/1;
 5/5=2,38=5/2;
 7//1,2,3,16;
 1/6=999,14=-1,18=20,19=15,26=3/3(-5);
 2/9=110/2;
 6/7=2,8=2,9=2,10=2,19=2,28=1/1;
 99/9=1/99;
 Leave Link    1 at Wed Apr 27 03:49:33 2016, MaxMem= 10737418240 cpu:         1.5
 (Enter /share/apps//g09/l101.exe)
 -----
 trich
 -----
 Symbolic Z-matrix:
 Charge =  1 Multiplicity = 1
 O                     1.03405  -4.26323   7.90477 
 C                     2.19939  -4.20777   8.69324 
 C                     1.93303  -3.40577   9.96864 
 C                     0.76623  -3.99456   10.76755 
 C                    -0.47374  -4.06811   9.87149 
 C                    -0.11861  -4.83368   8.58349 
 H                     2.94766  -3.70409   8.05731 
 H                     1.66573  -2.38607   9.64888 
 H                     1.02864  -5.00632   11.11682 
 H                    -1.26129  -4.64667   10.39602 
 H                     0.11771  -5.87537   8.87024 
 O                    -0.88878  -2.71655   9.68419 
 O                     0.55264  -3.19971   11.93549 
 O                     3.11733  -3.33983   10.79868 
 O                     2.663    -5.49781   9.09863 
 C                    -1.24681  -4.90808   7.5679 
 H                    -0.86928  -5.4025    6.65739 
 H                    -2.05293  -5.52815   7.99696 
 O                    -1.72107  -3.58349   7.26709 
 H                    -2.47939  -3.64729   6.66352 
 H                    -1.39823  -2.6816    8.8451 
 H                    -0.03639  -2.46799   11.65461 
 H                     2.81115  -2.87576   11.60593 
 O                     4.55078  -8.63621   7.06621 
 C                     3.22172  -8.86668   7.52232 
 C                     2.74951  -7.80482   8.53985 
 C                     3.00573  -6.39366   8.02568 
 C                     4.47381  -6.23303   7.60736 
 C                     4.85108  -7.32208   6.58671 
 H                     2.5087   -8.89842   6.67728 
 H                     3.33791  -7.93223   9.46502 
 H                     2.35262  -6.19093   7.15849 
 H                     4.60892  -5.25099   7.11629 
 H                     4.30144  -7.1163    5.64526 
 O                     5.31552  -6.29476   8.77293 
 O                     1.36679  -7.9713    8.80845 
 O                     3.19144  -10.1743   8.05223 
 C                     6.35369  -7.34998   6.2793 
 H                     6.55721  -8.13903   5.5391 
 H                     6.66571  -6.3869    5.84976 
 O                     7.13445  -7.56047   7.46623 
 H                     7.06784  -8.52602   7.72159 
 H                     6.16787  -6.75065   8.4739 
 H                     1.31552  -8.76193   9.38664 
 O                     5.57005  -12.27976   9.91151 
 C                     5.61824  -11.58424   11.12237 
 C                     4.22335  -11.08929   11.58139 
 C                     3.28224  -10.87449   10.38484 
 C                     4.07674  -10.41722   9.16089 
 C                     5.02996  -11.5646   8.75607 
 H                     6.02291  -12.29769   11.86096 
 H                     4.35278  -10.11472   12.07805 
 H                     2.79475  -11.83486   10.12932 
 H                     4.41944  -12.31364   8.22439 
 H                     4.66044  -9.51198   9.38805 
 O                     2.26979  -9.9074    10.71568 
 O                     3.62574  -11.9221   12.57393 
 O                     6.52098  -10.4655   10.98538 
 C                     6.16813  -11.17089   7.81594 
 H                     6.76444  -12.07724   7.6193 
 H                     5.73835  -10.81792   6.86991 
 O                     7.01645  -10.1259   8.30746 
 H                     7.14257  -10.27405   9.27316 
 H                     1.7681   -10.27405   11.46648 
 H                     3.52345  -12.82049   12.20622 
 C                     7.16049  -10.03798   12.20582 
 H                     6.40321  -9.89823   12.99818 
 H                     7.85778  -10.82326   12.54569 
 C                     7.90989  -8.74454   11.91613 
 H                     8.64534  -8.9421    11.12051 
 H                     8.49609  -8.4856    12.81305 
 C                     7.02954  -7.55389   11.50034 
 H                     7.68942  -6.7605    11.11292 
 H                     6.39177  -7.8619    10.65666 
 C                     6.17579  -6.97569   12.63946 
 H                     5.4019   -7.69451   12.96205 
 H                     6.81238  -6.81282   13.52459 
 C                     5.51268  -5.63349   12.33444 
 H                     6.2506   -4.89671   11.98686 
 H                     5.03261  -5.22768   13.23533 
 N                     4.46384  -5.71796   11.26933 
 H                     4.85     -5.96361   10.30756 
 H                     3.94344  -4.80465   11.13444 
 H                     3.75322  -6.4246    11.49412 
 
 The following ModRedundant input section has been read:
 B      45      84 B                                                           
 B      58      84 B                                                           
 B      56      84 B                                                           
 B      41      82 B                                                           
 B      62      82 B                                                           
 B      35      82 B                                                           
 B      13      83 B                                                           
 B      19      83 B                                                           
 B      14      83 B                                                           
 
 NAtoms=     84 NQM=       84 NQMF=       0 NMMI=      0 NMMIF=      0
                NMic=       0 NMicF=      0.
                    Isotopes and Nuclear Properties:
 (Nuclear quadrupole moments (NQMom) in fm**2, nuclear magnetic moments (NMagM)
  in nuclear magnetons)

  Atom         1           2           3           4           5           6           7           8           9          10
 IAtWgt=          16          12          12          12          12          12           1           1           1           1
 AtmWgt=  15.9949146  12.0000000  12.0000000  12.0000000  12.0000000  12.0000000   1.0078250   1.0078250   1.0078250   1.0078250
 NucSpn=           0           0           0           0           0           0           1           1           1           1
 AtZEff=   0.0000000   0.0000000   0.0000000   0.0000000   0.0000000   0.0000000   0.0000000   0.0000000   0.0000000   0.0000000
 NQMom=    0.0000000   0.0000000   0.0000000   0.0000000   0.0000000   0.0000000   0.0000000   0.0000000   0.0000000   0.0000000
 NMagM=    0.0000000   0.0000000   0.0000000   0.0000000   0.0000000   0.0000000   2.7928460   2.7928460   2.7928460   2.7928460
 AtZNuc=   8.0000000   6.0000000   6.0000000   6.0000000   6.0000000   6.0000000   1.0000000   1.0000000   1.0000000   1.0000000

  Atom        11          12          13          14          15          16          17          18          19          20
 IAtWgt=           1          16          16          16          16          12           1           1          16           1
 AtmWgt=   1.0078250  15.9949146  15.9949146  15.9949146  15.9949146  12.0000000   1.0078250   1.0078250  15.9949146   1.0078250
 NucSpn=           1           0           0           0           0           0           1           1           0           1
 AtZEff=   0.0000000   0.0000000   0.0000000   0.0000000   0.0000000   0.0000000   0.0000000   0.0000000   0.0000000   0.0000000
 NQMom=    0.0000000   0.0000000   0.0000000   0.0000000   0.0000000   0.0000000   0.0000000   0.0000000   0.0000000   0.0000000
 NMagM=    2.7928460   0.0000000   0.0000000   0.0000000   0.0000000   0.0000000   2.7928460   2.7928460   0.0000000   2.7928460
 AtZNuc=   1.0000000   8.0000000   8.0000000   8.0000000   8.0000000   6.0000000   1.0000000   1.0000000   8.0000000   1.0000000

  Atom        21          22          23          24          25          26          27          28          29          30
 IAtWgt=           1           1           1          16          12          12          12          12          12           1
 AtmWgt=   1.0078250   1.0078250   1.0078250  15.9949146  12.0000000  12.0000000  12.0000000  12.0000000  12.0000000   1.0078250
 NucSpn=           1           1           1           0           0           0           0           0           0           1
 AtZEff=   0.0000000   0.0000000   0.0000000   0.0000000   0.0000000   0.0000000   0.0000000   0.0000000   0.0000000   0.0000000
 NQMom=    0.0000000   0.0000000   0.0000000   0.0000000   0.0000000   0.0000000   0.0000000   0.0000000   0.0000000   0.0000000
 NMagM=    2.7928460   2.7928460   2.7928460   0.0000000   0.0000000   0.0000000   0.0000000   0.0000000   0.0000000   2.7928460
 AtZNuc=   1.0000000   1.0000000   1.0000000   8.0000000   6.0000000   6.0000000   6.0000000   6.0000000   6.0000000   1.0000000

  Atom        31          32          33          34          35          36          37          38          39          40
 IAtWgt=           1           1           1           1          16          16          16          12           1           1
 AtmWgt=   1.0078250   1.0078250   1.0078250   1.0078250  15.9949146  15.9949146  15.9949146  12.0000000   1.0078250   1.0078250
 NucSpn=           1           1           1           1           0           0           0           0           1           1
 AtZEff=   0.0000000   0.0000000   0.0000000   0.0000000   0.0000000   0.0000000   0.0000000   0.0000000   0.0000000   0.0000000
 NQMom=    0.0000000   0.0000000   0.0000000   0.0000000   0.0000000   0.0000000   0.0000000   0.0000000   0.0000000   0.0000000
 NMagM=    2.7928460   2.7928460   2.7928460   2.7928460   0.0000000   0.0000000   0.0000000   0.0000000   2.7928460   2.7928460
 AtZNuc=   1.0000000   1.0000000   1.0000000   1.0000000   8.0000000   8.0000000   8.0000000   6.0000000   1.0000000   1.0000000

  Atom        41          42          43          44          45          46          47          48          49          50
 IAtWgt=          16           1           1           1          16          12          12          12          12          12
 AtmWgt=  15.9949146   1.0078250   1.0078250   1.0078250  15.9949146  12.0000000  12.0000000  12.0000000  12.0000000  12.0000000
 NucSpn=           0           1           1           1           0           0           0           0           0           0
 AtZEff=   0.0000000   0.0000000   0.0000000   0.0000000   0.0000000   0.0000000   0.0000000   0.0000000   0.0000000   0.0000000
 NQMom=    0.0000000   0.0000000   0.0000000   0.0000000   0.0000000   0.0000000   0.0000000   0.0000000   0.0000000   0.0000000
 NMagM=    0.0000000   2.7928460   2.7928460   2.7928460   0.0000000   0.0000000   0.0000000   0.0000000   0.0000000   0.0000000
 AtZNuc=   8.0000000   1.0000000   1.0000000   1.0000000   8.0000000   6.0000000   6.0000000   6.0000000   6.0000000   6.0000000

  Atom        51          52          53          54          55          56          57          58          59          60
 IAtWgt=           1           1           1           1           1          16          16          16          12           1
 AtmWgt=   1.0078250   1.0078250   1.0078250   1.0078250   1.0078250  15.9949146  15.9949146  15.9949146  12.0000000   1.0078250
 NucSpn=           1           1           1           1           1           0           0           0           0           1
 AtZEff=   0.0000000   0.0000000   0.0000000   0.0000000   0.0000000   0.0000000   0.0000000   0.0000000   0.0000000   0.0000000
 NQMom=    0.0000000   0.0000000   0.0000000   0.0000000   0.0000000   0.0000000   0.0000000   0.0000000   0.0000000   0.0000000
 NMagM=    2.7928460   2.7928460   2.7928460   2.7928460   2.7928460   0.0000000   0.0000000   0.0000000   0.0000000   2.7928460
 AtZNuc=   1.0000000   1.0000000   1.0000000   1.0000000   1.0000000   8.0000000   8.0000000   8.0000000   6.0000000   1.0000000

  Atom        61          62          63          64          65          66          67          68          69          70
 IAtWgt=           1          16           1           1           1          12           1           1          12           1
 AtmWgt=   1.0078250  15.9949146   1.0078250   1.0078250   1.0078250  12.0000000   1.0078250   1.0078250  12.0000000   1.0078250
 NucSpn=           1           0           1           1           1           0           1           1           0           1
 AtZEff=   0.0000000   0.0000000   0.0000000   0.0000000   0.0000000   0.0000000   0.0000000   0.0000000   0.0000000   0.0000000
 NQMom=    0.0000000   0.0000000   0.0000000   0.0000000   0.0000000   0.0000000   0.0000000   0.0000000   0.0000000   0.0000000
 NMagM=    2.7928460   0.0000000   2.7928460   2.7928460   2.7928460   0.0000000   2.7928460   2.7928460   0.0000000   2.7928460
 AtZNuc=   1.0000000   8.0000000   1.0000000   1.0000000   1.0000000   6.0000000   1.0000000   1.0000000   6.0000000   1.0000000

  Atom        71          72          73          74          75          76          77          78          79          80
 IAtWgt=           1          12           1           1          12           1           1          12           1           1
 AtmWgt=   1.0078250  12.0000000   1.0078250   1.0078250  12.0000000   1.0078250   1.0078250  12.0000000   1.0078250   1.0078250
 NucSpn=           1           0           1           1           0           1           1           0           1           1
 AtZEff=   0.0000000   0.0000000   0.0000000   0.0000000   0.0000000   0.0000000   0.0000000   0.0000000   0.0000000   0.0000000
 NQMom=    0.0000000   0.0000000   0.0000000   0.0000000   0.0000000   0.0000000   0.0000000   0.0000000   0.0000000   0.0000000
 NMagM=    2.7928460   0.0000000   2.7928460   2.7928460   0.0000000   2.7928460   2.7928460   0.0000000   2.7928460   2.7928460
 AtZNuc=   1.0000000   6.0000000   1.0000000   1.0000000   6.0000000   1.0000000   1.0000000   6.0000000   1.0000000   1.0000000

  Atom        81          82          83          84
 IAtWgt=          14           1           1           1
 AtmWgt=  14.0030740   1.0078250   1.0078250   1.0078250
 NucSpn=           2           1           1           1
 AtZEff=   0.0000000   0.0000000   0.0000000   0.0000000
 NQMom=    2.0440000   0.0000000   0.0000000   0.0000000
 NMagM=    0.4037610   2.7928460   2.7928460   2.7928460
 AtZNuc=   7.0000000   1.0000000   1.0000000   1.0000000
 Leave Link  101 at Wed Apr 27 03:49:34 2016, MaxMem= 10737418240 cpu:         5.3
 (Enter /share/apps//g09/l103.exe)

 GradGradGradGradGradGradGradGradGradGradGradGradGradGradGradGradGradGrad
 Berny optimization.
 Initialization pass.
                           ----------------------------
                           !    Initial Parameters    !
                           ! (Angstroms and Degrees)  !
 --------------------------                            --------------------------
 ! Name  Definition              Value          Derivative Info.                !
 --------------------------------------------------------------------------------
 ! R1    R(1,2)                  1.4081         estimate D2E/DX2                !
 ! R2    R(1,6)                  1.4542         estimate D2E/DX2                !
 ! R3    R(2,3)                  1.53           estimate D2E/DX2                !
 ! R4    R(2,7)                  1.1036         estimate D2E/DX2                !
 ! R5    R(2,15)                 1.4295         estimate D2E/DX2                !
 ! R6    R(3,4)                  1.5318         estimate D2E/DX2                !
 ! R7    R(3,8)                  1.1016         estimate D2E/DX2                !
 ! R8    R(3,14)                 1.4477         estimate D2E/DX2                !
 ! R9    R(4,5)                  1.5316         estimate D2E/DX2                !
 ! R10   R(4,9)                  1.102          estimate D2E/DX2                !
 ! R11   R(4,13)                 1.4288         estimate D2E/DX2                !
 ! R12   R(5,6)                  1.5399         estimate D2E/DX2                !
 ! R13   R(5,10)                 1.1091         estimate D2E/DX2                !
 ! R14   R(5,12)                 1.4262         estimate D2E/DX2                !
 ! R15   R(6,11)                 1.106          estimate D2E/DX2                !
 ! R16   R(6,16)                 1.5198         estimate D2E/DX2                !
 ! R17   R(12,21)                0.9823         estimate D2E/DX2                !
 ! R18   R(13,22)                0.9804         estimate D2E/DX2                !
 ! R19   R(13,83)                3.836          estimate D2E/DX2                !
 ! R20   R(14,23)                0.9802         estimate D2E/DX2                !
 ! R21   R(14,83)                1.7149         estimate D2E/DX2                !
 ! R22   R(15,27)                1.4392         estimate D2E/DX2                !
 ! R23   R(16,17)                1.1027         estimate D2E/DX2                !
 ! R24   R(16,18)                1.1038         estimate D2E/DX2                !
 ! R25   R(16,19)                1.4387         estimate D2E/DX2                !
 ! R26   R(19,20)                0.9713         estimate D2E/DX2                !
 ! R27   R(19,83)                6.9667         estimate D2E/DX2                !
 ! R28   R(24,25)                1.4239         estimate D2E/DX2                !
 ! R29   R(24,29)                1.4307         estimate D2E/DX2                !
 ! R30   R(25,26)                1.5446         estimate D2E/DX2                !
 ! R31   R(25,30)                1.1061         estimate D2E/DX2                !
 ! R32   R(25,37)                1.4112         estimate D2E/DX2                !
 ! R33   R(26,27)                1.5236         estimate D2E/DX2                !
 ! R34   R(26,31)                1.1038         estimate D2E/DX2                !
 ! R35   R(26,36)                1.4184         estimate D2E/DX2                !
 ! R36   R(27,28)                1.5349         estimate D2E/DX2                !
 ! R37   R(27,32)                1.1044         estimate D2E/DX2                !
 ! R38   R(28,29)                1.5395         estimate D2E/DX2                !
 ! R39   R(28,33)                1.1063         estimate D2E/DX2                !
 ! R40   R(28,35)                1.439          estimate D2E/DX2                !
 ! R41   R(29,34)                1.1094         estimate D2E/DX2                !
 ! R42   R(29,38)                1.534          estimate D2E/DX2                !
 ! R43   R(35,43)                1.0118         estimate D2E/DX2                !
 ! R44   R(35,82)                1.6375         estimate D2E/DX2                !
 ! R45   R(36,44)                0.9808         estimate D2E/DX2                !
 ! R46   R(37,49)                1.4394         estimate D2E/DX2                !
 ! R47   R(38,39)                1.1009         estimate D2E/DX2                !
 ! R48   R(38,40)                1.0997         estimate D2E/DX2                !
 ! R49   R(38,41)                1.4362         estimate D2E/DX2                !
 ! R50   R(41,42)                1.001          estimate D2E/DX2                !
 ! R51   R(41,82)                3.9802         estimate D2E/DX2                !
 ! R52   R(45,46)                1.3972         estimate D2E/DX2                !
 ! R53   R(45,50)                1.4623         estimate D2E/DX2                !
 ! R54   R(45,84)                6.3315         estimate D2E/DX2                !
 ! R55   R(46,47)                1.5496         estimate D2E/DX2                !
 ! R56   R(46,51)                1.1038         estimate D2E/DX2                !
 ! R57   R(46,58)                1.4441         estimate D2E/DX2                !
 ! R58   R(47,48)                1.5374         estimate D2E/DX2                !
 ! R59   R(47,52)                1.1015         estimate D2E/DX2                !
 ! R60   R(47,57)                1.4268         estimate D2E/DX2                !
 ! R61   R(48,49)                1.5292         estimate D2E/DX2                !
 ! R62   R(48,53)                1.1069         estimate D2E/DX2                !
 ! R63   R(48,56)                1.4387         estimate D2E/DX2                !
 ! R64   R(49,50)                1.5456         estimate D2E/DX2                !
 ! R65   R(49,55)                1.1008         estimate D2E/DX2                !
 ! R66   R(50,54)                1.1029         estimate D2E/DX2                !
 ! R67   R(50,59)                1.5278         estimate D2E/DX2                !
 ! R68   R(56,64)                0.9746         estimate D2E/DX2                !
 ! R69   R(56,84)                3.8648         estimate D2E/DX2                !
 ! R70   R(57,65)                0.9761         estimate D2E/DX2                !
 ! R71   R(58,66)                1.4426         estimate D2E/DX2                !
 ! R72   R(58,84)                4.9242         estimate D2E/DX2                !
 ! R73   R(59,60)                1.1026         estimate D2E/DX2                !
 ! R74   R(59,61)                1.0974         estimate D2E/DX2                !
 ! R75   R(59,62)                1.4329         estimate D2E/DX2                !
 ! R76   R(62,63)                0.9851         estimate D2E/DX2                !
 ! R77   R(62,82)                5.1008         estimate D2E/DX2                !
 ! R78   R(66,67)                1.1049         estimate D2E/DX2                !
 ! R79   R(66,68)                1.1038         estimate D2E/DX2                !
 ! R80   R(66,69)                1.5227         estimate D2E/DX2                !
 ! R81   R(69,70)                1.1013         estimate D2E/DX2                !
 ! R82   R(69,71)                1.1023         estimate D2E/DX2                !
 ! R83   R(69,72)                1.538          estimate D2E/DX2                !
 ! R84   R(72,73)                1.1023         estimate D2E/DX2                !
 ! R85   R(72,74)                1.1016         estimate D2E/DX2                !
 ! R86   R(72,75)                1.5365         estimate D2E/DX2                !
 ! R87   R(75,76)                1.1044         estimate D2E/DX2                !
 ! R88   R(75,77)                1.1024         estimate D2E/DX2                !
 ! R89   R(75,78)                1.5278         estimate D2E/DX2                !
 ! R90   R(78,79)                1.0992         estimate D2E/DX2                !
 ! R91   R(78,80)                1.0985         estimate D2E/DX2                !
 ! R92   R(78,81)                1.4972         estimate D2E/DX2                !
 ! R93   R(81,82)                1.0651         estimate D2E/DX2                !
 ! R94   R(81,83)                1.0598         estimate D2E/DX2                !
 ! R95   R(81,84)                1.0271         estimate D2E/DX2                !
 ! A1    A(2,1,6)              114.2104         estimate D2E/DX2                !
 ! A2    A(1,2,3)              110.0809         estimate D2E/DX2                !
 ! A3    A(1,2,7)              104.8587         estimate D2E/DX2                !
 ! A4    A(1,2,15)             113.0573         estimate D2E/DX2                !
 ! A5    A(3,2,7)              111.0476         estimate D2E/DX2                !
 ! A6    A(3,2,15)             107.0444         estimate D2E/DX2                !
 ! A7    A(7,2,15)             110.8166         estimate D2E/DX2                !
 ! A8    A(2,3,4)              111.4629         estimate D2E/DX2                !
 ! A9    A(2,3,8)              106.5887         estimate D2E/DX2                !
 ! A10   A(2,3,14)             111.0637         estimate D2E/DX2                !
 ! A11   A(4,3,8)              108.8064         estimate D2E/DX2                !
 ! A12   A(4,3,14)             109.9747         estimate D2E/DX2                !
 ! A13   A(8,3,14)             108.8302         estimate D2E/DX2                !
 ! A14   A(3,4,5)              109.2692         estimate D2E/DX2                !
 ! A15   A(3,4,9)              109.6827         estimate D2E/DX2                !
 ! A16   A(3,4,13)             109.0485         estimate D2E/DX2                !
 ! A17   A(5,4,9)              109.5178         estimate D2E/DX2                !
 ! A18   A(5,4,13)             112.5765         estimate D2E/DX2                !
 ! A19   A(9,4,13)             106.6938         estimate D2E/DX2                !
 ! A20   A(4,5,6)              109.0575         estimate D2E/DX2                !
 ! A21   A(4,5,10)             108.8586         estimate D2E/DX2                !
 ! A22   A(4,5,12)             105.4811         estimate D2E/DX2                !
 ! A23   A(6,5,10)             107.4574         estimate D2E/DX2                !
 ! A24   A(6,5,12)             115.3671         estimate D2E/DX2                !
 ! A25   A(10,5,12)            110.4761         estimate D2E/DX2                !
 ! A26   A(1,6,5)              112.2202         estimate D2E/DX2                !
 ! A27   A(1,6,11)             108.7305         estimate D2E/DX2                !
 ! A28   A(1,6,16)             107.2008         estimate D2E/DX2                !
 ! A29   A(5,6,11)             107.4986         estimate D2E/DX2                !
 ! A30   A(5,6,16)             114.3356         estimate D2E/DX2                !
 ! A31   A(11,6,16)            106.6046         estimate D2E/DX2                !
 ! A32   A(5,12,21)            107.2678         estimate D2E/DX2                !
 ! A33   A(4,13,22)            105.7125         estimate D2E/DX2                !
 ! A34   A(4,13,83)             57.6164         estimate D2E/DX2                !
 ! A35   A(22,13,83)           141.5801         estimate D2E/DX2                !
 ! A36   A(3,14,23)            103.7815         estimate D2E/DX2                !
 ! A37   A(3,14,83)            117.8671         estimate D2E/DX2                !
 ! A38   A(23,14,83)           113.1811         estimate D2E/DX2                !
 ! A39   A(2,15,27)            115.3125         estimate D2E/DX2                !
 ! A40   A(6,16,17)            108.6364         estimate D2E/DX2                !
 ! A41   A(6,16,18)            108.052          estimate D2E/DX2                !
 ! A42   A(6,16,19)            109.8371         estimate D2E/DX2                !
 ! A43   A(17,16,18)           108.6091         estimate D2E/DX2                !
 ! A44   A(17,16,19)           110.6715         estimate D2E/DX2                !
 ! A45   A(18,16,19)           110.9603         estimate D2E/DX2                !
 ! A46   A(16,19,20)           109.0751         estimate D2E/DX2                !
 ! A47   A(16,19,83)            56.9432         estimate D2E/DX2                !
 ! A48   A(25,24,29)           116.8671         estimate D2E/DX2                !
 ! A49   A(24,25,26)           112.6491         estimate D2E/DX2                !
 ! A50   A(24,25,30)           111.1985         estimate D2E/DX2                !
 ! A51   A(24,25,37)           106.8745         estimate D2E/DX2                !
 ! A52   A(26,25,30)           109.0217         estimate D2E/DX2                !
 ! A53   A(26,25,37)           112.5233         estimate D2E/DX2                !
 ! A54   A(30,25,37)           104.2673         estimate D2E/DX2                !
 ! A55   A(25,26,27)           111.2843         estimate D2E/DX2                !
 ! A56   A(25,26,31)           108.0488         estimate D2E/DX2                !
 ! A57   A(25,26,36)           110.004          estimate D2E/DX2                !
 ! A58   A(27,26,31)           107.4647         estimate D2E/DX2                !
 ! A59   A(27,26,36)           109.6673         estimate D2E/DX2                !
 ! A60   A(31,26,36)           110.3279         estimate D2E/DX2                !
 ! A61   A(15,27,26)           106.5523         estimate D2E/DX2                !
 ! A62   A(15,27,28)           111.4573         estimate D2E/DX2                !
 ! A63   A(15,27,32)           109.2875         estimate D2E/DX2                !
 ! A64   A(26,27,28)           110.4712         estimate D2E/DX2                !
 ! A65   A(26,27,32)           109.6064         estimate D2E/DX2                !
 ! A66   A(28,27,32)           109.4151         estimate D2E/DX2                !
 ! A67   A(27,28,29)           109.94           estimate D2E/DX2                !
 ! A68   A(27,28,33)           109.3105         estimate D2E/DX2                !
 ! A69   A(27,28,35)           109.524          estimate D2E/DX2                !
 ! A70   A(29,28,33)           107.6827         estimate D2E/DX2                !
 ! A71   A(29,28,35)           111.303          estimate D2E/DX2                !
 ! A72   A(33,28,35)           109.0375         estimate D2E/DX2                !
 ! A73   A(24,29,28)           112.0935         estimate D2E/DX2                !
 ! A74   A(24,29,34)           110.5352         estimate D2E/DX2                !
 ! A75   A(24,29,38)           104.836          estimate D2E/DX2                !
 ! A76   A(28,29,34)           108.0579         estimate D2E/DX2                !
 ! A77   A(28,29,38)           112.6916         estimate D2E/DX2                !
 ! A78   A(34,29,38)           108.5793         estimate D2E/DX2                !
 ! A79   A(28,35,43)           105.8239         estimate D2E/DX2                !
 ! A80   A(28,35,82)           125.7406         estimate D2E/DX2                !
 ! A81   A(43,35,82)           127.4141         estimate D2E/DX2                !
 ! A82   A(26,36,44)           104.9042         estimate D2E/DX2                !
 ! A83   A(25,37,49)           115.6192         estimate D2E/DX2                !
 ! A84   A(29,38,39)           109.2002         estimate D2E/DX2                !
 ! A85   A(29,38,40)           109.8933         estimate D2E/DX2                !
 ! A86   A(29,38,41)           111.6882         estimate D2E/DX2                !
 ! A87   A(39,38,40)           108.2171         estimate D2E/DX2                !
 ! A88   A(39,38,41)           110.4951         estimate D2E/DX2                !
 ! A89   A(40,38,41)           107.2718         estimate D2E/DX2                !
 ! A90   A(38,41,42)           108.4231         estimate D2E/DX2                !
 ! A91   A(38,41,82)           102.659          estimate D2E/DX2                !
 ! A92   A(42,41,82)            99.5957         estimate D2E/DX2                !
 ! A93   A(46,45,50)           117.0045         estimate D2E/DX2                !
 ! A94   A(46,45,84)            48.1601         estimate D2E/DX2                !
 ! A95   A(50,45,84)            68.8533         estimate D2E/DX2                !
 ! A96   A(45,46,47)           112.6217         estimate D2E/DX2                !
 ! A97   A(45,46,51)           105.7112         estimate D2E/DX2                !
 ! A98   A(45,46,58)           108.9653         estimate D2E/DX2                !
 ! A99   A(47,46,51)           109.7707         estimate D2E/DX2                !
 ! A100  A(47,46,58)           110.0824         estimate D2E/DX2                !
 ! A101  A(51,46,58)           109.5756         estimate D2E/DX2                !
 ! A102  A(46,47,48)           111.4139         estimate D2E/DX2                !
 ! A103  A(46,47,52)           108.0829         estimate D2E/DX2                !
 ! A104  A(46,47,57)           113.3681         estimate D2E/DX2                !
 ! A105  A(48,47,52)           107.4129         estimate D2E/DX2                !
 ! A106  A(48,47,57)           111.504          estimate D2E/DX2                !
 ! A107  A(52,47,57)           104.5953         estimate D2E/DX2                !
 ! A108  A(47,48,49)           110.2845         estimate D2E/DX2                !
 ! A109  A(47,48,53)           109.1497         estimate D2E/DX2                !
 ! A110  A(47,48,56)           110.2266         estimate D2E/DX2                !
 ! A111  A(49,48,53)           107.6677         estimate D2E/DX2                !
 ! A112  A(49,48,56)           110.4069         estimate D2E/DX2                !
 ! A113  A(53,48,56)           109.0488         estimate D2E/DX2                !
 ! A114  A(37,49,48)           110.3281         estimate D2E/DX2                !
 ! A115  A(37,49,50)           107.6294         estimate D2E/DX2                !
 ! A116  A(37,49,55)           110.2603         estimate D2E/DX2                !
 ! A117  A(48,49,50)           107.9433         estimate D2E/DX2                !
 ! A118  A(48,49,55)           110.8691         estimate D2E/DX2                !
 ! A119  A(50,49,55)           109.724          estimate D2E/DX2                !
 ! A120  A(45,50,49)           112.575          estimate D2E/DX2                !
 ! A121  A(45,50,54)           104.6677         estimate D2E/DX2                !
 ! A122  A(45,50,59)           109.7004         estimate D2E/DX2                !
 ! A123  A(49,50,54)           106.7994         estimate D2E/DX2                !
 ! A124  A(49,50,59)           115.4229         estimate D2E/DX2                !
 ! A125  A(54,50,59)           106.9023         estimate D2E/DX2                !
 ! A126  A(48,56,64)           106.6503         estimate D2E/DX2                !
 ! A127  A(48,56,84)           112.456          estimate D2E/DX2                !
 ! A128  A(64,56,84)           112.4232         estimate D2E/DX2                !
 ! A129  A(47,57,65)           108.6054         estimate D2E/DX2                !
 ! A130  A(46,58,66)           115.2426         estimate D2E/DX2                !
 ! A131  A(46,58,84)           105.9366         estimate D2E/DX2                !
 ! A132  A(66,58,84)            85.3295         estimate D2E/DX2                !
 ! A133  A(50,59,60)           107.5059         estimate D2E/DX2                !
 ! A134  A(50,59,61)           108.7594         estimate D2E/DX2                !
 ! A135  A(50,59,62)           114.7013         estimate D2E/DX2                !
 ! A136  A(60,59,61)           108.8116         estimate D2E/DX2                !
 ! A137  A(60,59,62)           109.9055         estimate D2E/DX2                !
 ! A138  A(61,59,62)           107.0376         estimate D2E/DX2                !
 ! A139  A(59,62,63)           107.6008         estimate D2E/DX2                !
 ! A140  A(59,62,82)           118.5644         estimate D2E/DX2                !
 ! A141  A(63,62,82)            78.0362         estimate D2E/DX2                !
 ! A142  A(58,66,67)           109.897          estimate D2E/DX2                !
 ! A143  A(58,66,68)           109.2497         estimate D2E/DX2                !
 ! A144  A(58,66,69)           107.9963         estimate D2E/DX2                !
 ! A145  A(67,66,68)           107.5859         estimate D2E/DX2                !
 ! A146  A(67,66,69)           111.4882         estimate D2E/DX2                !
 ! A147  A(68,66,69)           110.6098         estimate D2E/DX2                !
 ! A148  A(66,69,70)           108.2837         estimate D2E/DX2                !
 ! A149  A(66,69,71)           107.8461         estimate D2E/DX2                !
 ! A150  A(66,69,72)           115.2978         estimate D2E/DX2                !
 ! A151  A(70,69,71)           105.9514         estimate D2E/DX2                !
 ! A152  A(70,69,72)           109.0141         estimate D2E/DX2                !
 ! A153  A(71,69,72)           110.0293         estimate D2E/DX2                !
 ! A154  A(69,72,73)           108.0328         estimate D2E/DX2                !
 ! A155  A(69,72,74)           108.7833         estimate D2E/DX2                !
 ! A156  A(69,72,75)           114.1383         estimate D2E/DX2                !
 ! A157  A(73,72,74)           106.1809         estimate D2E/DX2                !
 ! A158  A(73,72,75)           108.8055         estimate D2E/DX2                !
 ! A159  A(74,72,75)           110.5692         estimate D2E/DX2                !
 ! A160  A(72,75,76)           111.161          estimate D2E/DX2                !
 ! A161  A(72,75,77)           109.2689         estimate D2E/DX2                !
 ! A162  A(72,75,78)           115.0712         estimate D2E/DX2                !
 ! A163  A(76,75,77)           105.4434         estimate D2E/DX2                !
 ! A164  A(76,75,78)           109.0247         estimate D2E/DX2                !
 ! A165  A(77,75,78)           106.3283         estimate D2E/DX2                !
 ! A166  A(75,78,79)           111.1382         estimate D2E/DX2                !
 ! A167  A(75,78,80)           110.5167         estimate D2E/DX2                !
 ! A168  A(75,78,81)           113.3599         estimate D2E/DX2                !
 ! A169  A(79,78,80)           107.7639         estimate D2E/DX2                !
 ! A170  A(79,78,81)           106.4485         estimate D2E/DX2                !
 ! A171  A(80,78,81)           107.3441         estimate D2E/DX2                !
 ! A172  A(78,81,82)           113.666          estimate D2E/DX2                !
 ! A173  A(78,81,83)           112.7005         estimate D2E/DX2                !
 ! A174  A(78,81,84)           111.5805         estimate D2E/DX2                !
 ! A175  A(82,81,83)           105.1801         estimate D2E/DX2                !
 ! A176  A(82,81,84)           106.846          estimate D2E/DX2                !
 ! A177  A(83,81,84)           106.322          estimate D2E/DX2                !
 ! A178  A(35,82,41)            24.032          estimate D2E/DX2                !
 ! A179  A(35,82,62)            49.214          estimate D2E/DX2                !
 ! A180  A(41,82,62)            31.6715         estimate D2E/DX2                !
 ! A181  A(41,82,81)           160.9487         estimate D2E/DX2                !
 ! A182  A(62,82,81)           134.1268         estimate D2E/DX2                !
 ! A183  A(13,83,14)            42.0721         estimate D2E/DX2                !
 ! A184  A(13,83,19)            47.4577         estimate D2E/DX2                !
 ! A185  A(13,83,81)           140.1775         estimate D2E/DX2                !
 ! A186  A(14,83,19)            49.4511         estimate D2E/DX2                !
 ! A187  A(19,83,81)           128.3875         estimate D2E/DX2                !
 ! A188  A(45,84,56)            39.3246         estimate D2E/DX2                !
 ! A189  A(45,84,58)            18.9187         estimate D2E/DX2                !
 ! A190  A(45,84,81)           112.5202         estimate D2E/DX2                !
 ! A191  A(56,84,58)            57.0042         estimate D2E/DX2                !
 ! A192  A(56,84,81)           147.3002         estimate D2E/DX2                !
 ! A193  A(58,84,81)            98.8063         estimate D2E/DX2                !
 ! A194  L(20,19,83,16,-1)     166.0183         estimate D2E/DX2                !
 ! A195  L(35,82,81,41,-1)     184.9808         estimate D2E/DX2                !
 ! A196  L(14,83,81,13,-1)     182.2496         estimate D2E/DX2                !
 ! A197  L(20,19,83,16,-2)     175.8001         estimate D2E/DX2                !
 ! A198  L(35,82,81,41,-2)     183.6861         estimate D2E/DX2                !
 ! A199  L(14,83,81,13,-2)     174.9762         estimate D2E/DX2                !
 ! D1    D(6,1,2,3)            -57.3421         estimate D2E/DX2                !
 ! D2    D(6,1,2,7)           -176.8542         estimate D2E/DX2                !
 ! D3    D(6,1,2,15)            62.3137         estimate D2E/DX2                !
 ! D4    D(2,1,6,5)             57.6195         estimate D2E/DX2                !
 ! D5    D(2,1,6,11)           -61.1627         estimate D2E/DX2                !
 ! D6    D(2,1,6,16)          -176.0504         estimate D2E/DX2                !
 ! D7    D(1,2,3,4)             56.7601         estimate D2E/DX2                !
 ! D8    D(1,2,3,8)            -61.8311         estimate D2E/DX2                !
 ! D9    D(1,2,3,14)           179.7686         estimate D2E/DX2                !
 ! D10   D(7,2,3,4)            172.4328         estimate D2E/DX2                !
 ! D11   D(7,2,3,8)             53.8416         estimate D2E/DX2                !
 ! D12   D(7,2,3,14)           -64.5587         estimate D2E/DX2                !
 ! D13   D(15,2,3,4)           -66.4859         estimate D2E/DX2                !
 ! D14   D(15,2,3,8)           174.9229         estimate D2E/DX2                !
 ! D15   D(15,2,3,14)           56.5226         estimate D2E/DX2                !
 ! D16   D(1,2,15,27)           60.2815         estimate D2E/DX2                !
 ! D17   D(3,2,15,27)         -178.3328         estimate D2E/DX2                !
 ! D18   D(7,2,15,27)          -57.1054         estimate D2E/DX2                !
 ! D19   D(2,3,4,5)            -55.8887         estimate D2E/DX2                !
 ! D20   D(2,3,4,9)             64.1737         estimate D2E/DX2                !
 ! D21   D(2,3,4,13)          -179.322          estimate D2E/DX2                !
 ! D22   D(8,3,4,5)             61.3672         estimate D2E/DX2                !
 ! D23   D(8,3,4,9)           -178.5704         estimate D2E/DX2                !
 ! D24   D(8,3,4,13)           -62.0662         estimate D2E/DX2                !
 ! D25   D(14,3,4,5)          -179.5173         estimate D2E/DX2                !
 ! D26   D(14,3,4,9)           -59.4549         estimate D2E/DX2                !
 ! D27   D(14,3,4,13)           57.0494         estimate D2E/DX2                !
 ! D28   D(2,3,14,23)         -175.4695         estimate D2E/DX2                !
 ! D29   D(2,3,14,83)          -49.4426         estimate D2E/DX2                !
 ! D30   D(4,3,14,23)          -51.6084         estimate D2E/DX2                !
 ! D31   D(4,3,14,83)           74.4184         estimate D2E/DX2                !
 ! D32   D(8,3,14,23)           67.4925         estimate D2E/DX2                !
 ! D33   D(8,3,14,83)         -166.4806         estimate D2E/DX2                !
 ! D34   D(3,4,5,6)             53.6716         estimate D2E/DX2                !
 ! D35   D(3,4,5,10)           170.6331         estimate D2E/DX2                !
 ! D36   D(3,4,5,12)           -70.8003         estimate D2E/DX2                !
 ! D37   D(9,4,5,6)            -66.4921         estimate D2E/DX2                !
 ! D38   D(9,4,5,10)            50.4694         estimate D2E/DX2                !
 ! D39   D(9,4,5,12)           169.036          estimate D2E/DX2                !
 ! D40   D(13,4,5,6)           174.9893         estimate D2E/DX2                !
 ! D41   D(13,4,5,10)          -68.0492         estimate D2E/DX2                !
 ! D42   D(13,4,5,12)           50.5174         estimate D2E/DX2                !
 ! D43   D(3,4,13,22)           85.7747         estimate D2E/DX2                !
 ! D44   D(3,4,13,83)          -55.9789         estimate D2E/DX2                !
 ! D45   D(5,4,13,22)          -35.6687         estimate D2E/DX2                !
 ! D46   D(5,4,13,83)         -177.4223         estimate D2E/DX2                !
 ! D47   D(9,4,13,22)         -155.8302         estimate D2E/DX2                !
 ! D48   D(9,4,13,83)           62.4162         estimate D2E/DX2                !
 ! D49   D(4,5,6,1)            -54.2702         estimate D2E/DX2                !
 ! D50   D(4,5,6,11)            65.2347         estimate D2E/DX2                !
 ! D51   D(4,5,6,16)          -176.6377         estimate D2E/DX2                !
 ! D52   D(10,5,6,1)          -172.1181         estimate D2E/DX2                !
 ! D53   D(10,5,6,11)          -52.6132         estimate D2E/DX2                !
 ! D54   D(10,5,6,16)           65.5144         estimate D2E/DX2                !
 ! D55   D(12,5,6,1)            64.1752         estimate D2E/DX2                !
 ! D56   D(12,5,6,11)         -176.3199         estimate D2E/DX2                !
 ! D57   D(12,5,6,16)          -58.1923         estimate D2E/DX2                !
 ! D58   D(4,5,12,21)          155.6955         estimate D2E/DX2                !
 ! D59   D(6,5,12,21)           35.2789         estimate D2E/DX2                !
 ! D60   D(10,5,12,21)         -86.8242         estimate D2E/DX2                !
 ! D61   D(1,6,16,17)           50.5333         estimate D2E/DX2                !
 ! D62   D(1,6,16,18)          168.1866         estimate D2E/DX2                !
 ! D63   D(1,6,16,19)          -70.6452         estimate D2E/DX2                !
 ! D64   D(5,6,16,17)          175.5968         estimate D2E/DX2                !
 ! D65   D(5,6,16,18)          -66.7499         estimate D2E/DX2                !
 ! D66   D(5,6,16,19)           54.4183         estimate D2E/DX2                !
 ! D67   D(11,6,16,17)         -65.7681         estimate D2E/DX2                !
 ! D68   D(11,6,16,18)          51.8852         estimate D2E/DX2                !
 ! D69   D(11,6,16,19)         173.0534         estimate D2E/DX2                !
 ! D70   D(4,13,83,14)          88.945          estimate D2E/DX2                !
 ! D71   D(4,13,83,19)          16.4139         estimate D2E/DX2                !
 ! D72   D(4,13,83,81)         -86.0312         estimate D2E/DX2                !
 ! D73   D(22,13,83,14)         15.4181         estimate D2E/DX2                !
 ! D74   D(22,13,83,19)        -57.113          estimate D2E/DX2                !
 ! D75   D(22,13,83,81)       -159.5581         estimate D2E/DX2                !
 ! D76   D(3,14,83,13)         -66.379          estimate D2E/DX2                !
 ! D77   D(3,14,83,19)           1.2764         estimate D2E/DX2                !
 ! D78   D(23,14,83,13)         54.9229         estimate D2E/DX2                !
 ! D79   D(23,14,83,19)        122.5783         estimate D2E/DX2                !
 ! D80   D(2,15,27,26)        -150.635          estimate D2E/DX2                !
 ! D81   D(2,15,27,28)          88.7781         estimate D2E/DX2                !
 ! D82   D(2,15,27,32)         -32.2829         estimate D2E/DX2                !
 ! D83   D(6,16,19,20)        -176.2679         estimate D2E/DX2                !
 ! D84   D(6,16,19,83)           7.932          estimate D2E/DX2                !
 ! D85   D(17,16,19,20)         63.7845         estimate D2E/DX2                !
 ! D86   D(17,16,19,83)       -112.0157         estimate D2E/DX2                !
 ! D87   D(18,16,19,20)        -56.8639         estimate D2E/DX2                !
 ! D88   D(18,16,19,83)        127.336          estimate D2E/DX2                !
 ! D89   D(16,19,83,13)       -115.3206         estimate D2E/DX2                !
 ! D90   D(16,19,83,14)       -172.5841         estimate D2E/DX2                !
 ! D91   D(16,19,83,81)         11.7558         estimate D2E/DX2                !
 ! D92   D(29,24,25,26)        -50.7836         estimate D2E/DX2                !
 ! D93   D(29,24,25,30)         71.9428         estimate D2E/DX2                !
 ! D94   D(29,24,25,37)       -174.8614         estimate D2E/DX2                !
 ! D95   D(25,24,29,28)         53.0745         estimate D2E/DX2                !
 ! D96   D(25,24,29,34)        -67.5426         estimate D2E/DX2                !
 ! D97   D(25,24,29,38)        175.6373         estimate D2E/DX2                !
 ! D98   D(24,25,26,27)         49.8257         estimate D2E/DX2                !
 ! D99   D(24,25,26,31)        -67.93           estimate D2E/DX2                !
 ! D100  D(24,25,26,36)        171.5752         estimate D2E/DX2                !
 ! D101  D(30,25,26,27)        -74.1127         estimate D2E/DX2                !
 ! D102  D(30,25,26,31)        168.1316         estimate D2E/DX2                !
 ! D103  D(30,25,26,36)         47.6368         estimate D2E/DX2                !
 ! D104  D(37,25,26,27)        170.7257         estimate D2E/DX2                !
 ! D105  D(37,25,26,31)         52.9701         estimate D2E/DX2                !
 ! D106  D(37,25,26,36)        -67.5248         estimate D2E/DX2                !
 ! D107  D(24,25,37,49)         60.4499         estimate D2E/DX2                !
 ! D108  D(26,25,37,49)        -63.7051         estimate D2E/DX2                !
 ! D109  D(30,25,37,49)        178.2917         estimate D2E/DX2                !
 ! D110  D(25,26,27,15)       -174.088          estimate D2E/DX2                !
 ! D111  D(25,26,27,28)        -52.8698         estimate D2E/DX2                !
 ! D112  D(25,26,27,32)         67.7695         estimate D2E/DX2                !
 ! D113  D(31,26,27,15)        -55.9796         estimate D2E/DX2                !
 ! D114  D(31,26,27,28)         65.2386         estimate D2E/DX2                !
 ! D115  D(31,26,27,32)       -174.122          estimate D2E/DX2                !
 ! D116  D(36,26,27,15)         63.9669         estimate D2E/DX2                !
 ! D117  D(36,26,27,28)       -174.8149         estimate D2E/DX2                !
 ! D118  D(36,26,27,32)        -54.1756         estimate D2E/DX2                !
 ! D119  D(25,26,36,44)         74.8171         estimate D2E/DX2                !
 ! D120  D(27,26,36,44)       -162.4756         estimate D2E/DX2                !
 ! D121  D(31,26,36,44)        -44.2928         estimate D2E/DX2                !
 ! D122  D(15,27,28,29)        172.9112         estimate D2E/DX2                !
 ! D123  D(15,27,28,33)        -69.0871         estimate D2E/DX2                !
 ! D124  D(15,27,28,35)         50.3171         estimate D2E/DX2                !
 ! D125  D(26,27,28,29)         54.6513         estimate D2E/DX2                !
 ! D126  D(26,27,28,33)        172.653          estimate D2E/DX2                !
 ! D127  D(26,27,28,35)        -67.9428         estimate D2E/DX2                !
 ! D128  D(32,27,28,29)        -66.1022         estimate D2E/DX2                !
 ! D129  D(32,27,28,33)         51.8995         estimate D2E/DX2                !
 ! D130  D(32,27,28,35)        171.3036         estimate D2E/DX2                !
 ! D131  D(27,28,29,24)        -53.6335         estimate D2E/DX2                !
 ! D132  D(27,28,29,34)         68.4086         estimate D2E/DX2                !
 ! D133  D(27,28,29,38)       -171.62           estimate D2E/DX2                !
 ! D134  D(33,28,29,24)       -172.6381         estimate D2E/DX2                !
 ! D135  D(33,28,29,34)        -50.596          estimate D2E/DX2                !
 ! D136  D(33,28,29,38)         69.3755         estimate D2E/DX2                !
 ! D137  D(35,28,29,24)         67.9037         estimate D2E/DX2                !
 ! D138  D(35,28,29,34)       -170.0541         estimate D2E/DX2                !
 ! D139  D(35,28,29,38)        -50.0827         estimate D2E/DX2                !
 ! D140  D(27,28,35,43)        145.5741         estimate D2E/DX2                !
 ! D141  D(27,28,35,82)        -23.5361         estimate D2E/DX2                !
 ! D142  D(29,28,35,43)         23.7949         estimate D2E/DX2                !
 ! D143  D(29,28,35,82)       -145.3153         estimate D2E/DX2                !
 ! D144  D(33,28,35,43)        -94.8539         estimate D2E/DX2                !
 ! D145  D(33,28,35,82)         96.0359         estimate D2E/DX2                !
 ! D146  D(24,29,38,39)         58.3961         estimate D2E/DX2                !
 ! D147  D(24,29,38,40)        176.9545         estimate D2E/DX2                !
 ! D148  D(24,29,38,41)        -64.1171         estimate D2E/DX2                !
 ! D149  D(28,29,38,39)       -179.4299         estimate D2E/DX2                !
 ! D150  D(28,29,38,40)        -60.8715         estimate D2E/DX2                !
 ! D151  D(28,29,38,41)         58.0569         estimate D2E/DX2                !
 ! D152  D(34,29,38,39)        -59.7596         estimate D2E/DX2                !
 ! D153  D(34,29,38,40)         58.7988         estimate D2E/DX2                !
 ! D154  D(34,29,38,41)        177.7272         estimate D2E/DX2                !
 ! D155  D(28,35,82,41)        158.8095         estimate D2E/DX2                !
 ! D156  D(28,35,82,62)        124.4218         estimate D2E/DX2                !
 ! D157  D(43,35,82,41)         -7.9616         estimate D2E/DX2                !
 ! D158  D(43,35,82,62)        -42.3493         estimate D2E/DX2                !
 ! D159  D(25,37,49,48)        121.2436         estimate D2E/DX2                !
 ! D160  D(25,37,49,50)       -121.2108         estimate D2E/DX2                !
 ! D161  D(25,37,49,55)         -1.5557         estimate D2E/DX2                !
 ! D162  D(29,38,41,42)         75.8471         estimate D2E/DX2                !
 ! D163  D(29,38,41,82)        -28.9203         estimate D2E/DX2                !
 ! D164  D(39,38,41,42)        -45.9221         estimate D2E/DX2                !
 ! D165  D(39,38,41,82)       -150.6895         estimate D2E/DX2                !
 ! D166  D(40,38,41,42)       -163.6791         estimate D2E/DX2                !
 ! D167  D(40,38,41,82)         91.5534         estimate D2E/DX2                !
 ! D168  D(38,41,82,35)        -10.9043         estimate D2E/DX2                !
 ! D169  D(38,41,82,62)        114.5613         estimate D2E/DX2                !
 ! D170  D(38,41,82,81)        165.4096         estimate D2E/DX2                !
 ! D171  D(42,41,82,35)       -122.4027         estimate D2E/DX2                !
 ! D172  D(42,41,82,62)          3.0629         estimate D2E/DX2                !
 ! D173  D(42,41,82,81)         53.9113         estimate D2E/DX2                !
 ! D174  D(50,45,46,47)         58.5361         estimate D2E/DX2                !
 ! D175  D(50,45,46,51)        178.3966         estimate D2E/DX2                !
 ! D176  D(50,45,46,58)        -63.9125         estimate D2E/DX2                !
 ! D177  D(84,45,46,47)         57.3396         estimate D2E/DX2                !
 ! D178  D(84,45,46,51)        177.2001         estimate D2E/DX2                !
 ! D179  D(84,45,46,58)        -65.109          estimate D2E/DX2                !
 ! D180  D(46,45,50,49)        -24.3464         estimate D2E/DX2                !
 ! D181  D(46,45,50,54)       -139.9643         estimate D2E/DX2                !
 ! D182  D(46,45,50,59)        105.6461         estimate D2E/DX2                !
 ! D183  D(84,45,50,49)        -23.3907         estimate D2E/DX2                !
 ! D184  D(84,45,50,54)       -139.0086         estimate D2E/DX2                !
 ! D185  D(84,45,50,59)        106.6018         estimate D2E/DX2                !
 ! D186  D(46,45,84,56)       -104.7708         estimate D2E/DX2                !
 ! D187  D(46,45,84,58)         50.8882         estimate D2E/DX2                !
 ! D188  D(46,45,84,81)         96.5757         estimate D2E/DX2                !
 ! D189  D(50,45,84,56)         76.3723         estimate D2E/DX2                !
 ! D190  D(50,45,84,58)       -127.9688         estimate D2E/DX2                !
 ! D191  D(50,45,84,81)        -82.2813         estimate D2E/DX2                !
 ! D192  D(45,46,47,48)        -26.8815         estimate D2E/DX2                !
 ! D193  D(45,46,47,52)       -144.6694         estimate D2E/DX2                !
 ! D194  D(45,46,47,57)         99.8725         estimate D2E/DX2                !
 ! D195  D(51,46,47,48)       -144.3665         estimate D2E/DX2                !
 ! D196  D(51,46,47,52)         97.8456         estimate D2E/DX2                !
 ! D197  D(51,46,47,57)        -17.6125         estimate D2E/DX2                !
 ! D198  D(58,46,47,48)         94.9364         estimate D2E/DX2                !
 ! D199  D(58,46,47,52)        -22.8515         estimate D2E/DX2                !
 ! D200  D(58,46,47,57)       -138.3096         estimate D2E/DX2                !
 ! D201  D(45,46,58,66)       -152.2957         estimate D2E/DX2                !
 ! D202  D(45,46,58,84)        115.354          estimate D2E/DX2                !
 ! D203  D(47,46,58,66)         83.7389         estimate D2E/DX2                !
 ! D204  D(47,46,58,84)         -8.6113         estimate D2E/DX2                !
 ! D205  D(51,46,58,66)        -37.0753         estimate D2E/DX2                !
 ! D206  D(51,46,58,84)       -129.4256         estimate D2E/DX2                !
 ! D207  D(46,47,48,49)        -32.5792         estimate D2E/DX2                !
 ! D208  D(46,47,48,53)         85.5111         estimate D2E/DX2                !
 ! D209  D(46,47,48,56)       -154.7437         estimate D2E/DX2                !
 ! D210  D(52,47,48,49)         85.6123         estimate D2E/DX2                !
 ! D211  D(52,47,48,53)       -156.2975         estimate D2E/DX2                !
 ! D212  D(52,47,48,56)        -36.5523         estimate D2E/DX2                !
 ! D213  D(57,47,48,49)       -160.3451         estimate D2E/DX2                !
 ! D214  D(57,47,48,53)        -42.2548         estimate D2E/DX2                !
 ! D215  D(57,47,48,56)         77.4903         estimate D2E/DX2                !
 ! D216  D(46,47,57,65)        -59.7891         estimate D2E/DX2                !
 ! D217  D(48,47,57,65)         66.9174         estimate D2E/DX2                !
 ! D218  D(52,47,57,65)       -177.2997         estimate D2E/DX2                !
 ! D219  D(47,48,49,37)       -178.1501         estimate D2E/DX2                !
 ! D220  D(47,48,49,50)         64.4981         estimate D2E/DX2                !
 ! D221  D(47,48,49,55)        -55.7077         estimate D2E/DX2                !
 ! D222  D(53,48,49,37)         62.8528         estimate D2E/DX2                !
 ! D223  D(53,48,49,50)        -54.499          estimate D2E/DX2                !
 ! D224  D(53,48,49,55)       -174.7047         estimate D2E/DX2                !
 ! D225  D(56,48,49,37)        -56.0919         estimate D2E/DX2                !
 ! D226  D(56,48,49,50)       -173.4437         estimate D2E/DX2                !
 ! D227  D(56,48,49,55)         66.3505         estimate D2E/DX2                !
 ! D228  D(47,48,56,64)        -60.9814         estimate D2E/DX2                !
 ! D229  D(47,48,56,84)         62.689          estimate D2E/DX2                !
 ! D230  D(49,48,56,64)        176.9263         estimate D2E/DX2                !
 ! D231  D(49,48,56,84)        -59.4033         estimate D2E/DX2                !
 ! D232  D(53,48,56,64)         58.8248         estimate D2E/DX2                !
 ! D233  D(53,48,56,84)       -177.5048         estimate D2E/DX2                !
 ! D234  D(37,49,50,45)       -155.7011         estimate D2E/DX2                !
 ! D235  D(37,49,50,54)        -41.3727         estimate D2E/DX2                !
 ! D236  D(37,49,50,59)         77.2976         estimate D2E/DX2                !
 ! D237  D(48,49,50,45)        -36.6194         estimate D2E/DX2                !
 ! D238  D(48,49,50,54)         77.709          estimate D2E/DX2                !
 ! D239  D(48,49,50,59)       -163.6207         estimate D2E/DX2                !
 ! D240  D(55,49,50,45)         84.3035         estimate D2E/DX2                !
 ! D241  D(55,49,50,54)       -161.3681         estimate D2E/DX2                !
 ! D242  D(55,49,50,59)        -42.6978         estimate D2E/DX2                !
 ! D243  D(45,50,59,60)         51.2279         estimate D2E/DX2                !
 ! D244  D(45,50,59,61)        168.8872         estimate D2E/DX2                !
 ! D245  D(45,50,59,62)        -71.3225         estimate D2E/DX2                !
 ! D246  D(49,50,59,60)        179.6664         estimate D2E/DX2                !
 ! D247  D(49,50,59,61)        -62.6744         estimate D2E/DX2                !
 ! D248  D(49,50,59,62)         57.116          estimate D2E/DX2                !
 ! D249  D(54,50,59,60)        -61.7204         estimate D2E/DX2                !
 ! D250  D(54,50,59,61)         55.9389         estimate D2E/DX2                !
 ! D251  D(54,50,59,62)        175.7292         estimate D2E/DX2                !
 ! D252  D(48,56,84,45)         -1.0087         estimate D2E/DX2                !
 ! D253  D(48,56,84,58)        -10.177          estimate D2E/DX2                !
 ! D254  D(48,56,84,81)         37.4837         estimate D2E/DX2                !
 ! D255  D(64,56,84,45)        119.3857         estimate D2E/DX2                !
 ! D256  D(64,56,84,58)        110.2174         estimate D2E/DX2                !
 ! D257  D(64,56,84,81)        157.8781         estimate D2E/DX2                !
 ! D258  D(46,58,66,67)        -50.2692         estimate D2E/DX2                !
 ! D259  D(46,58,66,68)         67.5534         estimate D2E/DX2                !
 ! D260  D(46,58,66,69)       -172.0842         estimate D2E/DX2                !
 ! D261  D(84,58,66,67)         55.1604         estimate D2E/DX2                !
 ! D262  D(84,58,66,68)        172.983          estimate D2E/DX2                !
 ! D263  D(84,58,66,69)        -66.6546         estimate D2E/DX2                !
 ! D264  D(46,58,84,45)        -35.5688         estimate D2E/DX2                !
 ! D265  D(46,58,84,56)        -17.4236         estimate D2E/DX2                !
 ! D266  D(46,58,84,81)       -173.5895         estimate D2E/DX2                !
 ! D267  D(66,58,84,45)       -150.5074         estimate D2E/DX2                !
 ! D268  D(66,58,84,56)       -132.3622         estimate D2E/DX2                !
 ! D269  D(66,58,84,81)         71.4719         estimate D2E/DX2                !
 ! D270  D(50,59,62,63)         39.003          estimate D2E/DX2                !
 ! D271  D(50,59,62,82)        -46.7011         estimate D2E/DX2                !
 ! D272  D(60,59,62,63)        -82.2418         estimate D2E/DX2                !
 ! D273  D(60,59,62,82)       -167.9459         estimate D2E/DX2                !
 ! D274  D(61,59,62,63)        159.7462         estimate D2E/DX2                !
 ! D275  D(61,59,62,82)         74.0422         estimate D2E/DX2                !
 ! D276  D(59,62,82,35)        -91.0078         estimate D2E/DX2                !
 ! D277  D(59,62,82,41)       -116.9887         estimate D2E/DX2                !
 ! D278  D(59,62,82,81)         83.6603         estimate D2E/DX2                !
 ! D279  D(63,62,82,35)        165.3076         estimate D2E/DX2                !
 ! D280  D(63,62,82,41)        139.3267         estimate D2E/DX2                !
 ! D281  D(63,62,82,81)        -20.0243         estimate D2E/DX2                !
 ! D282  D(58,66,69,70)        -58.9927         estimate D2E/DX2                !
 ! D283  D(58,66,69,71)       -173.225          estimate D2E/DX2                !
 ! D284  D(58,66,69,72)         63.3976         estimate D2E/DX2                !
 ! D285  D(67,66,69,70)       -179.8199         estimate D2E/DX2                !
 ! D286  D(67,66,69,71)         65.9478         estimate D2E/DX2                !
 ! D287  D(67,66,69,72)        -57.4296         estimate D2E/DX2                !
 ! D288  D(68,66,69,70)         60.5133         estimate D2E/DX2                !
 ! D289  D(68,66,69,71)        -53.7191         estimate D2E/DX2                !
 ! D290  D(68,66,69,72)       -177.0964         estimate D2E/DX2                !
 ! D291  D(66,69,72,73)       -167.9167         estimate D2E/DX2                !
 ! D292  D(66,69,72,74)        -53.0648         estimate D2E/DX2                !
 ! D293  D(66,69,72,75)         70.9266         estimate D2E/DX2                !
 ! D294  D(70,69,72,73)        -45.9179         estimate D2E/DX2                !
 ! D295  D(70,69,72,74)         68.934          estimate D2E/DX2                !
 ! D296  D(70,69,72,75)       -167.0746         estimate D2E/DX2                !
 ! D297  D(71,69,72,73)         69.8685         estimate D2E/DX2                !
 ! D298  D(71,69,72,74)       -175.2796         estimate D2E/DX2                !
 ! D299  D(71,69,72,75)        -51.2882         estimate D2E/DX2                !
 ! D300  D(69,72,75,76)        -67.231          estimate D2E/DX2                !
 ! D301  D(69,72,75,77)         48.7331         estimate D2E/DX2                !
 ! D302  D(69,72,75,78)        168.2282         estimate D2E/DX2                !
 ! D303  D(73,72,75,76)        172.0416         estimate D2E/DX2                !
 ! D304  D(73,72,75,77)        -71.9943         estimate D2E/DX2                !
 ! D305  D(73,72,75,78)         47.5007         estimate D2E/DX2                !
 ! D306  D(74,72,75,76)         55.7959         estimate D2E/DX2                !
 ! D307  D(74,72,75,77)        171.76           estimate D2E/DX2                !
 ! D308  D(74,72,75,78)        -68.745          estimate D2E/DX2                !
 ! D309  D(72,75,78,79)        -53.0339         estimate D2E/DX2                !
 ! D310  D(72,75,78,80)       -172.6339         estimate D2E/DX2                !
 ! D311  D(72,75,78,81)         66.8124         estimate D2E/DX2                !
 ! D312  D(76,75,78,79)       -178.6869         estimate D2E/DX2                !
 ! D313  D(76,75,78,80)         61.7131         estimate D2E/DX2                !
 ! D314  D(76,75,78,81)        -58.8406         estimate D2E/DX2                !
 ! D315  D(77,75,78,79)         68.0767         estimate D2E/DX2                !
 ! D316  D(77,75,78,80)        -51.5233         estimate D2E/DX2                !
 ! D317  D(77,75,78,81)       -172.077          estimate D2E/DX2                !
 ! D318  D(75,78,81,82)        -66.2341         estimate D2E/DX2                !
 ! D319  D(75,78,81,83)        174.2122         estimate D2E/DX2                !
 ! D320  D(75,78,81,84)         54.6705         estimate D2E/DX2                !
 ! D321  D(79,78,81,82)         56.2518         estimate D2E/DX2                !
 ! D322  D(79,78,81,83)        -63.3018         estimate D2E/DX2                !
 ! D323  D(79,78,81,84)        177.1564         estimate D2E/DX2                !
 ! D324  D(80,78,81,82)        171.4324         estimate D2E/DX2                !
 ! D325  D(80,78,81,83)         51.8787         estimate D2E/DX2                !
 ! D326  D(80,78,81,84)        -67.6631         estimate D2E/DX2                !
 ! D327  D(78,81,82,41)         32.9011         estimate D2E/DX2                !
 ! D328  D(78,81,82,62)         67.4589         estimate D2E/DX2                !
 ! D329  D(83,81,82,41)        156.6457         estimate D2E/DX2                !
 ! D330  D(83,81,82,62)       -168.7964         estimate D2E/DX2                !
 ! D331  D(84,81,82,41)        -90.6232         estimate D2E/DX2                !
 ! D332  D(84,81,82,62)        -56.0653         estimate D2E/DX2                !
 ! D333  D(78,81,83,13)       -104.7748         estimate D2E/DX2                !
 ! D334  D(78,81,83,19)       -171.3939         estimate D2E/DX2                !
 ! D335  D(82,81,83,13)        130.8687         estimate D2E/DX2                !
 ! D336  D(82,81,83,19)         64.2497         estimate D2E/DX2                !
 ! D337  D(84,81,83,13)         17.7684         estimate D2E/DX2                !
 ! D338  D(84,81,83,19)        -48.8506         estimate D2E/DX2                !
 ! D339  D(78,81,84,45)        -82.5149         estimate D2E/DX2                !
 ! D340  D(78,81,84,56)       -107.7916         estimate D2E/DX2                !
 ! D341  D(78,81,84,58)        -68.9372         estimate D2E/DX2                !
 ! D342  D(82,81,84,45)         42.2899         estimate D2E/DX2                !
 ! D343  D(82,81,84,56)         17.0133         estimate D2E/DX2                !
 ! D344  D(82,81,84,58)         55.8677         estimate D2E/DX2                !
 ! D345  D(83,81,84,45)        154.2373         estimate D2E/DX2                !
 ! D346  D(83,81,84,56)        128.9606         estimate D2E/DX2                !
 ! D347  D(83,81,84,58)        167.8151         estimate D2E/DX2                !
 --------------------------------------------------------------------------------
 Trust Radius=3.00D-01 FncErr=1.00D-07 GrdErr=1.00D-06
 Number of steps in this run=    504 maximum allowed number of steps=    504.
 GradGradGradGradGradGradGradGradGradGradGradGradGradGradGradGradGradGrad

 Leave Link  103 at Wed Apr 27 03:49:34 2016, MaxMem= 10737418240 cpu:         0.6
 (Enter /share/apps//g09/l202.exe)
 Stoichiometry    C23H44NO16(1+)
 Framework group  C1[X(C23H44NO16)]
 Deg. of freedom   246
 Full point group                 C1      NOp   1
 Largest Abelian subgroup         C1      NOp   1
 Largest concise Abelian subgroup C1      NOp   1
                         Standard orientation:                         
 ---------------------------------------------------------------------
 Center     Atomic      Atomic             Coordinates (Angstroms)
 Number     Number       Type             X           Y           Z
 ---------------------------------------------------------------------
      1          8           0        4.270595   -0.939317    0.649756
      2          6           0        3.472734    0.139880    1.075820
      3          6           0        4.105232    1.463924    0.642633
      4          6           0        4.318558    1.513661   -0.873405
      5          6           0        5.163044    0.310889   -1.304728
      6          6           0        4.502469   -0.979448   -0.785278
      7          1           0        3.445533    0.054755    2.175830
      8          1           0        5.085749    1.522097    1.141319
      9          1           0        3.343819    1.482189   -1.386631
     10          1           0        5.171576    0.257627   -2.412514
     11          1           0        3.529010   -1.084965   -1.299512
     12          8           0        6.474668    0.568737   -0.807525
     13          8           0        4.924000    2.761009   -1.218449
     14          8           0        3.298351    2.589022    1.065690
     15          8           0        2.151477    0.108640    0.531042
     16          6           0        5.288100   -2.247004   -1.078328
     17          1           0        4.775181   -3.097996   -0.600066
     18          1           0        5.288080   -2.404554   -2.170842
     19          8           0        6.630392   -2.116291   -0.577216
     20          1           0        7.138963   -2.906788   -0.821933
     21          1           0        6.924877   -0.298692   -0.708974
     22          1           0        5.888996    2.627254   -1.108192
     23          1           0        3.754219    3.363530    0.674433
     24          8           0       -1.206119   -2.279168    1.285310
     25          6           0       -0.577910   -2.427394    0.016083
     26          6           0        0.413247   -1.284048   -0.294180
     27          6           0        1.375630   -1.056618    0.864909
     28          6           0        0.600800   -0.858822    2.175087
     29          6           0       -0.349516   -2.047483    2.407625
     30          1           0       -0.046565   -3.394801   -0.056669
     31          1           0       -0.167597   -0.355249   -0.429607
     32          1           0        2.048483   -1.926733    0.964103
     33          1           0        1.313571   -0.828070    3.020557
     34          1           0        0.267591   -2.945084    2.618026
     35          8           0       -0.120778    0.385185    2.123979
     36          8           0        1.145881   -1.583088   -1.471295
     37          8           0       -1.609042   -2.523983   -0.942577
     38          6           0       -1.301982   -1.821393    3.588645
     39          1           0       -1.945521   -2.706387    3.709311
     40          1           0       -0.724404   -1.687451    4.514845
     41          8           0       -2.099420   -0.640520    3.408851
     42          1           0       -2.816787   -0.841980    2.740471
     43          1           0       -0.979947    0.226957    2.634417
     44          1           0        0.514117   -1.433466   -2.206493
     45          8           0       -4.945851   -1.019454   -1.329575
     46          6           0       -4.588907    0.310457   -1.566596
     47          6           0       -3.369500    0.440563   -2.513967
     48          6           0       -2.464554   -0.799925   -2.437669
     49          6           0       -2.489316   -1.388208   -1.026397
     50          6           0       -3.924759   -1.886600   -0.743383
     51          1           0       -5.473879    0.779300   -2.030594
     52          1           0       -2.771798    1.305325   -2.185106
     53          1           0       -2.848792   -1.572863   -3.130616
     54          1           0       -4.038256   -2.848204   -1.271508
     55          1           0       -2.205454   -0.630056   -0.280479
     56          8           0       -1.119034   -0.458015   -2.815091
     57          8           0       -3.729202    0.743511   -3.861069
     58          8           0       -4.306946    0.952801   -0.304385
     59          6           0       -4.251190   -2.145848    0.726487
     60          1           0       -5.298412   -2.486941    0.778503
     61          1           0       -3.599225   -2.947158    1.096778
     62          8           0       -4.062005   -1.017985    1.589838
     63          1           0       -4.365834   -0.216682    1.104007
     64          1           0       -1.159851   -0.137257   -3.734479
     65          1           0       -4.301449    0.028547   -4.198912
     66          6           0       -4.534350    2.377096   -0.274565
     67          1           0       -4.032144    2.856159   -1.134289
     68          1           0       -5.616284    2.574902   -0.367741
     69          6           0       -4.004017    2.910548    1.049324
     70          1           0       -4.535574    2.397748    1.866276
     71          1           0       -4.287721    3.973177    1.123341
     72          6           0       -2.488751    2.753868    1.261378
     73          1           0       -2.268217    2.969386    2.319640
     74          1           0       -2.215118    1.699209    1.099401
     75          6           0       -1.632252    3.675385    0.379325
     76          1           0       -1.715576    3.397570   -0.686296
     77          1           0       -2.019751    4.705295    0.445348
     78          6           0       -0.154671    3.747078    0.761250
     79          1           0       -0.031752    3.999101    1.824057
     80          1           0        0.358224    4.519506    0.172144
     81          7           0        0.577958    2.459664    0.543354
     82          1           0        0.253690    1.670090    1.180447
     83          1           0        1.619572    2.547209    0.718064
     84          1           0        0.474353    2.124775   -0.422030
 ---------------------------------------------------------------------
 Rotational constants (GHZ):      0.1398324      0.0571391      0.0547655
 Leave Link  202 at Wed Apr 27 03:49:34 2016, MaxMem= 10737418240 cpu:         0.7
 (Enter /share/apps//g09/l301.exe)
 Standard basis: 6-311+G(d,p) (5D, 7F)
 Ernie: Thresh=  0.10000D-02 Tol=  0.10000D-05 Strict=F.
 There are  1184 symmetry adapted cartesian basis functions of A   symmetry.
 There are  1144 symmetry adapted basis functions of A   symmetry.
  1144 basis functions,  1792 primitive gaussians,  1184 cartesian basis functions
   158 alpha electrons      158 beta electrons
       nuclear repulsion energy      5873.4150341641 Hartrees.
 IExCor= 1009 DFT=T Ex+Corr=PBE1PBE ExCW=0 ScaHFX=  0.250000
 ScaDFX=  0.750000  0.750000  1.000000  1.000000 ScalE2=  1.000000  1.000000
 IRadAn=      0 IRanWt=     -1 IRanGd=            0 ICorTp=0 IEmpDi=131
 NAtoms=   84 NActive=   84 NUniq=   84 SFac= 1.00D+00 NAtFMM=   60 NAOKFM=T Big=T
[...]
 0011997,0.00024274,-0.00013318,-0.00011036,0.00017404,0.00027283,-0.00
 001562,0.00011018,-0.00022639,-0.00001470,-0.00011130,-0.00014995,0.00
 004015,-0.00071593,-0.00275780,-0.00062629,0.00027657,-0.00004336,-0.0
 0025079,0.00026574,-0.00019968,0.00022148,0.00000613,0.00037966,-0.000
 06242,-0.00001288,-0.00003552,-0.00000173,0.00002340,-0.00000370,0.000
 08417,-0.00015237,-0.00054737,-0.00000623,0.00004501,0.00005734,-0.000
 56399,0.00031127,0.00010674,0.00014441,-0.00011046,0.00015904,-0.00007
 094,-0.00011323,-0.00025726,0.00015866,0.00038391,0.00014376,0.0001404
 7,0.00028876,0.00003413,0.00004438,0.00003160,0.00005111,0.00023678,0.
 00007253,0.00022676,0.00002108,-0.00004125,0.00009361,-0.00000676,-0.0
 0001656,0.00000693,-0.00000801,-0.00002463,-0.00008731,-0.00001470,-0.
 00003968,-0.00001493,-0.00000913,-0.00002607,-0.00001257,-0.00003828,-
 0.00000512,0.00004557,-0.00032444,-0.00011473,-0.00019793,-0.00014587,
 -0.00018839,0.00004613,-0.00018632,-0.00041373,-0.00017418,0.00008124,
 0.00011767,0.00007792,-0.00000259,-0.00002725,-0.00000431,-0.00000367,
 -0.00000061,-0.00001847,-0.00006255,-0.00014021,-0.00018061,-0.0000192
 5,0.00007722,0.00015888,0.00015740,0.00002441,0.00001366,0.00003158,0.
 00002582,-0.00000528,0.00011028,0.00016368,0.00016910,-0.00000168,0.00
 005864,-0.00006577,0.00000047,-0.00009160,-0.00003449,-0.00008936,0.00
 012078,-0.00010383,0.00007843,-0.00009702,-0.00000606,0.00001136,-0.00
 003534,0.00005082,0.00013438,-0.00027436,0.00010828,-0.00003624,0.0000
 0636,0.00003960,-0.00003366,0.00011679,0.00014032,-0.00125188,-0.00138
 885,-0.00186898,0.00009780,0.00011554,-0.00022861,0.00017226,0.0006388
 5,-0.00002450,-0.01229866,0.01567990,-0.00378313,-0.00030559,0.0001062
 7,0.00057818,0.00141523,-0.00018295,0.00089523,-0.12599172,0.11368465,
 -0.01389401,-0.00802782,0.01329508,0.00275891,0.13437995,0.00006913,-0
 .00218113,-0.00114236,-0.00167864,0.00534085,0.00239996,0.00865033,0.0
 0569655,0.00857489,0.00016437,0.00165999,-0.00181275,-0.00028332,-0.00
 012033,0.00094648,0.00021895,0.00081411,0.00012388,0.00009611,-0.00042
 611,0.00024116,-0.00239438,-0.00034266,-0.00203688,-0.00013912,-0.0003
 3080,0.00030348,-0.00048126,-0.00007072,-0.00021896,-0.00016449,0.0000
 4544,0.00001783,-0.00085340,-0.00019352,-0.00046669,-0.00164348,-0.000
 71667,0.00025271,-0.01039510,-0.00017467,-0.00429927,0.00245886,-0.004
 17582,0.00063698,0.00007322,0.00003223,0.00008718,-0.00001061,0.000010
 45,-0.00013963,-0.00006413,0.00001595,0.00001550,-0.00010948,-0.000138
 17,-0.00030237,0.00004802,-0.00004573,0.00005789,0.00023821,-0.0000054
 5,0.00040852,0.00049141,-0.00020012,-0.00016397,-0.00067762,0.00013732
 ,-0.00415152,0.00011681,-0.00014516,0.00014668,-0.00006507,-0.00001797
 ,0.00004018,-0.00081676,-0.00000967,-0.00078025,-0.00039298,0.00030446
 ,0.00057078,-0.00155393,0.00052838,-0.00149610,0.00034166,0.00001166,0
 .00019256,0.00000763,0.00006265,0.00011655,0.00017676,-0.00034147,0.00
 022083,0.00002267,0.00012997,0.00012386,0.00004629,-0.00015484,0.00042
 786,0.00003162,0.00013256,0.00017162,-0.00024152,0.00017224,0.00426862
 ,0.00070096,-0.00015495,0.00024985,0.00023532,-0.00019471,0.00024092,-
 0.00020389,0.00009293,-0.00046363,0.00004723,0.00001832,0.00005336,0.0
 0000166,-0.00004173,0.00001832,-0.00016029,0.00012937,0.00072037,0.000
 02434,-0.00002085,-0.00012857,0.00070245,-0.00030811,-0.00018986,-0.00
 016923,0.00001820,-0.00019397,0.00010607,0.00018781,0.00037437,-0.0002
 7859,-0.00060356,-0.00021418,-0.00017317,-0.00033992,-0.00000825,-0.00
 004330,-0.00003275,-0.00007656,-0.00025299,-0.00009579,-0.00023633,-0.
 00003330,0.00004560,-0.00014886,0.00001195,0.00002325,-0.00001291,-0.0
 0001648,0.00004430,0.00008168,0.00001926,0.00005467,0.00002211,0.00001
 504,0.00003002,0.00001965,0.00003430,0.00001501,-0.00005538,0.00030027
 ,0.00016200,0.00022703,0.00020039,0.00025610,-0.00008332,0.00033541,0.
 00066706,0.00031072,-0.00010200,-0.00017033,-0.00010532,-0.00000137,0.
 00004254,0.00000300,0.00001180,-0.00000519,0.00002144,0.00006563,0.000
 18761,0.00029181,0.00003462,-0.00012383,-0.00026132,-0.00018472,-0.000
 06615,-0.00002909,-0.00004723,-0.00004935,0.00001773,-0.00019538,-0.00
 031030,-0.00030841,-0.00001987,-0.00011341,0.00010775,-0.00000126,0.00
 014717,0.00006259,0.00003921,-0.00020128,0.00019663,-0.00012962,0.0002
 0915,0.00005096,0.00005126,0.00006080,-0.00005070,0.00035944,0.0001176
 9,-0.00049333,-0.00000111,-0.00001837,0.00003807,0.00000004,-0.0002265
 9,-0.00010375,-0.00288395,-0.00134636,-0.00325628,0.00025247,-0.000066
 63,0.00015019,-0.00094553,0.00132523,-0.00050264,0.00037211,0.01327481
 ,0.00591804,-0.00118776,0.00018928,-0.00037027,-0.00051095,0.00037120,
 -0.00087638,0.10694167,-0.26066872,0.02387969,0.00394936,-0.00518156,-
 0.00742631,-0.10944693,0.26738577,0.00126443,-0.00006654,0.00046804,-0
 .00247319,0.00214753,-0.00169629,-0.00162559,0.00269600,-0.00107021,-0
 .00012064,-0.00048223,0.00062206,0.00006797,0.00018828,-0.00004827,-0.
 00049747,-0.00016912,0.00028312,0.00007617,-0.00010040,-0.00017390,-0.
 00018566,-0.00013848,-0.00026674,-0.00002242,0.00013862,0.00013510,0.0
 0009405,-0.00001297,0.00000077,-0.00001720,-0.00000912,-0.00003061,0.0
 0009249,-0.00006886,-0.00009141,0.00033140,0.00008019,-0.00046274,-0.0
 0136503,-0.00079014,-0.01153213,0.00046049,0.00111080,0.00092165,-0.00
 003261,0.00005494,-0.00010121,-0.00002374,-0.00001842,-0.00001331,0.00
 005620,-0.00000756,0.00001745,0.00010739,-0.00007209,0.00005762,-0.000
 02517,0.00000893,-0.00001354,-0.00005797,0.00003767,0.00000900,-0.0000
 6808,0.00000919,0.00001118,0.00260419,-0.00441889,0.00286595,0.0000022
 7,0.00021637,-0.00004339,0.00007143,-0.00025392,-0.00011022,0.00011320
 ,-0.00019451,0.00045700,0.00093227,-0.00196679,-0.00110473,0.00080292,
 -0.00006602,0.00009977,-0.00027633,-0.00020730,-0.00014490,-0.00000590
 ,-0.00001142,-0.00003595,0.00000927,0.00009180,-0.00007515,-0.00008408
 ,0.00029744,0.00042365,-0.00004091,0.00004564,-0.00022363,-0.00000584,
 -0.00003391,-0.00006060,-0.00089965,0.00110830,-0.00274124,-0.00007016
 ,0.00024075,-0.00019211,-0.00015758,0.00034302,-0.00018403,0.00014376,
 0.00003759,0.00014361,-0.00005291,0.00001532,0.00000015,0.00001092,0.0
 0000953,-0.00001708,-0.00016641,0.00013271,-0.00011242,0.00002114,-0.0
 0010676,0.00008537,0.00022370,-0.00001764,0.00015186,0.00004198,-0.000
 05853,0.00015903,-0.00004748,-0.00001901,-0.00016328,0.00006691,0.0001
 5110,0.00009769,0.00005025,0.00007226,0.00005218,-0.00001412,0.0000025
 2,0.00002297,0.00014166,-0.00001144,0.00018662,0.00002893,-0.00004317,
 0.00006816,-0.00000713,-0.00000629,-0.00000349,-0.00000519,-0.00001464
 ,-0.00002705,-0.00000135,-0.00001259,-0.00000554,-0.00000229,-0.000010
 30,-0.00000779,-0.00001180,-0.00000092,0.00003076,-0.00007014,-0.00004
 007,-0.00015578,-0.00003452,-0.00003479,-0.00003490,-0.00007502,-0.000
 16887,-0.00010563,0.00002461,0.00001663,0.00002048,-0.00000491,-0.0000
 0006,-0.00000327,0.00000417,-0.00001457,-0.00001576,-0.00003170,0.0000
 2348,-0.00010742,0.00000021,0.00002892,0.00010076,0.00003160,0.0000521
 2,0.00003874,0.00000768,0.00000173,0.00000608,0.00005977,0.00006403,0.
 00007640,-0.00000509,0.00000755,-0.00002480,-0.00000859,-0.00003444,-0
 .00001314,-0.00001827,0.00017105,0.00007905,0.00003766,-0.00002341,0.0
 0001506,0.00006857,-0.00008068,0.00003998,0.00004597,-0.00048306,-0.00
 017482,-0.00002302,0.00003789,0.00006101,0.00005047,0.00021448,0.00030
 079,-0.00288240,-0.00181039,-0.00374338,0.00019285,-0.00034508,0.00005
 455,-0.00068818,0.00106160,-0.00001921,-0.01202145,0.02224180,-0.00330
 631,0.00047079,-0.00023633,0.00093338,0.00056501,0.00066570,-0.0002222
 5,-0.01155925,0.02089076,-0.06123881,0.01414520,-0.02860360,0.00889806
 ,0.01602217,-0.02127294,0.07367644,-0.00008244,-0.00010496,0.00008324,
 -0.00000052,0.00025552,0.00006326,0.00048415,0.00037071,0.00037244,-0.
 00003414,0.00097430,-0.00018770,-0.00019637,-0.00006343,-0.00010105,0.
 00010681,0.00009719,-0.00008654,0.00000454,-0.00011915,0.00009576,-0.0
 0016961,-0.00006104,-0.00005813,-0.00029300,-0.00014305,0.00010315,-0.
 00003785,-0.00000385,-0.00000435,-0.00001965,-0.00003056,-0.00005081,0
 .00012361,-0.00017146,0.00018895,0.00003424,-0.00036809,-0.00002068,-0
 .00177379,0.00080112,-0.00027906,-0.00033228,-0.00009045,0.00050030,-0
 .00005787,0.00000414,-0.00003310,0.00000532,0.00000036,0.00002017,-0.0
 0000942,-0.00000592,-0.00000558,0.00004333,-0.00003804,0.00007769,-0.0
 0000500,0.00000792,-0.00001628,-0.00001069,-0.00001404,-0.00006623,-0.
 00002780,0.00000604,-0.00002081,0.00001655,0.00018768,-0.00011581,-0.0
 0022643,-0.00001971,0.00003679,0.00026467,-0.00013231,-0.00004554,0.00
 065148,-0.00003569,-0.00014984,0.00027602,-0.00040147,-0.00020446,0.00
 049973,0.00009988,0.00054534,-0.00007337,0.00004920,-0.00003623,-0.000
 03517,0.00001317,-0.00001976,0.00034316,0.00005323,-0.00025387,-0.0000
 5283,0.00004643,0.00006458,-0.00007230,0.00002366,-0.00010454,-0.00001
 191,-0.00002918,-0.00003403,0.00005225,0.00016307,-0.00068439,-0.00058
 464,0.00019198,0.00051184,-0.00021123,0.00009019,-0.00010002,0.0001075
 5,-0.00001824,0.00015090,-0.00002293,-0.00000503,-0.00001733,-0.000009
 12,0.00000748,-0.00000363,-0.00002238,-0.00003467,-0.00020190,0.000006
 60,0.00001004,0.00003380,-0.00013192,0.00010659,0.00012167,-0.00001709
 ,-0.00027913,-0.00023418,-0.00009349,-0.00007543,-0.00014490,0.0002127
 6,0.00031716,0.00003843,0.00007974,0.00023589,0.00007338,0.00047138,-0
 .00020990,-0.00011627,0.00020112,0.00013668,0.00009027,0.00002110,-0.0
 0006533,0.00007641,-0.00002505,-0.00001297,0.00001112,0.00003621,-0.00
 000678,-0.00008044,-0.00009074,0.00006876,0.00001399,-0.00000309,-0.00
 002167,-0.00001275,-0.00003172,-0.00000232,0.00005828,-0.00054181,0.00
 051058,0.00025163,-0.00016286,-0.00009830,0.00001177,-0.00017708,-0.00
 036906,-0.00013154,0.00006283,0.00010517,0.00004461,-0.00001260,-0.000
 01820,0.00000092,-0.00000047,-0.00000491,-0.00001479,-0.00006340,-0.00
 009307,-0.00011740,-0.00000537,0.00005276,0.00011081,0.00004978,-0.000
 21049,-0.00002538,0.00003243,-0.00001178,0.00001795,0.00004700,0.00015
 427,0.00012459,0.00000779,0.00005067,-0.00004780,0.00000693,-0.0000563
 0,-0.00003159,0.00006345,0.00017996,0.00001256,0.00004736,-0.00007305,
 -0.00001087,0.00001313,-0.00006764,0.00002333,-0.00034868,0.00000405,0
 .00005395,0.00023743,-0.00002091,-0.00006770,-0.00021937,0.00020780,0.
 00027682,0.00051966,-0.00013675,0.00126316,-0.00011477,0.00105255,-0.0
 0054887,0.00075423,-0.00008596,0.00002192,-0.01757412,-0.01696034,0.00
 425742,-0.00157143,0.00056720,-0.00403480,0.00122679,0.00032961,0.0003
 2161,-0.22060674,-0.17427295,0.05169045,-0.01014496,-0.01140015,0.0022
 0531,0.01634084,0.01088991,-0.00375569,0.23285749,-0.00030460,-0.00003
 677,-0.00027228,0.00022558,-0.00042981,0.00019122,0.00035822,-0.000409
 95,0.00026947,0.00004726,-0.00061620,0.00007325,0.00015595,0.00010217,
 0.00014533,0.00008539,0.00011205,-0.00001494,0.00000029,0.00008103,-0.
 00005059,0.00001689,0.00004779,-0.00002481,0.00027616,0.00025856,-0.00
 003963,-0.00003576,-0.00000279,0.00000167,-0.00001318,0.00005872,0.000
 03280,-0.00017469,0.00006863,-0.00019739,-0.00020035,0.00020392,0.0000
 0020,0.00099037,0.00036342,-0.00040426,-0.00026347,-0.00007467,-0.0014
 1296,0.00003642,0.00001624,0.00002313,0.00000102,0.00000462,-0.0000310
 2,-0.00002031,0.00000482,0.00000524,-0.00003460,-0.00002179,-0.0000695
 2,0.00000948,-0.00000644,0.00001275,0.00003472,0.00001981,0.00008303,0
 .00006366,-0.00002077,0.00000320,0.00009264,-0.00038490,0.00003601,-0.
 00025990,-0.00029412,0.00021035,0.00042624,0.00007324,-0.00000594,-0.0
 0090863,0.00028646,-0.00078320,-0.00012152,0.00109830,0.00056360,0.000
 30328,-0.00024881,-0.00000868,0.00005519,0.00038852,-0.00014496,-0.000
 03827,0.00007810,0.00009374,0.00033266,-0.00025441,-0.00034187,-0.0000
 1539,-0.00019635,-0.00014097,-0.00006846,-0.00002196,0.00000025,0.0000
 0790,-0.00005728,-0.00000706,0.00000720,-0.00062105,-0.00115897,0.0003
 7482,-0.00018679,0.00032425,0.00003971,-0.00021462,0.00025132,-0.00003
 492,-0.00002967,-0.00000484,0.00002616,-0.00000412,-0.00001364,-0.0000
 2135,-0.00001029,0.00001148,0.00010444,-0.00019705,-0.00003583,0.00002
 416,0.00016385,-0.00007204,-0.00021435,0.00020127,-0.00002808,-0.00021
 371,0.00000107,-0.00029909,-0.00011347,0.00004954,0.00016303,0.0002713
 0,-0.00002188,-0.00013488,-0.00017168,-0.00034590,-0.00004204,0.000411
 85,-0.00040967,-0.00024881,-0.00015250,-0.00001552,-0.00021094,0.00007
 853,-0.00002765,-0.00003495,-0.00003697,0.00001497,0.00000996,0.000100
 82,0.00010336,0.00011519,-0.00006312,0.00013290,0.00004194,-0.00000949
 ,0.00001884,0.00000730,0.00011869,0.00003753,-0.00005280,0.00021982,0.
 00077226,0.00052506,-0.00000412,0.00024179,-0.00006932,-0.00023409,-0.
 00002793,0.00000496,0.00005143,0.00006438,-0.00001845,-0.00002532,-0.0
 0000610,0.00000804,0.00000359,0.00000164,0.00000235,-0.00010653,-0.000
 09387,0.00008616,0.00006112,0.00000261,-0.00008570,-0.00021511,-0.0001
 2820,0.00002675,0.00002227,-0.00003813,0.00001823,0.00017305,0.0000324
 9,0.00005889,-0.00001381,-0.00001574,0.00004354,-0.00003596,0.00000376
 ,0.00000721,-0.00001455,-0.00005770,-0.00007073,0.00000192,-0.00001812
 ,0.00000732,-0.00002582,0.00001553,-0.00000923,0.00008578,-0.00024278,
 0.00013084,-0.00021224,-0.00003320,0.00005529,0.00005313,-0.00000006,-
 0.00020847,0.00169002,0.00265237,-0.00057964,-0.00081462,-0.00048632,0
 .00050371,-0.00007340,-0.00044058,0.00007127,-0.00034727,0.00035196,-0
 .00217161,0.00122589,0.00091536,-0.00007732,-0.00008195,-0.00031983,-0
 .00030833,-0.17257071,-0.23768462,0.05520159,0.00670552,0.00695014,0.0
 0090516,-0.02512517,-0.02001931,0.00782405,0.18802082,0.24877970,0.000
 58233,-0.00037989,0.00014874,-0.00055700,0.00153426,0.00016154,0.00027
 476,0.00020685,0.00035775,-0.00011729,0.00004584,0.00017038,-0.0000135
 8,0.00006773,0.00007284,-0.00025345,0.00004655,0.00010782,0.00004913,-
 0.00023808,0.00009435,-0.00002945,-0.00003452,-0.00010373,-0.00007298,
 0.00006481,0.00018934,0.00001550,-0.00000601,-0.00001354,-0.00004661,0
 .00003059,-0.00001549,0.00002326,-0.00007525,-0.00010959,0.00003903,-0
 .00010045,-0.00026454,-0.00035007,0.00028189,-0.00038321,0.00052111,-0
 .00176141,0.00077583,-0.00004949,0.00005368,-0.00005319,-0.00001194,-0
 .00000716,-0.00003066,0.00001785,-0.00000249,0.00000658,0.00007745,-0.
 00008945,0.00001906,-0.00001703,0.00000481,-0.00000434,-0.00002322,0.0
 0002829,0.00004138,0.00000187,-0.00001594,0.00000587,-0.00005837,-0.00
 016286,0.00009902,-0.00036306,-0.00001797,0.00019689,0.00095840,-0.000
 83456,0.00015573,-0.00176774,0.00067985,-0.00107278,0.00026738,-0.0000
 8366,-0.00075025,0.00067418,-0.00018777,0.00000641,-0.00014675,0.00019
 246,-0.00028484,-0.00009845,0.00021654,0.00016048,0.00058538,-0.001149
 82,0.00004032,-0.00004291,-0.00006452,0.00018850,-0.00005710,-0.000017
 60,0.00001550,0.00000970,-0.00006697,-0.00004613,-0.00068947,-0.001058
 30,-0.00181223,0.00078107,0.00030937,0.00020400,-0.00025568,0.00041377
 ,-0.00019946,0.00012549,-0.00000140,0.00010369,-0.00002786,0.00000930,
 -0.00000665,-0.00001326,-0.00000340,-0.00000602,-0.00007732,0.00002500
 ,-0.00012647,0.00005505,-0.00003195,0.00003997,-0.00000681,-0.00015057
 ,-0.00003620,-0.00011879,-0.00036501,0.00011341,-0.00008213,0.00001368
 ,-0.00024315,0.00003739,0.00012238,0.00014027,0.00006290,0.00005625,0.
 00017487,0.00000232,-0.00012089,-0.00000097,0.00002620,-0.00021806,0.0
 0019634,0.00016036,-0.00007779,0.00012756,-0.00001736,0.00001054,-0.00
 001041,-0.00004281,-0.00000789,0.00001670,0.00000073,0.00002299,-0.000
 02486,-0.00002091,0.00001563,-0.00000193,0.00012940,-0.00001020,-0.000
 02126,-0.00001773,0.00011006,-0.00039610,-0.00001799,0.00001662,-0.000
 14570,-0.00012486,-0.00011166,-0.00020840,0.00004570,0.00002569,0.0000
 0043,-0.00002174,0.00000421,0.00000137,0.00001865,-0.00001609,-0.00002
 585,-0.00009043,0.00001512,-0.00007823,0.00003477,0.00000304,0.0000987
 7,0.00003917,0.00020574,0.00016868,0.00001093,-0.00001442,0.00001889,0
 .00004330,0.00007799,0.00022973,0.00002494,0.00001905,-0.00005299,0.00
 000203,-0.00001215,-0.00003521,-0.00005685,-0.00001720,-0.00010882,0.0
 0003033,-0.00003280,-0.00000764,-0.00004408,0.00001780,-0.00000774,0.0
 0017522,0.00041927,0.00028231,0.00008588,-0.00009369,-0.00020377,0.000
 03929,-0.00010407,-0.00015937,0.00039127,-0.00112898,0.00156875,0.0003
 2389,0.00121700,-0.00030527,0.00045575,-0.00006440,-0.00011714,-0.0197
 2833,-0.02148718,0.00744040,-0.00369130,-0.00000649,-0.00409575,0.0002
 6015,-0.00080855,0.00011908,0.05119910,0.05564399,-0.07314896,0.019683
 09,0.02679813,-0.00112470,0.00262442,0.00047706,-0.00175310,-0.0517439
 3,-0.05826431,0.07353711\\0.00000765,-0.00000842,0.00000936,-0.0000027
 1,0.00001122,-0.00000586,0.00000043,-0.00000118,-0.00001135,0.00001096
 ,0.00000266,-0.00000839,0.00000372,0.00000367,-0.00000345,0.00000080,0
 .00001133,-0.00000385,0.00000425,-0.00000243,-0.00000022,0.00000561,-0
 .00000079,-0.00000219,0.00000199,0.00000818,-0.00000353,0.00000318,0.0
 0000847,-0.00000676,0.00000362,0.00000437,-0.00000279,0.00000094,-0.00
 000459,-0.00001269,0.00000080,0.00001620,-0.00001011,-0.00001560,0.000
 00838,-0.00000015,0.00000018,0.00000274,-0.00000657,0.00000698,-0.0000
 0598,-0.00000430,0.00000055,0.00000673,0.00000021,0.00000392,0.0000078
 2,-0.00000294,-0.00000198,0.00000096,-0.00001012,0.00001197,0.00000646
 ,0.00000089,0.00001156,0.00000862,0.00000505,0.00000633,-0.00000149,-0
 .00000184,0.00000780,0.00000006,-0.00000812,-0.00000744,-0.00000223,0.
 00000565,-0.00000178,0.00000125,0.00000274,-0.00000432,-0.00000378,-0.
 00000702,0.00000507,-0.00000667,0.00000071,-0.00000002,-0.00000474,-0.
 00000369,0.00000499,0.00000349,-0.00000036,0.00000302,-0.00000134,0.00
 000261,-0.00000029,0.00000219,-0.00000075,0.00000293,-0.00000183,0.000
 00046,0.00000273,-0.00000460,0.00000127,0.00000065,-0.00000575,0.00000
 280,-0.00000245,-0.00000056,0.00000141,0.00000735,-0.00000402,0.000007
 79,0.00000082,0.00001072,0.00000219,0.00000112,-0.00000766,0.00000055,
 0.00000080,-0.00000201,0.00000170,0.00000068,-0.00000721,0.00000299,-0
 .00000697,-0.00001265,-0.00000766,0.00000300,0.00000124,0.00000833,0.0
 0000211,-0.00000422,0.00000038,-0.00000600,0.00000989,-0.00000615,0.00
 000413,0.00000400,0.00000131,-0.00000591,0.00000577,0.00000922,-0.0000
 0207,0.00000060,0.00000036,-0.00000348,0.00000225,0.00000287,0.0000043
 9,-0.00001352,0.00000442,-0.00000962,0.00000560,-0.00000111,-0.0000057
 3,0.00000115,0.00000261,-0.00000361,-0.00000125,-0.00000061,-0.0000028
 8,0.00000708,0.00000181,-0.00000463,-0.00000066,0.00000466,-0.00000462
 ,-0.00000264,0.00000317,-0.00000599,-0.00001738,0.00000562,-0.00000743
 ,-0.00000446,-0.00000656,-0.00001184,-0.00001359,0.00000420,-0.0000135
 7,-0.00001587,0.00000136,-0.00000446,0.00000050,0.00000379,-0.00000154
 ,-0.00000346,0.00000815,0.00000077,-0.00000153,0.00001801,-0.00000305,
 -0.00000327,-0.00001092,0.00000247,0.00001496,-0.00000146,-0.00000446,
 0.00001108,0.00001133,0.00000172,0.00000656,0.00001308,-0.00000222,-0.
 00000035,-0.00000200,-0.00000579,0.00000101,0.00000022,-0.00000213,-0.
 00000934,0.00000062,-0.00000382,-0.00000327,0.00000489,-0.00000312,-0.
 00000204,0.00000118,-0.00000200,0.00000057,0.00000195,-0.00000115,-0.0
 0000513,0.00000095,0.00000111,-0.00000132,0.00000331,0.00000016,0.0000
 0020,-0.00000291,0.00000075,0.00000283,0.00000053,-0.00000147,-0.00000
 115,-0.00000043,-0.00000273,0.00000252,-0.00000197,0.00000136,-0.00000
 306,0.00000057,0.00000266,0.00000048,-0.00000373,0.00001723,-0.0000186
 8,0.00000292,0.00001427,0.00000890,-0.00000770,0.00001142,-0.00002270,
 0.00000176,-0.00002206,0.00002610,-0.00000169\\\@


 A MAN THINKING OR WORKING IS ALWAYS ALONE, 
 LET HIM BE WHERE HE WILL.

                                    -- THOREAU
 Job cpu time:      18 days 21 hours  5 minutes 56.6 seconds.
 File lengths (MBytes):  RWF=  17287 Int=      0 D2E=      0 Chk=    104 Scr=      1
 Normal termination of Gaussian 09 at Fri Apr 29 08:01:14 2016.
