 Entering Gaussian System, Link 0=g09
 Initial command:
 /share/apps//g09/l1.exe "/scratch/Gau-15277.inp" -scrdir="/scratch/"
 Entering Link 1 = /share/apps//g09/l1.exe PID=     15279.
  
 Copyright (c) 1988,1990,1992,1993,1995,1998,2003,2009,2013,
            Gaussian, Inc.  All Rights Reserved.
  
 This is part of the Gaussian(R) 09 program.  It is based on
 the Gaussian(R) 03 system (copyright 2003, Gaussian, Inc.),
 the Gaussian(R) 98 system (copyright 1998, Gaussian, Inc.),
 the Gaussian(R) 94 system (copyright 1995, Gaussian, Inc.),
 the Gaussian 92(TM) system (copyright 1992, Gaussian, Inc.),
 the Gaussian 90(TM) system (copyright 1990, Gaussian, Inc.),
 the Gaussian 88(TM) system (copyright 1988, Gaussian, Inc.),
 the Gaussian 86(TM) system (copyright 1986, Carnegie Mellon
 University), and the Gaussian 82(TM) system (copyright 1983,
 Carnegie Mellon University). Gaussian is a federally registered
 trademark of Gaussian, Inc.
  
 This software contains proprietary and confidential information,
 including trade secrets, belonging to Gaussian, Inc.
  
 This software is provided under written license and may be
 used, copied, transmitted, or stored only in accord with that
 written license.
  
 The following legend is applicable only to US Government
 contracts under FAR:
  
                    RESTRICTED RIGHTS LEGEND
  
 Use, reproduction and disclosure by the US Government is
 subject to restrictions as set forth in subparagraphs (a)
 and (c) of the Commercial Computer Software - Restricted
 Rights clause in FAR 52.227-19.
  
 Gaussian, Inc.
 340 Quinnipiac St., Bldg. 40, Wallingford CT 06492
  
  
 ---------------------------------------------------------------
 Warning -- This program may not be used in any manner that
 competes with the business of Gaussian, Inc. or will provide
 assistance to any competitor of Gaussian, Inc.  The licensee
 of this program is prohibited from giving any competitor of
 Gaussian, Inc. access to this program.  By using this program,
 the user acknowledges that Gaussian, Inc. is engaged in the
 business of creating and licensing software in the field of
 computational chemistry and represents and warrants to the
 licensee that it is not a competitor of Gaussian, Inc. and that
 it will not use this program in any manner prohibited above.
 ---------------------------------------------------------------
  

 Cite this work as:
 Gaussian 09, Revision D.01,
 M. J. Frisch, G. W. Trucks, H. B. Schlegel, G. E. Scuseria, 
 M. A. Robb, J. R. Cheeseman, G. Scalmani, V. Barone, B. Mennucci, 
 G. A. Petersson, H. Nakatsuji, M. Caricato, X. Li, H. P. Hratchian, 
 A. F. Izmaylov, J. Bloino, G. Zheng, J. L. Sonnenberg, M. Hada, 
 M. Ehara, K. Toyota, R. Fukuda, J. Hasegawa, M. Ishida, T. Nakajima, 
 Y. Honda, O. Kitao, H. Nakai, T. Vreven, J. A. Montgomery, Jr., 
 J. E. Peralta, F. Ogliaro, M. Bearpark, J. J. Heyd, E. Brothers, 
 K. N. Kudin, V. N. Staroverov, T. Keith, R. Kobayashi, J. Normand, 
 K. Raghavachari, A. Rendell, J. C. Burant, S. S. Iyengar, J. Tomasi, 
 M. Cossi, N. Rega, J. M. Millam, M. Klene, J. E. Knox, J. B. Cross, 
 V. Bakken, C. Adamo, J. Jaramillo, R. Gomperts, R. E. Stratmann, 
 O. Yazyev, A. J. Austin, R. Cammi, C. Pomelli, J. W. Ochterski, 
 R. L. Martin, K. Morokuma, V. G. Zakrzewski, G. A. Voth, 
 P. Salvador, J. J. Dannenberg, S. Dapprich, A. D. Daniels, 
 O. Farkas, J. B. Foresman, J. V. Ortiz, J. Cioslowski, 
 and D. J. Fox, Gaussian, Inc., Wallingford CT, 2013.
 
 ******************************************
 Gaussian 09:  EM64L-G09RevD.01 24-Apr-2013
                 6-Apr-2016 
 ******************************************
 %nproc=20
 Will use up to   20 processors via shared memory.
 %mem=80GB
 %chk=Tri_A131_of.chk
 ----------------------------------------------------------------------
 #P PBE1PBE/6-311+G(d,p) opt=ModRedundant freq optcyc=999 EmpiricalDisp
 ersion=GD3
 ----------------------------------------------------------------------
 1/6=999,14=-1,18=120,19=15,26=3,38=1/1,3;
 2/9=110,12=2,17=6,18=5,40=1/2;
 3/5=4,6=6,7=111,11=2,16=1,25=1,30=1,71=1,74=-13,124=31/1,2,3;
 4//1;
 5/5=2,38=5/2;
 6/7=2,8=2,9=2,10=2,28=1/1;
 7//1,2,3,16;
 1/6=999,14=-1,18=20,19=15,26=3/3(2);
 2/9=110/2;
 99//99;
 2/9=110/2;
 3/5=4,6=6,7=111,11=2,16=1,25=1,30=1,71=1,74=-13,124=31/1,2,3;
 4/5=5,16=3,69=1/1;
 5/5=2,38=5/2;
 7//1,2,3,16;
 1/6=999,14=-1,18=20,19=15,26=3/3(-5);
 2/9=110/2;
 6/7=2,8=2,9=2,10=2,19=2,28=1/1;
 99/9=1/99;
 Leave Link    1 at Wed Apr  6 15:55:04 2016, MaxMem= 10737418240 cpu:         2.4
 (Enter /share/apps//g09/l101.exe)
 -------
 disacch
 -------
 Symbolic Z-matrix:
 Charge =  1 Multiplicity = 1
 O                     0.95437  -6.36873   5.9418 
 C                     1.97666  -6.24579   6.9086 
 C                     3.34605  -6.67889   6.34548 
 C                     3.67283  -5.93197   5.05172 
 C                     2.52717  -6.08366   4.04064 
 C                     1.20804  -5.67465   4.69734 
 H                     1.66454  -6.89488   7.74117 
 H                     3.29157  -7.75641   6.1228 
 H                     3.80937  -4.85701   5.27901 
 H                     2.72039  -5.38319   3.20263 
 H                     1.24881  -4.58538   4.88934 
 O                     2.41913  -7.41886   3.56523 
 O                     4.83838  -6.45678   4.42341 
 O                     4.40138  -6.39433   7.2774 
 O                     2.10809  -4.906     7.38595 
 C                    -0.00974  -5.96073   3.83317 
 H                     0.11132  -5.50051   2.84281 
 H                    -0.13359  -7.04467   3.7003 
 O                    -1.20317  -5.38516   4.4111 
 H                    -1.31056  -5.78157   5.29686 
 H                     3.32571  -7.7012    3.33656 
 H                     5.55085  -6.46774   5.08863 
 H                     4.54378  -7.16819   7.84925 
 O                     0.82105  -1.81086   8.5824 
 C                    -0.12855  -2.72298   9.14217 
 C                     0.0774   -4.15274   8.59943 
 C                     1.55127  -4.59732   8.69003 
 C                     2.4618   -3.53754   9.30487 
 C                     2.22716  -2.11438   8.71622 
 H                    -0.07603  -2.72867   10.24551 
 H                    -0.15488  -4.1461    7.51895 
 H                     1.59046  -5.5076    9.30816 
 H                     2.18216  -3.48194   10.37141 
 H                     2.67036  -1.40629   9.44104 
 O                     3.82776  -3.90939   9.26573 
 O                    -0.71053  -5.1002    9.29397 
 O                    -1.41358  -2.19149   8.88648 
 C                     2.88029  -1.80467   7.36588 
 H                     2.80971  -0.72433   7.17995 
 H                     3.94754  -2.07384   7.40842 
 O                     2.23621  -2.43883   6.24384 
 H                     2.19738  -3.40004   6.46093 
 H                     3.96026  -4.50692   8.49945 
 H                    -1.65426  -4.88343   9.1173 
 O                    -2.87181  -1.09854   5.66623 
 C                    -4.2011   -1.60948   5.79309 
 C                    -4.19528  -2.97118   6.4923 
 C                    -3.38974  -2.94211   7.78777 
 C                    -2.00218  -2.33335   7.5853 
 C                    -2.08815  -0.97076   6.86993 
 H                    -4.84518  -0.88332   6.33058 
 H                    -3.70987  -3.69314   5.80487 
 H                    -3.93132  -2.34227   8.54271 
 H                    -2.53862  -0.22384   7.55142 
 H                    -1.41253  -3.00402   6.94101 
 O                    -3.22042  -4.28469   8.26867 
 O                    -5.50435  -3.40957   6.83808 
 O                    -4.67262  -1.83306   4.48863 
 C                    -0.74023  -0.44052   6.38323 
 H                    -0.92112   0.51231   5.86216 
 H                    -0.08529  -0.26473   7.24348 
 O                    -0.12145  -1.34959   5.45687 
 H                     0.72458  -1.7266    5.83609 
 H                    -4.11091  -4.64616   8.43274 
 H                    -6.00243  -3.56522   6.01589 
 C                    -5.029    -0.63412   3.73657 
 H                    -5.89364  -0.92907   3.12403 
 H                    -5.35923   0.14311   4.44384 
 C                    -3.87985  -0.13023   2.86827 
 H                    -3.02925   0.10608   3.52383 
 H                    -4.19551   0.82887   2.42889 
 C                    -3.45476  -1.10657   1.74221 
 H                    -3.92606  -2.0913    1.90391 
 H                    -3.86816  -0.75153   0.78867 
 C                    -1.92677  -1.29504   1.58281 
 H                    -1.65691  -1.31613   0.517 
 H                    -1.38757  -0.43489   2.01059 
 C                    -1.38811  -2.59448   2.17843 
 H                    -0.29974  -2.67072   2.04865 
 H                    -1.85161  -3.46124   1.68532 
 N                    -1.6684   -2.72487   3.64562 
 H                    -1.05785  -2.10646   4.25612 
 H                    -1.52285  -3.71045   3.97585 
 H                    -2.64512  -2.4642    3.86301 
 
 The following ModRedundant input section has been read:
 B      19      83 B                                                           
 B      62      82 B                                                           
 B      58      84 B                                                           
 B      44      56 B                                                           
 B      15      42 B                                                           
 B      41      63 B                                                           
 
 NAtoms=     84 NQM=       84 NQMF=       0 NMMI=      0 NMMIF=      0
                NMic=       0 NMicF=      0.
                    Isotopes and Nuclear Properties:
 (Nuclear quadrupole moments (NQMom) in fm**2, nuclear magnetic moments (NMagM)
  in nuclear magnetons)

  Atom         1           2           3           4           5           6           7           8           9          10
 IAtWgt=          16          12          12          12          12          12           1           1           1           1
 AtmWgt=  15.9949146  12.0000000  12.0000000  12.0000000  12.0000000  12.0000000   1.0078250   1.0078250   1.0078250   1.0078250
 NucSpn=           0           0           0           0           0           0           1           1           1           1
 AtZEff=   0.0000000   0.0000000   0.0000000   0.0000000   0.0000000   0.0000000   0.0000000   0.0000000   0.0000000   0.0000000
 NQMom=    0.0000000   0.0000000   0.0000000   0.0000000   0.0000000   0.0000000   0.0000000   0.0000000   0.0000000   0.0000000
 NMagM=    0.0000000   0.0000000   0.0000000   0.0000000   0.0000000   0.0000000   2.7928460   2.7928460   2.7928460   2.7928460
 AtZNuc=   8.0000000   6.0000000   6.0000000   6.0000000   6.0000000   6.0000000   1.0000000   1.0000000   1.0000000   1.0000000

  Atom        11          12          13          14          15          16          17          18          19          20
 IAtWgt=           1          16          16          16          16          12           1           1          16           1
 AtmWgt=   1.0078250  15.9949146  15.9949146  15.9949146  15.9949146  12.0000000   1.0078250   1.0078250  15.9949146   1.0078250
 NucSpn=           1           0           0           0           0           0           1           1           0           1
 AtZEff=   0.0000000   0.0000000   0.0000000   0.0000000   0.0000000   0.0000000   0.0000000   0.0000000   0.0000000   0.0000000
 NQMom=    0.0000000   0.0000000   0.0000000   0.0000000   0.0000000   0.0000000   0.0000000   0.0000000   0.0000000   0.0000000
 NMagM=    2.7928460   0.0000000   0.0000000   0.0000000   0.0000000   0.0000000   2.7928460   2.7928460   0.0000000   2.7928460
 AtZNuc=   1.0000000   8.0000000   8.0000000   8.0000000   8.0000000   6.0000000   1.0000000   1.0000000   8.0000000   1.0000000

  Atom        21          22          23          24          25          26          27          28          29          30
 IAtWgt=           1           1           1          16          12          12          12          12          12           1
 AtmWgt=   1.0078250   1.0078250   1.0078250  15.9949146  12.0000000  12.0000000  12.0000000  12.0000000  12.0000000   1.0078250
 NucSpn=           1           1           1           0           0           0           0           0           0           1
 AtZEff=   0.0000000   0.0000000   0.0000000   0.0000000   0.0000000   0.0000000   0.0000000   0.0000000   0.0000000   0.0000000
 NQMom=    0.0000000   0.0000000   0.0000000   0.0000000   0.0000000   0.0000000   0.0000000   0.0000000   0.0000000   0.0000000
 NMagM=    2.7928460   2.7928460   2.7928460   0.0000000   0.0000000   0.0000000   0.0000000   0.0000000   0.0000000   2.7928460
 AtZNuc=   1.0000000   1.0000000   1.0000000   8.0000000   6.0000000   6.0000000   6.0000000   6.0000000   6.0000000   1.0000000

  Atom        31          32          33          34          35          36          37          38          39          40
 IAtWgt=           1           1           1           1          16          16          16          12           1           1
 AtmWgt=   1.0078250   1.0078250   1.0078250   1.0078250  15.9949146  15.9949146  15.9949146  12.0000000   1.0078250   1.0078250
 NucSpn=           1           1           1           1           0           0           0           0           1           1
 AtZEff=   0.0000000   0.0000000   0.0000000   0.0000000   0.0000000   0.0000000   0.0000000   0.0000000   0.0000000   0.0000000
 NQMom=    0.0000000   0.0000000   0.0000000   0.0000000   0.0000000   0.0000000   0.0000000   0.0000000   0.0000000   0.0000000
 NMagM=    2.7928460   2.7928460   2.7928460   2.7928460   0.0000000   0.0000000   0.0000000   0.0000000   2.7928460   2.7928460
 AtZNuc=   1.0000000   1.0000000   1.0000000   1.0000000   8.0000000   8.0000000   8.0000000   6.0000000   1.0000000   1.0000000

  Atom        41          42          43          44          45          46          47          48          49          50
 IAtWgt=          16           1           1           1          16          12          12          12          12          12
 AtmWgt=  15.9949146   1.0078250   1.0078250   1.0078250  15.9949146  12.0000000  12.0000000  12.0000000  12.0000000  12.0000000
 NucSpn=           0           1           1           1           0           0           0           0           0           0
 AtZEff=   0.0000000   0.0000000   0.0000000   0.0000000   0.0000000   0.0000000   0.0000000   0.0000000   0.0000000   0.0000000
 NQMom=    0.0000000   0.0000000   0.0000000   0.0000000   0.0000000   0.0000000   0.0000000   0.0000000   0.0000000   0.0000000
 NMagM=    0.0000000   2.7928460   2.7928460   2.7928460   0.0000000   0.0000000   0.0000000   0.0000000   0.0000000   0.0000000
 AtZNuc=   8.0000000   1.0000000   1.0000000   1.0000000   8.0000000   6.0000000   6.0000000   6.0000000   6.0000000   6.0000000

  Atom        51          52          53          54          55          56          57          58          59          60
 IAtWgt=           1           1           1           1           1          16          16          16          12           1
 AtmWgt=   1.0078250   1.0078250   1.0078250   1.0078250   1.0078250  15.9949146  15.9949146  15.9949146  12.0000000   1.0078250
 NucSpn=           1           1           1           1           1           0           0           0           0           1
 AtZEff=   0.0000000   0.0000000   0.0000000   0.0000000   0.0000000   0.0000000   0.0000000   0.0000000   0.0000000   0.0000000
 NQMom=    0.0000000   0.0000000   0.0000000   0.0000000   0.0000000   0.0000000   0.0000000   0.0000000   0.0000000   0.0000000
 NMagM=    2.7928460   2.7928460   2.7928460   2.7928460   2.7928460   0.0000000   0.0000000   0.0000000   0.0000000   2.7928460
 AtZNuc=   1.0000000   1.0000000   1.0000000   1.0000000   1.0000000   8.0000000   8.0000000   8.0000000   6.0000000   1.0000000

  Atom        61          62          63          64          65          66          67          68          69          70
 IAtWgt=           1          16           1           1           1          12           1           1          12           1
 AtmWgt=   1.0078250  15.9949146   1.0078250   1.0078250   1.0078250  12.0000000   1.0078250   1.0078250  12.0000000   1.0078250
 NucSpn=           1           0           1           1           1           0           1           1           0           1
 AtZEff=   0.0000000   0.0000000   0.0000000   0.0000000   0.0000000   0.0000000   0.0000000   0.0000000   0.0000000   0.0000000
 NQMom=    0.0000000   0.0000000   0.0000000   0.0000000   0.0000000   0.0000000   0.0000000   0.0000000   0.0000000   0.0000000
 NMagM=    2.7928460   0.0000000   2.7928460   2.7928460   2.7928460   0.0000000   2.7928460   2.7928460   0.0000000   2.7928460
 AtZNuc=   1.0000000   8.0000000   1.0000000   1.0000000   1.0000000   6.0000000   1.0000000   1.0000000   6.0000000   1.0000000

  Atom        71          72          73          74          75          76          77          78          79          80
 IAtWgt=           1          12           1           1          12           1           1          12           1           1
 AtmWgt=   1.0078250  12.0000000   1.0078250   1.0078250  12.0000000   1.0078250   1.0078250  12.0000000   1.0078250   1.0078250
 NucSpn=           1           0           1           1           0           1           1           0           1           1
 AtZEff=   0.0000000   0.0000000   0.0000000   0.0000000   0.0000000   0.0000000   0.0000000   0.0000000   0.0000000   0.0000000
 NQMom=    0.0000000   0.0000000   0.0000000   0.0000000   0.0000000   0.0000000   0.0000000   0.0000000   0.0000000   0.0000000
 NMagM=    2.7928460   0.0000000   2.7928460   2.7928460   0.0000000   2.7928460   2.7928460   0.0000000   2.7928460   2.7928460
 AtZNuc=   1.0000000   6.0000000   1.0000000   1.0000000   6.0000000   1.0000000   1.0000000   6.0000000   1.0000000   1.0000000

  Atom        81          82          83          84
 IAtWgt=          14           1           1           1
 AtmWgt=  14.0030740   1.0078250   1.0078250   1.0078250
 NucSpn=           2           1           1           1
 AtZEff=   0.0000000   0.0000000   0.0000000   0.0000000
 NQMom=    2.0440000   0.0000000   0.0000000   0.0000000
 NMagM=    0.4037610   2.7928460   2.7928460   2.7928460
 AtZNuc=   7.0000000   1.0000000   1.0000000   1.0000000
 Leave Link  101 at Wed Apr  6 15:55:05 2016, MaxMem= 10737418240 cpu:         5.3
 (Enter /share/apps//g09/l103.exe)

 GradGradGradGradGradGradGradGradGradGradGradGradGradGradGradGradGradGrad
 Berny optimization.
 Initialization pass.
                           ----------------------------
                           !    Initial Parameters    !
                           ! (Angstroms and Degrees)  !
 --------------------------                            --------------------------
 ! Name  Definition              Value          Derivative Info.                !
 --------------------------------------------------------------------------------
 ! R1    R(1,2)                  1.4124         estimate D2E/DX2                !
 ! R2    R(1,6)                  1.4473         estimate D2E/DX2                !
 ! R3    R(2,3)                  1.5427         estimate D2E/DX2                !
 ! R4    R(2,7)                  1.1009         estimate D2E/DX2                !
 ! R5    R(2,15)                 1.4283         estimate D2E/DX2                !
 ! R6    R(3,4)                  1.5292         estimate D2E/DX2                !
 ! R7    R(3,8)                  1.1016         estimate D2E/DX2                !
 ! R8    R(3,14)                 1.4364         estimate D2E/DX2                !
 ! R9    R(4,5)                  1.5355         estimate D2E/DX2                !
 ! R10   R(4,9)                  1.1072         estimate D2E/DX2                !
 ! R11   R(4,13)                 1.4243         estimate D2E/DX2                !
 ! R12   R(5,6)                  1.5293         estimate D2E/DX2                !
 ! R13   R(5,10)                 1.1092         estimate D2E/DX2                !
 ! R14   R(5,12)                 1.4214         estimate D2E/DX2                !
 ! R15   R(6,11)                 1.1068         estimate D2E/DX2                !
 ! R16   R(6,16)                 1.5204         estimate D2E/DX2                !
 ! R17   R(12,21)                0.9767         estimate D2E/DX2                !
 ! R18   R(13,22)                0.9748         estimate D2E/DX2                !
 ! R19   R(14,23)                0.9727         estimate D2E/DX2                !
 ! R20   R(15,27)                1.4512         estimate D2E/DX2                !
 ! R21   R(15,42)                1.7696         estimate D2E/DX2                !
 ! R22   R(16,17)                1.0988         estimate D2E/DX2                !
 ! R23   R(16,18)                1.0991         estimate D2E/DX2                !
 ! R24   R(16,19)                1.4455         estimate D2E/DX2                !
 ! R25   R(19,20)                0.9763         estimate D2E/DX2                !
 ! R26   R(19,83)                1.7596         estimate D2E/DX2                !
 ! R27   R(24,25)                1.4307         estimate D2E/DX2                !
 ! R28   R(24,29)                1.4447         estimate D2E/DX2                !
 ! R29   R(25,26)                1.5431         estimate D2E/DX2                !
 ! R30   R(25,30)                1.1046         estimate D2E/DX2                !
 ! R31   R(25,37)                1.4139         estimate D2E/DX2                !
 ! R32   R(26,27)                1.5421         estimate D2E/DX2                !
 ! R33   R(26,31)                1.1052         estimate D2E/DX2                !
 ! R34   R(26,36)                1.4145         estimate D2E/DX2                !
 ! R35   R(27,28)                1.5265         estimate D2E/DX2                !
 ! R36   R(27,32)                1.101          estimate D2E/DX2                !
 ! R37   R(28,29)                1.5579         estimate D2E/DX2                !
 ! R38   R(28,33)                1.104          estimate D2E/DX2                !
 ! R39   R(28,35)                1.4162         estimate D2E/DX2                !
 ! R40   R(29,34)                1.106          estimate D2E/DX2                !
 ! R41   R(29,38)                1.5316         estimate D2E/DX2                !
 ! R42   R(35,43)                0.9807         estimate D2E/DX2                !
 ! R43   R(36,44)                0.9843         estimate D2E/DX2                !
 ! R44   R(37,49)                1.4351         estimate D2E/DX2                !
 ! R45   R(38,39)                1.0985         estimate D2E/DX2                !
 ! R46   R(38,40)                1.1015         estimate D2E/DX2                !
 ! R47   R(38,41)                1.4408         estimate D2E/DX2                !
 ! R48   R(41,42)                0.9862         estimate D2E/DX2                !
 ! R49   R(41,63)                1.72           estimate D2E/DX2                !
 ! R50   R(44,56)                1.8792         estimate D2E/DX2                !
 ! R51   R(45,46)                1.4297         estimate D2E/DX2                !
 ! R52   R(45,50)                1.442          estimate D2E/DX2                !
 ! R53   R(46,47)                1.5307         estimate D2E/DX2                !
 ! R54   R(46,51)                1.1095         estimate D2E/DX2                !
 ! R55   R(46,58)                1.405          estimate D2E/DX2                !
 ! R56   R(47,48)                1.5258         estimate D2E/DX2                !
 ! R57   R(47,52)                1.1088         estimate D2E/DX2                !
 ! R58   R(47,57)                1.4232         estimate D2E/DX2                !
 ! R59   R(48,49)                1.5287         estimate D2E/DX2                !
 ! R60   R(48,53)                1.1059         estimate D2E/DX2                !
 ! R61   R(48,56)                1.4361         estimate D2E/DX2                !
 ! R62   R(49,50)                1.5414         estimate D2E/DX2                !
 ! R63   R(49,55)                1.1012         estimate D2E/DX2                !
 ! R64   R(50,54)                1.1069         estimate D2E/DX2                !
 ! R65   R(50,59)                1.528          estimate D2E/DX2                !
 ! R66   R(56,64)                0.975          estimate D2E/DX2                !
 ! R67   R(57,65)                0.9738         estimate D2E/DX2                !
 ! R68   R(58,66)                1.4595         estimate D2E/DX2                !
 ! R69   R(58,84)                2.2137         estimate D2E/DX2                !
 ! R70   R(59,60)                1.101          estimate D2E/DX2                !
 ! R71   R(59,61)                1.0954         estimate D2E/DX2                !
 ! R72   R(59,62)                1.4379         estimate D2E/DX2                !
 ! R73   R(62,63)                1.0009         estimate D2E/DX2                !
 ! R74   R(62,82)                1.7004         estimate D2E/DX2                !
 ! R75   R(66,67)                1.0999         estimate D2E/DX2                !
 ! R76   R(66,68)                1.1015         estimate D2E/DX2                !
 ! R77   R(66,69)                1.5259         estimate D2E/DX2                !
 ! R78   R(69,70)                1.0996         estimate D2E/DX2                !
 ! R79   R(69,71)                1.1012         estimate D2E/DX2                !
 ! R80   R(69,72)                1.5498         estimate D2E/DX2                !
 ! R81   R(72,73)                1.1036         estimate D2E/DX2                !
 ! R82   R(72,74)                1.0983         estimate D2E/DX2                !
 ! R83   R(72,75)                1.5478         estimate D2E/DX2                !
 ! R84   R(75,76)                1.0996         estimate D2E/DX2                !
 ! R85   R(75,77)                1.1016         estimate D2E/DX2                !
 ! R86   R(75,78)                1.5276         estimate D2E/DX2                !
 ! R87   R(78,79)                1.0987         estimate D2E/DX2                !
 ! R88   R(78,80)                1.0997         estimate D2E/DX2                !
 ! R89   R(78,81)                1.4994         estimate D2E/DX2                !
 ! R90   R(81,82)                1.062          estimate D2E/DX2                !
 ! R91   R(81,83)                1.0496         estimate D2E/DX2                !
 ! R92   R(81,84)                1.034          estimate D2E/DX2                !
 ! A1    A(2,1,6)              114.832          estimate D2E/DX2                !
 ! A2    A(1,2,3)              111.6037         estimate D2E/DX2                !
 ! A3    A(1,2,7)              105.1382         estimate D2E/DX2                !
 ! A4    A(1,2,15)             112.1484         estimate D2E/DX2                !
 ! A5    A(3,2,7)              111.2355         estimate D2E/DX2                !
 ! A6    A(3,2,15)             107.6768         estimate D2E/DX2                !
 ! A7    A(7,2,15)             109.0504         estimate D2E/DX2                !
 ! A8    A(2,3,4)              111.1851         estimate D2E/DX2                !
 ! A9    A(2,3,8)              107.727          estimate D2E/DX2                !
 ! A10   A(2,3,14)             111.0839         estimate D2E/DX2                !
 ! A11   A(4,3,8)              108.4995         estimate D2E/DX2                !
 ! A12   A(4,3,14)             107.1658         estimate D2E/DX2                !
 ! A13   A(8,3,14)             111.1772         estimate D2E/DX2                !
 ! A14   A(3,4,5)              110.45           estimate D2E/DX2                !
 ! A15   A(3,4,9)              109.0804         estimate D2E/DX2                !
 ! A16   A(3,4,13)             111.5988         estimate D2E/DX2                !
 ! A17   A(5,4,9)              108.8504         estimate D2E/DX2                !
 ! A18   A(5,4,13)             106.4803         estimate D2E/DX2                !
 ! A19   A(9,4,13)             110.3272         estimate D2E/DX2                !
 ! A20   A(4,5,6)              109.5363         estimate D2E/DX2                !
 ! A21   A(4,5,10)             107.7658         estimate D2E/DX2                !
 ! A22   A(4,5,12)             111.6992         estimate D2E/DX2                !
 ! A23   A(6,5,10)             107.8064         estimate D2E/DX2                !
 ! A24   A(6,5,12)             109.2258         estimate D2E/DX2                !
 ! A25   A(10,5,12)            110.7178         estimate D2E/DX2                !
 ! A26   A(1,6,5)              113.0886         estimate D2E/DX2                !
 ! A27   A(1,6,11)             109.2237         estimate D2E/DX2                !
 ! A28   A(1,6,16)             104.9571         estimate D2E/DX2                !
 ! A29   A(5,6,11)             107.8144         estimate D2E/DX2                !
 ! A30   A(5,6,16)             113.3596         estimate D2E/DX2                !
 ! A31   A(11,6,16)            108.257          estimate D2E/DX2                !
 ! A32   A(5,12,21)            106.2185         estimate D2E/DX2                !
 ! A33   A(4,13,22)            107.53           estimate D2E/DX2                !
 ! A34   A(3,14,23)            109.3524         estimate D2E/DX2                !
 ! A35   A(2,15,27)            117.68           estimate D2E/DX2                !
 ! A36   A(2,15,42)            128.9172         estimate D2E/DX2                !
 ! A37   A(27,15,42)           107.9434         estimate D2E/DX2                !
 ! A38   A(6,16,17)            110.1969         estimate D2E/DX2                !
 ! A39   A(6,16,18)            110.1541         estimate D2E/DX2                !
 ! A40   A(6,16,19)            111.0455         estimate D2E/DX2                !
 ! A41   A(17,16,18)           108.454          estimate D2E/DX2                !
 ! A42   A(17,16,19)           106.5319         estimate D2E/DX2                !
 ! A43   A(18,16,19)           110.3648         estimate D2E/DX2                !
 ! A44   A(16,19,20)           106.9692         estimate D2E/DX2                !
 ! A45   A(16,19,83)           115.471          estimate D2E/DX2                !
 ! A46   A(20,19,83)           126.2169         estimate D2E/DX2                !
 ! A47   A(25,24,29)           118.4115         estimate D2E/DX2                !
 ! A48   A(24,25,26)           111.3765         estimate D2E/DX2                !
 ! A49   A(24,25,30)           111.2551         estimate D2E/DX2                !
 ! A50   A(24,25,37)           107.0266         estimate D2E/DX2                !
 ! A51   A(26,25,30)           109.8889         estimate D2E/DX2                !
 ! A52   A(26,25,37)           113.9526         estimate D2E/DX2                !
 ! A53   A(30,25,37)           103.0487         estimate D2E/DX2                !
 ! A54   A(25,26,27)           111.9629         estimate D2E/DX2                !
 ! A55   A(25,26,31)           108.0736         estimate D2E/DX2                !
 ! A56   A(25,26,36)           111.9357         estimate D2E/DX2                !
 ! A57   A(27,26,31)           105.0724         estimate D2E/DX2                !
 ! A58   A(27,26,36)           108.0849         estimate D2E/DX2                !
 ! A59   A(31,26,36)           111.5295         estimate D2E/DX2                !
 ! A60   A(15,27,26)           112.0393         estimate D2E/DX2                !
 ! A61   A(15,27,28)           106.305          estimate D2E/DX2                !
 ! A62   A(15,27,32)           108.3602         estimate D2E/DX2                !
 ! A63   A(26,27,28)           113.1784         estimate D2E/DX2                !
 ! A64   A(26,27,32)           107.7793         estimate D2E/DX2                !
 ! A65   A(28,27,32)           109.0641         estimate D2E/DX2                !
 ! A66   A(27,28,29)           113.0908         estimate D2E/DX2                !
 ! A67   A(27,28,33)           105.8422         estimate D2E/DX2                !
 ! A68   A(27,28,35)           112.4512         estimate D2E/DX2                !
 ! A69   A(29,28,33)           106.3127         estimate D2E/DX2                !
 ! A70   A(29,28,35)           112.0053         estimate D2E/DX2                !
 ! A71   A(33,28,35)           106.5131         estimate D2E/DX2                !
 ! A72   A(24,29,28)           111.9327         estimate D2E/DX2                !
 ! A73   A(24,29,34)           108.4346         estimate D2E/DX2                !
 ! A74   A(24,29,38)           106.9111         estimate D2E/DX2                !
 ! A75   A(28,29,34)           106.0746         estimate D2E/DX2                !
 ! A76   A(28,29,38)           116.9766         estimate D2E/DX2                !
 ! A77   A(34,29,38)           106.1079         estimate D2E/DX2                !
 ! A78   A(28,35,43)           108.1729         estimate D2E/DX2                !
 ! A79   A(26,36,44)           107.3634         estimate D2E/DX2                !
 ! A80   A(25,37,49)           119.9701         estimate D2E/DX2                !
 ! A81   A(29,38,39)           108.7048         estimate D2E/DX2                !
 ! A82   A(29,38,40)           109.251          estimate D2E/DX2                !
 ! A83   A(29,38,41)           114.0133         estimate D2E/DX2                !
 ! A84   A(39,38,40)           108.0063         estimate D2E/DX2                !
 ! A85   A(39,38,41)           105.8031         estimate D2E/DX2                !
 ! A86   A(40,38,41)           110.833          estimate D2E/DX2                !
 ! A87   A(38,41,42)           105.9718         estimate D2E/DX2                !
 ! A88   A(38,41,63)           113.2794         estimate D2E/DX2                !
 ! A89   A(42,41,63)           114.9085         estimate D2E/DX2                !
 ! A90   A(15,42,41)           161.1754         estimate D2E/DX2                !
 ! A91   A(36,44,56)           161.857          estimate D2E/DX2                !
 ! A92   A(46,45,50)           117.5727         estimate D2E/DX2                !
 ! A93   A(45,46,47)           110.7871         estimate D2E/DX2                !
 ! A94   A(45,46,51)           110.4146         estimate D2E/DX2                !
 ! A95   A(45,46,58)           106.6495         estimate D2E/DX2                !
 ! A96   A(47,46,51)           111.2928         estimate D2E/DX2                !
 ! A97   A(47,46,58)           106.4881         estimate D2E/DX2                !
 ! A98   A(51,46,58)           111.0454         estimate D2E/DX2                !
 ! A99   A(46,47,48)           111.8941         estimate D2E/DX2                !
 ! A100  A(46,47,52)           107.319          estimate D2E/DX2                !
 ! A101  A(46,47,57)           112.427          estimate D2E/DX2                !
 ! A102  A(48,47,52)           107.9193         estimate D2E/DX2                !
 ! A103  A(48,47,57)           106.5711         estimate D2E/DX2                !
 ! A104  A(52,47,57)           110.6555         estimate D2E/DX2                !
 ! A105  A(47,48,49)           111.9839         estimate D2E/DX2                !
 ! A106  A(47,48,53)           109.353          estimate D2E/DX2                !
 ! A107  A(47,48,56)           109.1929         estimate D2E/DX2                !
 ! A108  A(49,48,53)           108.5976         estimate D2E/DX2                !
 ! A109  A(49,48,56)           108.0362         estimate D2E/DX2                !
 ! A110  A(53,48,56)           109.6462         estimate D2E/DX2                !
 ! A111  A(37,49,48)           106.9506         estimate D2E/DX2                !
 ! A112  A(37,49,50)           110.8722         estimate D2E/DX2                !
 ! A113  A(37,49,55)           111.7812         estimate D2E/DX2                !
 ! A114  A(48,49,50)           111.2772         estimate D2E/DX2                !
 ! A115  A(48,49,55)           108.7229         estimate D2E/DX2                !
 ! A116  A(50,49,55)           107.261          estimate D2E/DX2                !
 ! A117  A(45,50,49)           109.84           estimate D2E/DX2                !
 ! A118  A(45,50,54)           110.6438         estimate D2E/DX2                !
 ! A119  A(45,50,59)           104.1385         estimate D2E/DX2                !
 ! A120  A(49,50,54)           109.4798         estimate D2E/DX2                !
 ! A121  A(49,50,59)           113.9152         estimate D2E/DX2                !
 ! A122  A(54,50,59)           108.7195         estimate D2E/DX2                !
 ! A123  A(44,56,48)           123.1841         estimate D2E/DX2                !
 ! A124  A(44,56,64)           124.5466         estimate D2E/DX2                !
 ! A125  A(48,56,64)           107.1737         estimate D2E/DX2                !
 ! A126  A(47,57,65)           108.3348         estimate D2E/DX2                !
 ! A127  A(46,58,66)           115.4457         estimate D2E/DX2                !
 ! A128  A(46,58,84)            90.0221         estimate D2E/DX2                !
 ! A129  A(66,58,84)           108.1935         estimate D2E/DX2                !
 ! A130  A(50,59,60)           107.8261         estimate D2E/DX2                !
 ! A131  A(50,59,61)           109.4494         estimate D2E/DX2                !
 ! A132  A(50,59,62)           111.4343         estimate D2E/DX2                !
 ! A133  A(60,59,61)           109.3317         estimate D2E/DX2                !
 ! A134  A(60,59,62)           108.2376         estimate D2E/DX2                !
 ! A135  A(61,59,62)           110.4946         estimate D2E/DX2                !
 ! A136  A(59,62,63)           110.9666         estimate D2E/DX2                !
 ! A137  A(59,62,82)           119.9581         estimate D2E/DX2                !
 ! A138  A(63,62,82)           124.4289         estimate D2E/DX2                !
 ! A139  A(58,66,67)           104.9889         estimate D2E/DX2                !
 ! A140  A(58,66,68)           108.7826         estimate D2E/DX2                !
 ! A141  A(58,66,69)           112.3711         estimate D2E/DX2                !
 ! A142  A(67,66,68)           108.1266         estimate D2E/DX2                !
 ! A143  A(67,66,69)           111.3252         estimate D2E/DX2                !
 ! A144  A(68,66,69)           110.9858         estimate D2E/DX2                !
 ! A145  A(66,69,70)           108.317          estimate D2E/DX2                !
 ! A146  A(66,69,71)           107.3851         estimate D2E/DX2                !
 ! A147  A(66,69,72)           114.3292         estimate D2E/DX2                !
 ! A148  A(70,69,71)           105.8102         estimate D2E/DX2                !
 ! A149  A(70,69,72)           110.878          estimate D2E/DX2                !
 ! A150  A(71,69,72)           109.719          estimate D2E/DX2                !
 ! A151  A(69,72,73)           109.7866         estimate D2E/DX2                !
 ! A152  A(69,72,74)           108.9009         estimate D2E/DX2                !
 ! A153  A(69,72,75)           114.9804         estimate D2E/DX2                !
 ! A154  A(73,72,74)           104.7684         estimate D2E/DX2                !
 ! A155  A(73,72,75)           109.149          estimate D2E/DX2                !
 ! A156  A(74,72,75)           108.7563         estimate D2E/DX2                !
 ! A157  A(72,75,76)           110.1462         estimate D2E/DX2                !
 ! A158  A(72,75,77)           110.3728         estimate D2E/DX2                !
 ! A159  A(72,75,78)           114.3016         estimate D2E/DX2                !
 ! A160  A(76,75,77)           105.7372         estimate D2E/DX2                !
 ! A161  A(76,75,78)           105.9659         estimate D2E/DX2                !
 ! A162  A(77,75,78)           109.8883         estimate D2E/DX2                !
 ! A163  A(75,78,79)           111.2398         estimate D2E/DX2                !
 ! A164  A(75,78,80)           110.3051         estimate D2E/DX2                !
 ! A165  A(75,78,81)           112.9292         estimate D2E/DX2                !
 ! A166  A(79,78,80)           108.0507         estimate D2E/DX2                !
 ! A167  A(79,78,81)           107.1407         estimate D2E/DX2                !
 ! A168  A(80,78,81)           106.9448         estimate D2E/DX2                !
 ! A169  A(78,81,82)           113.8528         estimate D2E/DX2                !
 ! A170  A(78,81,83)           111.322          estimate D2E/DX2                !
 ! A171  A(78,81,84)           111.1232         estimate D2E/DX2                !
 ! A172  A(82,81,83)           106.6306         estimate D2E/DX2                !
 ! A173  A(82,81,84)           105.9851         estimate D2E/DX2                !
 ! A174  A(83,81,84)           107.5518         estimate D2E/DX2                !
 ! A175  L(41,63,62,16,-1)     174.9292         estimate D2E/DX2                !
 ! A176  L(62,82,81,1,-1)      171.323          estimate D2E/DX2                !
 ! A177  L(19,83,81,24,-1)     182.4281         estimate D2E/DX2                !
 ! A178  L(58,84,81,24,-1)     175.2496         estimate D2E/DX2                !
 ! A179  L(41,63,62,16,-2)     187.0127         estimate D2E/DX2                !
 ! A180  L(62,82,81,1,-2)      173.257          estimate D2E/DX2                !
 ! A181  L(19,83,81,24,-2)     176.0521         estimate D2E/DX2                !
 ! A182  L(58,84,81,24,-2)     181.0154         estimate D2E/DX2                !
 ! D1    D(6,1,2,3)            -54.5472         estimate D2E/DX2                !
 ! D2    D(6,1,2,7)           -175.2581         estimate D2E/DX2                !
 ! D3    D(6,1,2,15)            66.37           estimate D2E/DX2                !
 ! D4    D(2,1,6,5)             55.5882         estimate D2E/DX2                !
 ! D5    D(2,1,6,11)           -64.469          estimate D2E/DX2                !
 ! D6    D(2,1,6,16)           179.6458         estimate D2E/DX2                !
 ! D7    D(1,2,3,4)             53.5557         estimate D2E/DX2                !
 ! D8    D(1,2,3,8)            -65.2049         estimate D2E/DX2                !
 ! D9    D(1,2,3,14)           172.8088         estimate D2E/DX2                !
 ! D10   D(7,2,3,4)            170.635          estimate D2E/DX2                !
 ! D11   D(7,2,3,8)             51.8744         estimate D2E/DX2                !
 ! D12   D(7,2,3,14)           -70.1119         estimate D2E/DX2                !
 ! D13   D(15,2,3,4)           -69.9342         estimate D2E/DX2                !
 ! D14   D(15,2,3,8)           171.3052         estimate D2E/DX2                !
 ! D15   D(15,2,3,14)           49.3189         estimate D2E/DX2                !
 ! D16   D(1,2,15,27)          102.7329         estimate D2E/DX2                !
 ! D17   D(1,2,15,42)          -47.8027         estimate D2E/DX2                !
 ! D18   D(3,2,15,27)         -134.1098         estimate D2E/DX2                !
 ! D19   D(3,2,15,42)           75.3546         estimate D2E/DX2                !
 ! D20   D(7,2,15,27)          -13.2975         estimate D2E/DX2                !
 ! D21   D(7,2,15,42)         -163.833          estimate D2E/DX2                !
 ! D22   D(2,3,4,5)            -53.4352         estimate D2E/DX2                !
 ! D23   D(2,3,4,9)             66.1593         estimate D2E/DX2                !
 ! D24   D(2,3,4,13)          -171.6813         estimate D2E/DX2                !
 ! D25   D(8,3,4,5)             64.8606         estimate D2E/DX2                !
 ! D26   D(8,3,4,9)           -175.545          estimate D2E/DX2                !
 ! D27   D(8,3,4,13)           -53.3855         estimate D2E/DX2                !
 ! D28   D(14,3,4,5)          -175.0037         estimate D2E/DX2                !
 ! D29   D(14,3,4,9)           -55.4092         estimate D2E/DX2                !
 ! D30   D(14,3,4,13)           66.7502         estimate D2E/DX2                !
 ! D31   D(2,3,14,23)           91.2691         estimate D2E/DX2                !
 ! D32   D(4,3,14,23)         -147.0988         estimate D2E/DX2                !
 ! D33   D(8,3,14,23)          -28.6865         estimate D2E/DX2                !
 ! D34   D(3,4,5,6)             52.8038         estimate D2E/DX2                !
 ! D35   D(3,4,5,10)           169.8315         estimate D2E/DX2                !
 ! D36   D(3,4,5,12)           -68.3445         estimate D2E/DX2                !
 ! D37   D(9,4,5,6)            -66.9295         estimate D2E/DX2                !
 ! D38   D(9,4,5,10)            50.0982         estimate D2E/DX2                !
 ! D39   D(9,4,5,12)           171.9222         estimate D2E/DX2                !
 ! D40   D(13,4,5,6)           174.1368         estimate D2E/DX2                !
 ! D41   D(13,4,5,10)          -68.8355         estimate D2E/DX2                !
 ! D42   D(13,4,5,12)           52.9885         estimate D2E/DX2                !
 ! D43   D(3,4,13,22)          -52.6795         estimate D2E/DX2                !
 ! D44   D(5,4,13,22)         -173.2766         estimate D2E/DX2                !
 ! D45   D(9,4,13,22)           68.7597         estimate D2E/DX2                !
 ! D46   D(4,5,6,1)            -53.2131         estimate D2E/DX2                !
 ! D47   D(4,5,6,11)            67.6468         estimate D2E/DX2                !
 ! D48   D(4,5,6,16)          -172.5366         estimate D2E/DX2                !
 ! D49   D(10,5,6,1)          -170.2153         estimate D2E/DX2                !
 ! D50   D(10,5,6,11)          -49.3553         estimate D2E/DX2                !
 ! D51   D(10,5,6,16)           70.4613         estimate D2E/DX2                !
 ! D52   D(12,5,6,1)            69.4186         estimate D2E/DX2                !
 ! D53   D(12,5,6,11)         -169.7214         estimate D2E/DX2                !
 ! D54   D(12,5,6,16)          -49.9048         estimate D2E/DX2                !
 ! D55   D(4,5,12,21)          -46.5905         estimate D2E/DX2                !
 ! D56   D(6,5,12,21)         -167.9189         estimate D2E/DX2                !
 ! D57   D(10,5,12,21)          73.516          estimate D2E/DX2                !
 ! D58   D(1,6,16,17)         -177.841          estimate D2E/DX2                !
 ! D59   D(1,6,16,18)          -58.2178         estimate D2E/DX2                !
 ! D60   D(1,6,16,19)           64.3576         estimate D2E/DX2                !
 ! D61   D(5,6,16,17)          -53.956          estimate D2E/DX2                !
 ! D62   D(5,6,16,18)           65.6672         estimate D2E/DX2                !
 ! D63   D(5,6,16,19)         -171.7574         estimate D2E/DX2                !
 ! D64   D(11,6,16,17)          65.6078         estimate D2E/DX2                !
 ! D65   D(11,6,16,18)        -174.769          estimate D2E/DX2                !
 ! D66   D(11,6,16,19)         -52.1936         estimate D2E/DX2                !
 ! D67   D(2,15,27,26)         -89.1991         estimate D2E/DX2                !
 ! D68   D(2,15,27,28)         146.6873         estimate D2E/DX2                !
 ! D69   D(2,15,27,32)          29.5808         estimate D2E/DX2                !
 ! D70   D(42,15,27,26)         67.0802         estimate D2E/DX2                !
 ! D71   D(42,15,27,28)        -57.0334         estimate D2E/DX2                !
 ! D72   D(42,15,27,32)       -174.1399         estimate D2E/DX2                !
 ! D73   D(2,15,42,41)         174.0572         estimate D2E/DX2                !
 ! D74   D(27,15,42,41)         21.3063         estimate D2E/DX2                !
 ! D75   D(6,16,19,20)         -59.2835         estimate D2E/DX2                !
 ! D76   D(6,16,19,83)          86.7743         estimate D2E/DX2                !
 ! D77   D(17,16,19,20)       -179.289          estimate D2E/DX2                !
 ! D78   D(17,16,19,83)        -33.2312         estimate D2E/DX2                !
 ! D79   D(18,16,19,20)         63.1699         estimate D2E/DX2                !
 ! D80   D(18,16,19,83)       -150.7723         estimate D2E/DX2                !
 ! D81   D(16,19,81,78)         42.4145         estimate D2E/DX2                !
 ! D82   D(16,19,81,82)        -81.1342         estimate D2E/DX2                !
 ! D83   D(16,19,81,84)        164.0534         estimate D2E/DX2                !
 ! D84   D(20,19,81,78)       -179.0707         estimate D2E/DX2                !
 ! D85   D(20,19,81,82)         57.3806         estimate D2E/DX2                !
 ! D86   D(20,19,81,84)        -57.4318         estimate D2E/DX2                !
 ! D87   D(29,24,25,26)        -55.3732         estimate D2E/DX2                !
 ! D88   D(29,24,25,30)         67.6003         estimate D2E/DX2                !
 ! D89   D(29,24,25,37)        179.4693         estimate D2E/DX2                !
 ! D90   D(25,24,29,28)          7.9893         estimate D2E/DX2                !
 ! D91   D(25,24,29,34)       -108.681          estimate D2E/DX2                !
 ! D92   D(25,24,29,38)        137.3015         estimate D2E/DX2                !
 ! D93   D(24,25,26,27)         49.2376         estimate D2E/DX2                !
 ! D94   D(24,25,26,31)        -66.0109         estimate D2E/DX2                !
 ! D95   D(24,25,26,36)        170.788          estimate D2E/DX2                !
 ! D96   D(30,25,26,27)        -74.5147         estimate D2E/DX2                !
 ! D97   D(30,25,26,31)        170.2368         estimate D2E/DX2                !
 ! D98   D(30,25,26,36)         47.0357         estimate D2E/DX2                !
 ! D99   D(37,25,26,27)        170.4333         estimate D2E/DX2                !
 ! D100  D(37,25,26,31)         55.1848         estimate D2E/DX2                !
 ! D101  D(37,25,26,36)        -68.0163         estimate D2E/DX2                !
 ! D102  D(24,25,37,49)         78.4554         estimate D2E/DX2                !
 ! D103  D(26,25,37,49)        -45.1292         estimate D2E/DX2                !
 ! D104  D(30,25,37,49)       -164.1469         estimate D2E/DX2                !
 ! D105  D(25,26,27,15)       -119.5535         estimate D2E/DX2                !
 ! D106  D(25,26,27,28)          0.6322         estimate D2E/DX2                !
 ! D107  D(25,26,27,32)        121.324          estimate D2E/DX2                !
 ! D108  D(31,26,27,15)         -2.4862         estimate D2E/DX2                !
 ! D109  D(31,26,27,28)        117.6995         estimate D2E/DX2                !
 ! D110  D(31,26,27,32)       -121.6087         estimate D2E/DX2                !
 ! D111  D(36,26,27,15)        116.7066         estimate D2E/DX2                !
 ! D112  D(36,26,27,28)       -123.1077         estimate D2E/DX2                !
 ! D113  D(36,26,27,32)         -2.4159         estimate D2E/DX2                !
 ! D114  D(25,26,36,44)         64.5556         estimate D2E/DX2                !
 ! D115  D(27,26,36,44)       -171.688          estimate D2E/DX2                !
 ! D116  D(31,26,36,44)        -56.6702         estimate D2E/DX2                !
 ! D117  D(15,27,28,29)         77.0702         estimate D2E/DX2                !
 ! D118  D(15,27,28,33)       -166.9292         estimate D2E/DX2                !
 ! D119  D(15,27,28,35)        -51.0201         estimate D2E/DX2                !
 ! D120  D(26,27,28,29)        -46.3337         estimate D2E/DX2                !
 ! D121  D(26,27,28,33)         69.6669         estimate D2E/DX2                !
 ! D122  D(26,27,28,35)       -174.424          estimate D2E/DX2                !
 ! D123  D(32,27,28,29)       -166.2939         estimate D2E/DX2                !
 ! D124  D(32,27,28,33)        -50.2933         estimate D2E/DX2                !
 ! D125  D(32,27,28,35)         65.6158         estimate D2E/DX2                !
 ! D126  D(27,28,29,24)         43.5469         estimate D2E/DX2                !
 ! D127  D(27,28,29,34)        161.6328         estimate D2E/DX2                !
 ! D128  D(27,28,29,38)        -80.2898         estimate D2E/DX2                !
 ! D129  D(33,28,29,24)        -72.1739         estimate D2E/DX2                !
 ! D130  D(33,28,29,34)         45.912          estimate D2E/DX2                !
 ! D131  D(33,28,29,38)        163.9893         estimate D2E/DX2                !
 ! D132  D(35,28,29,24)        171.8688         estimate D2E/DX2                !
 ! D133  D(35,28,29,34)        -70.0454         estimate D2E/DX2                !
 ! D134  D(35,28,29,38)         48.032          estimate D2E/DX2                !
 ! D135  D(27,28,35,43)         27.8738         estimate D2E/DX2                !
 ! D136  D(29,28,35,43)       -100.7857         estimate D2E/DX2                !
 ! D137  D(33,28,35,43)        143.3785         estimate D2E/DX2                !
 ! D138  D(24,29,38,39)         65.3392         estimate D2E/DX2                !
 ! D139  D(24,29,38,40)       -177.0198         estimate D2E/DX2                !
 ! D140  D(24,29,38,41)        -52.4096         estimate D2E/DX2                !
 ! D141  D(28,29,38,39)       -168.3033         estimate D2E/DX2                !
 ! D142  D(28,29,38,40)        -50.6623         estimate D2E/DX2                !
 ! D143  D(28,29,38,41)         73.9478         estimate D2E/DX2                !
 ! D144  D(34,29,38,39)        -50.244          estimate D2E/DX2                !
 ! D145  D(34,29,38,40)         67.397          estimate D2E/DX2                !
 ! D146  D(34,29,38,41)       -167.9929         estimate D2E/DX2                !
 ! D147  D(26,36,44,56)         31.0933         estimate D2E/DX2                !
 ! D148  D(25,37,49,48)        127.6047         estimate D2E/DX2                !
 ! D149  D(25,37,49,50)       -110.9139         estimate D2E/DX2                !
 ! D150  D(25,37,49,55)          8.7127         estimate D2E/DX2                !
 ! D151  D(29,38,41,42)        -53.6976         estimate D2E/DX2                !
 ! D152  D(29,38,41,63)         73.1758         estimate D2E/DX2                !
 ! D153  D(39,38,41,42)       -173.1012         estimate D2E/DX2                !
 ! D154  D(39,38,41,63)        -46.2279         estimate D2E/DX2                !
 ! D155  D(40,38,41,42)         70.0629         estimate D2E/DX2                !
 ! D156  D(40,38,41,63)       -163.0637         estimate D2E/DX2                !
 ! D157  D(38,41,42,15)         29.3486         estimate D2E/DX2                !
 ! D158  D(63,41,42,15)        -96.5359         estimate D2E/DX2                !
 ! D159  D(38,41,62,59)        -14.7583         estimate D2E/DX2                !
 ! D160  D(38,41,62,82)       -173.4068         estimate D2E/DX2                !
 ! D161  D(42,41,62,59)        109.5109         estimate D2E/DX2                !
 ! D162  D(42,41,62,82)        -49.1376         estimate D2E/DX2                !
 ! D163  D(36,44,56,48)        -57.2222         estimate D2E/DX2                !
 ! D164  D(36,44,56,64)        151.3048         estimate D2E/DX2                !
 ! D165  D(50,45,46,47)        -55.5493         estimate D2E/DX2                !
 ! D166  D(50,45,46,51)         68.2119         estimate D2E/DX2                !
 ! D167  D(50,45,46,58)       -171.0413         estimate D2E/DX2                !
 ! D168  D(46,45,50,49)         56.3245         estimate D2E/DX2                !
 ! D169  D(46,45,50,54)        -64.6581         estimate D2E/DX2                !
 ! D170  D(46,45,50,59)        178.6898         estimate D2E/DX2                !
 ! D171  D(45,46,47,48)         50.2522         estimate D2E/DX2                !
 ! D172  D(45,46,47,52)        -67.9548         estimate D2E/DX2                !
 ! D173  D(45,46,47,57)        170.1456         estimate D2E/DX2                !
 ! D174  D(51,46,47,48)        -73.0037         estimate D2E/DX2                !
 ! D175  D(51,46,47,52)        168.7893         estimate D2E/DX2                !
 ! D176  D(51,46,47,57)         46.8897         estimate D2E/DX2                !
 ! D177  D(58,46,47,48)        165.8447         estimate D2E/DX2                !
 ! D178  D(58,46,47,52)         47.6378         estimate D2E/DX2                !
 ! D179  D(58,46,47,57)        -74.2619         estimate D2E/DX2                !
 ! D180  D(45,46,58,66)        -74.2131         estimate D2E/DX2                !
 ! D181  D(45,46,58,84)         36.0268         estimate D2E/DX2                !
 ! D182  D(47,46,58,66)        167.4387         estimate D2E/DX2                !
 ! D183  D(47,46,58,84)        -82.3214         estimate D2E/DX2                !
 ! D184  D(51,46,58,66)         46.1291         estimate D2E/DX2                !
 ! D185  D(51,46,58,84)        156.3691         estimate D2E/DX2                !
 ! D186  D(46,47,48,49)        -50.1888         estimate D2E/DX2                !
 ! D187  D(46,47,48,53)         70.23           estimate D2E/DX2                !
 ! D188  D(46,47,48,56)       -169.7975         estimate D2E/DX2                !
 ! D189  D(52,47,48,49)         67.66           estimate D2E/DX2                !
 ! D190  D(52,47,48,53)       -171.9211         estimate D2E/DX2                !
 ! D191  D(52,47,48,56)        -51.9487         estimate D2E/DX2                !
 ! D192  D(57,47,48,49)       -173.4572         estimate D2E/DX2                !
 ! D193  D(57,47,48,53)        -53.0384         estimate D2E/DX2                !
 ! D194  D(57,47,48,56)         66.9341         estimate D2E/DX2                !
 ! D195  D(46,47,57,65)         65.388          estimate D2E/DX2                !
 ! D196  D(48,47,57,65)       -171.6765         estimate D2E/DX2                !
 ! D197  D(52,47,57,65)        -54.5962         estimate D2E/DX2                !
 ! D198  D(47,48,49,37)        172.3341         estimate D2E/DX2                !
 ! D199  D(47,48,49,50)         51.1088         estimate D2E/DX2                !
 ! D200  D(47,48,49,55)        -66.8092         estimate D2E/DX2                !
 ! D201  D(53,48,49,37)         51.4768         estimate D2E/DX2                !
 ! D202  D(53,48,49,50)        -69.7485         estimate D2E/DX2                !
 ! D203  D(53,48,49,55)        172.3334         estimate D2E/DX2                !
 ! D204  D(56,48,49,37)        -67.3809         estimate D2E/DX2                !
 ! D205  D(56,48,49,50)        171.3938         estimate D2E/DX2                !
 ! D206  D(56,48,49,55)         53.4757         estimate D2E/DX2                !
 ! D207  D(47,48,56,44)        143.7503         estimate D2E/DX2                !
 ! D208  D(47,48,56,64)        -60.5624         estimate D2E/DX2                !
 ! D209  D(49,48,56,44)         21.7308         estimate D2E/DX2                !
 ! D210  D(49,48,56,64)        177.4181         estimate D2E/DX2                !
 ! D211  D(53,48,56,44)        -96.4579         estimate D2E/DX2                !
 ! D212  D(53,48,56,64)         59.2294         estimate D2E/DX2                !
 ! D213  D(37,49,50,45)       -170.7769         estimate D2E/DX2                !
 ! D214  D(37,49,50,54)        -49.096          estimate D2E/DX2                !
 ! D215  D(37,49,50,59)         72.8591         estimate D2E/DX2                !
 ! D216  D(48,49,50,45)        -51.8732         estimate D2E/DX2                !
 ! D217  D(48,49,50,54)         69.8077         estimate D2E/DX2                !
 ! D218  D(48,49,50,59)       -168.2372         estimate D2E/DX2                !
 ! D219  D(55,49,50,45)         66.9246         estimate D2E/DX2                !
 ! D220  D(55,49,50,54)       -171.3945         estimate D2E/DX2                !
 ! D221  D(55,49,50,59)        -49.4395         estimate D2E/DX2                !
 ! D222  D(45,50,59,60)         58.4923         estimate D2E/DX2                !
 ! D223  D(45,50,59,61)        177.3299         estimate D2E/DX2                !
 ! D224  D(45,50,59,62)        -60.1546         estimate D2E/DX2                !
 ! D225  D(49,50,59,60)        178.1339         estimate D2E/DX2                !
 ! D226  D(49,50,59,61)        -63.0285         estimate D2E/DX2                !
 ! D227  D(49,50,59,62)         59.487          estimate D2E/DX2                !
 ! D228  D(54,50,59,60)        -59.4924         estimate D2E/DX2                !
 ! D229  D(54,50,59,61)         59.3452         estimate D2E/DX2                !
 ! D230  D(54,50,59,62)       -178.1393         estimate D2E/DX2                !
 ! D231  D(46,58,66,67)       -144.7616         estimate D2E/DX2                !
 ! D232  D(46,58,66,68)        -29.2148         estimate D2E/DX2                !
 ! D233  D(46,58,66,69)         94.0865         estimate D2E/DX2                !
 ! D234  D(84,58,66,67)        116.2155         estimate D2E/DX2                !
 ! D235  D(84,58,66,68)       -128.2377         estimate D2E/DX2                !
 ! D236  D(84,58,66,69)         -4.9363         estimate D2E/DX2                !
 ! D237  D(46,58,81,78)       -157.0493         estimate D2E/DX2                !
 ! D238  D(46,58,81,82)        -33.4007         estimate D2E/DX2                !
 ! D239  D(46,58,81,83)         79.018          estimate D2E/DX2                !
 ! D240  D(66,58,81,78)        -40.6466         estimate D2E/DX2                !
 ! D241  D(66,58,81,82)         83.002          estimate D2E/DX2                !
 ! D242  D(66,58,81,83)       -164.5793         estimate D2E/DX2                !
 ! D243  D(50,59,62,63)       -114.7213         estimate D2E/DX2                !
 ! D244  D(50,59,62,82)         42.1623         estimate D2E/DX2                !
 ! D245  D(60,59,62,63)        126.8782         estimate D2E/DX2                !
 ! D246  D(60,59,62,82)        -76.2381         estimate D2E/DX2                !
 ! D247  D(61,59,62,63)          7.1913         estimate D2E/DX2                !
 ! D248  D(61,59,62,82)        164.075          estimate D2E/DX2                !
 ! D249  D(59,62,81,78)        122.8866         estimate D2E/DX2                !
 ! D250  D(59,62,81,83)       -114.9018         estimate D2E/DX2                !
 ! D251  D(59,62,81,84)         -3.169          estimate D2E/DX2                !
 ! D252  D(63,62,81,78)        -88.3954         estimate D2E/DX2                !
 ! D253  D(63,62,81,83)         33.8162         estimate D2E/DX2                !
 ! D254  D(63,62,81,84)        145.549          estimate D2E/DX2                !
 ! D255  D(58,66,69,70)        -59.9827         estimate D2E/DX2                !
 ! D256  D(58,66,69,71)       -173.835          estimate D2E/DX2                !
 ! D257  D(58,66,69,72)         64.1882         estimate D2E/DX2                !
 ! D258  D(67,66,69,70)       -177.429          estimate D2E/DX2                !
 ! D259  D(67,66,69,71)         68.7188         estimate D2E/DX2                !
 ! D260  D(67,66,69,72)        -53.258          estimate D2E/DX2                !
 ! D261  D(68,66,69,70)         62.0764         estimate D2E/DX2                !
 ! D262  D(68,66,69,71)        -51.7759         estimate D2E/DX2                !
 ! D263  D(68,66,69,72)       -173.7527         estimate D2E/DX2                !
 ! D264  D(66,69,72,73)        -11.8592         estimate D2E/DX2                !
 ! D265  D(66,69,72,74)        102.3158         estimate D2E/DX2                !
 ! D266  D(66,69,72,75)       -135.3767         estimate D2E/DX2                !
 ! D267  D(70,69,72,73)        110.9331         estimate D2E/DX2                !
 ! D268  D(70,69,72,74)       -134.8919         estimate D2E/DX2                !
 ! D269  D(70,69,72,75)        -12.5844         estimate D2E/DX2                !
 ! D270  D(71,69,72,73)       -132.5493         estimate D2E/DX2                !
 ! D271  D(71,69,72,74)        -18.3743         estimate D2E/DX2                !
 ! D272  D(71,69,72,75)        103.9332         estimate D2E/DX2                !
 ! D273  D(69,72,75,76)       -138.5817         estimate D2E/DX2                !
 ! D274  D(69,72,75,77)        -22.1958         estimate D2E/DX2                !
 ! D275  D(69,72,75,78)        102.2659         estimate D2E/DX2                !
 ! D276  D(73,72,75,76)         97.5626         estimate D2E/DX2                !
 ! D277  D(73,72,75,77)       -146.0514         estimate D2E/DX2                !
 ! D278  D(73,72,75,78)        -21.5898         estimate D2E/DX2                !
 ! D279  D(74,72,75,76)        -16.1964         estimate D2E/DX2                !
 ! D280  D(74,72,75,77)        100.1895         estimate D2E/DX2                !
 ! D281  D(74,72,75,78)       -135.3488         estimate D2E/DX2                !
 ! D282  D(72,75,78,79)       -179.2945         estimate D2E/DX2                !
 ! D283  D(72,75,78,80)         60.8191         estimate D2E/DX2                !
 ! D284  D(72,75,78,81)        -58.7811         estimate D2E/DX2                !
 ! D285  D(76,75,78,79)         59.222          estimate D2E/DX2                !
 ! D286  D(76,75,78,80)        -60.6645         estimate D2E/DX2                !
 ! D287  D(76,75,78,81)        179.7354         estimate D2E/DX2                !
 ! D288  D(77,75,78,79)        -54.5754         estimate D2E/DX2                !
 ! D289  D(77,75,78,80)       -174.4618         estimate D2E/DX2                !
 ! D290  D(77,75,78,81)         65.938          estimate D2E/DX2                !
 ! D291  D(75,78,81,82)        -74.4353         estimate D2E/DX2                !
 ! D292  D(75,78,81,83)        165.0004         estimate D2E/DX2                !
 ! D293  D(75,78,81,84)         45.1431         estimate D2E/DX2                !
 ! D294  D(79,78,81,82)         48.3915         estimate D2E/DX2                !
 ! D295  D(79,78,81,83)        -72.1728         estimate D2E/DX2                !
 ! D296  D(79,78,81,84)        167.9699         estimate D2E/DX2                !
 ! D297  D(80,78,81,82)        164.0461         estimate D2E/DX2                !
 ! D298  D(80,78,81,83)         43.4818         estimate D2E/DX2                !
 ! D299  D(80,78,81,84)        -76.3755         estimate D2E/DX2                !
 --------------------------------------------------------------------------------
 Trust Radius=3.00D-01 FncErr=1.00D-07 GrdErr=1.00D-06
 Number of steps in this run=    504 maximum allowed number of steps=    504.
 GradGradGradGradGradGradGradGradGradGradGradGradGradGradGradGradGradGrad

 Leave Link  103 at Wed Apr  6 15:55:05 2016, MaxMem= 10737418240 cpu:         1.1
 (Enter /share/apps//g09/l202.exe)
 Stoichiometry    C23H44NO16(1+)
 Framework group  C1[X(C23H44NO16)]
 Deg. of freedom   246
 Full point group                 C1      NOp   1
 Largest Abelian subgroup         C1      NOp   1
 Largest concise Abelian subgroup C1      NOp   1
                         Standard orientation:                         
 ---------------------------------------------------------------------
 Center     Atomic      Atomic             Coordinates (Angstroms)
 Number     Number       Type             X           Y           Z
 ---------------------------------------------------------------------
      1          8           0       -2.359865    1.116986    1.700878
      2          6           0       -3.403134    0.289586    1.229824
      3          6           0       -4.615839    1.117965    0.757549
      4          6           0       -4.198835    2.172973   -0.267904
      5          6           0       -3.054841    3.035448    0.284585
      6          6           0       -1.919726    2.131295    0.766946
      7          1           0       -3.667587   -0.353585    2.083232
      8          1           0       -5.034127    1.631993    1.637556
      9          1           0       -3.851690    1.665437   -1.188632
     10          1           0       -2.664587    3.654353   -0.549028
     11          1           0       -1.476457    1.641345   -0.121028
     12          8           0       -3.488364    3.856887    1.360569
     13          8           0       -5.268509    3.064418   -0.567622
     14          8           0       -5.599792    0.281398    0.128929
     15          8           0       -2.987478   -0.532124    0.137946
     16          6           0       -0.817714    2.883872    1.495517
     17          1           0       -0.444280    3.707534    0.871498
     18          1           0       -1.203894    3.305860    2.433978
     19          8           0        0.312682    2.022274    1.758984
     20          1           0       -0.014704    1.281353    2.304050
     21          1           0       -4.325834    4.267124    1.070321
     22          1           0       -6.040113    2.523655   -0.817531
     23          1           0       -6.238772   -0.022152    0.796546
     24          8           0       -0.718829   -2.715906   -1.521025
     25          6           0       -0.506912   -3.103196   -0.160091
     26          6           0       -1.231956   -2.151874    0.814842
     27          6           0       -2.704350   -1.928288    0.414570
     28          6           0       -3.111597   -2.704007   -0.835484
     29          6           0       -2.077323   -2.582228   -1.994102
     30          1           0       -0.834891   -4.143181    0.016010
     31          1           0       -0.758783   -1.156083    0.737750
     32          1           0       -3.334601   -2.249401    1.258312
     33          1           0       -3.122372   -3.767654   -0.539958
     34          1           0       -2.291126   -3.419222   -2.684690
     35          8           0       -4.425394   -2.391378   -1.261926
     36          8           0       -1.206879   -2.637075    2.143319
     37          8           0        0.891393   -3.171571    0.037971
     38          6           0       -2.130507   -1.307688   -2.841827
     39          1           0       -1.501955   -1.449820   -3.731437
     40          1           0       -3.165316   -1.139016   -3.179473
     41          8           0       -1.611477   -0.139390   -2.177251
     42          1           0       -2.098767   -0.074562   -1.322321
     43          1           0       -4.629787   -1.475613   -0.976653
     44          1           0       -0.266657   -2.648036    2.434338
     45          8           0        3.461738   -0.606319   -0.671812
     46          6           0        4.295878   -0.744404    0.481144
     47          6           0        3.454774   -1.017112    1.730675
     48          6           0        2.463911   -2.156564    1.511996
     49          6           0        1.647507   -1.967528    0.233459
     50          6           0        2.560291   -1.689626   -0.977074
     51          1           0        5.049231   -1.542942    0.320394
     52          1           0        2.874568   -0.096946    1.945302
     53          1           0        3.014944   -3.112753    1.440468
     54          1           0        3.124808   -2.606996   -1.232013
     55          1           0        0.993780   -1.090185    0.357983
     56          8           0        1.550750   -2.207181    2.619258
     57          8           0        4.251235   -1.381480    2.852415
     58          8           0        4.915277    0.500670    0.681325
     59          6           0        1.811595   -1.212952   -2.220921
     60          1           0        2.556351   -1.013755   -3.006911
     61          1           0        1.128706   -1.999681   -2.559444
     62          8           0        1.090170    0.004355   -1.965676
     63          1           0        0.102719   -0.143178   -2.035566
     64          1           0        2.080108   -2.369304    3.421785
     65          1           0        4.802774   -0.617309    3.097678
     66          6           0        5.984822    0.826986   -0.256571
     67          1           0        6.722629    1.386699    0.336865
     68          1           0        6.456704   -0.108719   -0.595912
     69          6           0        5.487146    1.649165   -1.441787
     70          1           0        4.721797    1.063681   -1.971476
     71          1           0        6.326988    1.752314   -2.146482
     72          6           0        4.946347    3.051553   -1.063903
     73          1           0        4.824035    3.122326    0.030626
     74          1           0        5.707218    3.804402   -1.309843
     75          6           0        3.616106    3.445811   -1.749981
     76          1           0        3.651562    4.497653   -2.068715
     77          1           0        3.471090    2.859208   -2.671098
     78          6           0        2.385201    3.319461   -0.854229
     79          1           0        1.469855    3.599068   -1.393826
     80          1           0        2.480272    3.979372    0.020266
     81          7           0        2.182972    1.928516   -0.332132
     82          1           0        1.814806    1.246528   -1.058258
     83          1           0        1.500636    1.915638    0.465274
     84          1           0        3.071592    1.526549    0.011329
 ---------------------------------------------------------------------
 Rotational constants (GHZ):      0.1268961      0.0666482      0.0557157
 Leave Link  202 at Wed Apr  6 15:55:07 2016, MaxMem= 10737418240 cpu:         5.5
 (Enter /share/apps//g09/l301.exe)
 Standard basis: 6-311+G(d,p) (5D, 7F)
 Ernie: Thresh=  0.10000D-02 Tol=  0.10000D-05 Strict=F.
 There are  1184 symmetry adapted cartesian basis functions of A   symmetry.
 There are  1144 symmetry adapted basis functions of A   symmetry.
  1144 basis functions,  1792 primitive gaussians,  1184 cartesian basis functions
   158 alpha electrons      158 beta electrons
       nuclear repulsion energy      5910.7755021118 Hartrees.
 IExCor= 1009 DFT=T Ex+Corr=PBE1PBE ExCW=0 ScaHFX=  0.250000
 ScaDFX=  0.750000  0.750000  1.000000  1.000000 ScalE2=  1.000000  1.000000
 IRadAn=      0 IRanWt=     -1 IRanGd=            0 ICorTp=0 IEmpDi=131
 NAtoms=   84 NActive=   84 NUniq=   84 SFac= 1.00D+00 NAtFMM=   60 NAOKFM=T Big=T
 Integral buffers will be    131072 words long.
 Raffenetti 2 integral format.
 Two-electron integral symmetry is turned on.
 R6Disp:  Grimme-D3 Dispersion energy=       -0.0855878119 Hartrees.
 Nuclear repulsion after empirical dispersion term =     5910.6899142999 Hartrees.
 Leave Link  301 at Wed Apr  6 15:55:08 2016, MaxMem= 10737418240 cpu:         2.5
 (Enter /share/apps//g09/l302.exe)
 NPDir=0 NMtPBC=     1 NCelOv=     1 NCel=       1 NClECP=     1 NCelD=      1
         NCelK=      1 NCelE2=     1 NClLst=     1 CellRange=     0.0.
 One-electron integrals computed using PRISM.
 NBasis=  1144 RedAO= T EigKep=  1.27D-06  NBF=  1144
 NBsUse=  1144 1.00D-06 EigRej= -1.00D+00 NBFU=  1144
 Precomputing XC quadrature grid using
 IXCGrd= 4 IRadAn=           0 IRanWt=          -1 IRanGd=           0 AccXCQ= 0.00D+00.
 Generated NRdTot=       0 NPtTot=           0 NUsed=           0 NTot=          32
 NSgBfM=  1055  1062  1062  1063  1066 MxSgAt=    84 MxSgA2=    84.
 Leave Link  302 at Wed Apr  6 15:55:15 2016, MaxMem= 10737418240 cpu:        72.4
 (Enter /share/apps//g09/l303.exe)
 DipDrv:  MaxL=1.
 Leave Link  303 at Wed Apr  6 15:55:17 2016, MaxMem= 10737418240 cpu:        25.8
 (Enter /share/apps//g09/l401.exe)
 ExpMin= 4.38D-02 ExpMax= 8.59D+03 ExpMxC= 1.30D+03 IAcc=2 IRadAn=         4 AccDes= 0.00D+00
 Harris functional with IExCor= 1009 and IRadAn=       4 diagonalized for initial guess.
 HarFok:  IExCor= 1009 AccDes= 0.00D+00 IRadAn=         4 IDoV= 1 UseB2=F ITyADJ=14
 ICtDFT=  3500011 ScaDFX=  1.000000  1.000000  1.000000  1.000000
 FoFCou: FMM=F IPFlag=           0 FMFlag=      100000 FMFlg1=        2001
         NFxFlg=           0 DoJE=T BraDBF=F KetDBF=T FulRan=T
         wScrn=  0.000000 ICntrl=     500 IOpCl=  0 I1Cent=   200000004 NGrid=           0
         NMat0=    1 NMatS0=      1 NMatT0=    0 NMatD0=    1 NMtDS0=    0 NMtDT0=    0
 Petite list used in FoFCou.
 Harris En= -2159.70871464373    
 JPrj=0 DoOrth=F DoCkMO=F.
 Leave Link  401 at Wed Apr  6 15:55:24 2016, MaxMem= 10737418240 cpu:       123.4
 (Enter /share/apps//g09/l502.exe)
 Closed shell SCF:
 Using DIIS extrapolation, IDIIS=  1040.
 Integral symmetry usage will be decided dynamically.
 IVT=     4256630 IEndB=     4256630 NGot= 10737418240 MDV= 10734581291
 LenX= 10734581291 LenY= 10733178251
 Requested convergence on RMS density matrix=1.00D-08 within 128 cycles.
 Requested convergence on MAX density matrix=1.00D-06.
 Requested convergence on             energy=1.00D-06.
 No special actions if energy rises.
 Fock matrices will be formed incrementally for  20 cycles.

 Cycle   1  Pass 1  IDiag  1:
 FoFJK:  IHMeth= 1 ICntrl=       0 DoSepK=F KAlg= 0 I1Cent=   0 FoldK=F
 IRaf= 780000000 NMat=   1 IRICut=       1 DoRegI=T DoRafI=F ISym2E= 0.
 FoFCou: FMM=T IPFlag=           0 FMFlag=      100000 FMFlg1=        2001
         NFxFlg=           0 DoJE=F BraDBF=F KetDBF=F FulRan=T
         wScrn=  0.000000 ICntrl=       0 IOpCl=  0 I1Cent=           0 NGrid=           0
         NMat0=    1 NMatS0=      1 NMatT0=    0 NMatD0=    1 NMtDS0=    0 NMtDT0=    0
 Symmetry not used in FoFCou.
 FMM levels:  10  Number of levels for PrismC:   9
 E= -2158.68608314448    
 DIIS: error= 1.27D-02 at cycle   1 NSaved=   1.
 NSaved= 1 IEnMin= 1 EnMin= -2158.68608314448     IErMin= 1 ErrMin= 1.27D-02
 ErrMax= 1.27D-02  0.00D+00 EMaxC= 1.00D-01 BMatC= 1.02D+00 BMatP= 1.02D+00
 IDIUse=3 WtCom= 8.73D-01 WtEn= 1.27D-01
 Coeff-Com:  0.100D+01
 Coeff-En:   0.100D+01
 Coeff:      0.100D+01
 Gap=     0.249 Goal=   None    Shift=    0.000
 GapD=    0.249 DampG=1.000 DampE=0.500 DampFc=0.5000 IDamp=-1.
 Damping current iteration by 5.00D-01
 RMSDP=9.82D-03 MaxDP=2.18D+00              OVMax= 1.41D-01

 Cycle   2  Pass 1  IDiag  1:
 RMSU=  4.88D-03    CP:  1.01D+00
 E= -2158.96864375078     Delta-E=       -0.282560606299 Rises=F Damp=T
 DIIS: error= 3.51D-03 at cycle   2 NSaved=   2.
 NSaved= 2 IEnMin= 2 EnMin= -2158.96864375078     IErMin= 2 ErrMin= 3.51D-03
 ErrMax= 3.51D-03  0.00D+00 EMaxC= 1.00D-01 BMatC= 8.16D-02 BMatP= 1.02D+00
 IDIUse=3 WtCom= 9.65D-01 WtEn= 3.51D-02
 Coeff-Com:  0.612D-01 0.939D+00
 Coeff-En:   0.157D+00 0.843D+00
 Coeff:      0.646D-01 0.935D+00
 Gap=     0.282 Goal=   None    Shift=    0.000
 RMSDP=5.30D-03 MaxDP=2.14D+00 DE=-2.83D-01 OVMax= 8.13D-02

 Cycle   3  Pass 1  IDiag  1:
 RMSU=  2.93D-03    CP:  9.06D-01  9.36D-01
 E= -2159.33789978482     Delta-E=       -0.369256034042 Rises=F Damp=F
 DIIS: error= 3.27D-03 at cycle   3 NSaved=   3.
 NSaved= 3 IEnMin= 3 EnMin= -2159.33789978482     IErMin= 3 ErrMin= 3.27D-03
 ErrMax= 3.27D-03  0.00D+00 EMaxC= 1.00D-01 BMatC= 4.57D-02 BMatP= 8.16D-02
 IDIUse=3 WtCom= 9.67D-01 WtEn= 3.27D-02
 Coeff-Com: -0.658D-01 0.411D+00 0.654D+00
 Coeff-En:   0.000D+00 0.000D+00 0.100D+01
 Coeff:     -0.636D-01 0.398D+00 0.666D+00
 Gap=     0.270 Goal=   None    Shift=    0.000
 RMSDP=1.58D-03 MaxDP=4.21D-01 DE=-3.69D-01 OVMax= 1.71D-02

 Cycle   4  Pass 1  IDiag  1:
 RMSU=  1.18D-03    CP:  9.24D-01  1.07D+00  8.87D-01
 E= -2159.36598833039     Delta-E=       -0.028088545568 Rises=F Damp=F
 DIIS: error= 1.05D-03 at cycle   4 NSaved=   4.
 NSaved= 4 IEnMin= 4 EnMin= -2159.36598833039     IErMin= 4 ErrMin= 1.05D-03
 ErrMax= 1.05D-03  0.00D+00 EMaxC= 1.00D-01 BMatC= 6.35D-03 BMatP= 4.57D-02
 IDIUse=3 WtCom= 9.89D-01 WtEn= 1.05D-02
 Coeff-Com: -0.365D-01 0.127D+00 0.344D+00 0.566D+00
 Coeff-En:   0.000D+00 0.000D+00 0.862D-01 0.914D+00
 Coeff:     -0.361D-01 0.125D+00 0.342D+00 0.569D+00
 Gap=     0.262 Goal=   None    Shift=    0.000
 RMSDP=1.09D-03 MaxDP=3.71D-01 DE=-2.81D-02 OVMax= 6.07D-03

 Cycle   5  Pass 1  IDiag  1:
 RMSU=  3.37D-04    CP:  9.02D-01  1.02D+00  8.86D-01  6.18D-01
 E= -2159.37129066912     Delta-E=       -0.005302338735 Rises=F Damp=F
 DIIS: error= 2.46D-04 at cycle   5 NSaved=   5.
 NSaved= 5 IEnMin= 5 EnMin= -2159.37129066912     IErMin= 5 ErrMin= 2.46D-04
[...]
 0001645,0.00003707,0.00001601,0.00001275,0.00001106,0.00003938,0.00007
 574,0.00042734,0.00032036,-0.00013433,-0.00012517,-0.00019099,-0.00002
 819,-0.00005656,-0.00006428,0.00016826,-0.00006372,0.00004792,-0.00019
 725,-0.00043139,-0.00006959,0.00010317,0.00045749,-0.00004299,-0.00108
 082,0.00074635,0.00080673,0.00035406,-0.00036512,0.00023884,0.00032612
 ,-0.00001892,0.00006109,0.00018117,0.00011192,0.00049420,0.00003578,-0
 .00013655,0.00001763,0.00000195,-0.00063457,0.00022899,-0.00009459,0.0
 0001362,-0.00013585,-0.00002584,0.00001025,-0.00005377,0.00009757,-0.0
 0001485,-0.00012752,-0.00020980,0.00025527,-0.00023061,0.00062000,-0.0
 0005562,-0.00039933,-0.00032392,-0.00051553,0.00030075,0.00024362,-0.0
 0003373,-0.00016470,-0.00002432,0.00008312,0.00005976,-0.00001818,-0.0
 0000990,0.00002208,-0.00139227,0.00096627,-0.00069609,0.00014476,-0.00
 071956,-0.00040774,0.00003672,-0.00006632,0.00010561,-0.00018673,0.000
 04120,0.00002643,0.00012848,0.00005250,-0.00026131,-0.00000747,-0.0000
 0280,0.00002150,0.00002546,-0.00005824,0.00000719,0.00010486,-0.000003
 48,-0.00003378,-0.00007118,-0.00003240,-0.00006889,-0.00005810,-0.0000
 2929,-0.00000349,0.00026270,0.00026801,0.00003409,0.00004406,-0.000005
 34,0.00002963,0.00004668,-0.00002427,-0.00006802,-0.00098042,0.0005629
 0,0.00170042,0.00044655,-0.00034992,0.00028303,-0.00005526,0.00020736,
 -0.00014869,0.00179927,-0.00912563,0.00021713,-0.00055683,-0.00071969,
 0.00045984,0.00056243,0.00031338,-0.00049912,-0.07297160,0.04467950,-0
 .01315844,0.00605714,-0.01932837,0.01006232,0.07758973,-0.00207624,0.0
 0003262,-0.00189457,0.00130512,0.00122709,0.00224195,0.00027381,-0.000
 22109,0.00017806,0.00038234,0.00039126,0.00044774,0.00012962,-0.000079
 90,-0.00116184,0.00010361,0.00117927,0.00175397,-0.00008920,-0.0000327
 1,-0.00015562,0.00003308,-0.00005023,0.00000045,-0.00004044,-0.0000116
 2,-0.00000630,0.00002036,-0.00000939,0.00003637,0.00012186,-0.00007272
 ,-0.00012165,-0.00068717,0.00024602,0.00006353,-0.00079937,0.00001884,
 -0.00017044,-0.00058657,-0.00004192,-0.00051062,-0.00018742,-0.0014914
 8,-0.00116027,0.00948185,-0.00220833,-0.00606087,-0.00041071,-0.000247
 50,0.00045220,-0.00195519,0.00093870,0.00074532,-0.00296297,0.00008056
 ,-0.00472377,-0.00280084,0.00397132,0.00390278,0.00009039,-0.00013592,
 -0.00007033,0.00006447,0.00005211,0.00002884,0.00005668,-0.00004359,0.
 00007792,0.00031169,-0.00043354,0.00021979,-0.00053833,0.00068476,-0.0
 0030784,0.00011194,0.00001787,0.00022416,-0.00028122,0.00023957,0.0007
 8456,-0.00004064,0.00021659,-0.00007523,-0.00029543,0.00013857,-0.0000
 3725,0.00005070,-0.00009730,0.00003566,-0.00006807,0.00018799,0.000021
 79,0.00005064,-0.00004837,-0.00002924,-0.00003376,-0.00006431,-0.00003
 568,0.00002880,-0.00003394,0.00001245,0.00009069,-0.00033050,-0.000088
 56,0.00016100,-0.00031165,-0.00019690,0.00055333,-0.00050514,0.0006138
 6,0.00002277,0.00001457,-0.00001790,-0.00006406,-0.00008302,-0.0000233
 6,0.00004820,0.00003571,0.00001131,0.00049441,-0.00092277,0.00007193,0
 .00017441,0.00081155,0.00010983,0.00006921,0.00024187,0.00015411,-0.00
 014519,0.00020735,0.00005947,-0.00040463,0.00038192,0.00153225,0.00121
 040,0.00038345,-0.00182855,0.00005872,0.00021899,0.00021060,-0.0000635
 0,0.00082881,-0.00032618,-0.00022614,0.00015328,-0.00043001,-0.0006697
 7,-0.00012698,-0.00121202,-0.00013814,-0.00003364,0.00023951,-0.000177
 82,0.00058127,-0.00000918,0.00002773,-0.00012304,-0.00000899,-0.000032
 95,-0.00002227,0.00023383,-0.00001532,0.00039119,-0.00018280,0.0002560
 0,-0.00104664,0.00003774,-0.00014398,-0.00066446,0.00021050,-0.0014520
 5,-0.00003757,0.00127917,0.00116243,-0.00073987,-0.00063166,-0.0001476
 5,0.00000918,0.00006173,-0.00017106,0.00029046,0.00015797,0.00144325,0
 .00168081,0.00263459,-0.00131750,0.00090802,-0.00039796,-0.00010748,0.
 00014912,0.00009464,-0.00002984,0.00038132,-0.00004317,0.00044592,-0.0
 0003420,0.00002179,-0.00002913,-0.00003896,-0.00003290,-0.00008311,0.0
 0006385,0.00012134,0.00003163,-0.00016872,-0.00009053,-0.00001936,-0.0
 0024889,-0.00015190,-0.00017028,0.00009445,-0.00001274,0.00029497,0.00
 002445,-0.00006225,0.00019136,0.00010447,0.00022524,-0.00012699,0.0002
 2023,-0.00006373,0.00071771,-0.00022809,-0.00281987,-0.00038301,0.0009
 4508,-0.00076783,-0.00000258,0.00000122,0.00019232,-0.00402747,0.00537
 703,0.00606709,0.00023705,0.00009984,-0.00063953,-0.00008577,0.0007719
 5,-0.00199106,0.05056691,-0.31558576,0.07992835,0.00180402,-0.01913637
 ,0.00181044,-0.05153025,0.32417873,0.00036029,-0.00012139,0.00013627,-
 0.00034867,-0.00008929,-0.00050457,-0.00009244,0.00005764,-0.00004261,
 -0.00010770,-0.00006003,-0.00010252,-0.00012367,-0.00008766,0.00040247
 ,0.00029089,0.00017038,-0.00035919,0.00001299,0.00000556,0.00002875,-0
 .00000204,0.00000823,-0.00000020,0.00000027,-0.00000728,0.00000526,0.0
 0004032,0.00002286,-0.00004360,-0.00021766,-0.00005155,0.00010053,0.00
 023432,-0.00009735,-0.00011866,0.00023693,-0.00001820,0.00000342,0.000
 16921,-0.00000906,0.00009414,0.00014440,0.00021803,0.00021294,-0.00350
 697,-0.00195021,0.00304924,0.00075881,-0.00018908,-0.00063256,0.001221
 43,-0.00045912,-0.00063931,0.00403657,-0.00368276,-0.00624833,-0.00044
 389,0.00196005,-0.00109234,-0.00001006,0.00002610,0.00004612,-0.000024
 33,-0.00001414,0.00000187,-0.00002692,0.00001983,-0.00001720,0.0001263
 5,0.00018293,-0.00006636,-0.00017633,-0.00018547,0.00000893,-0.0000216
 3,0.00000219,-0.00027318,-0.00002546,-0.00001367,-0.00011674,-0.000037
 68,-0.00005636,-0.00000425,-0.00004710,-0.00002847,-0.00000171,0.00001
 508,0.00003546,0.00000836,0.00000388,0.00002587,0.00002408,0.00000403,
 0.00000234,0.00000898,0.00000410,0.00001340,-0.00000134,0.00001090,0.0
 0001531,0.00000875,0.00006778,0.00005818,0.00001674,-0.00002468,0.0000
 1775,0.00017292,-0.00006003,0.00033008,0.00023461,0.00000202,-0.000051
 10,-0.00001938,0.00001217,0.00003088,0.00001251,0.00000451,-0.00000429
 ,0.00000733,-0.00001723,0.00032050,-0.00001148,-0.00017237,-0.00018195
 ,-0.00003449,-0.00004176,-0.00004091,-0.00002474,0.00001386,-0.0000211
 3,-0.00008165,0.00006220,0.00035376,-0.00120607,-0.00010460,-0.0004233
 6,0.00113690,0.00076452,-0.00057210,-0.00070298,0.00003155,-0.00001852
 ,-0.00003823,0.00054965,-0.00067097,-0.00045456,0.00040307,-0.00020440
 ,0.00041965,0.00000151,0.00008040,-0.00015774,0.00036827,0.00035178,0.
 00011170,-0.00005397,0.00000582,0.00009349,-0.00004513,0.00008032,-0.0
 0010800,-0.00034683,-0.00003539,-0.00011259,-0.00012135,0.00018776,0.0
 0012156,-0.00061888,0.00024785,0.00010261,0.00064883,0.00012008,-0.001
 00156,-0.00032423,0.00016292,0.00015311,0.00005083,0.00009864,0.000019
 93,0.00004209,-0.00008155,-0.00004521,-0.00113737,0.00063795,-0.001677
 87,0.00013248,-0.00069504,-0.00017475,0.00006165,0.00002129,-0.0000472
 3,0.00008543,-0.00012993,0.00011447,-0.00022659,-0.00001048,0.00015370
 ,0.00001311,0.00005216,-0.00001980,0.00002814,-0.00004078,-0.00004876,
 -0.00015156,-0.00015935,-0.00005527,0.00003631,0.00020796,0.00015557,0
 .00015532,-0.00002064,0.00000939,0.00032890,-0.00025050,0.00015491,-0.
 00025154,-0.00013017,0.00001227,0.00006565,-0.00012238,0.00006543,0.00
 249383,-0.00120594,-0.00614711,-0.00062101,0.00151483,-0.00043463,0.00
 025476,-0.00013748,0.00007022,-0.00739393,0.03196973,-0.01112662,0.000
 41783,-0.00002461,0.00071390,-0.00100649,-0.00012922,0.00102206,-0.014
 08862,0.07651322,-0.08607368,0.00831567,-0.01839452,0.01098877,0.01074
 257,-0.07760380,0.09722226,0.00025234,-0.00015756,0.00046141,-0.000226
 18,-0.00013943,-0.00034584,-0.00004455,0.00004214,-0.00006536,-0.00010
 446,-0.00001338,-0.00004603,-0.00008119,0.00010408,0.00009074,-0.00001
 429,0.00019956,-0.00030175,0.00002107,-0.00000515,0.00003823,-0.000002
 22,0.00000285,0.00000164,-0.00000666,-0.00000969,-0.00001124,-0.000034
 01,-0.00001434,0.00003724,-0.00008096,-0.00006866,-0.00005126,0.000119
 67,-0.00016424,0.00000034,0.00014596,-0.00005008,0.00003593,0.00010655
 ,-0.00001103,0.00012044,-0.00000109,0.00014740,0.00029818,-0.00060877,
 0.00028703,0.00023645,-0.00003500,0.00008907,0.00008887,0.00012372,-0.
 00008350,-0.00000701,0.00027068,-0.00179364,0.00061099,0.00031298,-0.0
 0019235,-0.00025025,-0.00002978,0.00003622,-0.00000631,-0.00002065,0.0
 0000886,-0.00001337,-0.00001337,0.00001547,-0.00002091,-0.00022345,-0.
 00006137,0.00017582,0.00043697,-0.00004467,-0.00010953,0.00003790,0.00
 007675,-0.00013664,0.00008867,-0.00005827,-0.00021497,0.00000311,0.000
 01720,-0.00000735,0.00008678,-0.00001108,-0.00001486,-0.00003314,0.000
 00723,0.00001259,0.00004134,-0.00000867,0.00000182,-0.00000994,-0.0000
 0084,0.00001143,0.00000839,0.00000224,0.00002126,-0.00001597,0.0000050
 8,0.00002111,-0.00002872,0.00001003,0.00005362,-0.00021742,-0.00003276
 ,0.00009408,-0.00053623,0.00016576,-0.00012982,-0.00011009,-0.00014079
 ,-0.00020976,-0.00000554,0.00000879,0.00000153,0.00001880,0.00001146,0
 .00003506,0.00023758,0.00003368,0.00027724,-0.00001901,0.00003798,-0.0
 0010216,-0.00001279,-0.00001767,-0.00004419,0.00018888,-0.00004687,0.0
 0006718,-0.00492887,0.00131381,0.00166353,0.00477479,0.00179948,0.0095
 3398,-0.00002298,-0.00071053,-0.00028274,0.00048722,0.00002538,0.00029
 466,0.00050824,-0.00019177,-0.00018417,0.00017124,-0.00029042,0.000349
 84,-0.00075124,-0.00059916,-0.00103647,0.00018558,-0.00004043,0.000437
 63,-0.00009807,0.00000283,0.00001975,-0.00009506,0.00006913,0.00008587
 ,-0.00014173,0.00015503,-0.00003509,-0.00044169,0.00037140,-0.00039450
 ,-0.00042460,0.00040430,-0.00034262,0.00600344,-0.00266569,-0.00477504
 ,0.00069776,-0.00079756,-0.00108652,-0.00005040,0.00008467,0.00003235,
 -0.00019165,0.00008269,0.00017869,0.00082717,0.00075688,0.00149397,-0.
 00028240,0.00031249,-0.00000742,0.00006899,-0.00010127,0.00012914,-0.0
 0017263,-0.00053177,0.00028706,-0.00213982,0.00483488,-0.00382907,0.00
 007749,-0.00031780,0.00033085,0.00031865,-0.00098346,0.00032903,-0.000
 13867,0.00074797,0.00033055,0.00004045,-0.00004860,-0.00031704,-0.0002
 8079,-0.00022777,0.00022099,0.00196751,0.00068932,0.00045013,-0.000808
 50,-0.00079962,-0.00122249,-0.00034125,-0.00042214,0.00012373,0.000768
 92,-0.00044110,-0.00099004,-0.00047819,0.00053231,-0.00021918,-0.00021
 543,-0.00007538,0.00012992,-0.00162917,-0.00141397,0.00735759,0.001483
 51,0.00058175,-0.00107154,0.00024458,-0.00000551,-0.00062021,-0.369871
 98,0.06353105,0.05349806,-0.01848861,0.00342647,0.00109812,-0.00339482
 ,0.00293949,-0.00180457,0.38677707,-0.00013072,0.00001113,-0.00015411,
 0.00010473,0.00010035,0.00016247,0.00002182,-0.00001682,0.00002949,0.0
 0004001,0.00002126,0.00002816,0.00000412,-0.00003316,-0.00005124,-0.00
 003861,0.00007145,0.00015208,-0.00000525,-0.00000114,-0.00001139,0.000
 00318,-0.00000360,-0.00000079,-0.00000230,0.00000053,0.00000284,0.0000
 1093,0.00000260,-0.00000877,-0.00000147,-0.00001673,-0.00000530,-0.000
 04925,0.00003350,-0.00001431,-0.00006516,0.00000893,-0.00001895,-0.000
 04806,-0.00000419,-0.00005469,-0.00000558,-0.00011262,-0.00011770,0.00
 028816,0.00018404,-0.00033377,-0.00000847,0.00002979,0.00004230,-0.000
 07175,0.00002582,0.00001714,-0.00140620,-0.00074642,0.00091737,0.00004
 913,-0.00028923,0.00008413,0.00001411,-0.00001439,0.00000285,0.0000089
 2,0.00000114,0.00000502,0.00000594,-0.00000357,0.00000864,0.00008504,-
 0.00005294,-0.00002020,-0.00018541,0.00006073,0.00001736,0.00004180,0.
 00002116,0.00003135,-0.00003208,0.00001964,0.00008353,-0.00000666,0.00
 002014,-0.00000098,-0.00006449,0.00000824,0.00000564,0.00002302,-0.000
 01116,0.00000286,-0.00000189,0.00000691,0.00000086,0.00000839,-0.00000
 527,-0.00000374,-0.00000343,-0.00000228,-0.00000743,0.00000702,-0.0000
 0299,-0.00000661,0.00001546,-0.00003205,-0.00001734,-0.00000530,-0.000
 04670,-0.00002469,0.00020720,-0.00031924,0.00018539,0.00003452,0.00006
 233,0.00006185,-0.00000695,-0.00001020,0.00000113,-0.00000348,-0.00000
 534,-0.00001183,-0.00003428,-0.00008680,-0.00009227,0.00001137,0.00003
 010,0.00002634,0.00000649,0.00001943,0.00001947,0.00001479,0.00002556,
 0.00002558,0.00127794,-0.00087197,0.00111058,0.00208272,0.00172026,-0.
 00265028,-0.00156573,0.00144084,0.00104296,0.00038437,-0.00019452,-0.0
 0009724,-0.00000819,0.00054270,0.00005945,-0.00165611,0.00000880,-0.00
 092810,-0.00020358,-0.00019197,0.00019560,0.00049756,-0.00064046,0.000
 07002,-0.00006131,-0.00000927,-0.00019954,0.00023769,0.00004088,0.0003
 8457,0.00009336,-0.00007413,-0.00000338,-0.00001625,-0.00020698,-0.000
 03038,0.00066543,-0.00064485,-0.00022781,-0.00231573,-0.00266572,0.001
 90319,-0.00083018,0.00029548,0.00015071,-0.00002027,-0.00015267,-0.000
 02024,0.00019299,-0.00009836,-0.00014719,0.00034490,-0.00155075,-0.001
 69132,-0.00004467,0.00010755,0.00003282,-0.00000633,0.00000070,0.00008
 838,-0.00020369,0.00033238,0.00002865,0.00221227,-0.00112283,-0.000521
 70,-0.00016170,-0.00007249,0.00001219,0.00002731,-0.00011144,0.0001366
 8,0.00147414,-0.00047297,0.00041965,-0.00014826,-0.00131856,-0.0003248
 8,-0.00053619,-0.00003921,-0.00034674,0.00035277,0.00095373,0.00061413
 ,-0.00005230,-0.00003898,0.00018122,-0.00007758,-0.00010448,-0.0002710
 1,-0.00144880,0.00032991,0.00112664,0.00017522,-0.00019092,-0.00022939
 ,-0.00008652,-0.00033491,0.00010557,-0.00696933,0.00143526,-0.00070273
 ,-0.00051956,0.00007193,0.00222115,0.00062458,-0.00033494,-0.00043701,
 0.06401848,-0.07103676,-0.00936790,-0.02222020,0.00741514,0.00760473,0
 .03584157,-0.00346093,-0.00764840,-0.07018023,0.07229757,-0.00011918,0
 .00007699,-0.00034107,0.00012462,0.00019750,0.00026028,0.00000874,-0.0
 0001430,0.00002984,0.00002318,0.00001938,0.00004607,0.00006243,-0.0000
 0740,-0.00003335,-0.00001765,-0.00018407,0.00019059,-0.00001660,0.0000
 0316,-0.00002380,0.00000719,-0.00000584,-0.00000172,0.00000013,-0.0000
 0137,0.00000592,0.00001440,0.00000395,-0.00002182,0.00006843,0.0000527
 4,0.00004579,-0.00006307,0.00004664,-0.00002683,-0.00003584,0.00000736
 ,-0.00004362,-0.00002563,-0.00001721,-0.00007720,0.00006109,-0.0002005
 1,-0.00026174,0.00024704,-0.00028607,-0.00009195,0.00004158,-0.0000293
 0,-0.00006336,-0.00002114,0.00002090,0.00001687,0.00031994,0.00121519,
 -0.00081099,-0.00023835,0.00033121,0.00021917,0.00001407,-0.00000657,0
 .00001812,-0.00000191,-0.00000029,0.00001365,-0.00000830,0.00000373,0.
 00001215,0.00041416,0.00003920,-0.00011381,-0.00075609,0.00010406,0.00
 001157,0.00003691,-0.00003277,0.00000132,-0.00013208,0.00006701,0.0002
 1439,-0.00005140,0.00001306,-0.00001525,-0.00023110,0.00001214,-0.0000
 0274,0.00007421,-0.00001523,0.00001400,-0.00004307,0.00004143,0.000040
 02,0.00002324,-0.00001156,-0.00001050,-0.00001090,-0.00000389,-0.00002
 526,0.00003321,0.00000377,0.00000051,0.00011763,-0.00005031,-0.0000334
 7,0.00017261,-0.00005071,0.00001525,0.00070139,-0.00024755,0.00059605,
 0.00004614,0.00007362,0.00012518,-0.00001420,-0.00000837,0.00000136,0.
 00000252,-0.00001389,-0.00002781,-0.00002909,-0.00010086,-0.00019821,-
 0.00000319,0.00000948,0.00008880,-0.00001332,0.00003234,0.00003804,-0.
 00016115,0.00008688,-0.00010483,0.00133289,0.00072901,0.00091349,0.005
 73012,-0.00149447,-0.00362193,0.00112407,-0.00026029,-0.00102256,-0.00
 029449,0.00043042,-0.00041798,-0.00018307,0.00015427,-0.00038919,-0.00
 211682,-0.00012835,-0.00185195,-0.00043333,0.00014623,0.00006060,0.000
 04060,0.00102369,-0.00021940,0.00007119,-0.00001401,0.00012560,0.00031
 254,0.00011221,0.00057687,-0.00014336,0.00000540,0.00008960,0.00018159
 ,-0.00045633,0.00037697,-0.00096653,-0.00042399,0.00051726,-0.00302241
 ,0.00187052,-0.00309941,-0.00115734,0.00014421,0.00051352,0.00003283,-
 0.00006508,-0.00002953,0.00025422,-0.00009434,-0.00019930,0.00060890,-
 0.00163332,-0.00212717,-0.00000995,0.00018206,0.00008743,0.00000669,0.
 00010846,-0.00010727,0.00021758,0.00015548,0.00011032,-0.00021423,-0.0
 0191628,0.00231676,-0.00018817,0.00024407,-0.00019986,0.00001023,0.000
 34949,-0.00036021,-0.00058304,0.00134722,0.00057977,-0.00015753,0.0000
 4268,0.00022345,0.00024574,-0.00013235,-0.00032587,0.00072373,0.001897
 94,0.00081101,-0.00171853,-0.00114785,-0.00077844,-0.00013830,-0.00099
 266,0.00019671,0.00074291,0.00079452,0.00101654,0.00006942,-0.00063275
 ,0.00043056,-0.00023238,0.00002917,-0.00002448,0.03621940,-0.00628592,
 -0.00698647,0.00007669,0.00031893,-0.00610442,-0.00007105,-0.00060794,
 0.00029470,0.05466023,-0.00922800,-0.06664830,-0.01879337,0.00800800,0
 .00707583,-0.01199790,-0.00115225,0.00264290,-0.06086132,0.00739856,0.
 07587827\\-0.00000035,0.00000041,-0.00000905,0.00000825,0.00001006,0.0
 0000473,0.00000519,0.00000215,0.00000618,0.00000538,0.00000257,-0.0000
 0131,0.00000185,-0.00001288,-0.00000367,-0.00000507,-0.00000721,0.0000
 1546,0.00000351,0.00000012,0.00000354,-0.00000097,-0.00000052,0.000001
 22,0.00000017,0.00000202,-0.00000078,-0.00000282,0.00000107,-0.0000013
 5,0.00000132,0.00000216,-0.00000106,-0.00000509,0.00000980,-0.00000387
 ,-0.00000071,0.00000091,0.00000118,-0.00000100,0.00000402,-0.00000600,
 -0.00001550,-0.00000169,-0.00000160,-0.00000096,0.00000491,0.00000386,
 -0.00000127,-0.00000401,-0.00000081,0.00000048,-0.00000375,0.00000357,
 0.00000521,-0.00000194,-0.00000656,-0.00000411,0.00000189,0.00000309,0
 .00000496,-0.00000197,0.00000657,0.00000352,-0.00000023,0.00000197,0.0
 0000134,0.00000100,0.00000364,0.00000248,0.00000780,0.,0.00000367,0.00
 000252,0.00000055,0.00000074,-0.00000577,0.00000442,0.00000741,0.00000
 158,-0.00001049,0.00000678,0.00000286,0.00000105,-0.00000838,0.0000068
 3,-0.00000115,0.00000184,0.00000077,0.00000075,0.00000090,0.00000034,0
 .00000047,-0.00000006,0.00000147,0.00000219,-0.00000080,0.00000360,0.0
 0000032,0.00000136,0.00000326,-0.00000174,-0.00000031,0.00000555,0.000
 00166,0.00000785,0.00000838,0.00000321,-0.00000055,0.00000759,-0.00001
 232,-0.00000314,-0.00000088,-0.00001018,0.00000160,0.00000273,-0.00000
 373,0.00000204,0.00000206,-0.00000012,0.00000324,0.00000195,-0.0000054
 3,0.00000704,-0.00000561,0.00001087,0.00000437,0.00000089,-0.00000448,
 -0.00001568,-0.00000015,-0.00000861,-0.00000156,-0.00000098,0.00000299
 ,0.00001065,0.00000528,-0.00000565,-0.00001000,-0.00000800,-0.00000007
 ,-0.00000002,-0.00000521,0.00000183,0.00000439,-0.00000262,0.00001629,
 -0.00001107,0.00000195,-0.00000971,-0.00000301,-0.00000118,0.00000239,
 0.00000227,-0.00000093,-0.00000087,-0.00000029,0.00000205,0.00000100,0
 .00000030,0.00000104,0.00000047,0.00000043,0.00000197,-0.00000352,0.00
 001451,0.00000813,0.00000773,0.00000553,0.00000352,0.00000297,-0.00001
 528,0.00000761,0.00000069,0.00000460,-0.00000834,-0.00000490,-0.000002
 79,0.00000113,-0.00000295,0.00000114,0.00000366,-0.00000170,-0.0000011
 5,0.00000455,-0.00000147,-0.00000513,-0.00000064,-0.00000006,0.0000003
 2,-0.00000305,0.00000446,-0.00000098,-0.00000303,0.00000064,0.00000163
 ,-0.00001669,0.00000719,-0.00000257,-0.00000291,-0.00000120,-0.0000032
 7,-0.00000080,0.00000005,0.00000095,0.00000254,-0.00000459,-0.00000066
 ,-0.00000306,-0.00000046,-0.00000132,-0.00000323,-0.00000168,-0.000003
 86,-0.00000464,0.00000108,-0.00000228,-0.00000416,0.00000135,-0.000004
 44,-0.00000515,-0.00000127,-0.00000049,-0.00000032,-0.00000393,-0.0000
 0202,-0.00000345,-0.00000112,-0.00000204,-0.00000296,-0.00000083,-0.00
 000284,-0.00000434,0.00000219,-0.00000076,-0.00000328,-0.00000045,-0.0
 0000187,-0.00000389,-0.00000052,0.00000049,0.00000304,-0.00000599,0.00
 000334,0.00000332,0.00000530,-0.00000320,-0.00000846,0.00000725,0.0000
 0662,-0.00000510,0.00000092\\\@


 IF YOU WISH TO UNDERSTAND THE FRAGRANCE OF THE ROSE, 
 OR THE TENACITY OF THE OAK; 
 IF YOU ARE NOT SATISFIED UNTIL YOU KNOW THE SECRET PATHS 
 BY WHICH THE SUNSHINE AND THE AIR ACHIEVE THESE WONDERS; 
 IF YOU WISH TO SEE THE PATTERN WHICH UNDERLIES ONE LARGE FIELD OF 
 HUMAN EXPERIENCE AND HUMAN MEASUREMENT, THEN TAKE UP CHEMISTRY.

                                         -- C. A. COULSON, 1973.
 Job cpu time:      19 days  4 hours 59 minutes 44.1 seconds.
 File lengths (MBytes):  RWF=  17365 Int=      0 D2E=      0 Chk=     98 Scr=      1
 Normal termination of Gaussian 09 at Fri Apr  8 23:37:27 2016.
