 Entering Gaussian System, Link 0=g09
 Initial command:
 /share/apps//g09/l1.exe "/scratch/Gau-32100.inp" -scrdir="/scratch/"
 Entering Link 1 = /share/apps//g09/l1.exe PID=     32102.
  
 Copyright (c) 1988,1990,1992,1993,1995,1998,2003,2009,2013,
            Gaussian, Inc.  All Rights Reserved.
  
 This is part of the Gaussian(R) 09 program.  It is based on
 the Gaussian(R) 03 system (copyright 2003, Gaussian, Inc.),
 the Gaussian(R) 98 system (copyright 1998, Gaussian, Inc.),
 the Gaussian(R) 94 system (copyright 1995, Gaussian, Inc.),
 the Gaussian 92(TM) system (copyright 1992, Gaussian, Inc.),
 the Gaussian 90(TM) system (copyright 1990, Gaussian, Inc.),
 the Gaussian 88(TM) system (copyright 1988, Gaussian, Inc.),
 the Gaussian 86(TM) system (copyright 1986, Carnegie Mellon
 University), and the Gaussian 82(TM) system (copyright 1983,
 Carnegie Mellon University). Gaussian is a federally registered
 trademark of Gaussian, Inc.
  
 This software contains proprietary and confidential information,
 including trade secrets, belonging to Gaussian, Inc.
  
 This software is provided under written license and may be
 used, copied, transmitted, or stored only in accord with that
 written license.
  
 The following legend is applicable only to US Government
 contracts under FAR:
  
                    RESTRICTED RIGHTS LEGEND
  
 Use, reproduction and disclosure by the US Government is
 subject to restrictions as set forth in subparagraphs (a)
 and (c) of the Commercial Computer Software - Restricted
 Rights clause in FAR 52.227-19.
  
 Gaussian, Inc.
 340 Quinnipiac St., Bldg. 40, Wallingford CT 06492
  
  
 ---------------------------------------------------------------
 Warning -- This program may not be used in any manner that
 competes with the business of Gaussian, Inc. or will provide
 assistance to any competitor of Gaussian, Inc.  The licensee
 of this program is prohibited from giving any competitor of
 Gaussian, Inc. access to this program.  By using this program,
 the user acknowledges that Gaussian, Inc. is engaged in the
 business of creating and licensing software in the field of
 computational chemistry and represents and warrants to the
 licensee that it is not a competitor of Gaussian, Inc. and that
 it will not use this program in any manner prohibited above.
 ---------------------------------------------------------------
  

 Cite this work as:
 Gaussian 09, Revision D.01,
 M. J. Frisch, G. W. Trucks, H. B. Schlegel, G. E. Scuseria, 
 M. A. Robb, J. R. Cheeseman, G. Scalmani, V. Barone, B. Mennucci, 
 G. A. Petersson, H. Nakatsuji, M. Caricato, X. Li, H. P. Hratchian, 
 A. F. Izmaylov, J. Bloino, G. Zheng, J. L. Sonnenberg, M. Hada, 
 M. Ehara, K. Toyota, R. Fukuda, J. Hasegawa, M. Ishida, T. Nakajima, 
 Y. Honda, O. Kitao, H. Nakai, T. Vreven, J. A. Montgomery, Jr., 
 J. E. Peralta, F. Ogliaro, M. Bearpark, J. J. Heyd, E. Brothers, 
 K. N. Kudin, V. N. Staroverov, T. Keith, R. Kobayashi, J. Normand, 
 K. Raghavachari, A. Rendell, J. C. Burant, S. S. Iyengar, J. Tomasi, 
 M. Cossi, N. Rega, J. M. Millam, M. Klene, J. E. Knox, J. B. Cross, 
 V. Bakken, C. Adamo, J. Jaramillo, R. Gomperts, R. E. Stratmann, 
 O. Yazyev, A. J. Austin, R. Cammi, C. Pomelli, J. W. Ochterski, 
 R. L. Martin, K. Morokuma, V. G. Zakrzewski, G. A. Voth, 
 P. Salvador, J. J. Dannenberg, S. Dapprich, A. D. Daniels, 
 O. Farkas, J. B. Foresman, J. V. Ortiz, J. Cioslowski, 
 and D. J. Fox, Gaussian, Inc., Wallingford CT, 2013.
 
 ******************************************
 Gaussian 09:  EM64L-G09RevD.01 24-Apr-2013
                 6-Apr-2016 
 ******************************************
 %nproc=20
 Will use up to   20 processors via shared memory.
 %mem=80GB
 %chk=Tri_A131_of.chk
 ----------------------------------------------------------------------
 #P PBE1PBE/6-311+G(d,p) opt=ModRedundant freq optcyc=999 EmpiricalDisp
 ersion=GD3
 ----------------------------------------------------------------------
 1/6=999,14=-1,18=120,19=15,26=3,38=1/1,3;
 2/9=110,12=2,17=6,18=5,40=1/2;
 3/5=4,6=6,7=111,11=2,16=1,25=1,30=1,71=1,74=-13,124=31/1,2,3;
 4//1;
 5/5=2,38=5/2;
 6/7=2,8=2,9=2,10=2,28=1/1;
 7//1,2,3,16;
 1/6=999,14=-1,18=20,19=15,26=3/3(2);
 2/9=110/2;
 99//99;
 2/9=110/2;
 3/5=4,6=6,7=111,11=2,16=1,25=1,30=1,71=1,74=-13,124=31/1,2,3;
 4/5=5,16=3,69=1/1;
 5/5=2,38=5/2;
 7//1,2,3,16;
 1/6=999,14=-1,18=20,19=15,26=3/3(-5);
 2/9=110/2;
 6/7=2,8=2,9=2,10=2,19=2,28=1/1;
 99/9=1/99;
 Leave Link    1 at Wed Apr  6 15:55:04 2016, MaxMem= 10737418240 cpu:         2.2
 (Enter /share/apps//g09/l101.exe)
 -------
 disacch
 -------
 Symbolic Z-matrix:
 Charge =  1 Multiplicity = 1
 O                    -0.95013  -2.57197   9.31167 
 C                    -1.87114  -1.49069   9.15233 
 C                    -1.50999  -0.34806   10.11076 
 C                    -0.03396   0.06087   9.98884 
 C                     0.8986   -1.16165   10.0785 
 C                     0.43261  -2.19435   9.05638 
 H                    -2.86065  -1.90426   9.40201 
 H                    -1.67159  -0.73776   11.12728 
 H                     0.13004   0.54525   9.00295 
 H                     1.91848  -0.83168   9.79013 
 H                     0.4871   -1.71647   8.06181 
 O                     0.90129  -1.74161   11.37158 
 O                     0.33926   0.94589   11.03772 
 O                    -2.37889   0.77212   9.9783 
 O                    -1.86362  -0.9837    7.82236 
 C                     1.26255  -3.46751   8.96735 
 H                     2.32389  -3.20902   9.09497 
 H                     0.98647  -4.16511   9.77098 
 O                     1.12294  -4.09316   7.67758 
 H                     0.43402  -4.81278   7.7167 
 H                     0.99589  -1.00222   12.00313 
 H                    -0.38268   1.59336   11.14815 
 H                    -2.41133   1.00581   9.03075 
 O                    -2.26896  -3.26913   4.29898 
 C                    -2.79893  -3.87916   5.46301 
 C                    -2.14714  -3.27102   6.72382 
 C                    -2.47772  -1.76526   6.76105 
 C                    -1.91685  -1.10509   5.48412 
 C                    -2.34221  -1.84034   4.20801 
 H                    -3.89905  -3.77266   5.52015 
 H                    -1.05445  -3.38105   6.63534 
 H                    -3.5736   -1.635     6.82392 
 H                    -2.32615  -0.07987   5.41564 
 H                    -3.38834  -1.54041   3.99941 
 O                    -0.48588  -1.03781   5.56621 
 O                    -2.63386  -4.02125   7.83769 
 O                    -2.60054  -5.26989   5.33928 
 C                    -1.47546  -1.48665   2.97983 
 H                    -2.04388  -1.72549   2.06749 
 H                    -1.25801  -0.40987   2.9767 
 O                    -0.23007  -2.18666   2.9687 
 H                    -0.42197  -3.09862   2.6363 
 H                    -0.31241  -0.58148   6.41023 
 H                    -2.04432  -3.76073   8.58597 
 O                    -0.12556  -7.33204   3.51925 
 C                     0.98307  -7.1583    4.3703 
 C                     0.66202  -7.11601   5.87783 
 C                    -0.77054  -6.63973   6.15849 
 C                    -1.26111  -5.71594   5.04156 
 C                    -1.32072  -6.53554   3.74062 
 H                     1.61498  -8.04005   4.18315 
 H                     1.36012  -6.3916    6.3345 
 H                    -1.43263  -7.52412   6.18256 
 H                    -2.15065  -7.25501   3.86318 
 H                    -0.60446  -4.84576   4.91462 
 O                    -0.77413  -6.0191    7.45274 
 O                     0.91178  -8.42754   6.37181 
 O                     1.7397   -5.96816   4.054 
 C                    -1.6196   -5.73127   2.47923 
 H                    -1.7727   -6.42988   1.64259 
 H                    -2.53982  -5.15348   2.62538 
 O                    -0.59037  -4.78533   2.13979 
 H                     0.15704  -5.28413   1.77016 
 H                    -1.66093  -5.59692   7.59437 
 H                     0.76925  -8.42358   7.33519 
 C                     2.54183  -6.11311   2.8564 
 H                     3.33858  -6.85181   3.05666 
 H                     1.9118   -6.52057   2.0462 
 C                     3.13628  -4.77476   2.44 
 H                     2.32926  -4.03307   2.30392 
 H                     3.54931  -4.92627   1.43006 
 C                     4.26939  -4.2081    3.31545 
 H                     5.06321  -4.96786   3.39811 
 H                     4.71967  -3.36799   2.76219 
 C                     3.93545  -3.71061   4.73529 
 H                     3.68089  -4.54864   5.40345 
 H                     4.85074  -3.26671   5.15364 
 C                     2.82969  -2.65252   4.80791 
 H                     2.80084  -2.02858   3.90403 
 H                     2.97021  -1.98257   5.66552 
 N                     1.46682  -3.27338   4.96522 
 H                     0.7245   -2.67897   4.51988 
 H                     1.26339  -3.43406   5.98073 
 H                     1.44902  -4.21576   4.51696 
 
 The following ModRedundant input section has been read:
 B      19      83 B                                                           
 B      41      82 B                                                           
 B      58      84 B                                                           
 B      36      64 B                                                           
 B       1      44 B                                                           
 
 NAtoms=     84 NQM=       84 NQMF=       0 NMMI=      0 NMMIF=      0
                NMic=       0 NMicF=      0.
                    Isotopes and Nuclear Properties:
 (Nuclear quadrupole moments (NQMom) in fm**2, nuclear magnetic moments (NMagM)
  in nuclear magnetons)

  Atom         1           2           3           4           5           6           7           8           9          10
 IAtWgt=          16          12          12          12          12          12           1           1           1           1
 AtmWgt=  15.9949146  12.0000000  12.0000000  12.0000000  12.0000000  12.0000000   1.0078250   1.0078250   1.0078250   1.0078250
 NucSpn=           0           0           0           0           0           0           1           1           1           1
 AtZEff=   0.0000000   0.0000000   0.0000000   0.0000000   0.0000000   0.0000000   0.0000000   0.0000000   0.0000000   0.0000000
 NQMom=    0.0000000   0.0000000   0.0000000   0.0000000   0.0000000   0.0000000   0.0000000   0.0000000   0.0000000   0.0000000
 NMagM=    0.0000000   0.0000000   0.0000000   0.0000000   0.0000000   0.0000000   2.7928460   2.7928460   2.7928460   2.7928460
 AtZNuc=   8.0000000   6.0000000   6.0000000   6.0000000   6.0000000   6.0000000   1.0000000   1.0000000   1.0000000   1.0000000

  Atom        11          12          13          14          15          16          17          18          19          20
 IAtWgt=           1          16          16          16          16          12           1           1          16           1
 AtmWgt=   1.0078250  15.9949146  15.9949146  15.9949146  15.9949146  12.0000000   1.0078250   1.0078250  15.9949146   1.0078250
 NucSpn=           1           0           0           0           0           0           1           1           0           1
 AtZEff=   0.0000000   0.0000000   0.0000000   0.0000000   0.0000000   0.0000000   0.0000000   0.0000000   0.0000000   0.0000000
 NQMom=    0.0000000   0.0000000   0.0000000   0.0000000   0.0000000   0.0000000   0.0000000   0.0000000   0.0000000   0.0000000
 NMagM=    2.7928460   0.0000000   0.0000000   0.0000000   0.0000000   0.0000000   2.7928460   2.7928460   0.0000000   2.7928460
 AtZNuc=   1.0000000   8.0000000   8.0000000   8.0000000   8.0000000   6.0000000   1.0000000   1.0000000   8.0000000   1.0000000

  Atom        21          22          23          24          25          26          27          28          29          30
 IAtWgt=           1           1           1          16          12          12          12          12          12           1
 AtmWgt=   1.0078250   1.0078250   1.0078250  15.9949146  12.0000000  12.0000000  12.0000000  12.0000000  12.0000000   1.0078250
 NucSpn=           1           1           1           0           0           0           0           0           0           1
 AtZEff=   0.0000000   0.0000000   0.0000000   0.0000000   0.0000000   0.0000000   0.0000000   0.0000000   0.0000000   0.0000000
 NQMom=    0.0000000   0.0000000   0.0000000   0.0000000   0.0000000   0.0000000   0.0000000   0.0000000   0.0000000   0.0000000
 NMagM=    2.7928460   2.7928460   2.7928460   0.0000000   0.0000000   0.0000000   0.0000000   0.0000000   0.0000000   2.7928460
 AtZNuc=   1.0000000   1.0000000   1.0000000   8.0000000   6.0000000   6.0000000   6.0000000   6.0000000   6.0000000   1.0000000

  Atom        31          32          33          34          35          36          37          38          39          40
 IAtWgt=           1           1           1           1          16          16          16          12           1           1
 AtmWgt=   1.0078250   1.0078250   1.0078250   1.0078250  15.9949146  15.9949146  15.9949146  12.0000000   1.0078250   1.0078250
 NucSpn=           1           1           1           1           0           0           0           0           1           1
 AtZEff=   0.0000000   0.0000000   0.0000000   0.0000000   0.0000000   0.0000000   0.0000000   0.0000000   0.0000000   0.0000000
 NQMom=    0.0000000   0.0000000   0.0000000   0.0000000   0.0000000   0.0000000   0.0000000   0.0000000   0.0000000   0.0000000
 NMagM=    2.7928460   2.7928460   2.7928460   2.7928460   0.0000000   0.0000000   0.0000000   0.0000000   2.7928460   2.7928460
 AtZNuc=   1.0000000   1.0000000   1.0000000   1.0000000   8.0000000   8.0000000   8.0000000   6.0000000   1.0000000   1.0000000

  Atom        41          42          43          44          45          46          47          48          49          50
 IAtWgt=          16           1           1           1          16          12          12          12          12          12
 AtmWgt=  15.9949146   1.0078250   1.0078250   1.0078250  15.9949146  12.0000000  12.0000000  12.0000000  12.0000000  12.0000000
 NucSpn=           0           1           1           1           0           0           0           0           0           0
 AtZEff=   0.0000000   0.0000000   0.0000000   0.0000000   0.0000000   0.0000000   0.0000000   0.0000000   0.0000000   0.0000000
 NQMom=    0.0000000   0.0000000   0.0000000   0.0000000   0.0000000   0.0000000   0.0000000   0.0000000   0.0000000   0.0000000
 NMagM=    0.0000000   2.7928460   2.7928460   2.7928460   0.0000000   0.0000000   0.0000000   0.0000000   0.0000000   0.0000000
 AtZNuc=   8.0000000   1.0000000   1.0000000   1.0000000   8.0000000   6.0000000   6.0000000   6.0000000   6.0000000   6.0000000

  Atom        51          52          53          54          55          56          57          58          59          60
 IAtWgt=           1           1           1           1           1          16          16          16          12           1
 AtmWgt=   1.0078250   1.0078250   1.0078250   1.0078250   1.0078250  15.9949146  15.9949146  15.9949146  12.0000000   1.0078250
 NucSpn=           1           1           1           1           1           0           0           0           0           1
 AtZEff=   0.0000000   0.0000000   0.0000000   0.0000000   0.0000000   0.0000000   0.0000000   0.0000000   0.0000000   0.0000000
 NQMom=    0.0000000   0.0000000   0.0000000   0.0000000   0.0000000   0.0000000   0.0000000   0.0000000   0.0000000   0.0000000
 NMagM=    2.7928460   2.7928460   2.7928460   2.7928460   2.7928460   0.0000000   0.0000000   0.0000000   0.0000000   2.7928460
 AtZNuc=   1.0000000   1.0000000   1.0000000   1.0000000   1.0000000   8.0000000   8.0000000   8.0000000   6.0000000   1.0000000

  Atom        61          62          63          64          65          66          67          68          69          70
 IAtWgt=           1          16           1           1           1          12           1           1          12           1
 AtmWgt=   1.0078250  15.9949146   1.0078250   1.0078250   1.0078250  12.0000000   1.0078250   1.0078250  12.0000000   1.0078250
 NucSpn=           1           0           1           1           1           0           1           1           0           1
 AtZEff=   0.0000000   0.0000000   0.0000000   0.0000000   0.0000000   0.0000000   0.0000000   0.0000000   0.0000000   0.0000000
 NQMom=    0.0000000   0.0000000   0.0000000   0.0000000   0.0000000   0.0000000   0.0000000   0.0000000   0.0000000   0.0000000
 NMagM=    2.7928460   0.0000000   2.7928460   2.7928460   2.7928460   0.0000000   2.7928460   2.7928460   0.0000000   2.7928460
 AtZNuc=   1.0000000   8.0000000   1.0000000   1.0000000   1.0000000   6.0000000   1.0000000   1.0000000   6.0000000   1.0000000

  Atom        71          72          73          74          75          76          77          78          79          80
 IAtWgt=           1          12           1           1          12           1           1          12           1           1
 AtmWgt=   1.0078250  12.0000000   1.0078250   1.0078250  12.0000000   1.0078250   1.0078250  12.0000000   1.0078250   1.0078250
 NucSpn=           1           0           1           1           0           1           1           0           1           1
 AtZEff=   0.0000000   0.0000000   0.0000000   0.0000000   0.0000000   0.0000000   0.0000000   0.0000000   0.0000000   0.0000000
 NQMom=    0.0000000   0.0000000   0.0000000   0.0000000   0.0000000   0.0000000   0.0000000   0.0000000   0.0000000   0.0000000
 NMagM=    2.7928460   0.0000000   2.7928460   2.7928460   0.0000000   2.7928460   2.7928460   0.0000000   2.7928460   2.7928460
 AtZNuc=   1.0000000   6.0000000   1.0000000   1.0000000   6.0000000   1.0000000   1.0000000   6.0000000   1.0000000   1.0000000

  Atom        81          82          83          84
 IAtWgt=          14           1           1           1
 AtmWgt=  14.0030740   1.0078250   1.0078250   1.0078250
 NucSpn=           2           1           1           1
 AtZEff=   0.0000000   0.0000000   0.0000000   0.0000000
 NQMom=    2.0440000   0.0000000   0.0000000   0.0000000
 NMagM=    0.4037610   2.7928460   2.7928460   2.7928460
 AtZNuc=   7.0000000   1.0000000   1.0000000   1.0000000
 Leave Link  101 at Wed Apr  6 15:55:05 2016, MaxMem= 10737418240 cpu:         5.5
 (Enter /share/apps//g09/l103.exe)

 GradGradGradGradGradGradGradGradGradGradGradGradGradGradGradGradGradGrad
 Berny optimization.
 Initialization pass.
                           ----------------------------
                           !    Initial Parameters    !
                           ! (Angstroms and Degrees)  !
 --------------------------                            --------------------------
 ! Name  Definition              Value          Derivative Info.                !
 --------------------------------------------------------------------------------
 ! R1    R(1,2)                  1.4293         estimate D2E/DX2                !
 ! R2    R(1,6)                  1.4559         estimate D2E/DX2                !
 ! R3    R(1,44)                 1.7712         estimate D2E/DX2                !
 ! R4    R(2,3)                  1.5345         estimate D2E/DX2                !
 ! R5    R(2,7)                  1.1011         estimate D2E/DX2                !
 ! R6    R(2,15)                 1.4233         estimate D2E/DX2                !
 ! R7    R(3,4)                  1.5365         estimate D2E/DX2                !
 ! R8    R(3,8)                  1.1006         estimate D2E/DX2                !
 ! R9    R(3,14)                 1.4238         estimate D2E/DX2                !
 ! R10   R(4,5)                  1.5402         estimate D2E/DX2                !
 ! R11   R(4,9)                  1.1106         estimate D2E/DX2                !
 ! R12   R(4,13)                 1.4222         estimate D2E/DX2                !
 ! R13   R(5,6)                  1.5259         estimate D2E/DX2                !
 ! R14   R(5,10)                 1.11           estimate D2E/DX2                !
 ! R15   R(5,12)                 1.4172         estimate D2E/DX2                !
 ! R16   R(6,11)                 1.1048         estimate D2E/DX2                !
 ! R17   R(6,16)                 1.5224         estimate D2E/DX2                !
 ! R18   R(12,21)                0.977          estimate D2E/DX2                !
 ! R19   R(13,22)                0.976          estimate D2E/DX2                !
 ! R20   R(14,23)                0.9765         estimate D2E/DX2                !
 ! R21   R(15,27)                1.4541         estimate D2E/DX2                !
 ! R22   R(16,17)                1.0998         estimate D2E/DX2                !
 ! R23   R(16,18)                1.0994         estimate D2E/DX2                !
 ! R24   R(16,19)                1.4403         estimate D2E/DX2                !
 ! R25   R(19,20)                0.997          estimate D2E/DX2                !
 ! R26   R(19,83)                1.8258         estimate D2E/DX2                !
 ! R27   R(24,25)                1.417          estimate D2E/DX2                !
 ! R28   R(24,29)                1.4336         estimate D2E/DX2                !
 ! R29   R(25,26)                1.5441         estimate D2E/DX2                !
 ! R30   R(25,30)                1.1067         estimate D2E/DX2                !
 ! R31   R(25,37)                1.4102         estimate D2E/DX2                !
 ! R32   R(26,27)                1.5421         estimate D2E/DX2                !
 ! R33   R(26,31)                1.1018         estimate D2E/DX2                !
 ! R34   R(26,36)                1.4284         estimate D2E/DX2                !
 ! R35   R(27,28)                1.543          estimate D2E/DX2                !
 ! R36   R(27,32)                1.1054         estimate D2E/DX2                !
 ! R37   R(28,29)                1.533          estimate D2E/DX2                !
 ! R38   R(28,33)                1.106          estimate D2E/DX2                !
 ! R39   R(28,35)                1.4349         estimate D2E/DX2                !
 ! R40   R(29,34)                1.1081         estimate D2E/DX2                !
 ! R41   R(29,38)                1.5443         estimate D2E/DX2                !
 ! R42   R(35,43)                0.975          estimate D2E/DX2                !
 ! R43   R(36,44)                0.9876         estimate D2E/DX2                !
 ! R44   R(36,64)                1.8678         estimate D2E/DX2                !
 ! R45   R(37,49)                1.4428         estimate D2E/DX2                !
 ! R46   R(38,39)                1.1011         estimate D2E/DX2                !
 ! R47   R(38,40)                1.0985         estimate D2E/DX2                !
 ! R48   R(38,41)                1.4287         estimate D2E/DX2                !
 ! R49   R(41,42)                0.9894         estimate D2E/DX2                !
 ! R50   R(41,82)                1.8867         estimate D2E/DX2                !
 ! R51   R(45,46)                1.4084         estimate D2E/DX2                !
 ! R52   R(45,50)                1.4532         estimate D2E/DX2                !
 ! R53   R(46,47)                1.5419         estimate D2E/DX2                !
 ! R54   R(46,51)                1.1008         estimate D2E/DX2                !
 ! R55   R(46,58)                1.4453         estimate D2E/DX2                !
 ! R56   R(47,48)                1.5355         estimate D2E/DX2                !
 ! R57   R(47,52)                1.1048         estimate D2E/DX2                !
 ! R58   R(47,57)                1.4236         estimate D2E/DX2                !
 ! R59   R(48,49)                1.5302         estimate D2E/DX2                !
 ! R60   R(48,53)                1.105          estimate D2E/DX2                !
 ! R61   R(48,56)                1.4354         estimate D2E/DX2                !
 ! R62   R(49,50)                1.5387         estimate D2E/DX2                !
 ! R63   R(49,55)                1.0975         estimate D2E/DX2                !
 ! R64   R(50,54)                1.1052         estimate D2E/DX2                !
 ! R65   R(50,59)                1.5255         estimate D2E/DX2                !
 ! R66   R(56,64)                0.9923         estimate D2E/DX2                !
 ! R67   R(57,65)                0.9739         estimate D2E/DX2                !
 ! R68   R(58,66)                1.4487         estimate D2E/DX2                !
 ! R69   R(58,84)                1.8357         estimate D2E/DX2                !
 ! R70   R(59,60)                1.1007         estimate D2E/DX2                !
 ! R71   R(59,61)                1.0964         estimate D2E/DX2                !
 ! R72   R(59,62)                1.4385         estimate D2E/DX2                !
 ! R73   R(62,63)                0.9716         estimate D2E/DX2                !
 ! R74   R(66,67)                1.1048         estimate D2E/DX2                !
 ! R75   R(66,68)                1.1043         estimate D2E/DX2                !
 ! R76   R(66,69)                1.5225         estimate D2E/DX2                !
 ! R77   R(69,70)                1.1045         estimate D2E/DX2                !
 ! R78   R(69,71)                1.1016         estimate D2E/DX2                !
 ! R79   R(69,72)                1.54           estimate D2E/DX2                !
 ! R80   R(72,73)                1.1019         estimate D2E/DX2                !
 ! R81   R(72,74)                1.1021         estimate D2E/DX2                !
 ! R82   R(72,75)                1.5411         estimate D2E/DX2                !
 ! R83   R(75,76)                1.1016         estimate D2E/DX2                !
 ! R84   R(75,77)                1.0999         estimate D2E/DX2                !
 ! R85   R(75,78)                1.5322         estimate D2E/DX2                !
 ! R86   R(78,79)                1.0987         estimate D2E/DX2                !
 ! R87   R(78,80)                1.0973         estimate D2E/DX2                !
 ! R88   R(78,81)                1.5059         estimate D2E/DX2                !
 ! R89   R(81,82)                1.0501         estimate D2E/DX2                !
 ! R90   R(81,83)                1.0481         estimate D2E/DX2                !
 ! R91   R(81,84)                1.0437         estimate D2E/DX2                !
 ! A1    A(2,1,6)              113.3428         estimate D2E/DX2                !
 ! A2    A(2,1,44)              93.6689         estimate D2E/DX2                !
 ! A3    A(6,1,44)             133.5476         estimate D2E/DX2                !
 ! A4    A(1,2,3)              110.0014         estimate D2E/DX2                !
 ! A5    A(1,2,7)              105.6433         estimate D2E/DX2                !
 ! A6    A(1,2,15)             111.7302         estimate D2E/DX2                !
 ! A7    A(3,2,7)              110.4595         estimate D2E/DX2                !
 ! A8    A(3,2,15)             108.4901         estimate D2E/DX2                !
 ! A9    A(7,2,15)             110.5118         estimate D2E/DX2                !
 ! A10   A(2,3,4)              112.007          estimate D2E/DX2                !
 ! A11   A(2,3,8)              106.1806         estimate D2E/DX2                !
 ! A12   A(2,3,14)             112.5876         estimate D2E/DX2                !
 ! A13   A(4,3,8)              107.9738         estimate D2E/DX2                !
 ! A14   A(4,3,14)             111.6831         estimate D2E/DX2                !
 ! A15   A(8,3,14)             105.9553         estimate D2E/DX2                !
 ! A16   A(3,4,5)              111.4559         estimate D2E/DX2                !
 ! A17   A(3,4,9)              109.1698         estimate D2E/DX2                !
 ! A18   A(3,4,13)             111.0508         estimate D2E/DX2                !
 ! A19   A(5,4,9)              107.9652         estimate D2E/DX2                !
 ! A20   A(5,4,13)             106.984          estimate D2E/DX2                !
 ! A21   A(9,4,13)             110.1524         estimate D2E/DX2                !
 ! A22   A(4,5,6)              108.2575         estimate D2E/DX2                !
 ! A23   A(4,5,10)             107.7719         estimate D2E/DX2                !
 ! A24   A(4,5,12)             112.2771         estimate D2E/DX2                !
 ! A25   A(6,5,10)             107.9236         estimate D2E/DX2                !
 ! A26   A(6,5,12)             109.5608         estimate D2E/DX2                !
 ! A27   A(10,5,12)            110.9122         estimate D2E/DX2                !
 ! A28   A(1,6,5)              110.3722         estimate D2E/DX2                !
 ! A29   A(1,6,11)             108.4749         estimate D2E/DX2                !
 ! A30   A(1,6,16)             108.1255         estimate D2E/DX2                !
 ! A31   A(5,6,11)             107.1708         estimate D2E/DX2                !
 ! A32   A(5,6,16)             116.0196         estimate D2E/DX2                !
 ! A33   A(11,6,16)            106.3923         estimate D2E/DX2                !
 ! A34   A(5,12,21)            106.2776         estimate D2E/DX2                !
 ! A35   A(4,13,22)            107.5864         estimate D2E/DX2                !
 ! A36   A(3,14,23)            107.3871         estimate D2E/DX2                !
 ! A37   A(2,15,27)            119.2301         estimate D2E/DX2                !
 ! A38   A(6,16,17)            108.8294         estimate D2E/DX2                !
 ! A39   A(6,16,18)            110.5487         estimate D2E/DX2                !
 ! A40   A(6,16,19)            111.2725         estimate D2E/DX2                !
 ! A41   A(17,16,18)           107.8576         estimate D2E/DX2                !
 ! A42   A(17,16,19)           107.4307         estimate D2E/DX2                !
 ! A43   A(18,16,19)           110.7692         estimate D2E/DX2                !
 ! A44   A(16,19,20)           110.2051         estimate D2E/DX2                !
 ! A45   A(16,19,83)           131.9121         estimate D2E/DX2                !
 ! A46   A(20,19,83)           110.4988         estimate D2E/DX2                !
 ! A47   A(25,24,29)           117.5218         estimate D2E/DX2                !
 ! A48   A(24,25,26)           110.0793         estimate D2E/DX2                !
 ! A49   A(24,25,30)           111.8853         estimate D2E/DX2                !
 ! A50   A(24,25,37)           107.449          estimate D2E/DX2                !
 ! A51   A(26,25,30)           109.8483         estimate D2E/DX2                !
 ! A52   A(26,25,37)           113.6188         estimate D2E/DX2                !
 ! A53   A(30,25,37)           103.843          estimate D2E/DX2                !
 ! A54   A(25,26,27)           108.2879         estimate D2E/DX2                !
 ! A55   A(25,26,31)           108.284          estimate D2E/DX2                !
 ! A56   A(25,26,36)           106.6205         estimate D2E/DX2                !
 ! A57   A(27,26,31)           108.1834         estimate D2E/DX2                !
 ! A58   A(27,26,36)           114.8959         estimate D2E/DX2                !
 ! A59   A(31,26,36)           110.3709         estimate D2E/DX2                !
 ! A60   A(15,27,26)           116.8673         estimate D2E/DX2                !
 ! A61   A(15,27,28)           102.7408         estimate D2E/DX2                !
 ! A62   A(15,27,32)           108.2912         estimate D2E/DX2                !
 ! A63   A(26,27,28)           108.6547         estimate D2E/DX2                !
 ! A64   A(26,27,32)           109.2063         estimate D2E/DX2                !
 ! A65   A(28,27,32)           110.9167         estimate D2E/DX2                !
 ! A66   A(27,28,29)           112.5088         estimate D2E/DX2                !
 ! A67   A(27,28,33)           108.2586         estimate D2E/DX2                !
 ! A68   A(27,28,35)           109.5851         estimate D2E/DX2                !
 ! A69   A(29,28,33)           106.8795         estimate D2E/DX2                !
 ! A70   A(29,28,35)           110.2934         estimate D2E/DX2                !
 ! A71   A(33,28,35)           109.216          estimate D2E/DX2                !
 ! A72   A(24,29,28)           114.2695         estimate D2E/DX2                !
 ! A73   A(24,29,34)           109.2663         estimate D2E/DX2                !
 ! A74   A(24,29,38)           104.4812         estimate D2E/DX2                !
 ! A75   A(28,29,34)           106.789          estimate D2E/DX2                !
 ! A76   A(28,29,38)           113.3575         estimate D2E/DX2                !
 ! A77   A(34,29,38)           108.5524         estimate D2E/DX2                !
 ! A78   A(28,35,43)           104.4118         estimate D2E/DX2                !
 ! A79   A(26,36,44)           104.411          estimate D2E/DX2                !
 ! A80   A(26,36,64)            99.439          estimate D2E/DX2                !
 ! A81   A(44,36,64)            90.5897         estimate D2E/DX2                !
 ! A82   A(25,37,49)           116.9736         estimate D2E/DX2                !
 ! A83   A(29,38,39)           108.6351         estimate D2E/DX2                !
 ! A84   A(29,38,40)           109.747          estimate D2E/DX2                !
 ! A85   A(29,38,41)           112.5343         estimate D2E/DX2                !
 ! A86   A(39,38,40)           108.2058         estimate D2E/DX2                !
 ! A87   A(39,38,41)           109.7096         estimate D2E/DX2                !
 ! A88   A(40,38,41)           107.9205         estimate D2E/DX2                !
 ! A89   A(38,41,42)           106.568          estimate D2E/DX2                !
 ! A90   A(38,41,82)           124.2271         estimate D2E/DX2                !
 ! A91   A(42,41,82)            97.6908         estimate D2E/DX2                !
 ! A92   A(1,44,36)            148.9003         estimate D2E/DX2                !
 ! A93   A(46,45,50)           119.191          estimate D2E/DX2                !
 ! A94   A(45,46,47)           115.4855         estimate D2E/DX2                !
 ! A95   A(45,46,51)           104.4962         estimate D2E/DX2                !
 ! A96   A(45,46,58)           112.4218         estimate D2E/DX2                !
 ! A97   A(47,46,51)           107.9212         estimate D2E/DX2                !
 ! A98   A(47,46,58)           107.4804         estimate D2E/DX2                !
 ! A99   A(51,46,58)           108.7751         estimate D2E/DX2                !
 ! A100  A(46,47,48)           112.4242         estimate D2E/DX2                !
 ! A101  A(46,47,52)           106.8903         estimate D2E/DX2                !
 ! A102  A(46,47,57)           106.1091         estimate D2E/DX2                !
 ! A103  A(48,47,52)           108.0934         estimate D2E/DX2                !
 ! A104  A(48,47,57)           112.7073         estimate D2E/DX2                !
 ! A105  A(52,47,57)           110.4743         estimate D2E/DX2                !
 ! A106  A(47,48,49)           110.6666         estimate D2E/DX2                !
 ! A107  A(47,48,53)           108.3441         estimate D2E/DX2                !
 ! A108  A(47,48,56)           107.533          estimate D2E/DX2                !
 ! A109  A(49,48,53)           107.8769         estimate D2E/DX2                !
 ! A110  A(49,48,56)           113.3485         estimate D2E/DX2                !
 ! A111  A(53,48,56)           108.9602         estimate D2E/DX2                !
 ! A112  A(37,49,48)           109.4898         estimate D2E/DX2                !
 ! A113  A(37,49,50)           107.6477         estimate D2E/DX2                !
 ! A114  A(37,49,55)           109.5234         estimate D2E/DX2                !
 ! A115  A(48,49,50)           107.9372         estimate D2E/DX2                !
 ! A116  A(48,49,55)           111.7937         estimate D2E/DX2                !
 ! A117  A(50,49,55)           110.3471         estimate D2E/DX2                !
 ! A118  A(45,50,49)           112.8841         estimate D2E/DX2                !
 ! A119  A(45,50,54)           106.1217         estimate D2E/DX2                !
 ! A120  A(45,50,59)           108.9129         estimate D2E/DX2                !
 ! A121  A(49,50,54)           106.3844         estimate D2E/DX2                !
 ! A122  A(49,50,59)           115.2039         estimate D2E/DX2                !
 ! A123  A(54,50,59)           106.7249         estimate D2E/DX2                !
 ! A124  A(48,56,64)           108.3538         estimate D2E/DX2                !
 ! A125  A(47,57,65)           108.2909         estimate D2E/DX2                !
 ! A126  A(46,58,66)           112.8541         estimate D2E/DX2                !
 ! A127  A(46,58,84)           130.3905         estimate D2E/DX2                !
 ! A128  A(66,58,84)           113.0594         estimate D2E/DX2                !
 ! A129  A(50,59,60)           108.7314         estimate D2E/DX2                !
 ! A130  A(50,59,61)           109.3937         estimate D2E/DX2                !
 ! A131  A(50,59,62)           113.6788         estimate D2E/DX2                !
 ! A132  A(60,59,61)           108.6072         estimate D2E/DX2                !
 ! A133  A(60,59,62)           109.7268         estimate D2E/DX2                !
 ! A134  A(61,59,62)           106.585          estimate D2E/DX2                !
 ! A135  A(59,62,63)           107.6115         estimate D2E/DX2                !
 ! A136  A(36,64,56)           147.4602         estimate D2E/DX2                !
 ! A137  A(58,66,67)           108.4431         estimate D2E/DX2                !
 ! A138  A(58,66,68)           109.1203         estimate D2E/DX2                !
 ! A139  A(58,66,69)           110.7526         estimate D2E/DX2                !
 ! A140  A(67,66,68)           107.3218         estimate D2E/DX2                !
 ! A141  A(67,66,69)           110.8399         estimate D2E/DX2                !
 ! A142  A(68,66,69)           110.2712         estimate D2E/DX2                !
 ! A143  A(66,69,70)           109.7986         estimate D2E/DX2                !
 ! A144  A(66,69,71)           106.0356         estimate D2E/DX2                !
 ! A145  A(66,69,72)           117.0831         estimate D2E/DX2                !
 ! A146  A(70,69,71)           104.6763         estimate D2E/DX2                !
 ! A147  A(70,69,72)           111.1354         estimate D2E/DX2                !
 ! A148  A(71,69,72)           107.2125         estimate D2E/DX2                !
 ! A149  A(69,72,73)           108.603          estimate D2E/DX2                !
 ! A150  A(69,72,74)           107.2018         estimate D2E/DX2                !
 ! A151  A(69,72,75)           118.8886         estimate D2E/DX2                !
 ! A152  A(73,72,74)           105.5995         estimate D2E/DX2                !
 ! A153  A(73,72,75)           108.0333         estimate D2E/DX2                !
 ! A154  A(74,72,75)           107.7559         estimate D2E/DX2                !
 ! A155  A(72,75,76)           111.3034         estimate D2E/DX2                !
 ! A156  A(72,75,77)           107.4807         estimate D2E/DX2                !
 ! A157  A(72,75,78)           115.0232         estimate D2E/DX2                !
 ! A158  A(76,75,77)           105.5818         estimate D2E/DX2                !
 ! A159  A(76,75,78)           109.2587         estimate D2E/DX2                !
 ! A160  A(77,75,78)           107.6875         estimate D2E/DX2                !
 ! A161  A(75,78,79)           111.8473         estimate D2E/DX2                !
 ! A162  A(75,78,80)           111.4848         estimate D2E/DX2                !
 ! A163  A(75,78,81)           111.925          estimate D2E/DX2                !
 ! A164  A(79,78,80)           107.4348         estimate D2E/DX2                !
 ! A165  A(79,78,81)           107.2364         estimate D2E/DX2                !
 ! A166  A(80,78,81)           106.6172         estimate D2E/DX2                !
 ! A167  A(78,81,82)           111.2291         estimate D2E/DX2                !
 ! A168  A(78,81,83)           109.8827         estimate D2E/DX2                !
 ! A169  A(78,81,84)           110.0497         estimate D2E/DX2                !
 ! A170  A(82,81,83)           111.1303         estimate D2E/DX2                !
 ! A171  A(82,81,84)           108.4755         estimate D2E/DX2                !
 ! A172  A(83,81,84)           105.9266         estimate D2E/DX2                !
 ! A173  A(41,82,81)           148.6528         estimate D2E/DX2                !
 ! A174  L(19,83,81,24,-1)     185.8501         estimate D2E/DX2                !
 ! A175  L(58,84,81,20,-1)     172.8201         estimate D2E/DX2                !
 ! A176  L(19,83,81,24,-2)     193.1939         estimate D2E/DX2                !
 ! A177  L(58,84,81,20,-2)     167.031          estimate D2E/DX2                !
 ! D1    D(6,1,2,3)            -59.131          estimate D2E/DX2                !
 ! D2    D(6,1,2,7)           -178.3545         estimate D2E/DX2                !
 ! D3    D(6,1,2,15)            61.4256         estimate D2E/DX2                !
 ! D4    D(44,1,2,3)           159.6462         estimate D2E/DX2                !
 ! D5    D(44,1,2,7)            40.4227         estimate D2E/DX2                !
 ! D6    D(44,1,2,15)          -79.7972         estimate D2E/DX2                !
 ! D7    D(2,1,6,5)             63.9143         estimate D2E/DX2                !
 ! D8    D(2,1,6,11)           -53.2215         estimate D2E/DX2                !
 ! D9    D(2,1,6,16)          -168.211          estimate D2E/DX2                !
 ! D10   D(44,1,6,5)          -175.6635         estimate D2E/DX2                !
 ! D11   D(44,1,6,11)           67.2006         estimate D2E/DX2                !
 ! D12   D(44,1,6,16)          -47.7888         estimate D2E/DX2                !
 ! D13   D(2,1,44,36)           51.005          estimate D2E/DX2                !
 ! D14   D(6,1,44,36)          -76.494          estimate D2E/DX2                !
 ! D15   D(1,2,3,4)             51.9463         estimate D2E/DX2                !
 ! D16   D(1,2,3,8)            -65.6885         estimate D2E/DX2                !
 ! D17   D(1,2,3,14)           178.7986         estimate D2E/DX2                !
 ! D18   D(7,2,3,4)            168.1827         estimate D2E/DX2                !
 ! D19   D(7,2,3,8)             50.5479         estimate D2E/DX2                !
 ! D20   D(7,2,3,14)           -64.965          estimate D2E/DX2                !
 ! D21   D(15,2,3,4)           -70.5448         estimate D2E/DX2                !
 ! D22   D(15,2,3,8)           171.8203         estimate D2E/DX2                !
 ! D23   D(15,2,3,14)           56.3075         estimate D2E/DX2                !
 ! D24   D(1,2,15,27)           73.2293         estimate D2E/DX2                !
 ! D25   D(3,2,15,27)         -165.3357         estimate D2E/DX2                !
 ! D26   D(7,2,15,27)          -44.0954         estimate D2E/DX2                !
 ! D27   D(2,3,4,5)            -50.4668         estimate D2E/DX2                !
 ! D28   D(2,3,4,9)             68.7092         estimate D2E/DX2                !
 ! D29   D(2,3,4,13)          -169.6476         estimate D2E/DX2                !
 ! D30   D(8,3,4,5)             66.0913         estimate D2E/DX2                !
 ! D31   D(8,3,4,9)           -174.7327         estimate D2E/DX2                !
 ! D32   D(8,3,4,13)           -53.0895         estimate D2E/DX2                !
 ! D33   D(14,3,4,5)          -177.8057         estimate D2E/DX2                !
 ! D34   D(14,3,4,9)           -58.6297         estimate D2E/DX2                !
 ! D35   D(14,3,4,13)           63.0136         estimate D2E/DX2                !
 ! D36   D(2,3,14,23)          -51.3352         estimate D2E/DX2                !
 ! D37   D(4,3,14,23)           75.6898         estimate D2E/DX2                !
 ! D38   D(8,3,14,23)         -166.9836         estimate D2E/DX2                !
 ! D39   D(3,4,5,6)             52.7536         estimate D2E/DX2                !
 ! D40   D(3,4,5,10)           169.2435         estimate D2E/DX2                !
 ! D41   D(3,4,5,12)           -68.32           estimate D2E/DX2                !
 ! D42   D(9,4,5,6)            -67.1366         estimate D2E/DX2                !
 ! D43   D(9,4,5,10)            49.3533         estimate D2E/DX2                !
 ! D44   D(9,4,5,12)           171.7898         estimate D2E/DX2                !
 ! D45   D(13,4,5,6)           174.3264         estimate D2E/DX2                !
 ! D46   D(13,4,5,10)          -69.1837         estimate D2E/DX2                !
 ! D47   D(13,4,5,12)           53.2528         estimate D2E/DX2                !
 ! D48   D(3,4,13,22)          -42.9162         estimate D2E/DX2                !
 ! D49   D(5,4,13,22)         -164.7441         estimate D2E/DX2                !
 ! D50   D(9,4,13,22)           78.1509         estimate D2E/DX2                !
 ! D51   D(4,5,6,1)            -58.2837         estimate D2E/DX2                !
 ! D52   D(4,5,6,11)            59.6563         estimate D2E/DX2                !
 ! D53   D(4,5,6,16)           178.311          estimate D2E/DX2                !
 ! D54   D(10,5,6,1)          -174.6754         estimate D2E/DX2                !
 ! D55   D(10,5,6,11)          -56.7354         estimate D2E/DX2                !
 ! D56   D(10,5,6,16)           61.9192         estimate D2E/DX2                !
 ! D57   D(12,5,6,1)            64.4577         estimate D2E/DX2                !
 ! D58   D(12,5,6,11)         -177.6024         estimate D2E/DX2                !
 ! D59   D(12,5,6,16)          -58.9477         estimate D2E/DX2                !
 ! D60   D(4,5,12,21)          -46.5661         estimate D2E/DX2                !
 ! D61   D(6,5,12,21)         -166.8876         estimate D2E/DX2                !
 ! D62   D(10,5,12,21)          74.0739         estimate D2E/DX2                !
 ! D63   D(1,6,16,17)         -162.2564         estimate D2E/DX2                !
 ! D64   D(1,6,16,18)          -43.9731         estimate D2E/DX2                !
 ! D65   D(1,6,16,19)           79.5539         estimate D2E/DX2                !
 ! D66   D(5,6,16,17)          -37.6873         estimate D2E/DX2                !
 ! D67   D(5,6,16,18)           80.596          estimate D2E/DX2                !
 ! D68   D(5,6,16,19)         -155.877          estimate D2E/DX2                !
 ! D69   D(11,6,16,17)          81.3933         estimate D2E/DX2                !
 ! D70   D(11,6,16,18)        -160.3234         estimate D2E/DX2                !
 ! D71   D(11,6,16,19)         -36.7964         estimate D2E/DX2                !
 ! D72   D(2,15,27,26)         -45.586          estimate D2E/DX2                !
 ! D73   D(2,15,27,28)        -164.4133         estimate D2E/DX2                !
 ! D74   D(2,15,27,32)          78.1841         estimate D2E/DX2                !
 ! D75   D(6,16,19,20)         -96.5215         estimate D2E/DX2                !
 ! D76   D(6,16,19,83)          49.7613         estimate D2E/DX2                !
 ! D77   D(17,16,19,20)        144.4491         estimate D2E/DX2                !
 ! D78   D(17,16,19,83)        -69.2681         estimate D2E/DX2                !
 ! D79   D(18,16,19,20)         26.8797         estimate D2E/DX2                !
 ! D80   D(18,16,19,83)        173.1625         estimate D2E/DX2                !
 ! D81   D(16,19,81,78)         52.0405         estimate D2E/DX2                !
 ! D82   D(16,19,81,82)        -76.7292         estimate D2E/DX2                !
 ! D83   D(16,19,81,84)        166.7486         estimate D2E/DX2                !
 ! D84   D(20,19,81,78)       -156.6822         estimate D2E/DX2                !
 ! D85   D(20,19,81,82)         74.5481         estimate D2E/DX2                !
 ! D86   D(20,19,81,84)        -41.9741         estimate D2E/DX2                !
 ! D87   D(29,24,25,26)        -54.9963         estimate D2E/DX2                !
 ! D88   D(29,24,25,30)         67.4437         estimate D2E/DX2                !
 ! D89   D(29,24,25,37)       -179.194          estimate D2E/DX2                !
 ! D90   D(25,24,29,28)         45.8133         estimate D2E/DX2                !
 ! D91   D(25,24,29,34)        -73.7409         estimate D2E/DX2                !
 ! D92   D(25,24,29,38)        170.2585         estimate D2E/DX2                !
 ! D93   D(24,25,26,27)         61.3123         estimate D2E/DX2                !
 ! D94   D(24,25,26,31)        -55.7739         estimate D2E/DX2                !
 ! D95   D(24,25,26,36)       -174.5388         estimate D2E/DX2                !
 ! D96   D(30,25,26,27)        -62.3218         estimate D2E/DX2                !
 ! D97   D(30,25,26,31)       -179.408          estimate D2E/DX2                !
 ! D98   D(30,25,26,36)         61.8271         estimate D2E/DX2                !
 ! D99   D(37,25,26,27)       -178.1375         estimate D2E/DX2                !
 ! D100  D(37,25,26,31)         64.7764         estimate D2E/DX2                !
 ! D101  D(37,25,26,36)        -53.9886         estimate D2E/DX2                !
 ! D102  D(24,25,37,49)         52.325          estimate D2E/DX2                !
 ! D103  D(26,25,37,49)        -69.6959         estimate D2E/DX2                !
 ! D104  D(30,25,37,49)        171.002          estimate D2E/DX2                !
 ! D105  D(25,26,27,15)       -175.2726         estimate D2E/DX2                !
 ! D106  D(25,26,27,28)        -59.68           estimate D2E/DX2                !
 ! D107  D(25,26,27,32)         61.426          estimate D2E/DX2                !
 ! D108  D(31,26,27,15)        -58.1217         estimate D2E/DX2                !
 ! D109  D(31,26,27,28)         57.4709         estimate D2E/DX2                !
 ! D110  D(31,26,27,32)        178.5768         estimate D2E/DX2                !
 ! D111  D(36,26,27,15)         65.6832         estimate D2E/DX2                !
 ! D112  D(36,26,27,28)       -178.7242         estimate D2E/DX2                !
 ! D113  D(36,26,27,32)        -57.6182         estimate D2E/DX2                !
 ! D114  D(25,26,36,44)        166.7441         estimate D2E/DX2                !
 ! D115  D(25,26,36,64)         73.6778         estimate D2E/DX2                !
 ! D116  D(27,26,36,44)        -73.2852         estimate D2E/DX2                !
 ! D117  D(27,26,36,64)       -166.3515         estimate D2E/DX2                !
 ! D118  D(31,26,36,44)         49.3514         estimate D2E/DX2                !
 ! D119  D(31,26,36,64)        -43.7149         estimate D2E/DX2                !
 ! D120  D(15,27,28,29)        175.3798         estimate D2E/DX2                !
 ! D121  D(15,27,28,33)        -66.7362         estimate D2E/DX2                !
 ! D122  D(15,27,28,35)         52.2922         estimate D2E/DX2                !
 ! D123  D(26,27,28,29)         50.9525         estimate D2E/DX2                !
 ! D124  D(26,27,28,33)        168.8365         estimate D2E/DX2                !
 ! D125  D(26,27,28,35)        -72.135          estimate D2E/DX2                !
 ! D126  D(32,27,28,29)        -69.0963         estimate D2E/DX2                !
 ! D127  D(32,27,28,33)         48.7877         estimate D2E/DX2                !
 ! D128  D(32,27,28,35)        167.8162         estimate D2E/DX2                !
 ! D129  D(27,28,29,24)        -42.8219         estimate D2E/DX2                !
 ! D130  D(27,28,29,34)         78.1151         estimate D2E/DX2                !
 ! D131  D(27,28,29,38)       -162.3931         estimate D2E/DX2                !
 ! D132  D(33,28,29,24)       -161.5172         estimate D2E/DX2                !
 ! D133  D(33,28,29,34)        -40.5802         estimate D2E/DX2                !
 ! D134  D(33,28,29,38)         78.9116         estimate D2E/DX2                !
 ! D135  D(35,28,29,24)         79.8683         estimate D2E/DX2                !
 ! D136  D(35,28,29,34)       -159.1947         estimate D2E/DX2                !
 ! D137  D(35,28,29,38)        -39.7029         estimate D2E/DX2                !
 ! D138  D(27,28,35,43)        -54.1146         estimate D2E/DX2                !
 ! D139  D(29,28,35,43)       -178.5023         estimate D2E/DX2                !
 ! D140  D(33,28,35,43)         64.3214         estimate D2E/DX2                !
 ! D141  D(24,29,38,39)         76.3103         estimate D2E/DX2                !
 ! D142  D(24,29,38,40)       -165.5663         estimate D2E/DX2                !
 ! D143  D(24,29,38,41)        -45.3748         estimate D2E/DX2                !
 ! D144  D(28,29,38,39)       -158.664          estimate D2E/DX2                !
 ! D145  D(28,29,38,40)        -40.5405         estimate D2E/DX2                !
 ! D146  D(28,29,38,41)         79.651          estimate D2E/DX2                !
 ! D147  D(34,29,38,39)        -40.1863         estimate D2E/DX2                !
 ! D148  D(34,29,38,40)         77.9372         estimate D2E/DX2                !
 ! D149  D(34,29,38,41)       -161.8714         estimate D2E/DX2                !
 ! D150  D(26,36,44,1)          24.1166         estimate D2E/DX2                !
 ! D151  D(64,36,44,1)         124.0195         estimate D2E/DX2                !
 ! D152  D(26,36,64,56)         51.4597         estimate D2E/DX2                !
 ! D153  D(44,36,64,56)        -53.2556         estimate D2E/DX2                !
 ! D154  D(25,37,49,48)        120.3941         estimate D2E/DX2                !
 ! D155  D(25,37,49,50)       -122.5139         estimate D2E/DX2                !
 ! D156  D(25,37,49,55)         -2.5178         estimate D2E/DX2                !
 ! D157  D(29,38,41,42)         79.4526         estimate D2E/DX2                !
 ! D158  D(29,38,41,82)        -32.3407         estimate D2E/DX2                !
 ! D159  D(39,38,41,42)        -41.6198         estimate D2E/DX2                !
 ! D160  D(39,38,41,82)       -153.4131         estimate D2E/DX2                !
 ! D161  D(40,38,41,42)       -159.3072         estimate D2E/DX2                !
 ! D162  D(40,38,41,82)         88.8995         estimate D2E/DX2                !
 ! D163  D(38,41,82,81)        162.3555         estimate D2E/DX2                !
 ! D164  D(42,41,82,81)         46.2593         estimate D2E/DX2                !
 ! D165  D(50,45,46,47)         46.2379         estimate D2E/DX2                !
 ! D166  D(50,45,46,51)        164.6185         estimate D2E/DX2                !
 ! D167  D(50,45,46,58)        -77.5867         estimate D2E/DX2                !
 ! D168  D(46,45,50,49)         -7.8509         estimate D2E/DX2                !
 ! D169  D(46,45,50,54)       -124.0004         estimate D2E/DX2                !
 ! D170  D(46,45,50,59)        121.437          estimate D2E/DX2                !
 ! D171  D(45,46,47,48)        -26.028          estimate D2E/DX2                !
 ! D172  D(45,46,47,52)       -144.4798         estimate D2E/DX2                !
 ! D173  D(45,46,47,57)         97.6034         estimate D2E/DX2                !
 ! D174  D(51,46,47,48)       -142.4893         estimate D2E/DX2                !
 ! D175  D(51,46,47,52)         99.0589         estimate D2E/DX2                !
 ! D176  D(51,46,47,57)        -18.8578         estimate D2E/DX2                !
 ! D177  D(58,46,47,48)        100.3499         estimate D2E/DX2                !
 ! D178  D(58,46,47,52)        -18.1019         estimate D2E/DX2                !
 ! D179  D(58,46,47,57)       -136.0187         estimate D2E/DX2                !
 ! D180  D(45,46,58,66)        -74.7419         estimate D2E/DX2                !
 ! D181  D(45,46,58,84)         81.6994         estimate D2E/DX2                !
 ! D182  D(47,46,58,66)        157.0915         estimate D2E/DX2                !
 ! D183  D(47,46,58,84)        -46.4672         estimate D2E/DX2                !
 ! D184  D(51,46,58,66)         40.4893         estimate D2E/DX2                !
 ! D185  D(51,46,58,84)       -163.0694         estimate D2E/DX2                !
 ! D186  D(46,47,48,49)        -27.8169         estimate D2E/DX2                !
 ! D187  D(46,47,48,53)         90.2642         estimate D2E/DX2                !
 ! D188  D(46,47,48,56)       -152.1072         estimate D2E/DX2                !
 ! D189  D(52,47,48,49)         89.9247         estimate D2E/DX2                !
 ! D190  D(52,47,48,53)       -151.9942         estimate D2E/DX2                !
 ! D191  D(52,47,48,56)        -34.3656         estimate D2E/DX2                !
 ! D192  D(57,47,48,49)       -147.6891         estimate D2E/DX2                !
 ! D193  D(57,47,48,53)        -29.6081         estimate D2E/DX2                !
 ! D194  D(57,47,48,56)         88.0205         estimate D2E/DX2                !
 ! D195  D(46,47,57,65)        176.6835         estimate D2E/DX2                !
 ! D196  D(48,47,57,65)        -59.8625         estimate D2E/DX2                !
 ! D197  D(52,47,57,65)         61.1754         estimate D2E/DX2                !
 ! D198  D(47,48,49,37)       -179.2384         estimate D2E/DX2                !
 ! D199  D(47,48,49,50)         63.8519         estimate D2E/DX2                !
 ! D200  D(47,48,49,55)        -57.6842         estimate D2E/DX2                !
 ! D201  D(53,48,49,37)         62.3959         estimate D2E/DX2                !
 ! D202  D(53,48,49,50)        -54.5138         estimate D2E/DX2                !
 ! D203  D(53,48,49,55)       -176.0499         estimate D2E/DX2                !
 ! D204  D(56,48,49,37)        -58.3398         estimate D2E/DX2                !
 ! D205  D(56,48,49,50)       -175.2496         estimate D2E/DX2                !
 ! D206  D(56,48,49,55)         63.2143         estimate D2E/DX2                !
 ! D207  D(47,48,56,64)        172.3216         estimate D2E/DX2                !
 ! D208  D(49,48,56,64)         49.671          estimate D2E/DX2                !
 ! D209  D(53,48,56,64)        -70.4506         estimate D2E/DX2                !
 ! D210  D(37,49,50,45)       -164.6196         estimate D2E/DX2                !
 ! D211  D(37,49,50,54)        -48.6266         estimate D2E/DX2                !
 ! D212  D(37,49,50,59)         69.4011         estimate D2E/DX2                !
 ! D213  D(48,49,50,45)        -46.5213         estimate D2E/DX2                !
 ! D214  D(48,49,50,54)         69.4717         estimate D2E/DX2                !
 ! D215  D(48,49,50,59)       -172.5007         estimate D2E/DX2                !
 ! D216  D(55,49,50,45)         75.9074         estimate D2E/DX2                !
 ! D217  D(55,49,50,54)       -168.0996         estimate D2E/DX2                !
 ! D218  D(55,49,50,59)        -50.072          estimate D2E/DX2                !
 ! D219  D(45,50,59,60)         59.5994         estimate D2E/DX2                !
 ! D220  D(45,50,59,61)        178.0605         estimate D2E/DX2                !
 ! D221  D(45,50,59,62)        -62.94           estimate D2E/DX2                !
 ! D222  D(49,50,59,60)       -172.4074         estimate D2E/DX2                !
 ! D223  D(49,50,59,61)        -53.9463         estimate D2E/DX2                !
 ! D224  D(49,50,59,62)         65.0532         estimate D2E/DX2                !
 ! D225  D(54,50,59,60)        -54.5707         estimate D2E/DX2                !
 ! D226  D(54,50,59,61)         63.8904         estimate D2E/DX2                !
 ! D227  D(54,50,59,62)       -177.1101         estimate D2E/DX2                !
 ! D228  D(48,56,64,36)       -115.2882         estimate D2E/DX2                !
 ! D229  D(46,58,66,67)        -67.4255         estimate D2E/DX2                !
 ! D230  D(46,58,66,68)         49.177          estimate D2E/DX2                !
 ! D231  D(46,58,66,69)        170.7442         estimate D2E/DX2                !
 ! D232  D(84,58,66,67)        131.8953         estimate D2E/DX2                !
 ! D233  D(84,58,66,68)       -111.5023         estimate D2E/DX2                !
 ! D234  D(84,58,66,69)         10.0649         estimate D2E/DX2                !
 ! D235  D(46,58,81,78)        155.2217         estimate D2E/DX2                !
 ! D236  D(46,58,81,82)        -79.8826         estimate D2E/DX2                !
 ! D237  D(46,58,81,83)         40.9444         estimate D2E/DX2                !
 ! D238  D(66,58,81,78)        -41.5882         estimate D2E/DX2                !
 ! D239  D(66,58,81,82)         83.3076         estimate D2E/DX2                !
 ! D240  D(66,58,81,83)       -155.8654         estimate D2E/DX2                !
 ! D241  D(50,59,62,63)         74.8372         estimate D2E/DX2                !
 ! D242  D(60,59,62,63)        -47.1522         estimate D2E/DX2                !
 ! D243  D(61,59,62,63)       -164.5703         estimate D2E/DX2                !
 ! D244  D(58,66,69,70)        -56.1628         estimate D2E/DX2                !
 ! D245  D(58,66,69,71)       -168.7226         estimate D2E/DX2                !
 ! D246  D(58,66,69,72)         71.7534         estimate D2E/DX2                !
 ! D247  D(67,66,69,70)       -176.5762         estimate D2E/DX2                !
 ! D248  D(67,66,69,71)         70.864          estimate D2E/DX2                !
 ! D249  D(67,66,69,72)        -48.66           estimate D2E/DX2                !
 ! D250  D(68,66,69,70)         64.7248         estimate D2E/DX2                !
 ! D251  D(68,66,69,71)        -47.8349         estimate D2E/DX2                !
 ! D252  D(68,66,69,72)       -167.359          estimate D2E/DX2                !
 ! D253  D(66,69,72,73)         54.4528         estimate D2E/DX2                !
 ! D254  D(66,69,72,74)        168.1077         estimate D2E/DX2                !
 ! D255  D(66,69,72,75)        -69.5189         estimate D2E/DX2                !
 ! D256  D(70,69,72,73)       -178.2791         estimate D2E/DX2                !
 ! D257  D(70,69,72,74)        -64.6242         estimate D2E/DX2                !
 ! D258  D(70,69,72,75)         57.7492         estimate D2E/DX2                !
 ! D259  D(71,69,72,73)        -64.4428         estimate D2E/DX2                !
 ! D260  D(71,69,72,74)         49.2122         estimate D2E/DX2                !
 ! D261  D(71,69,72,75)        171.5856         estimate D2E/DX2                !
 ! D262  D(69,72,75,76)         69.875          estimate D2E/DX2                !
 ! D263  D(69,72,75,77)       -174.9692         estimate D2E/DX2                !
 ! D264  D(69,72,75,78)        -55.0656         estimate D2E/DX2                !
 ! D265  D(73,72,75,76)        -54.3751         estimate D2E/DX2                !
 ! D266  D(73,72,75,77)         60.7807         estimate D2E/DX2                !
 ! D267  D(73,72,75,78)       -179.3157         estimate D2E/DX2                !
 ! D268  D(74,72,75,76)       -168.0283         estimate D2E/DX2                !
 ! D269  D(74,72,75,77)        -52.8725         estimate D2E/DX2                !
 ! D270  D(74,72,75,78)         67.0311         estimate D2E/DX2                !
 ! D271  D(72,75,78,79)        -30.275          estimate D2E/DX2                !
 ! D272  D(72,75,78,80)       -150.5875         estimate D2E/DX2                !
 ! D273  D(72,75,78,81)         90.0903         estimate D2E/DX2                !
 ! D274  D(76,75,78,79)       -156.2761         estimate D2E/DX2                !
 ! D275  D(76,75,78,80)         83.4113         estimate D2E/DX2                !
 ! D276  D(76,75,78,81)        -35.9109         estimate D2E/DX2                !
 ! D277  D(77,75,78,79)         89.5144         estimate D2E/DX2                !
 ! D278  D(77,75,78,80)        -30.7982         estimate D2E/DX2                !
 ! D279  D(77,75,78,81)       -150.1204         estimate D2E/DX2                !
 ! D280  D(75,78,81,82)       -149.5928         estimate D2E/DX2                !
 ! D281  D(75,78,81,83)         86.921          estimate D2E/DX2                !
 ! D282  D(75,78,81,84)        -29.3496         estimate D2E/DX2                !
 ! D283  D(79,78,81,82)        -26.5758         estimate D2E/DX2                !
 ! D284  D(79,78,81,83)       -150.062          estimate D2E/DX2                !
 ! D285  D(79,78,81,84)         93.6674         estimate D2E/DX2                !
 ! D286  D(80,78,81,82)         88.257          estimate D2E/DX2                !
 ! D287  D(80,78,81,83)        -35.2292         estimate D2E/DX2                !
 ! D288  D(80,78,81,84)       -151.4998         estimate D2E/DX2                !
 ! D289  D(78,81,82,41)         84.6974         estimate D2E/DX2                !
 ! D290  D(83,81,82,41)       -152.5314         estimate D2E/DX2                !
 ! D291  D(84,81,82,41)        -36.4721         estimate D2E/DX2                !
 --------------------------------------------------------------------------------
 Trust Radius=3.00D-01 FncErr=1.00D-07 GrdErr=1.00D-06
 Number of steps in this run=    504 maximum allowed number of steps=    504.
 GradGradGradGradGradGradGradGradGradGradGradGradGradGradGradGradGradGrad

 Leave Link  103 at Wed Apr  6 15:55:05 2016, MaxMem= 10737418240 cpu:         0.9
 (Enter /share/apps//g09/l202.exe)
 Stoichiometry    C23H44NO16(1+)
 Framework group  C1[X(C23H44NO16)]
 Deg. of freedom   246
 Full point group                 C1      NOp   1
 Largest Abelian subgroup         C1      NOp   1
 Largest concise Abelian subgroup C1      NOp   1
                         Standard orientation:                         
 ---------------------------------------------------------------------
 Center     Atomic      Atomic             Coordinates (Angstroms)
 Number     Number       Type             X           Y           Z
 ---------------------------------------------------------------------
      1          8           0       -3.120245   -0.406683   -1.243430
      2          6           0       -3.865258    0.696077   -0.722191
      3          6           0       -5.233255    0.214974   -0.220448
      4          6           0       -5.106757   -0.971365    0.747720
      5          6           0       -4.218106   -2.084529    0.161693
      6          6           0       -2.892441   -1.462119   -0.266751
      7          1           0       -3.988158    1.395612   -1.563651
      8          1           0       -5.782321   -0.129583   -1.109886
      9          1           0       -4.639900   -0.622388    1.693108
     10          1           0       -4.007433   -2.812259    0.973000
     11          1           0       -2.436702   -1.013192    0.633956
     12          8           0       -4.822114   -2.725558   -0.948565
     13          8           0       -6.377785   -1.551333    1.013852
     14          8           0       -6.012628    1.268143    0.337003
     15          8           0       -3.185531    1.328304    0.356779
     16          6           0       -1.858142   -2.421603   -0.838835
     17          1           0       -1.906303   -3.368762   -0.281953
     18          1           0       -2.076031   -2.639539   -1.894162
     19          8           0       -0.523562   -1.900897   -0.689848
     20          1           0       -0.235840   -1.445781   -1.528942
     21          1           0       -5.743458   -2.917314   -0.686159
     22          1           0       -7.012170   -0.822068    1.149269
     23          1           0       -5.455439    1.726803    0.994791
     24          8           0        0.818896    2.656853    0.321921
     25          6           0        0.224989    2.537387   -0.959084
     26          6           0       -0.975192    1.567738   -0.898641
     27          6           0       -2.018211    2.148989    0.077188
     28          6           0       -1.365075    2.296535    1.467366
     29          6           0       -0.028334    3.044839    1.411301
     30          1           0       -0.103329    3.517507   -1.354613
     31          1           0       -0.622607    0.606210   -0.492373
     32          1           0       -2.364969    3.127762   -0.301804
     33          1           0       -2.041381    2.894634    2.106257
     34          1           0       -0.268515    4.122867    1.321703
     35          8           0       -1.185160    0.999613    2.054361
     36          8           0       -1.434475    1.401895   -2.241028
     37          8           0        1.234148    2.132094   -1.856933
     38          6           0        0.842173    2.838356    2.670015
     39          1           0        1.564556    3.666640    2.737982
     40          1           0        0.208682    2.860956    3.567193
     41          8           0        1.539043    1.591245    2.655229
     42          1           0        2.325435    1.714419    2.067519
     43          1           0       -2.071789    0.594962    2.025292
     44          1           0       -2.043237    0.625403   -2.198362
     45          8           0        4.391210    0.246082   -1.448994
     46          6           0        3.863055   -1.052617   -1.314955
     47          6           0        2.641526   -1.366877   -2.201869
     48          6           0        1.846356   -0.106398   -2.571651
     49          6           0        2.004577    0.967680   -1.493272
     50          6           0        3.485712    1.382695   -1.451488
     51          1           0        4.684872   -1.717389   -1.622385
     52          1           0        1.980595   -2.029603   -1.614821
     53          1           0        2.254594    0.297889   -3.515569
     54          1           0        3.682751    1.929977   -2.391223
     55          1           0        1.681409    0.606980   -0.508399
     56          8           0        0.483166   -0.502107   -2.784736
     57          8           0        3.147445   -2.051825   -3.342658
     58          8           0        3.500051   -1.362012    0.049402
     59          6           0        3.865728    2.320155   -0.309542
     60          1           0        4.903636    2.655171   -0.457771
     61          1           0        3.209136    3.198018   -0.325359
     62          8           0        3.728162    1.727949    0.994185
     63          1           0        4.468341    1.110450    1.116163
     64          1           0       -0.065279    0.316623   -2.901348
     65          1           0        2.393805   -2.313172   -3.901368
     66          6           0        4.649219   -1.622935    0.892018
     67          1           0        5.122852   -2.562789    0.555955
     68          1           0        5.389064   -0.814675    0.755156
     69          6           0        4.235687   -1.717471    2.354207
     70          1           0        3.709974   -0.793790    2.654779
     71          1           0        5.170976   -1.708259    2.936166
     72          6           0        3.446317   -2.969273    2.780047
     73          1           0        4.020888   -3.863197    2.488523
     74          1           0        3.421046   -2.979496    3.881814
     75          6           0        2.000992   -3.145522    2.275142
     76          1           0        1.977573   -3.356009    1.194087
     77          1           0        1.588791   -4.042731    2.759833
     78          6           0        1.059894   -1.976251    2.582832
     79          1           0        1.338947   -1.460371    3.511880
     80          1           0        0.021827   -2.314248    2.693505
     81          7           0        1.062931   -0.947613    1.483049
     82          1           0        0.874977    0.013843    1.861156
     83          1           0        0.361910   -1.208609    0.748942
     84          1           0        1.989984   -0.939091    1.003638
 ---------------------------------------------------------------------
 Rotational constants (GHZ):      0.1383110      0.0655079      0.0625944
 Leave Link  202 at Wed Apr  6 15:55:07 2016, MaxMem= 10737418240 cpu:         5.0
 (Enter /share/apps//g09/l301.exe)
 Standard basis: 6-311+G(d,p) (5D, 7F)
 Ernie: Thresh=  0.10000D-02 Tol=  0.10000D-05 Strict=F.
 There are  1184 symmetry adapted cartesian basis functions of A   symmetry.
 There are  1144 symmetry adapted basis functions of A   symmetry.
  1144 basis functions,  1792 primitive gaussians,  1184 cartesian basis functions
   158 alpha electrons      158 beta electrons
       nuclear repulsion energy      6037.2171572267 Hartrees.
 IExCor= 1009 DFT=T Ex+Corr=PBE1PBE ExCW=0 ScaHFX=  0.250000
 ScaDFX=  0.750000  0.750000  1.000000  1.000000 ScalE2=  1.000000  1.000000
 IRadAn=      0 IRanWt=     -1 IRanGd=            0 ICorTp=0 IEmpDi=131
 NAtoms=   84 NActive=   84 NUniq=   84 SFac= 1.00D+00 NAtFMM=   60 NAOKFM=T Big=T
 Integral buffers will be    131072 words long.
 Raffenetti 2 integral format.
 Two-electron integral symmetry is turned on.
 R6Disp:  Grimme-D3 Dispersion energy=       -0.0910625032 Hartrees.
 Nuclear repulsion after empirical dispersion term =     6037.1260947235 Hartrees.
 Leave Link  301 at Wed Apr  6 15:55:08 2016, MaxMem= 10737418240 cpu:         2.4
 (Enter /share/apps//g09/l302.exe)
 NPDir=0 NMtPBC=     1 NCelOv=     1 NCel=       1 NClECP=     1 NCelD=      1
         NCelK=      1 NCelE2=     1 NClLst=     1 CellRange=     0.0.
 One-electron integrals computed using PRISM.
 NBasis=  1144 RedAO= T EigKep=  1.11D-06  NBF=  1144
 NBsUse=  1144 1.00D-06 EigRej= -1.00D+00 NBFU=  1144
 Precomputing XC quadrature grid using
 IXCGrd= 4 IRadAn=           0 IRanWt=          -1 IRanGd=           0 AccXCQ= 0.00D+00.
 Generated NRdTot=       0 NPtTot=           0 NUsed=           0 NTot=          32
 NSgBfM=  1087  1089  1089  1092  1095 MxSgAt=    84 MxSgA2=    84.
 Leave Link  302 at Wed Apr  6 15:55:15 2016, MaxMem= 10737418240 cpu:        73.0
 (Enter /share/apps//g09/l303.exe)
 DipDrv:  MaxL=1.
 Leave Link  303 at Wed Apr  6 15:55:17 2016, MaxMem= 10737418240 cpu:        24.2
 (Enter /share/apps//g09/l401.exe)
 ExpMin= 4.38D-02 ExpMax= 8.59D+03 ExpMxC= 1.30D+03 IAcc=2 IRadAn=         4 AccDes= 0.00D+00
 Harris functional with IExCor= 1009 and IRadAn=       4 diagonalized for initial guess.
 HarFok:  IExCor= 1009 AccDes= 0.00D+00 IRadAn=         4 IDoV= 1 UseB2=F ITyADJ=14
 ICtDFT=  3500011 ScaDFX=  1.000000  1.000000  1.000000  1.000000
 FoFCou: FMM=F IPFlag=           0 FMFlag=      100000 FMFlg1=        2001
         NFxFlg=           0 DoJE=T BraDBF=F KetDBF=T FulRan=T
         wScrn=  0.000000 ICntrl=     500 IOpCl=  0 I1Cent=   200000004 NGrid=           0
         NMat0=    1 NMatS0=      1 NMatT0=    0 NMatD0=    1 NMtDS0=    0 NMtDT0=    0
 Petite list used in FoFCou.
 Harris En= -2159.70417225884    
 JPrj=0 DoOrth=F DoCkMO=F.
 Leave Link  401 at Wed Apr  6 15:55:31 2016, MaxMem= 10737418240 cpu:       230.9
 (Enter /share/apps//g09/l502.exe)
 Closed shell SCF:
 Using DIIS extrapolation, IDIIS=  1040.
 Integral symmetry usage will be decided dynamically.
 IVT=     4256630 IEndB=     4256630 NGot= 10737418240 MDV= 10734581291
 LenX= 10734581291 LenY= 10733178251
 Requested convergence on RMS density matrix=1.00D-08 within 128 cycles.
 Requested convergence on MAX density matrix=1.00D-06.
 Requested convergence on             energy=1.00D-06.
 No special actions if energy rises.
 Fock matrices will be formed incrementally for  20 cycles.

 Cycle   1  Pass 1  IDiag  1:
 FoFJK:  IHMeth= 1 ICntrl=       0 DoSepK=F KAlg= 0 I1Cent=   0 FoldK=F
 IRaf= 810000000 NMat=   1 IRICut=       1 DoRegI=T DoRafI=F ISym2E= 0.
 FoFCou: FMM=T IPFlag=           0 FMFlag=      100000 FMFlg1=        2001
         NFxFlg=           0 DoJE=F BraDBF=F KetDBF=F FulRan=T
         wScrn=  0.000000 ICntrl=       0 IOpCl=  0 I1Cent=           0 NGrid=           0
         NMat0=    1 NMatS0=      1 NMatT0=    0 NMatD0=    1 NMtDS0=    0 NMtDT0=    0
 Symmetry not used in FoFCou.
 FMM levels:  10  Number of levels for PrismC:   9
 E= -2158.69551335317    
 DIIS: error= 1.07D-02 at cycle   1 NSaved=   1.
 NSaved= 1 IEnMin= 1 EnMin= -2158.69551335317     IErMin= 1 ErrMin= 1.07D-02
 ErrMax= 1.07D-02  0.00D+00 EMaxC= 1.00D-01 BMatC= 1.02D+00 BMatP= 1.02D+00
 IDIUse=3 WtCom= 8.93D-01 WtEn= 1.07D-01
 Coeff-Com:  0.100D+01
 Coeff-En:   0.100D+01
 Coeff:      0.100D+01
 Gap=     0.290 Goal=   None    Shift=    0.000
 GapD=    0.290 DampG=1.000 DampE=0.500 DampFc=0.5000 IDamp=-1.
 Damping current iteration by 5.00D-01
 RMSDP=2.07D-02 MaxDP=8.25D+00              OVMax= 1.44D-01

 Cycle   2  Pass 1  IDiag  1:
 RMSU=  9.05D-03    CP:  1.08D+00
 E= -2158.97441472506     Delta-E=       -0.278901371898 Rises=F Damp=T
 DIIS: error= 2.87D-03 at cycle   2 NSaved=   2.
 NSaved= 2 IEnMin= 2 EnMin= -2158.97441472506     IErMin= 2 ErrMin= 2.87D-03
 ErrMax= 2.87D-03  0.00D+00 EMaxC= 1.00D-01 BMatC= 8.26D-02 BMatP= 1.02D+00
 IDIUse=3 WtCom= 9.71D-01 WtEn= 2.87D-02
 Coeff-Com:  0.632D-01 0.937D+00
 Coeff-En:   0.163D+00 0.837D+00
 Coeff:      0.661D-01 0.934D+00
 Gap=     0.299 Goal=   None    Shift=    0.000
 RMSDP=8.36D-03 MaxDP=3.86D+00 DE=-2.79D-01 OVMax= 8.28D-02

 Cycle   3  Pass 1  IDiag  1:
 RMSU=  3.09D-03    CP:  9.62D-01  7.52D-01
 E= -2159.34108700280     Delta-E=       -0.366672277738 Rises=F Damp=F
 DIIS: error= 3.07D-03 at cycle   3 NSaved=   3.
 NSaved= 3 IEnMin= 3 EnMin= -2159.34108700280     IErMin= 2 ErrMin= 2.87D-03
 ErrMax= 3.07D-03  0.00D+00 EMaxC= 1.00D-01 BMatC= 4.78D-02 BMatP= 8.26D-02
 IDIUse=3 WtCom= 9.69D-01 WtEn= 3.07D-02
 Coeff-Com: -0.657D-01 0.417D+00 0.649D+00
 Coeff-En:   0.000D+00 0.000D+00 0.100D+01
 Coeff:     -0.637D-01 0.404D+00 0.660D+00
 Gap=     0.278 Goal=   None    Shift=    0.000
 RMSDP=2.44D-03 MaxDP=9.80D-01 DE=-3.67D-01 OVMax= 1.88D-02

 Cycle   4  Pass 1  IDiag  1:
 RMSU=  1.38D-03    CP:  9.84D-01  9.03D-01  8.41D-01
 E= -2159.37155024251     Delta-E=       -0.030463239711 Rises=F Damp=F
 DIIS: error= 1.22D-03 at cycle   4 NSaved=   4.
 NSaved= 4 IEnMin= 4 EnMin= -2159.37155024251     IErMin= 4 ErrMin= 1.22D-03
 ErrMax= 1.22D-03  0.00D+00 EMaxC= 1.00D-01 BMatC= 5.92D-03 BMatP= 4.78D-02
 IDIUse=3 WtCom= 9.88D-01 WtEn= 1.22D-02
 Coeff-Com: -0.360D-01 0.124D+00 0.333D+00 0.580D+00
 Coeff-En:   0.000D+00 0.000D+00 0.622D-01 0.938D+00
 Coeff:     -0.356D-01 0.122D+00 0.329D+00 0.584D+00
 Gap=     0.271 Goal=   None    Shift=    0.000
 RMSDP=1.60D-03 MaxDP=6.97D-01 DE=-3.05D-02 OVMax= 5.99D-03

 Cycle   5  Pass 1  IDiag  1:
 RMSU=  4.20D-04    CP:  9.62D-01  8.62D-01  8.61D-01  6.29D-01
 E= -2159.37650720072     Delta-E=       -0.004956958204 Rises=F Damp=F
 DIIS: error= 3.04D-04 at cycle   5 NSaved=   5.
 NSaved= 5 IEnMin= 5 EnMin= -2159.37650720072     IErMin= 5 ErrMin= 3.04D-04
 ErrMax= 3.04D-04  0.00D+00 EMaxC= 1.00D-01 BMatC= 2.94D-04 BMatP= 5.92D-03
 IDIUse=3 WtCom= 9.97D-01 WtEn= 3.04D-03
 Coeff-Com: -0.118D-01 0.273D-01 0.103D+00 0.261D+00 0.621D+00
 Coeff-En:   0.000D+00 0.000D+00 0.000D+00 0.000D+00 0.100D+01
 Coeff:     -0.118D-01 0.272D-01 0.102D+00 0.260D+00 0.622D+00
 Gap=     0.271 Goal=   None    Shift=    0.000
 RMSDP=2.29D-04 MaxDP=6.02D-02 DE=-4.96D-03 OVMax= 1.41D-03

 Cycle   6  Pass 1  IDiag  1:
 RMSU=  1.07D-04    CP:  9.64D-01  8.65D-01  8.82D-01  6.11D-01  7.57D-01
 E= -2159.37672306088     Delta-E=       -0.000215860166 Rises=F Damp=F
 DIIS: error= 6.74D-05 at cycle   6 NSaved=   6.
 NSaved= 6 IEnMin= 6 EnMin= -2159.37672306088     IErMin= 6 ErrMin= 6.74D-05
 ErrMax= 6.74D-05  0.00D+00 EMaxC= 1.00D-01 BMatC= 2.76D-05 BMatP= 2.94D-04
 IDIUse=1 WtCom= 1.00D+00 WtEn= 0.00D+00
 Coeff-Com: -0.417D-02 0.740D-02 0.351D-01 0.104D+00 0.324D+00 0.534D+00
 Coeff:     -0.417D-02 0.740D-02 0.351D-01 0.104D+00 0.324D+00 0.534D+00
 Gap=     0.271 Goal=   None    Shift=    0.000
 RMSDP=7.86D-05 MaxDP=3.13D-02 DE=-2.16D-04 OVMax= 4.95D-04

 Cycle   7  Pass 1  IDiag  1:
 RMSU=  2.58D-05    CP:  9.65D-01  8.67D-01  8.79D-01  6.38D-01  7.53D-01
                    CP:  6.23D-01
[...]
 ,0.00006181,0.00016577,-0.00091751,-0.00008643,0.00069749,0.00007703,-
 0.00019224,-0.00003890,0.00009669,-0.00007304,0.00002851,-0.00000155,-
 0.00004602,0.00005893,0.00042285,-0.00107622,0.00059103,0.00073279,0.0
 0021802,-0.00068823,0.00005749,0.00027329,0.00019934,0.00081099,-0.000
 52908,-0.00078694,-0.00031359,0.00013004,0.00003371,-0.00006905,0.0000
 6933,0.00001814,-0.00239605,0.00154155,-0.00119347,0.00036740,0.000207
 99,0.00034638,0.00010335,0.00026617,0.00002090,0.00003972,0.00012290,0
 .00027294,-0.00056513,0.00000267,-0.00000303,0.00082151,0.00052688,-0.
 00017247,0.00018881,0.00001700,-0.00000182,0.00004222,-0.00041300,-0.0
 0021545,-0.00042289,-0.00060661,0.00033851,0.00049407,-0.00006309,-0.0
 0030962,-0.00006576,-0.00006360,0.00003518,0.00011182,0.00010816,-0.00
 012387,-0.00002694,0.00008652,-0.00002312,-0.00002574,0.00005802,0.000
 12535,-0.00019353,-0.00025153,-0.00076936,-0.00011590,0.00047461,-0.00
 004301,-0.00020328,0.00001191,0.00006166,-0.00046451,-0.00089495,0.000
 05801,0.00028367,0.00025952,-0.00019322,-0.00005972,-0.00005702,0.0000
 5966,-0.00004169,-0.00000538,-0.00004965,-0.00050160,-0.00036100,0.000
 03227,0.00010577,0.00007031,0.00007312,0.00001194,-0.00023764,0.000053
 72,0.00008804,-0.00002791,0.00000726,-0.00005508,0.00006157,0.00006811
 ,0.00001566,-0.00000573,0.00001605,-0.00001199,-0.00001559,-0.00005853
 ,0.00007764,0.00002236,-0.00009035,-0.00005510,-0.00004485,0.00009079,
 -0.00001068,-0.00006691,-0.00004208,0.00008626,0.00034682,0.00018950,0
 .00006476,0.00004874,-0.00005989,0.00008803,0.00000050,-0.00028834,0.0
 0034496,-0.00139012,0.00057153,-0.00034878,0.00112134,-0.00030897,0.00
 017363,0.00003700,-0.00023919,-0.00811257,-0.00814833,0.03225563,-0.00
 504997,-0.00162477,-0.00027431,0.00178492,0.00004030,-0.00019641,-0.07
 004924,-0.00583177,0.04697762,0.00991647,-0.00059532,-0.02449502,0.080
 76988,-0.00003105,-0.00059637,0.00039357,-0.00014146,0.00025738,-0.000
 47825,0.00000068,-0.00001158,0.00002895,-0.00008039,0.00003597,-0.0002
 4254,0.00023188,-0.00030040,-0.00002679,-0.00014338,0.00107104,-0.0015
 5914,0.00000637,-0.00003556,0.00004000,-0.00001048,0.00001354,0.000019
 44,0.00000134,-0.00006175,0.00005853,-0.00003990,0.00001102,0.00000548
 ,0.00013848,-0.00063658,0.00027198,0.00006377,-0.00008011,0.00022060,0
 .00005623,-0.00007469,0.00007685,0.00003257,-0.00005129,0.00003048,-0.
 00011894,-0.00016071,0.00042821,0.00166595,0.00450496,0.00040331,-0.00
 030630,-0.00021047,-0.00019278,-0.00018759,-0.00082308,-0.00098799,-0.
 00220604,-0.00814808,-0.00384317,-0.00061737,-0.00154294,0.00147865,0.
 00000097,-0.00002103,0.00004024,-0.00000275,-0.00000844,-0.00002416,0.
 00000892,-0.00000937,-0.00003920,-0.00021297,-0.00061298,0.00018350,0.
 00002182,0.00090422,-0.00019624,0.00023174,0.00000366,-0.00019912,0.00
 009292,0.00005022,-0.00014405,0.00143555,0.00043708,0.00010018,0.00000
 232,0.00032547,0.00013389,0.00000240,-0.00006513,0.00000939,-0.0000554
 2,0.00054100,-0.00013911,-0.00003734,-0.00006167,0.00009250,-0.0003762
 1,0.00001924,-0.00001284,-0.00003209,-0.00007813,-0.00005884,-0.002168
 00,0.00099898,-0.00056551,-0.00001443,-0.00051790,0.00028289,0.0005883
 3,-0.00049648,0.00002604,0.00010061,0.00002665,0.00026795,0.00003230,-
 0.00003745,-0.00004264,-0.00001407,-0.00002180,0.00004701,0.00043752,-
 0.00029068,0.00019124,0.00023513,0.00005087,0.00015788,0.00031983,-0.0
 0046714,-0.00029004,-0.00014801,0.00016825,0.00000770,-0.00000599,-0.0
 0010226,0.00037594,0.00060915,0.00006531,-0.00076936,-0.00068183,-0.00
 097975,-0.00036417,-0.00025034,-0.00039508,-0.00020080,-0.00069613,-0.
 00027955,0.00021906,0.00017303,0.00009399,-0.00023392,-0.00008426,-0.0
 0010038,0.00006788,0.00036709,-0.00011368,0.00023972,0.00008261,0.0000
 7108,0.00002433,0.00001047,0.00003392,0.00009542,-0.00027541,0.0002652
 3,-0.00069971,0.00071388,0.00044365,0.00007259,0.00016442,0.00073513,0
 .00002669,-0.00063274,-0.00161897,0.00135917,0.00026680,0.00032195,-0.
 00020354,-0.00005185,-0.00007437,0.00004762,-0.00002008,-0.00000791,0.
 00001258,-0.00047039,-0.00038644,-0.00002072,0.00007202,0.00015171,0.0
 0008493,-0.00033890,0.00031915,0.00011271,-0.00006176,-0.00011908,0.00
 008267,0.00022629,0.00047898,-0.00015446,-0.00001216,-0.00005416,0.000
 06640,-0.00004575,0.00001803,0.00008497,-0.00025547,0.00044856,-0.0003
 6937,0.00027259,-0.00027232,0.00021880,0.00013208,-0.00018092,0.000009
 72,-0.00009464,-0.00038046,0.00005920,0.00009992,-0.00001689,-0.000066
 37,0.00003463,-0.00001775,0.00004489,0.00025333,0.00076780,-0.00080740
 ,0.00025161,-0.00028270,-0.00003950,0.00009539,-0.00020328,0.00005613,
 -0.00570068,-0.00543640,0.01488329,-0.00295734,-0.00061772,-0.00012259
 ,-0.00003243,0.00024155,0.00031163,-0.00576918,-0.07180140,0.05129380,
 -0.00687231,-0.00279061,0.01946198,0.01626431,0.07662066,-0.00213988,0
 .00113093,0.00011928,0.00135842,-0.00159917,0.00112517,0.00028996,-0.0
 0012846,-0.00015488,0.00027684,-0.00050350,0.00034594,-0.00091240,-0.0
 0024666,-0.00041541,0.00193398,0.00004970,0.00009653,-0.00015849,0.000
 16992,-0.00007174,0.00001710,-0.00003861,-0.00005812,-0.00000765,0.000
 03872,-0.00004019,-0.00003069,-0.00007235,-0.00002692,0.00016252,-0.00
 064306,-0.00001607,-0.00006727,0.00050327,0.00058882,-0.00021597,0.000
 67129,0.00022537,-0.00042256,0.00048434,-0.00004660,-0.00056987,0.0004
 3044,-0.00164248,-0.00274269,-0.00771515,-0.00565696,0.00030086,0.0006
 1821,0.00026477,0.00030931,0.00137218,0.00202575,-0.00274508,-0.002471
 66,0.00452923,0.00505595,0.00461984,0.00438389,0.00001372,-0.00008287,
 -0.00012664,0.00005002,-0.00005605,0.00001216,0.00007437,-0.00007657,0
 .00010327,0.00073148,0.00027227,-0.00077726,-0.00069831,0.00005495,0.0
 0150376,-0.00003275,-0.00047084,-0.00004254,0.00028006,0.00020128,0.00
 076713,-0.00090137,-0.00022104,0.00007144,0.00000009,0.00013658,0.0000
 5443,0.00003265,-0.00005797,-0.00021328,0.00101368,-0.00022827,0.00085
 040,-0.00008731,0.00006825,-0.00010152,0.00022493,0.00000119,-0.000018
 53,0.00011101,0.00000640,-0.00004611,0.00119604,-0.00064479,-0.0010430
 1,-0.00040658,0.00035506,-0.00089438,0.00072348,0.00003572,-0.00072606
 ,-0.00127077,0.00073296,0.00037227,0.00032505,-0.00008713,-0.00001665,
 0.00006104,-0.00009408,-0.00003433,0.00195297,-0.00113530,0.00138558,-
 0.00036839,-0.00027157,-0.00048811,0.00017742,-0.00045453,0.00069867,0
 .00085329,0.00010574,0.00026679,0.00061550,0.00034160,-0.00030160,-0.0
 0167151,-0.00166929,0.00113113,0.00033580,0.00017852,0.00014957,-0.000
 16338,0.00083288,0.00211427,-0.00097690,-0.00103537,0.00042264,-0.0000
 9415,0.00027171,-0.00004112,0.00014520,0.00023784,-0.00009930,-0.00023
 463,0.00024877,0.00052839,-0.00006320,-0.00010340,-0.00046586,0.000073
 51,0.00011664,0.00006466,-0.00043725,-0.00009064,-0.00008444,-0.001714
 21,-0.00244584,-0.00211662,-0.00001315,-0.00006043,-0.00041050,0.00037
 055,0.00279569,0.00002662,-0.00057415,-0.00051879,0.00010892,0.0000752
 9,0.00011961,-0.00004240,0.00003856,-0.00000170,0.00001747,0.00077315,
 0.00058703,0.00022647,-0.00016053,-0.00013494,-0.00019873,0.00035965,-
 0.00015645,0.00002836,0.00004200,0.00022503,0.00010612,0.00025863,-0.0
 0002531,-0.00036012,-0.00011776,0.00009555,0.00005440,0.00000280,0.000
 04082,0.00013282,0.00011455,-0.00023840,0.00009151,-0.00010553,0.00005
 053,-0.00033757,-0.00008526,0.00014509,0.00007703,-0.00001140,0.000203
 36,-0.00034458,-0.00010676,0.00019651,0.00017620,0.00008981,0.00001398
 ,-0.00003917,-0.00004107,-0.00168071,-0.00016328,0.00037132,0.00025262
 ,0.00027832,-0.00062918,0.00023116,0.00025877,0.00587761,0.00182219,0.
 00373714,-0.00244918,-0.00124753,0.00117684,-0.00178559,-0.00107998,0.
 00097207,0.04957752,0.05261345,-0.33825137,-0.00217045,0.00206444,-0.0
 0718207,-0.05121450,-0.04768050,0.34709373,-0.00016354,-0.00003735,-0.
 00003503,0.00003115,-0.00003866,0.00007829,0.00000658,0.00001522,0.000
 00222,0.00002079,0.00000578,0.00000700,-0.00001955,-0.00002946,0.00001
 103,0.00013612,0.00006211,-0.00006163,-0.00001127,0.00000976,0.0000122
 8,0.,-0.00000400,-0.00000220,-0.00000310,-0.00000058,-0.00000189,-0.00
 000389,-0.00000408,-0.00000049,-0.00001460,-0.00003820,0.00000217,-0.0
 0001905,0.00001679,-0.00000332,-0.00002215,-0.00000872,-0.00000906,-0.
 00002071,-0.00001449,-0.00001482,-0.00011569,-0.00011757,-0.00014334,-
 0.00004491,-0.00000192,-0.00004780,-0.00000270,-0.00002785,-0.00001668
 ,0.00001417,0.00000238,0.00001173,-0.00035632,-0.00033390,0.00017725,0
 .00031334,0.00014536,0.00023525,0.00001198,-0.00000392,0.00000655,0.00
 000704,0.00000709,0.00000358,0.00000849,0.00001769,0.00001041,0.000346
 28,-0.00057092,-0.00006450,-0.00037179,0.00059270,0.00038712,-0.000114
 73,-0.00005388,0.00006988,0.00003047,0.00016529,0.00006365,0.00061381,
 0.00031300,0.00017922,0.00001453,0.00056928,0.00003961,0.00006059,-0.0
 0004921,-0.00004612,0.00010947,0.00011967,0.00009574,-0.00001859,-0.00
 004086,0.00003696,-0.00020178,-0.00002379,-0.00002565,0.00004240,-0.00
 010380,-0.00003887,-0.00136150,0.00068494,0.00010415,0.00000976,-0.000
 09948,-0.00021226,0.00107491,0.00013243,-0.00034137,-0.00030200,0.0000
 5608,0.00017201,0.00006356,-0.00001184,-0.00001933,0.00005560,-0.00008
 141,0.00002117,0.00031449,-0.00108878,-0.00002998,-0.00045619,0.000722
 44,-0.00093122,-0.00006933,-0.00000943,-0.00003864,0.00007231,0.000065
 67,0.00008858,-0.00177676,0.00004601,-0.00053222,0.00335674,-0.0000299
 9,-0.00108845,0.00020293,-0.00021726,-0.00018810,0.00053217,0.00002761
 ,0.00060178,-0.00185478,-0.00189925,0.00009709,0.00088102,-0.00063414,
 -0.00041265,-0.00034156,-0.00035522,0.00018828,0.00006666,0.00004883,-
 0.00013953,-0.00009946,0.00018420,-0.00023650,-0.00007411,0.00023777,0
 .00015635,-0.00145284,-0.00009479,0.00078451,-0.00020826,-0.00000898,-
 0.00037350,-0.00030951,0.00008397,0.00012234,-0.00559637,-0.00176844,0
 .00235773,-0.00082425,-0.00028724,0.00005688,0.00014337,0.00010999,0.0
 0006454,0.00001787,0.00004973,-0.00007286,0.00092308,0.00046976,0.0014
 5270,0.00042532,-0.00025243,-0.00043880,-0.00003011,0.00000009,0.00014
 412,0.00010217,-0.00001176,0.00004876,-0.00078751,0.00213213,0.0008771
 1,-0.00011918,-0.00003590,0.00024270,-0.00000217,-0.00018292,-0.000297
 05,-0.00073779,0.00038900,0.00041229,0.00011180,-0.00033128,0.00069595
 ,0.00027867,-0.00028870,-0.00011627,-0.00093538,0.00016765,0.00036863,
 0.00014807,-0.00001927,-0.00003785,0.00019012,0.00000073,-0.00019788,0
 .00140254,-0.00033093,0.00045898,-0.00091029,0.00079963,-0.00099683,0.
 00069703,0.00028479,-0.00017977,-0.00320587,-0.03135740,-0.01895802,0.
 00006505,-0.00001271,0.00016200,-0.00584559,-0.00276768,0.00172073,-0.
 05890299,-0.00497449,-0.00427522,0.00378848,0.02036327,0.01603314,-0.0
 0044997,0.00645653,0.00195008,0.07146718,-0.00038578,-0.00008978,0.000
 19138,0.00013896,-0.00005032,-0.00018935,0.00007905,-0.00005056,-0.000
 00605,0.00001440,-0.00009130,-0.00012944,-0.00004768,-0.00006820,-0.00
 019069,0.00032337,0.00028109,-0.00043644,-0.00003506,0.00000564,0.0000
 2063,-0.00000118,0.00000684,0.00000668,-0.00000059,-0.00003882,0.00004
 432,-0.00005060,-0.00002433,-0.00000679,0.00004393,-0.00020740,0.00008
 481,-0.00000009,0.00001026,0.00028301,-0.00001960,0.00012323,0.0001531
 2,-0.00008982,0.00008000,0.00002713,-0.00018708,-0.00011433,0.00017036
 ,-0.00012970,-0.00047775,-0.00030544,-0.00003443,0.00005295,-0.0000624
 4,0.00001054,0.00009749,0.00021392,-0.00059894,-0.00199321,0.00202956,
 0.00066145,0.00116476,0.00065801,-0.00000247,-0.00001137,-0.00004373,0
 .00001656,-0.00002258,-0.00003247,0.00003202,-0.00003285,-0.00002358,-
 0.00060293,-0.00106197,0.00033683,0.00018120,0.00187605,-0.00019072,0.
 00043437,0.00003555,-0.00027228,-0.00000173,0.00007915,-0.00007909,0.0
 0096479,0.00000535,0.00003091,0.00009280,0.00044098,0.00003952,-0.0000
 3206,-0.00016919,0.00001252,0.00008459,0.00017596,-0.00012538,-0.00005
 385,0.00000308,0.00006486,-0.00020388,0.00000919,-0.00001929,-0.000087
 09,-0.00008030,0.00003875,-0.00114629,0.00046565,0.00001190,-0.0001773
 9,-0.00058574,0.00022605,0.00111827,-0.00139409,-0.00043996,0.00114927
 ,-0.00073132,-0.00049138,-0.00038991,0.00015054,-0.00006208,-0.0000934
 9,0.00007033,0.00006673,-0.00220715,0.00124819,-0.00161413,0.00087627,
 0.00115808,0.00146123,0.00014201,-0.00014403,-0.00014939,0.00010866,0.
 00018100,0.00005289,0.00449776,0.00036735,0.00114781,-0.01071529,-0.00
 570620,0.00296401,-0.00010456,-0.00026907,0.00122663,-0.00075518,0.000
 47546,0.00085015,-0.00074105,0.00010811,0.00010733,-0.00236650,0.00081
 305,0.00032800,0.00124624,0.00186526,-0.00036230,0.00008709,0.00007336
 ,0.00058552,0.00008259,-0.00011342,-0.00007857,0.00028745,-0.00012398,
 -0.00005154,-0.00068501,0.00094699,0.00028197,0.00038294,-0.00117288,-
 0.00102690,0.00037718,0.00054427,-0.00102970,0.00120348,0.00475330,0.0
 0019609,0.00029125,-0.00003450,-0.00050214,-0.00011367,-0.00005043,-0.
 00003497,0.00009536,-0.00003848,0.00017437,0.00012801,-0.00151829,0.00
 044548,-0.00047341,0.00040480,-0.00087239,-0.00028068,0.00041507,0.000
 03172,-0.00005411,0.00004811,0.00010859,0.00547379,0.00201156,-0.00705
 491,-0.00116480,0.00043157,0.00140479,-0.00058541,0.00016432,0.0013744
 6,-0.00014898,0.00146868,-0.00092762,0.00042403,-0.00027096,0.00057089
 ,-0.00011643,-0.00071819,0.00008541,0.00029810,0.00007101,0.00073530,0
 .00020740,-0.00023458,-0.00020790,-0.00026483,-0.00019888,-0.00006446,
 0.00124883,0.00245992,-0.00023372,0.00027316,0.00034893,0.00066516,0.0
 0067730,-0.00079088,-0.00014522,-0.00762502,-0.01008475,-0.00311796,0.
 00051743,-0.00028388,-0.00014844,0.00069857,0.00076409,0.00093362,-0.0
 0772278,-0.29548541,-0.13190208,0.00077199,-0.01543801,-0.00734672,0.0
 0165453,0.01115759,-0.00027535,0.01309952,0.30255805,-0.00014763,0.000
 07609,0.00004951,0.00008131,-0.00008219,-0.00004019,0.00004477,-0.0000
 3122,-0.00001064,0.00001141,-0.00005377,-0.00003108,-0.00004977,0.0000
 1498,-0.00008745,0.00013865,-0.00002733,0.00006868,-0.00001177,0.00000
 178,0.00000347,-0.00000006,0.00000010,-0.00000078,-0.00000071,-0.00001
 146,0.00001276,-0.00001703,-0.00001299,-0.00000189,0.00000338,0.000001
 11,-0.00001270,-0.00000970,0.00001932,0.00010006,-0.00001146,0.0000820
 5,0.00006875,-0.00005051,0.00006228,0.00001004,-0.00008156,0.00000987,
 0.00000185,-0.00024104,-0.00050800,-0.00025364,0.00003065,0.00003569,0
 .00000335,0.00000689,0.00008166,0.00012329,0.00017833,0.00122551,0.000
 81982,0.00023698,0.00033925,-0.00037912,-0.00000022,-0.00000664,-0.000
 02680,0.00000732,-0.00001507,-0.00001238,0.00001541,-0.00002493,-0.000
 00640,-0.00011912,-0.00006057,-0.00033134,0.00017211,0.00003008,0.0002
 3644,0.00027031,0.00004729,-0.00004944,-0.00009729,-0.00002301,0.00000
 575,0.00049968,0.00012042,0.00019473,0.00013986,0.00002359,0.00011648,
 -0.00001698,-0.00000233,-0.00002969,-0.00004382,-0.00006583,-0.0000888
 1,-0.00003305,0.00001642,0.00004008,-0.00011783,0.00002352,-0.00001144
 ,-0.00000454,-0.00000496,-0.00004034,-0.00080278,0.00035449,0.00018400
 ,-0.00015161,-0.00005421,0.00006205,-0.00035544,-0.00035423,-0.0002397
 4,-0.00021113,0.00001458,0.00012932,-0.00002026,0.00001160,-0.00002715
 ,0.00007058,-0.00006434,0.00000749,0.00016135,-0.00084987,-0.00110581,
 -0.00088915,0.00116385,-0.00015047,-0.00005121,0.00004592,-0.00005384,
 0.00006217,0.00000728,-0.00002580,0.00114242,0.00005080,-0.00020128,-0
 .00406562,-0.00098684,0.00130390,0.00062259,0.00100576,0.00078870,0.00
 008827,0.00027841,-0.00001586,0.00043032,0.00100429,-0.00015835,-0.000
 87611,0.00000585,0.00052386,0.00057856,0.00063902,-0.00014719,-0.00030
 594,0.00004149,-0.00042153,-0.00005609,-0.00009887,0.00006845,0.000050
 94,-0.00004515,-0.00020933,0.00047136,-0.00017425,0.00096576,-0.000094
 84,-0.00037210,-0.00023334,-0.00006513,-0.00050716,-0.00034322,0.00275
 444,0.00327328,-0.00513559,-0.00094991,-0.00091158,0.00051437,0.000191
 32,0.00021771,-0.00010497,0.00014674,0.00007093,0.00005420,0.00225651,
 0.00058521,0.00094614,-0.00046838,-0.00057792,-0.00101712,0.00002827,0
 .00002026,-0.00003935,0.00001817,0.00006253,-0.00006386,0.00136875,-0.
 00272476,-0.00167696,-0.00016045,0.00032673,0.00000442,0.00003620,-0.0
 0006972,-0.00006173,0.00143778,-0.00114701,0.00064462,0.00002822,0.000
 94030,-0.00124905,-0.00064513,0.00030746,-0.00008126,0.00066819,0.0006
 9859,0.00064282,-0.00015271,-0.00014388,-0.00029051,-0.00012785,-0.000
 08818,-0.00016427,-0.00015802,0.00000732,0.00144399,-0.00057261,0.0004
 0947,-0.00039053,0.00032151,-0.00001981,-0.00036096,-0.00301574,0.0044
 6978,0.00357663,0.00055049,0.00081979,-0.00004493,0.00110228,0.0007473
 3,0.00038533,-0.00499347,-0.12955602,-0.13518936,0.00502025,0.01360832
 ,0.01001602,-0.00101424,-0.03353375,-0.01566754,-0.00018683,0.13981057
 ,0.14216787\\-0.00002945,0.00000293,-0.00000885,0.00001235,-0.00000724
 ,-0.00001204,-0.00000240,0.00000066,0.00000146,0.00000585,0.00000818,0
 .00000100,-0.00000446,-0.00000207,0.00001804,0.00000901,0.00000324,-0.
 00000098,-0.00000366,0.00000223,0.00000187,-0.00000459,-0.00000159,-0.
 00000053,0.00000165,-0.00000275,0.00000132,0.00000300,-0.00000455,0.00
 000053,-0.00000193,0.00000158,0.00000081,0.00000322,0.00000309,-0.0000
 0722,0.00000282,-0.00000346,-0.00000513,0.00000604,0.00000034,0.000000
 13,0.00000701,0.00000285,0.00000392,-0.00000859,-0.00000437,0.00000411
 ,-0.00000052,-0.00000734,0.00000168,-0.00000405,-0.00000182,0.00000338
 ,-0.00000550,-0.00000731,0.00001472,0.00001075,0.00001280,-0.00001079,
 -0.00000433,-0.00000575,0.00000054,0.00000007,-0.00000594,0.00000364,0
 .00000036,-0.00000092,0.00000281,-0.00002507,-0.00001278,0.00001627,0.
 00002183,-0.00001163,-0.00002735,-0.00000805,0.00000736,0.00001014,-0.
 00000529,-0.00000038,-0.00000813,-0.00000056,0.00000350,0.00000627,0.0
 0000983,0.00000579,-0.00000136,-0.00000591,0.00000322,0.00000385,0.000
 00343,0.00000138,0.00000128,-0.00000033,0.00000186,-0.00000038,0.00000
 273,0.00000241,-0.00000089,0.00000406,0.00000178,-0.00000278,0.0000022
 6,-0.00000172,0.00001487,-0.00000168,0.00002478,-0.00001725,-0.0000149
 4,0.00002139,0.00000117,0.00002270,-0.00000464,0.00000060,0.00000369,0
 .00000671,-0.00000387,0.00000532,0.00000388,0.00000108,-0.00001974,0.0
 0002733,0.00000300,0.00001372,0.00000192,0.00000629,0.00000565,0.00000
 159,-0.00000401,0.00002539,-0.00001438,0.00000125,0.00001703,-0.000009
 11,0.00001683,-0.00002668,0.00000828,-0.00001606,-0.00000454,-0.000007
 00,0.00001282,-0.00000178,0.00000483,0.00000799,0.00002103,-0.00001038
 ,-0.00000686,-0.00002259,0.00001946,-0.00001189,-0.00000002,-0.0000031
 1,0.00000002,0.00000149,0.00000057,-0.00000071,-0.00000497,-0.00000156
 ,-0.00000670,-0.00000067,0.00000008,-0.00000355,-0.00000157,0.00000342
 ,0.00000110,0.00000789,0.00001661,-0.00001211,-0.00000003,0.00000840,-
 0.00000281,0.00000312,-0.00000601,-0.00000867,0.00001902,0.00000497,-0
 .00000049,-0.00000214,0.00000118,-0.00000218,-0.00000337,0.00000084,0.
 00000068,-0.00000955,-0.00002553,0.00000197,0.00000339,0.00000826,-0.0
 0000301,-0.00001596,-0.00002475,0.00000542,-0.00001139,-0.00000104,-0.
 00000451,-0.00000695,0.00000584,0.00000450,0.00000143,-0.00000470,0.00
 000005,-0.00000012,-0.00000238,0.00000062,-0.00000186,-0.00000785,-0.0
 0000729,0.00000121,0.00000242,0.00000474,0.00000242,-0.00000073,0.0000
 0434,-0.00000272,-0.00000529,0.00000809,0.00000176,-0.00000323,0.00000
 525,0.00000226,-0.00000141,0.00000081,-0.00000056,-0.00000116,-0.00000
 513,-0.00000225,-0.00000218,0.00000635,0.00000289,-0.00000306,0.000000
 95,0.00000277,-0.00000158,0.00000630,0.00000213,-0.00000082,0.00000208
 ,0.00000418,-0.00000535,0.00000550,0.00000665,-0.00000860,-0.00000472,
 -0.00000403,-0.00000291,-0.00001534,-0.00000652,-0.00000360,-0.0000034
 3,-0.00000204,0.00000605,0.00000455\\\@


 Once you get people laughing, they're
 listening and you can tell them almost anything.
                                 -- Herb Gardner
 Job cpu time:      21 days 23 hours 13 minutes 57.8 seconds.
 File lengths (MBytes):  RWF=  17379 Int=      0 D2E=      0 Chk=    103 Scr=      1
 Normal termination of Gaussian 09 at Fri Apr  8 23:25:45 2016.
