 Entering Gaussian System, Link 0=g16
 Input=input.com
 Output=input.log
 Initial command:
 /home/matma/Programs/gaussian/G16_x86_SSE4/tar/g16/l1.exe "/scratch-data/gaussian/Gau-10430.inp" -scrdir="/scratch-data/gaussian/"
 Entering Link 1 = /home/matma/Programs/gaussian/G16_x86_SSE4/tar/g16/l1.exe PID=     10432.
  
 Copyright (c) 1988-2017, Gaussian, Inc.  All Rights Reserved.
  
 This is part of the Gaussian(R) 16 program.  It is based on
 the Gaussian(R) 09 system (copyright 2009, Gaussian, Inc.),
 the Gaussian(R) 03 system (copyright 2003, Gaussian, Inc.),
 the Gaussian(R) 98 system (copyright 1998, Gaussian, Inc.),
 the Gaussian(R) 94 system (copyright 1995, Gaussian, Inc.),
 the Gaussian 92(TM) system (copyright 1992, Gaussian, Inc.),
 the Gaussian 90(TM) system (copyright 1990, Gaussian, Inc.),
 the Gaussian 88(TM) system (copyright 1988, Gaussian, Inc.),
 the Gaussian 86(TM) system (copyright 1986, Carnegie Mellon
 University), and the Gaussian 82(TM) system (copyright 1983,
 Carnegie Mellon University). Gaussian is a federally registered
 trademark of Gaussian, Inc.
  
 This software contains proprietary and confidential information,
 including trade secrets, belonging to Gaussian, Inc.
  
 This software is provided under written license and may be
 used, copied, transmitted, or stored only in accord with that
 written license.
  
 The following legend is applicable only to US Government
 contracts under FAR:
  
                    RESTRICTED RIGHTS LEGEND
  
 Use, reproduction and disclosure by the US Government is
 subject to restrictions as set forth in subparagraphs (a)
 and (c) of the Commercial Computer Software - Restricted
 Rights clause in FAR 52.227-19.
  
 Gaussian, Inc.
 340 Quinnipiac St., Bldg. 40, Wallingford CT 06492
  
  
 ---------------------------------------------------------------
 Warning -- This program may not be used in any manner that
 competes with the business of Gaussian, Inc. or will provide
 assistance to any competitor of Gaussian, Inc.  The licensee
 of this program is prohibited from giving any competitor of
 Gaussian, Inc. access to this program.  By using this program,
 the user acknowledges that Gaussian, Inc. is engaged in the
 business of creating and licensing software in the field of
 computational chemistry and represents and warrants to the
 licensee that it is not a competitor of Gaussian, Inc. and that
 it will not use this program in any manner prohibited above.
 ---------------------------------------------------------------
  

 Cite this work as:
 Gaussian 16, Revision B.01,
 M. J. Frisch, G. W. Trucks, H. B. Schlegel, G. E. Scuseria, 
 M. A. Robb, J. R. Cheeseman, G. Scalmani, V. Barone, 
 G. A. Petersson, H. Nakatsuji, X. Li, M. Caricato, A. V. Marenich, 
 J. Bloino, B. G. Janesko, R. Gomperts, B. Mennucci, H. P. Hratchian, 
 J. V. Ortiz, A. F. Izmaylov, J. L. Sonnenberg, D. Williams-Young, 
 F. Ding, F. Lipparini, F. Egidi, J. Goings, B. Peng, A. Petrone, 
 T. Henderson, D. Ranasinghe, V. G. Zakrzewski, J. Gao, N. Rega, 
 G. Zheng, W. Liang, M. Hada, M. Ehara, K. Toyota, R. Fukuda, 
 J. Hasegawa, M. Ishida, T. Nakajima, Y. Honda, O. Kitao, H. Nakai, 
 T. Vreven, K. Throssell, J. A. Montgomery, Jr., J. E. Peralta, 
 F. Ogliaro, M. J. Bearpark, J. J. Heyd, E. N. Brothers, K. N. Kudin, 
 V. N. Staroverov, T. A. Keith, R. Kobayashi, J. Normand, 
 K. Raghavachari, A. P. Rendell, J. C. Burant, S. S. Iyengar, 
 J. Tomasi, M. Cossi, J. M. Millam, M. Klene, C. Adamo, R. Cammi, 
 J. W. Ochterski, R. L. Martin, K. Morokuma, O. Farkas, 
 J. B. Foresman, and D. J. Fox, Gaussian, Inc., Wallingford CT, 2016.
 
 ******************************************
 Gaussian 16:  ES64L-G16RevB.01 20-Dec-2017
                22-Jun-2021 
 ******************************************
 %nproc=12
 Will use up to   12 processors via shared memory.
 %mem=16GB
 --------------------------------------
 #P pm6 opt=loose freq int=(grid=99590)
 --------------------------------------
 1/7=-1,18=20,19=15,26=1,38=1/1,3;
 2/9=110,12=2,17=6,18=5,40=1/2;
 3/5=2,25=1,41=3900000,71=1,75=99590/1,2,3;
 4/35=1/1;
 5/5=2,35=1,38=5/2;
 6/7=2,8=2,9=2,10=2,28=1/1;
 7//1,2,3,16;
 1/7=-1,18=20,19=15,26=1/3(2);
 2/9=110/2;
 99//99;
 2/9=110/2;
 3/5=2,25=1,41=3900000,71=1,75=99590,135=20/1,2,3;
 4/5=5,16=3,35=1/1;
 5/5=2,35=1,38=5/2;
 7//1,2,3,16;
 1/7=-1,18=20,19=15,26=1/3(-5);
 2/9=110/2;
 6/7=2,8=2,9=2,10=2,19=2,28=1/1;
 99/9=1/99;
 Leave Link    1 at Tue Jun 22 14:23:18 2021, MaxMem=  2147483648 cpu:               0.2 elap:               0.0
 (Enter /home/matma/Programs/gaussian/G16_x86_SSE4/tar/g16/l101.exe)
 ------------
 offspring-16
 ------------
 Symbolic Z-matrix:
 Charge =  0 Multiplicity = 1
 O                     1.963     0.956     0.206 
 C                     2.445     2.125     0.881 
 C                     3.127     1.706     2.204 
 O                     3.987     0.63      1.812 
 C                     2.069     1.194     3.205 
 C                     1.085     2.333     3.534 
 O                     1.056     3.347     2.536 
 C                     1.214     3.021     1.138 
 C                    -0.099     2.419     0.617 
 O                    -1.207     3.118     1.213 
 O                    -4.54      0.134     3.892 
 C                    -3.172    -0.297     3.785 
 C                    -2.314     0.897     3.312 
 C                    -0.802     0.665     3.535 
 C                    -0.449    -0.132     4.821 
 O                    -1.402    -1.124     5.21 
 C                    -2.797    -0.737     5.209 
 C                    -3.514    -2.029     5.658 
 O                    -4.528    -2.433     4.744 
 O                     0.703    -0.929     4.553 
 O                    -0.289     1.995     3.765 
 O                    -2.589     0.941     1.916 
 O                     2.8       0.881     4.392 
 H                     3.178     2.624     0.206 
 H                     3.745     2.518     2.649 
 H                     4.347     0.188     2.622 
 H                     1.564     0.278     2.809 
 H                     1.352     2.916     4.451 
 H                     1.373     4.052     0.73 
 H                    -0.228     2.567    -0.471 
 H                    -0.196     1.34      0.853 
 H                    -0.974     3.339     2.171 
 H                    -3.116    -1.141     3.055 
 H                    -2.633     1.851     3.796 
 H                    -0.339     0.205     2.632 
 H                    -0.194     0.521     5.682 
 H                    -2.934     0.091     5.938 
 H                    -2.81     -2.888     5.662 
 H                    -3.957    -1.905     6.663 
 H                    -5.167    -1.688     4.583 
 H                    -2.345     1.852     1.523 
 H                    -4.853     0.433     3.001 
 H                     2.367     0.113     4.86 
 H                     0.447    -1.882     4.451 
 H                     2.677     0.262     0.202 
 
 ITRead=  0  0  0  0  0  0  0  0  0  0  0  0  0  0  0  0  0  0  0  0
 ITRead=  0  0  0  0  0  0  0  0  0  0  0  0  0  0  0  0  0  0  0  0
 ITRead=  0  0  0  0  0
 MicOpt= -1 -1 -1 -1 -1 -1 -1 -1 -1 -1 -1 -1 -1 -1 -1 -1 -1 -1 -1 -1
 MicOpt= -1 -1 -1 -1 -1 -1 -1 -1 -1 -1 -1 -1 -1 -1 -1 -1 -1 -1 -1 -1
 MicOpt= -1 -1 -1 -1 -1
 NAtoms=     45 NQM=       45 NQMF=       0 NMMI=      0 NMMIF=      0
                NMic=       0 NMicF=      0.
                    Isotopes and Nuclear Properties:
 (Nuclear quadrupole moments (NQMom) in fm**2, nuclear magnetic moments (NMagM)
  in nuclear magnetons)

  Atom         1           2           3           4           5           6           7           8           9          10
 IAtWgt=          16          12          12          16          12          12          16          12          12          16
 AtmWgt=  15.9949146  12.0000000  12.0000000  15.9949146  12.0000000  12.0000000  15.9949146  12.0000000  12.0000000  15.9949146
 NucSpn=           0           0           0           0           0           0           0           0           0           0
 AtZEff=  -0.0000000  -0.0000000  -0.0000000  -0.0000000  -0.0000000  -0.0000000  -0.0000000  -0.0000000  -0.0000000  -0.0000000
 NQMom=    0.0000000   0.0000000   0.0000000   0.0000000   0.0000000   0.0000000   0.0000000   0.0000000   0.0000000   0.0000000
 NMagM=    0.0000000   0.0000000   0.0000000   0.0000000   0.0000000   0.0000000   0.0000000   0.0000000   0.0000000   0.0000000
 AtZNuc=   8.0000000   6.0000000   6.0000000   8.0000000   6.0000000   6.0000000   8.0000000   6.0000000   6.0000000   8.0000000

  Atom        11          12          13          14          15          16          17          18          19          20
 IAtWgt=          16          12          12          12          12          16          12          12          16          16
 AtmWgt=  15.9949146  12.0000000  12.0000000  12.0000000  12.0000000  15.9949146  12.0000000  12.0000000  15.9949146  15.9949146
 NucSpn=           0           0           0           0           0           0           0           0           0           0
 AtZEff=  -0.0000000  -0.0000000  -0.0000000  -0.0000000  -0.0000000  -0.0000000  -0.0000000  -0.0000000  -0.0000000  -0.0000000
 NQMom=    0.0000000   0.0000000   0.0000000   0.0000000   0.0000000   0.0000000   0.0000000   0.0000000   0.0000000   0.0000000
 NMagM=    0.0000000   0.0000000   0.0000000   0.0000000   0.0000000   0.0000000   0.0000000   0.0000000   0.0000000   0.0000000
 AtZNuc=   8.0000000   6.0000000   6.0000000   6.0000000   6.0000000   8.0000000   6.0000000   6.0000000   8.0000000   8.0000000

  Atom        21          22          23          24          25          26          27          28          29          30
 IAtWgt=          16          16          16           1           1           1           1           1           1           1
 AtmWgt=  15.9949146  15.9949146  15.9949146   1.0078250   1.0078250   1.0078250   1.0078250   1.0078250   1.0078250   1.0078250
 NucSpn=           0           0           0           1           1           1           1           1           1           1
 AtZEff=  -0.0000000  -0.0000000  -0.0000000  -0.0000000  -0.0000000  -0.0000000  -0.0000000  -0.0000000  -0.0000000  -0.0000000
 NQMom=    0.0000000   0.0000000   0.0000000   0.0000000   0.0000000   0.0000000   0.0000000   0.0000000   0.0000000   0.0000000
 NMagM=    0.0000000   0.0000000   0.0000000   2.7928460   2.7928460   2.7928460   2.7928460   2.7928460   2.7928460   2.7928460
 AtZNuc=   8.0000000   8.0000000   8.0000000   1.0000000   1.0000000   1.0000000   1.0000000   1.0000000   1.0000000   1.0000000

  Atom        31          32          33          34          35          36          37          38          39          40
 IAtWgt=           1           1           1           1           1           1           1           1           1           1
 AtmWgt=   1.0078250   1.0078250   1.0078250   1.0078250   1.0078250   1.0078250   1.0078250   1.0078250   1.0078250   1.0078250
 NucSpn=           1           1           1           1           1           1           1           1           1           1
 AtZEff=  -0.0000000  -0.0000000  -0.0000000  -0.0000000  -0.0000000  -0.0000000  -0.0000000  -0.0000000  -0.0000000  -0.0000000
 NQMom=    0.0000000   0.0000000   0.0000000   0.0000000   0.0000000   0.0000000   0.0000000   0.0000000   0.0000000   0.0000000
 NMagM=    2.7928460   2.7928460   2.7928460   2.7928460   2.7928460   2.7928460   2.7928460   2.7928460   2.7928460   2.7928460
 AtZNuc=   1.0000000   1.0000000   1.0000000   1.0000000   1.0000000   1.0000000   1.0000000   1.0000000   1.0000000   1.0000000

  Atom        41          42          43          44          45
 IAtWgt=           1           1           1           1           1
 AtmWgt=   1.0078250   1.0078250   1.0078250   1.0078250   1.0078250
 NucSpn=           1           1           1           1           1
 AtZEff=  -0.0000000  -0.0000000  -0.0000000  -0.0000000  -0.0000000
 NQMom=    0.0000000   0.0000000   0.0000000   0.0000000   0.0000000
 NMagM=    2.7928460   2.7928460   2.7928460   2.7928460   2.7928460
 AtZNuc=   1.0000000   1.0000000   1.0000000   1.0000000   1.0000000
 Leave Link  101 at Tue Jun 22 14:23:19 2021, MaxMem=  2147483648 cpu:               2.7 elap:               0.2
 (Enter /home/matma/Programs/gaussian/G16_x86_SSE4/tar/g16/l103.exe)

 GradGradGradGradGradGradGradGradGradGradGradGradGradGradGradGradGradGrad
 Berny optimization.
 Initialization pass.
                           ----------------------------
                           !    Initial Parameters    !
                           ! (Angstroms and Degrees)  !
 --------------------------                            --------------------------
 ! Name  Definition              Value          Derivative Info.                !
 --------------------------------------------------------------------------------
 ! R1    R(1,2)                  1.4334         estimate D2E/DX2                !
 ! R2    R(1,45)                 0.9957         estimate D2E/DX2                !
 ! R3    R(2,3)                  1.5463         estimate D2E/DX2                !
 ! R4    R(2,8)                  1.5441         estimate D2E/DX2                !
 ! R5    R(2,24)                 1.1144         estimate D2E/DX2                !
 ! R6    R(3,4)                  1.4321         estimate D2E/DX2                !
 ! R7    R(3,5)                  1.5439         estimate D2E/DX2                !
 ! R8    R(3,25)                 1.1132         estimate D2E/DX2                !
 ! R9    R(4,26)                 0.9905         estimate D2E/DX2                !
 ! R10   R(5,6)                  1.5407         estimate D2E/DX2                !
 ! R11   R(5,23)                 1.4287         estimate D2E/DX2                !
 ! R12   R(5,27)                 1.1184         estimate D2E/DX2                !
 ! R13   R(6,7)                  1.423          estimate D2E/DX2                !
 ! R14   R(6,21)                 1.4337         estimate D2E/DX2                !
 ! R15   R(6,28)                 1.119          estimate D2E/DX2                !
 ! R16   R(7,8)                  1.4442         estimate D2E/DX2                !
 ! R17   R(8,9)                  1.5355         estimate D2E/DX2                !
 ! R18   R(8,29)                 1.1201         estimate D2E/DX2                !
 ! R19   R(9,10)                 1.4393         estimate D2E/DX2                !
 ! R20   R(9,30)                 1.1056         estimate D2E/DX2                !
 ! R21   R(9,31)                 1.1088         estimate D2E/DX2                !
 ! R22   R(10,32)                1.0104         estimate D2E/DX2                !
 ! R23   R(11,12)                1.4383         estimate D2E/DX2                !
 ! R24   R(11,42)                0.9906         estimate D2E/DX2                !
 ! R25   R(12,13)                1.5445         estimate D2E/DX2                !
 ! R26   R(12,17)                1.5369         estimate D2E/DX2                !
 ! R27   R(12,33)                1.1173         estimate D2E/DX2                !
 ! R28   R(13,14)                1.5459         estimate D2E/DX2                !
 ! R29   R(13,22)                1.4235         estimate D2E/DX2                !
 ! R30   R(13,34)                1.1163         estimate D2E/DX2                !
 ! R31   R(14,15)                1.5536         estimate D2E/DX2                !
 ! R32   R(14,21)                1.4439         estimate D2E/DX2                !
 ! R33   R(14,35)                1.1142         estimate D2E/DX2                !
 ! R34   R(15,16)                1.4295         estimate D2E/DX2                !
 ! R35   R(15,20)                1.4262         estimate D2E/DX2                !
 ! R36   R(15,36)                1.1103         estimate D2E/DX2                !
 ! R37   R(16,17)                1.4477         estimate D2E/DX2                !
 ! R38   R(17,18)                1.5443         estimate D2E/DX2                !
 ! R39   R(17,37)                1.1117         estimate D2E/DX2                !
 ! R40   R(18,19)                1.4237         estimate D2E/DX2                !
 ! R41   R(18,38)                1.1106         estimate D2E/DX2                !
 ! R42   R(18,39)                1.1053         estimate D2E/DX2                !
 ! R43   R(19,40)                0.9946         estimate D2E/DX2                !
 ! R44   R(20,44)                0.992          estimate D2E/DX2                !
 ! R45   R(22,41)                1.0217         estimate D2E/DX2                !
 ! R46   R(23,43)                0.9982         estimate D2E/DX2                !
 ! A1    A(2,1,45)             109.2202         estimate D2E/DX2                !
 ! A2    A(1,2,3)              109.2833         estimate D2E/DX2                !
 ! A3    A(1,2,8)              106.472          estimate D2E/DX2                !
 ! A4    A(1,2,24)             107.5256         estimate D2E/DX2                !
 ! A5    A(3,2,8)              111.4972         estimate D2E/DX2                !
 ! A6    A(3,2,24)             110.4546         estimate D2E/DX2                !
 ! A7    A(8,2,24)             111.4297         estimate D2E/DX2                !
 ! A8    A(2,3,4)              103.5474         estimate D2E/DX2                !
 ! A9    A(2,3,5)              110.0205         estimate D2E/DX2                !
 ! A10   A(2,3,25)             112.9054         estimate D2E/DX2                !
 ! A11   A(4,3,5)              109.8661         estimate D2E/DX2                !
 ! A12   A(4,3,25)             108.9093         estimate D2E/DX2                !
 ! A13   A(5,3,25)             111.2939         estimate D2E/DX2                !
 ! A14   A(3,4,26)             109.25           estimate D2E/DX2                !
 ! A15   A(3,5,6)              109.3269         estimate D2E/DX2                !
 ! A16   A(3,5,23)             105.1116         estimate D2E/DX2                !
 ! A17   A(3,5,27)             110.5772         estimate D2E/DX2                !
 ! A18   A(6,5,23)             108.1383         estimate D2E/DX2                !
 ! A19   A(6,5,27)             113.1222         estimate D2E/DX2                !
 ! A20   A(23,5,27)            110.2278         estimate D2E/DX2                !
 ! A21   A(5,6,7)              112.9563         estimate D2E/DX2                !
 ! A22   A(5,6,21)             118.1766         estimate D2E/DX2                !
 ! A23   A(5,6,28)             114.0651         estimate D2E/DX2                !
 ! A24   A(7,6,21)             105.1565         estimate D2E/DX2                !
 ! A25   A(7,6,28)             102.0252         estimate D2E/DX2                !
 ! A26   A(21,6,28)            102.678          estimate D2E/DX2                !
 ! A27   A(6,7,8)              121.0518         estimate D2E/DX2                !
 ! A28   A(2,8,7)              112.2921         estimate D2E/DX2                !
 ! A29   A(2,8,9)              113.4364         estimate D2E/DX2                !
 ! A30   A(2,8,29)             111.1192         estimate D2E/DX2                !
 ! A31   A(7,8,9)              108.8686         estimate D2E/DX2                !
 ! A32   A(7,8,29)              99.2274         estimate D2E/DX2                !
 ! A33   A(9,8,29)             111.0168         estimate D2E/DX2                !
 ! A34   A(8,9,10)             109.1091         estimate D2E/DX2                !
 ! A35   A(8,9,30)             112.4078         estimate D2E/DX2                !
 ! A36   A(8,9,31)             112.5888         estimate D2E/DX2                !
 ! A37   A(10,9,30)            104.6361         estimate D2E/DX2                !
 ! A38   A(10,9,31)            108.49           estimate D2E/DX2                !
 ! A39   A(30,9,31)            109.2405         estimate D2E/DX2                !
 ! A40   A(9,10,32)            108.7433         estimate D2E/DX2                !
 ! A41   A(12,11,42)           108.9094         estimate D2E/DX2                !
 ! A42   A(11,12,13)           108.6325         estimate D2E/DX2                !
 ! A43   A(11,12,17)           104.4148         estimate D2E/DX2                !
 ! A44   A(11,12,33)           108.8227         estimate D2E/DX2                !
 ! A45   A(13,12,17)           111.6865         estimate D2E/DX2                !
 ! A46   A(13,12,33)           110.8565         estimate D2E/DX2                !
 ! A47   A(17,12,33)           112.1404         estimate D2E/DX2                !
 ! A48   A(12,13,14)           112.5288         estimate D2E/DX2                !
 ! A49   A(12,13,22)           102.5273         estimate D2E/DX2                !
 ! A50   A(12,13,34)           111.6622         estimate D2E/DX2                !
 ! A51   A(14,13,22)           109.5762         estimate D2E/DX2                !
 ! A52   A(14,13,34)           110.195          estimate D2E/DX2                !
 ! A53   A(22,13,34)           110.0948         estimate D2E/DX2                !
 ! A54   A(13,14,15)           114.7488         estimate D2E/DX2                !
 ! A55   A(13,14,21)           103.4288         estimate D2E/DX2                !
 ! A56   A(13,14,35)           110.579          estimate D2E/DX2                !
 ! A57   A(15,14,21)           105.0671         estimate D2E/DX2                !
 ! A58   A(15,14,35)           111.3863         estimate D2E/DX2                !
 ! A59   A(21,14,35)           111.2072         estimate D2E/DX2                !
 ! A60   A(14,15,16)           115.4526         estimate D2E/DX2                !
 ! A61   A(14,15,20)           108.3404         estimate D2E/DX2                !
 ! A62   A(14,15,36)           113.1023         estimate D2E/DX2                !
 ! A63   A(16,15,20)           101.6434         estimate D2E/DX2                !
 ! A64   A(16,15,36)           110.5003         estimate D2E/DX2                !
 ! A65   A(20,15,36)           106.79           estimate D2E/DX2                !
 ! A66   A(15,16,17)           117.174          estimate D2E/DX2                !
 ! A67   A(12,17,16)           108.1975         estimate D2E/DX2                !
 ! A68   A(12,17,18)           113.3046         estimate D2E/DX2                !
 ! A69   A(12,17,37)           111.3644         estimate D2E/DX2                !
 ! A70   A(16,17,18)           102.9168         estimate D2E/DX2                !
 ! A71   A(16,17,37)           108.5064         estimate D2E/DX2                !
 ! A72   A(18,17,37)           112.04           estimate D2E/DX2                !
 ! A73   A(17,18,19)           112.4225         estimate D2E/DX2                !
 ! A74   A(17,18,38)           110.7207         estimate D2E/DX2                !
 ! A75   A(17,18,39)           110.8908         estimate D2E/DX2                !
 ! A76   A(19,18,38)           103.5507         estimate D2E/DX2                !
 ! A77   A(19,18,39)           109.2762         estimate D2E/DX2                !
 ! A78   A(38,18,39)           109.7278         estimate D2E/DX2                !
 ! A79   A(18,19,40)           110.4234         estimate D2E/DX2                !
 ! A80   A(15,20,44)           110.3471         estimate D2E/DX2                !
 ! A81   A(6,21,14)            122.1387         estimate D2E/DX2                !
 ! A82   A(13,22,41)           111.0166         estimate D2E/DX2                !
 ! A83   A(5,23,43)            109.6419         estimate D2E/DX2                !
 ! D1    D(45,1,2,3)           -46.775          estimate D2E/DX2                !
 ! D2    D(45,1,2,8)          -167.3258         estimate D2E/DX2                !
 ! D3    D(45,1,2,24)           73.1419         estimate D2E/DX2                !
 ! D4    D(1,2,3,4)             47.7423         estimate D2E/DX2                !
 ! D5    D(1,2,3,5)            -69.6337         estimate D2E/DX2                !
 ! D6    D(1,2,3,25)           165.3678         estimate D2E/DX2                !
 ! D7    D(8,2,3,4)            165.1718         estimate D2E/DX2                !
 ! D8    D(8,2,3,5)             47.7958         estimate D2E/DX2                !
 ! D9    D(8,2,3,25)           -77.2027         estimate D2E/DX2                !
 ! D10   D(24,2,3,4)           -70.3565         estimate D2E/DX2                !
 ! D11   D(24,2,3,5)           172.2675         estimate D2E/DX2                !
 ! D12   D(24,2,3,25)           47.269          estimate D2E/DX2                !
 ! D13   D(1,2,8,7)            123.9575         estimate D2E/DX2                !
 ! D14   D(1,2,8,9)             -0.0062         estimate D2E/DX2                !
 ! D15   D(1,2,8,29)          -125.9134         estimate D2E/DX2                !
 ! D16   D(3,2,8,7)              4.8418         estimate D2E/DX2                !
 ! D17   D(3,2,8,9)           -119.1219         estimate D2E/DX2                !
 ! D18   D(3,2,8,29)           114.9709         estimate D2E/DX2                !
 ! D19   D(24,2,8,7)          -119.0808         estimate D2E/DX2                !
 ! D20   D(24,2,8,9)           116.9555         estimate D2E/DX2                !
 ! D21   D(24,2,8,29)           -8.9517         estimate D2E/DX2                !
 ! D22   D(2,3,4,26)          -169.9306         estimate D2E/DX2                !
 ! D23   D(5,3,4,26)           -52.4466         estimate D2E/DX2                !
 ! D24   D(25,3,4,26)           69.6896         estimate D2E/DX2                !
 ! D25   D(2,3,5,6)            -62.2657         estimate D2E/DX2                !
 ! D26   D(2,3,5,23)          -178.1419         estimate D2E/DX2                !
 ! D27   D(2,3,5,27)            62.9162         estimate D2E/DX2                !
 ! D28   D(4,3,5,6)           -175.6408         estimate D2E/DX2                !
 ! D29   D(4,3,5,23)            68.483          estimate D2E/DX2                !
 ! D30   D(4,3,5,27)           -50.4589         estimate D2E/DX2                !
 ! D31   D(25,3,5,6)            63.6516         estimate D2E/DX2                !
 ! D32   D(25,3,5,23)          -52.2246         estimate D2E/DX2                !
 ! D33   D(25,3,5,27)         -171.1665         estimate D2E/DX2                !
 ! D34   D(3,5,6,7)             21.9116         estimate D2E/DX2                !
 ! D35   D(3,5,6,21)           145.2108         estimate D2E/DX2                !
 ! D36   D(3,5,6,28)           -93.9987         estimate D2E/DX2                !
 ! D37   D(23,5,6,7)           135.8408         estimate D2E/DX2                !
 ! D38   D(23,5,6,21)         -100.86           estimate D2E/DX2                !
 ! D39   D(23,5,6,28)           19.9305         estimate D2E/DX2                !
 ! D40   D(27,5,6,7)          -101.7818         estimate D2E/DX2                !
 ! D41   D(27,5,6,21)           21.5174         estimate D2E/DX2                !
 ! D42   D(27,5,6,28)          142.3079         estimate D2E/DX2                !
 ! D43   D(3,5,23,43)         -147.7303         estimate D2E/DX2                !
 ! D44   D(6,5,23,43)           95.5774         estimate D2E/DX2                !
 ! D45   D(27,5,23,43)         -28.5545         estimate D2E/DX2                !
 ! D46   D(5,6,7,8)             35.1957         estimate D2E/DX2                !
 ! D47   D(21,6,7,8)           -95.0466         estimate D2E/DX2                !
 ! D48   D(28,6,7,8)           158.0844         estimate D2E/DX2                !
 ! D49   D(5,6,21,14)           -7.9568         estimate D2E/DX2                !
 ! D50   D(7,6,21,14)          119.1648         estimate D2E/DX2                !
 ! D51   D(28,6,21,14)        -134.4448         estimate D2E/DX2                !
 ! D52   D(6,7,8,2)            -50.0809         estimate D2E/DX2                !
 ! D53   D(6,7,8,9)             76.3877         estimate D2E/DX2                !
 ! D54   D(6,7,8,29)          -167.5404         estimate D2E/DX2                !
 ! D55   D(2,8,9,10)           164.2211         estimate D2E/DX2                !
 ! D56   D(2,8,9,30)           -80.1773         estimate D2E/DX2                !
 ! D57   D(2,8,9,31)            43.7131         estimate D2E/DX2                !
 ! D58   D(7,8,9,10)            38.4134         estimate D2E/DX2                !
 ! D59   D(7,8,9,30)           154.015          estimate D2E/DX2                !
 ! D60   D(7,8,9,31)           -82.0946         estimate D2E/DX2                !
 ! D61   D(29,8,9,10)          -69.8172         estimate D2E/DX2                !
 ! D62   D(29,8,9,30)           45.7843         estimate D2E/DX2                !
 ! D63   D(29,8,9,31)          169.6748         estimate D2E/DX2                !
 ! D64   D(8,9,10,32)          -37.5049         estimate D2E/DX2                !
 ! D65   D(30,9,10,32)        -157.998          estimate D2E/DX2                !
 ! D66   D(31,9,10,32)          85.4856         estimate D2E/DX2                !
 ! D67   D(42,11,12,13)         60.8387         estimate D2E/DX2                !
 ! D68   D(42,11,12,17)       -179.8663         estimate D2E/DX2                !
 ! D69   D(42,11,12,33)        -59.9504         estimate D2E/DX2                !
 ! D70   D(11,12,13,14)        164.1821         estimate D2E/DX2                !
 ! D71   D(11,12,13,22)        -78.1882         estimate D2E/DX2                !
 ! D72   D(11,12,13,34)         39.6484         estimate D2E/DX2                !
 ! D73   D(17,12,13,14)         49.5491         estimate D2E/DX2                !
 ! D74   D(17,12,13,22)        167.1788         estimate D2E/DX2                !
 ! D75   D(17,12,13,34)        -74.9846         estimate D2E/DX2                !
 ! D76   D(33,12,13,14)        -76.2917         estimate D2E/DX2                !
 ! D77   D(33,12,13,22)         41.338          estimate D2E/DX2                !
 ! D78   D(33,12,13,34)        159.1745         estimate D2E/DX2                !
 ! D79   D(11,12,17,16)       -177.0238         estimate D2E/DX2                !
 ! D80   D(11,12,17,18)         69.5346         estimate D2E/DX2                !
 ! D81   D(11,12,17,37)        -57.8558         estimate D2E/DX2                !
 ! D82   D(13,12,17,16)        -59.8156         estimate D2E/DX2                !
 ! D83   D(13,12,17,18)       -173.2573         estimate D2E/DX2                !
 ! D84   D(13,12,17,37)         59.3523         estimate D2E/DX2                !
 ! D85   D(33,12,17,16)         65.3159         estimate D2E/DX2                !
 ! D86   D(33,12,17,18)        -48.1257         estimate D2E/DX2                !
 ! D87   D(33,12,17,37)       -175.5162         estimate D2E/DX2                !
 ! D88   D(12,13,14,15)        -35.3416         estimate D2E/DX2                !
 ! D89   D(12,13,14,21)       -149.1922         estimate D2E/DX2                !
 ! D90   D(12,13,14,35)         91.6703         estimate D2E/DX2                !
 ! D91   D(22,13,14,15)       -148.7163         estimate D2E/DX2                !
 ! D92   D(22,13,14,21)         97.4331         estimate D2E/DX2                !
 ! D93   D(22,13,14,35)        -21.7044         estimate D2E/DX2                !
 ! D94   D(34,13,14,15)         89.9954         estimate D2E/DX2                !
 ! D95   D(34,13,14,21)        -23.8552         estimate D2E/DX2                !
 ! D96   D(34,13,14,35)       -142.9927         estimate D2E/DX2                !
 ! D97   D(12,13,22,41)        161.0676         estimate D2E/DX2                !
 ! D98   D(14,13,22,41)        -79.2239         estimate D2E/DX2                !
 ! D99   D(34,13,22,41)         42.1248         estimate D2E/DX2                !
 ! D100  D(13,14,15,16)         32.8913         estimate D2E/DX2                !
 ! D101  D(13,14,15,20)        146.0487         estimate D2E/DX2                !
 ! D102  D(13,14,15,36)        -95.7696         estimate D2E/DX2                !
 ! D103  D(21,14,15,16)        145.7791         estimate D2E/DX2                !
 ! D104  D(21,14,15,20)       -101.0635         estimate D2E/DX2                !
 ! D105  D(21,14,15,36)         17.1182         estimate D2E/DX2                !
 ! D106  D(35,14,15,16)        -93.7068         estimate D2E/DX2                !
 ! D107  D(35,14,15,20)         19.4505         estimate D2E/DX2                !
 ! D108  D(35,14,15,36)        137.6322         estimate D2E/DX2                !
 ! D109  D(13,14,21,6)        -156.4825         estimate D2E/DX2                !
 ! D110  D(15,14,21,6)          82.8531         estimate D2E/DX2                !
 ! D111  D(35,14,21,6)         -37.7791         estimate D2E/DX2                !
 ! D112  D(14,15,16,17)        -46.501          estimate D2E/DX2                !
 ! D113  D(20,15,16,17)       -163.4942         estimate D2E/DX2                !
 ! D114  D(36,15,16,17)         83.4318         estimate D2E/DX2                !
 ! D115  D(14,15,20,44)       -105.6222         estimate D2E/DX2                !
 ! D116  D(16,15,20,44)         16.4228         estimate D2E/DX2                !
 ! D117  D(36,15,20,44)        132.2505         estimate D2E/DX2                !
 ! D118  D(15,16,17,12)         59.3566         estimate D2E/DX2                !
 ! D119  D(15,16,17,18)        179.5321         estimate D2E/DX2                !
 ! D120  D(15,16,17,37)        -61.6023         estimate D2E/DX2                !
 ! D121  D(12,17,18,19)         -9.0968         estimate D2E/DX2                !
 ! D122  D(12,17,18,38)        106.1861         estimate D2E/DX2                !
 ! D123  D(12,17,18,39)       -131.763          estimate D2E/DX2                !
 ! D124  D(16,17,18,19)       -125.6901         estimate D2E/DX2                !
 ! D125  D(16,17,18,38)        -10.4072         estimate D2E/DX2                !
 ! D126  D(16,17,18,39)        111.6437         estimate D2E/DX2                !
 ! D127  D(37,17,18,19)        117.9396         estimate D2E/DX2                !
 ! D128  D(37,17,18,38)       -126.7775         estimate D2E/DX2                !
 ! D129  D(37,17,18,39)         -4.7266         estimate D2E/DX2                !
 ! D130  D(17,18,19,40)        -54.0539         estimate D2E/DX2                !
 ! D131  D(38,18,19,40)       -173.6024         estimate D2E/DX2                !
 ! D132  D(39,18,19,40)         69.5172         estimate D2E/DX2                !
 --------------------------------------------------------------------------------
 Trust Radius=3.00D-01 FncErr=1.00D-07 GrdErr=1.00D-07 EigMax=2.50D+02 EigMin=1.00D-04
 Number of steps in this run=    270 maximum allowed number of steps=    270.
 GradGradGradGradGradGradGradGradGradGradGradGradGradGradGradGradGradGrad

 Leave Link  103 at Tue Jun 22 14:23:19 2021, MaxMem=  2147483648 cpu:               0.1 elap:               0.0
 (Enter /home/matma/Programs/gaussian/G16_x86_SSE4/tar/g16/l202.exe)
                          Input orientation:                          
 ---------------------------------------------------------------------
 Center     Atomic      Atomic             Coordinates (Angstroms)
 Number     Number       Type             X           Y           Z
 ---------------------------------------------------------------------
      1          8           0        1.963000    0.956000    0.206000
      2          6           0        2.445000    2.125000    0.881000
      3          6           0        3.127000    1.706000    2.204000
      4          8           0        3.987000    0.630000    1.812000
      5          6           0        2.069000    1.194000    3.205000
      6          6           0        1.085000    2.333000    3.534000
      7          8           0        1.056000    3.347000    2.536000
      8          6           0        1.214000    3.021000    1.138000
      9          6           0       -0.099000    2.419000    0.617000
     10          8           0       -1.207000    3.118000    1.213000
     11          8           0       -4.540000    0.134000    3.892000
     12          6           0       -3.172000   -0.297000    3.785000
     13          6           0       -2.314000    0.897000    3.312000
     14          6           0       -0.802000    0.665000    3.535000
     15          6           0       -0.449000   -0.132000    4.821000
     16          8           0       -1.402000   -1.124000    5.210000
     17          6           0       -2.797000   -0.737000    5.209000
     18          6           0       -3.514000   -2.029000    5.658000
     19          8           0       -4.528000   -2.433000    4.744000
     20          8           0        0.703000   -0.929000    4.553000
     21          8           0       -0.289000    1.995000    3.765000
     22          8           0       -2.589000    0.941000    1.916000
     23          8           0        2.800000    0.881000    4.392000
     24          1           0        3.178000    2.624000    0.206000
     25          1           0        3.745000    2.518000    2.649000
     26          1           0        4.347000    0.188000    2.622000
     27          1           0        1.564000    0.278000    2.809000
     28          1           0        1.352000    2.916000    4.451000
     29          1           0        1.373000    4.052000    0.730000
     30          1           0       -0.228000    2.567000   -0.471000
     31          1           0       -0.196000    1.340000    0.853000
     32          1           0       -0.974000    3.339000    2.171000
     33          1           0       -3.116000   -1.141000    3.055000
     34          1           0       -2.633000    1.851000    3.796000
     35          1           0       -0.339000    0.205000    2.632000
     36          1           0       -0.194000    0.521000    5.682000
     37          1           0       -2.934000    0.091000    5.938000
     38          1           0       -2.810000   -2.888000    5.662000
     39          1           0       -3.957000   -1.905000    6.663000
     40          1           0       -5.167000   -1.688000    4.583000
     41          1           0       -2.345000    1.852000    1.523000
     42          1           0       -4.853000    0.433000    3.001000
     43          1           0        2.367000    0.113000    4.860000
     44          1           0        0.447000   -1.882000    4.451000
     45          1           0        2.677000    0.262000    0.202000
 ---------------------------------------------------------------------
                    Distance matrix (angstroms):
                    1          2          3          4          5
     1  O    0.000000
     2  C    1.433356   0.000000
     3  C    2.430926   1.546290   0.000000
     4  O    2.604244   2.340844   1.432145   0.000000
     5  C    3.010296   2.531623   1.543862   2.436651   0.000000
     6  C    3.707101   2.988524   2.516305   3.779828   1.540720
     7  O    3.459542   2.482263   2.663108   4.061653   2.471667
     8  C    2.386179   1.544094   2.554437   3.722994   2.888156
     9  C    2.561471   2.574503   3.665244   4.617785   3.591461
    10  O    3.967013   3.799128   4.664695   5.790214   4.289757
    11  O    7.520059   7.862597   8.006461   8.791026   6.728629
    12  C    6.383375   6.771262   6.796247   7.483538   5.479741
    13  C    5.286156   5.483231   5.611295   6.482584   4.394354
    14  C    4.337297   4.440532   4.276948   5.089644   2.937921
    15  C    5.319747   5.384504   4.797365   5.414132   3.272622
    16  O    6.378843   6.640456   6.128358   6.607892   4.630442
    17  C    7.110124   7.375716   7.077574   7.709147   5.605598
    18  C    8.284447   8.693971   8.365598   8.838948   6.897451
    19  O    8.614630   9.182639   9.065426   9.512298   7.684013
    20  O    4.902778   5.083804   4.282149   4.552825   2.861851
    21  O    4.337915   3.976067   3.766868   4.895060   2.552521
    22  O    4.862615   5.273920   5.774151   6.584171   4.839679
    23  O    4.269519   3.741749   2.361122   2.851030   1.428740
    24  H    2.063601   1.114412   2.199393   2.685098   3.502682
    25  H    3.403471   2.229411   1.113235   2.079345   2.207054
    26  H    3.479991   3.225004   1.991845   0.990487   2.557579
    27  H    2.719282   2.811539   2.201858   2.643642   1.118435
    28  H    4.715395   3.816442   3.108655   4.374168   2.243187
    29  H    3.194979   2.210275   3.279163   4.440023   3.844243
    30  H    2.802522   3.027903   4.376411   5.170134   4.546902
    31  H    2.286339   2.755338   3.605757   4.349859   3.268554
    32  H    4.262145   3.850644   4.414293   5.663840   3.863940
    33  H    6.189544   6.805715   6.914091   7.425234   5.688493
    34  H    5.900198   5.861603   5.977716   7.017941   4.784322
    35  H    3.427635   3.808288   3.801229   4.423494   2.665504
    36  H    5.901563   5.708479   4.952752   5.698205   3.421933
    37  H    7.588456   7.657940   7.299774   8.075558   5.806540
    38  H    8.205230   8.695007   8.265021   8.567265   6.819400
    39  H    9.215453   9.521451   9.116198   9.647049   7.607512
    40  H    8.774153   9.283659   9.271964   9.841102   7.909773
    41  H    4.593057   4.840536   5.516145   6.455310   4.769223
    42  H    7.385351   7.785761   8.120107   8.921778   6.966694
    43  H    4.746955   4.459447   3.188979   3.490271   1.999097
    44  H    5.326587   5.726513   5.010504   5.079967   3.693938
    45  H    0.995715   1.996405   2.509111   2.107991   3.202545
                    6          7          8          9         10
     6  C    0.000000
     7  O    1.423039   0.000000
     8  C    2.496157   1.444176   0.000000
     9  C    3.149308   2.424411   1.535518   0.000000
    10  O    3.355075   2.631338   2.424103   1.439264   0.000000
    11  O    6.050156   6.593733   7.001986   5.972381   5.214421
    12  C    5.010185   5.719678   6.103501   5.182298   4.705171
    13  C    3.696563   4.238110   4.656655   3.806013   3.250245
    14  C    2.518530   3.412226   3.919260   3.476413   3.401899
    15  C    3.175807   4.426024   5.125570   4.929880   4.914746
    16  O    4.576570   5.760372   6.372257   5.945276   5.831689
    17  C    5.224983   6.218488   6.839863   6.190800   5.775564
    18  C    6.685000   7.715773   8.263588   7.540465   7.181357
    19  O    7.462213   8.334550   8.701719   7.758226   7.369573
    20  O    3.438739   4.740999   5.246508   5.229188   5.584076
    21  O    1.433695   2.268782   3.195749   3.182103   2.935397
    22  O    4.248984   4.411265   4.403918   3.173639   2.672726
    23  O    2.405347   3.545057   4.205177   5.002027   5.582675
    24  H    3.942197   3.233344   2.209871   3.309029   4.526181
    25  H    2.809457   2.816155   2.990333   4.349156   5.190800
    26  H    4.009166   4.562604   4.477034   5.363236   6.435612
    27  H    2.231164   3.122716   3.230912   3.486304   4.276828
    28  H    1.118958   1.985095   3.317535   4.129403   4.132061
    29  H    3.301563   1.964472   1.120137   2.201418   2.786045
    30  H    4.221226   3.361414   2.207796   1.105572   2.024327
    31  H    3.132853   2.903109   2.212484   1.108759   2.076778
    32  H    2.666324   2.062569   2.440401   2.006724   1.010393
    33  H    5.472341   6.149560   6.304445   5.264953   5.017602
    34  H    3.758257   4.175445   4.820091   4.104853   3.211021
    35  H    2.714731   3.439099   3.545941   3.003268   3.354483
    36  H    3.087570   4.409772   5.374049   5.409774   5.267119
    37  H    5.192123   6.172134   6.987904   6.462960   5.871191
    38  H    6.852609   7.974526   8.460227   7.808060   7.644295
    39  H    7.291985   8.351395   9.029415   8.374679   7.905411
    40  H    7.507086   8.262395   8.646379   7.634214   7.080688
    41  H    4.005045   3.850714   3.765802   2.487336   1.730289
    42  H    6.257310   6.604839   6.853977   5.676986   4.868212
    43  H    2.886209   4.192667   4.862012   5.422346   5.924872
    44  H    4.360523   5.601834   5.966881   5.787596   6.182262
    45  H    4.233879   4.194332   3.260145   3.539922   4.925882
                   11         12         13         14         15
    11  O    0.000000
    12  C    1.438275   0.000000
    13  C    2.423560   1.544516   0.000000
    14  C    3.792368   2.569989   1.545864   0.000000
    15  C    4.203579   2.918090   2.610392   1.553581   0.000000
    16  O    3.628599   2.418151   2.918662   2.523122   1.429543
    17  C    2.351846   1.536880   2.549873   2.957686   2.455539
    18  C    2.974895   2.573891   3.937663   4.372609   3.700460
    19  O    2.704725   2.705719   4.247508   4.994233   4.683884
    20  O    5.390356   4.000609   3.738535   2.417061   1.426232
    21  O    4.642246   3.683117   2.347645   1.443942   2.380098
    22  O    2.891751   2.316397   1.423509   2.427078   3.764300
    23  O    7.394837   6.117264   5.226820   3.708842   3.430191
    24  H    8.908099   7.852642   6.541546   5.546199   6.484512
    25  H    8.710323   7.553781   6.307035   4.989370   5.415692
    26  H    8.977449   7.623854   6.734070   5.251028   5.285794
    27  H    6.201003   4.869589   3.959173   2.504955   2.875485
    28  H    6.539699   5.588694   4.337423   3.247426   3.559607
    29  H    7.766115   6.993129   5.496792   4.906161   6.128770
    30  H    6.599136   5.914657   4.631564   4.471590   5.944637
    31  H    5.436938   4.486978   3.275493   2.831251   4.239790
    32  H    5.094136   4.544964   3.010124   3.006718   4.398405
    33  H    2.086617   1.117306   2.205152   2.974329   3.354061
    34  H    2.567870   2.214621   1.116303   2.197107   3.122943
    35  H    4.386461   3.099565   2.200429   1.114171   2.217519
    36  H    4.716098   3.624392   3.201980   2.236070   1.110295
    37  H    2.601384   2.200590   2.816010   3.263328   2.733614
    38  H    3.906185   3.219853   4.482716   4.602174   3.725203
    39  H    3.489391   3.388919   4.666889   5.132573   4.340801
    40  H    2.047021   2.559631   4.054291   5.068347   4.973661
    41  H    3.658102   3.227813   2.028178   2.799636   4.290440
    42  H    0.990581   1.993318   2.599719   4.092625   4.798629
    43  H    6.974533   5.657230   4.992266   3.478921   2.826907
    44  H    5.408041   4.006612   4.079618   2.980984   2.000554
    45  H    8.106638   6.881945   5.914846   4.834743   5.591268
                   16         17         18         19         20
    16  O    0.000000
    17  C    1.447686   0.000000
    18  C    2.340998   1.544330   0.000000
    19  O    3.420894   2.467590   1.423660   0.000000
    20  O    2.213752   3.566118   4.496011   5.446270   0.000000
    21  O    3.613164   3.979827   5.493328   6.207636   3.186657
    22  O    4.064927   3.701729   4.866116   4.810528   4.613885
    23  O    4.727151   5.883181   7.066644   8.050223   2.774785
    24  H    7.750092   8.486870   9.805997  10.273711   6.135621
    25  H    6.805475   7.742505   9.078677   9.866304   4.976021
    26  H    6.439727   7.654079   8.713651   9.494111   4.272609
    27  H    4.065410   5.080211   6.262997   6.943069   2.289040
    28  H    4.947949   5.579711   7.041863   7.954373   3.900722
    29  H    7.386610   7.770770   9.227487   9.643092   6.314633
    30  H    6.875719   7.055393   8.335805   8.407510   6.191070
    31  H    5.148707   5.482141   6.741462   6.938417   4.432444
    32  H    5.416371   5.400606   6.886668   7.250326   5.167405
    33  H    2.753563   2.214654   2.778949   2.552593   4.107762
    34  H    3.516445   2.953169   4.392904   4.779371   4.407987
    35  H    3.089060   3.683756   4.922200   5.382129   2.462105
    36  H    2.094773   2.929488   4.186344   5.328181   2.044933
    37  H    2.086440   1.111663   2.215671   3.215128   4.023232
    38  H    2.301839   2.198222   1.110636   2.000318   4.172377
    39  H    3.041249   2.196347   1.105283   2.070600   5.207713
    40  H    3.858296   2.629292   2.001078   0.994619   5.918943
    41  H    4.831128   4.527010   5.790246   5.788053   5.119098
    42  H    4.383301   3.235939   3.861867   3.370108   5.927300
    43  H    3.982214   5.245112   6.309606   7.350959   1.987186
    44  H    2.137626   3.522659   4.143426   5.013988   0.992043
    45  H    6.606005   7.485501   8.564175   8.933354   4.924059
                   21         22         23         24         25
    21  O    0.000000
    22  O    3.133643   0.000000
    23  O    3.343059   5.930893   0.000000
    24  H    5.008214   6.246189   4.550113   0.000000
    25  H    4.218073   6.568392   2.571156   2.510174   0.000000
    26  H    5.105310   7.012385   2.450787   3.624598   2.406664
    27  H    2.701043   4.299352   2.096949   3.858020   3.130489
    28  H    2.002927   5.085109   2.498281   4.630288   3.021929
    29  H    4.025508   5.175168   5.049932   2.360463   3.414982
    30  H    4.274880   3.730411   5.971612   3.473099   5.051884
    31  H    2.986205   2.648701   4.659530   3.667580   4.488294
    32  H    2.194629   2.902353   5.021721   4.648823   4.813677
    33  H    4.281416   2.431003   6.393364   7.868066   7.786298
    34  H    2.348624   2.089123   5.551000   6.874107   6.514552
    35  H    2.119030   2.473227   3.661680   4.909819   4.693540
    36  H    2.420039   4.482765   3.279899   6.766060   5.357501
    37  H    3.917036   4.125289   5.991074   8.753768   7.830510
    38  H    5.813582   5.361212   6.876799   9.798277   9.015045
    39  H    6.087908   5.701329   7.653515  10.635456   9.746586
    40  H    6.166725   4.546495   8.373131  10.362939  10.042636
    41  H    3.045349   1.021717   5.970346   5.730096   6.228927
    42  H    4.884018   2.561442   7.791277   8.781200   8.854193
    43  H    3.434426   5.823629   0.998167   5.350005   3.545621
    44  H    4.005424   4.859306   3.629636   6.766271   5.786537
    45  H    4.949284   5.579390   4.237262   2.414552   3.495421
                   26         27         28         29         30
    26  H    0.000000
    27  H    2.790727   0.000000
    28  H    4.444913   3.114507   0.000000
    29  H    5.230185   4.312980   3.890601   0.000000
    30  H    6.013062   4.382828   5.181147   2.492153   0.000000
    31  H    5.009522   2.837495   4.222047   3.135576   1.805417
    32  H    6.200423   4.027184   3.284449   2.844865   2.851783
    33  H    7.592766   4.896578   6.194440   7.247344   5.875584
    34  H    7.270780   4.589478   4.176539   5.503889   4.950148
    35  H    4.686042   1.912607   3.676651   4.620385   3.901279
    36  H    5.485906   3.376943   3.105077   6.280585   6.484341
    37  H    8.001139   5.482482   5.344304   7.833456   7.384328
    38  H    8.362178   6.106967   7.243975   9.486080   8.604501
    39  H    9.469253   7.078153   7.504696   9.954659   9.208593
    40  H    9.893487   7.233159   7.981955   9.516554   8.248737
    41  H    6.982805   4.405854   4.834572   4.392308   2.994821
    42  H    9.211062   6.421743   6.838846   7.551005   6.164362
    43  H    2.989092   2.208763   3.009039   5.793156   6.416830
    44  H    4.779136   2.934187   4.882605   7.065102   6.668981
    45  H    2.941220   2.834691   5.182021   4.042685   3.768949
                   31         32         33         34         35
    31  H    0.000000
    32  H    2.517620   0.000000
    33  H    4.419340   5.043810   0.000000
    34  H    3.855041   2.758088   3.120005   0.000000
    35  H    2.115069   3.230743   3.114863   3.053956   0.000000
    36  H    4.897959   4.569097   4.266317   3.357770   3.069753
    37  H    5.908796   5.346157   3.140484   2.788613   4.204362
    38  H    6.916318   7.371127   3.153109   5.096215   4.985317
    39  H    7.644033   7.521695   3.782676   4.907158   5.813001
    40  H    6.913214   6.976369   2.615453   4.423239   5.540707
    41  H    2.308516   2.123844   3.449567   2.291173   2.822503
    42  H    5.208090   4.917355   2.344688   2.751572   4.534792
    43  H    4.912285   5.366570   5.907100   5.399328   3.506406
    44  H    4.872406   5.871668   3.897803   4.883719   2.877868
    45  H    3.136880   5.164755   6.608091   6.605896   3.873552
                   36         37         38         39         40
    36  H    0.000000
    37  H    2.785325   0.000000
    38  H    4.297108   2.994327   0.000000
    39  H    4.583449   2.357153   1.812153   0.000000
    40  H    5.551415   3.160246   2.856517   2.416110   0.000000
    41  H    4.867817   4.789600   6.309924   6.567587   5.464328
    42  H    5.376038   3.524981   4.720573   4.436136   2.664575
    43  H    2.720454   5.409544   6.037428   6.878671   7.751225
    44  H    2.775005   4.187488   3.617541   4.928356   5.618902
    45  H    6.191940   8.025849   8.357109   9.510540   9.193693
                   41         42         43         44         45
    41  H    0.000000
    42  H    3.238535   0.000000
    43  H    6.030144   7.462351   0.000000
    44  H    5.505561   5.962527   2.798876   0.000000
    45  H    5.430803   8.035206   4.670681   5.255819   0.000000
 Stoichiometry    C12H22O11
 Framework group  C1[X(C12H22O11)]
 Deg. of freedom   129
 Full point group                 C1      NOp   1
 Largest Abelian subgroup         C1      NOp   1
 Largest concise Abelian subgroup C1      NOp   1
                         Standard orientation:                         
 ---------------------------------------------------------------------
 Center     Atomic      Atomic             Coordinates (Angstroms)
 Number     Number       Type             X           Y           Z
 ---------------------------------------------------------------------
      1          8           0       -3.130472    0.528303    1.937813
      2          6           0       -3.733211    0.459128    0.639186
      3          6           0       -3.566055   -0.970482    0.074130
      4          8           0       -3.972484   -1.810314    1.160655
      5          6           0       -2.083533   -1.234142   -0.266635
      6          6           0       -1.629005   -0.249613   -1.361133
      7          8           0       -2.440629    0.917256   -1.429866
      8          6           0       -3.006462    1.502419   -0.236945
      9          6           0       -1.905268    2.267532    0.511246
     10          8           0       -1.056222    2.926937   -0.445721
     11          8           0        3.993754    1.652952   -0.191001
     12          6           0        3.022859    0.686418    0.246958
     13          6           0        1.633435    1.109865   -0.278134
     14          6           0        0.598177   -0.035810   -0.204872
     15          6           0        1.174904   -1.452068   -0.479122
     16          8           0        2.522065   -1.660752   -0.048769
     17          6           0        3.488875   -0.636095   -0.382162
     18          6           0        4.795351   -1.179882    0.236199
     19          8           0        5.409980   -0.244682    1.116221
     20          8           0        0.466104   -2.389481    0.328959
     21          8           0       -0.280014    0.234036   -1.318843
     22          8           0        1.263923    2.145164    0.626295
     23          8           0       -2.056363   -2.552955   -0.815536
     24          1           0       -4.813185    0.707597    0.756805
     25          1           0       -4.223811   -1.169908   -0.801586
     26          1           0       -3.745822   -2.750955    0.948800
     27          1           0       -1.453541   -1.186340    0.656253
     28          1           0       -1.712639   -0.653363   -2.401353
     29          1           0       -3.734944    2.208700   -0.711484
     30          1           0       -2.309989    3.085171    1.135711
     31          1           0       -1.277553    1.604094    1.139871
     32          1           0       -0.943770    2.324724   -1.249206
     33          1           0        3.031221    0.647540    1.363556
     34          1           0        1.690802    1.511500   -1.318102
     35          1           0        0.045001   -0.002566    0.761704
     36          1           0        1.048636   -1.777266   -1.533190
     37          1           0        3.552386   -0.557700   -1.489236
     38          1           0        4.587024   -2.053695    0.889317
     39          1           0        5.515067   -1.466507   -0.552156
     40          1           0        5.548936    0.625816    0.655579
     41          1           0        0.523079    2.728395    0.232725
     42          1           0        3.755681    2.539017    0.182442
     43          1           0       -1.191609   -2.994760   -0.584570
     44          1           0        1.030834   -2.686483    1.088576
     45          1           0       -3.419333   -0.258343    2.475582
 ---------------------------------------------------------------------
 Rotational constants (GHZ):           0.4647728           0.1651219           0.1389088
 Leave Link  202 at Tue Jun 22 14:23:19 2021, MaxMem=  2147483648 cpu:               0.0 elap:               0.0
 (Enter /home/matma/Programs/gaussian/G16_x86_SSE4/tar/g16/l301.exe)
 Standard basis: VSTO-6G (5D, 7F)
 Ernie: Thresh=  0.10000D-02 Tol=  0.10000D-05 Strict=F.
  NNHCO=     0 NNPyr=     0 NCTC=     0               EPep=         0.000000000
    EC=      1207.703625811  ECS=         9.024049655   EG=         0.733701751
   EHC=         0.002711371  EAt=      -175.965002454  AtH=         6.138669069
 EPDDG=         0.000000000  ECC=      1217.464088588 EAtT=       182.103671523
 There are   114 symmetry adapted cartesian basis functions of A   symmetry.
 There are   114 symmetry adapted basis functions of A   symmetry.
   114 basis functions,   684 primitive gaussians,   114 cartesian basis functions
    68 alpha electrons       68 beta electrons
       nuclear repulsion energy      1399.5677601109 Hartrees.
 IExCor=    0 DFT=F Ex=HF Corr=None ExCW=0 ScaHFX=  1.000000
 ScaDFX=  1.000000  1.000000  1.000000  1.000000 ScalE2=  1.000000  1.000000
 IRadAn=  99590 IRanWt=     -1 IRanGd=            0 ICorTp=0 IEmpDi=  4
 Integral buffers will be    131072 words long.
 Regular integral format.
 Two-electron integral symmetry is turned off.
 Leave Link  301 at Tue Jun 22 14:23:19 2021, MaxMem=  2147483648 cpu:               0.2 elap:               0.0
 (Enter /home/matma/Programs/gaussian/G16_x86_SSE4/tar/g16/l302.exe)
 Do NDO integrals.
 NPDir=0 NMtPBC=     1 NCelOv=     1 NCel=       1 NClECP=     1 NCelD=      1
         NCelK=      1 NCelE2=     1 NClLst=     1 CellRange=     0.0.
 One-electron integrals computed using PRISM.
 NBasis=   114 RedAO= F EigKep=  0.00D+00  NBF=   114
 NBsUse=   114 1.00D-04 EigRej=  0.00D+00 NBFU=   114
 Leave Link  302 at Tue Jun 22 14:23:19 2021, MaxMem=  2147483648 cpu:               0.6 elap:               0.1
 (Enter /home/matma/Programs/gaussian/G16_x86_SSE4/tar/g16/l303.exe)
 DipDrv:  MaxL=1.
 Leave Link  303 at Tue Jun 22 14:23:19 2021, MaxMem=  2147483648 cpu:               0.1 elap:               0.0
 (Enter /home/matma/Programs/gaussian/G16_x86_SSE4/tar/g16/l401.exe)
 Simple Huckel Guess.
 JPrj=0 DoOrth=F DoCkMO=F.
 Leave Link  401 at Tue Jun 22 14:23:19 2021, MaxMem=  2147483648 cpu:               0.3 elap:               0.0
 (Enter /home/matma/Programs/gaussian/G16_x86_SSE4/tar/g16/l502.exe)
 Keep J ints in memory in canonical form, NReq=892272.
 FoFCou: FMM=F IPFlag=           0 FMFlag=           0 FMFlg1=           0
         NFxFlg=           0 DoJE=F BraDBF=F KetDBF=F FulRan=T
         wScrn=  0.000000 ICntrl=       600 IOpCl=  2 I1Cent=           0 NGrid=           0
         NMat0=    1 NMatS0=    252 NMatT0=    0 NMatD0=    1 NMtDS0=    0 NMtDT0=    0
 Symmetry not used in FoFCou.
 Two-electron integral symmetry not used.
 Closed shell SCF:
 Using DIIS extrapolation, IDIIS=  1040.
 Overlap will be assumed to be unity.
 NGot=  2147483648 LenX=  2147363403 LenY=  2147349966
 Requested convergence on RMS density matrix=1.00D-08 within 128 cycles.
 Requested convergence on MAX density matrix=1.00D-06.
 Requested convergence on             energy=1.00D-06.
 No special actions if energy rises.

 Cycle   1  Pass 1  IDiag  1:
 E= 0.459990901529636    
 DIIS: error= 5.65D-02 at cycle   1 NSaved=   1.
 NSaved= 1 IEnMin= 1 EnMin= 0.459990901529636     IErMin= 1 ErrMin= 5.65D-02
 ErrMax= 5.65D-02  0.00D+00 EMaxC= 1.00D-01 BMatC= 3.24D-01 BMatP= 3.24D-01
 IDIUse=3 WtCom= 4.35D-01 WtEn= 5.65D-01
 Coeff-Com:  0.100D+01
 Coeff-En:   0.100D+01
 Coeff:      0.100D+01
 GapD=    2.000 DampG=2.000 DampE=0.500 DampFc=1.0000 IDamp=-1.
 RMSDP=8.28D-03 MaxDP=1.26D-01              OVMax= 0.00D+00

 Cycle   2  Pass 1  IDiag  1:
 E=-0.557704355924443     Delta-E=       -1.017695257454 Rises=F Damp=F
 DIIS: error= 1.68D-02 at cycle   2 NSaved=   2.
 NSaved= 2 IEnMin= 2 EnMin=-0.557704355924443     IErMin= 2 ErrMin= 1.68D-02
 ErrMax= 1.68D-02  0.00D+00 EMaxC= 1.00D-01 BMatC= 4.60D-02 BMatP= 3.24D-01
 IDIUse=3 WtCom= 8.32D-01 WtEn= 1.68D-01
 Coeff-Com: -0.435D+00 0.144D+01
 Coeff-En:   0.000D+00 0.100D+01
 Coeff:     -0.362D+00 0.136D+01
 RMSDP=4.77D-03 MaxDP=5.66D-02 DE=-1.02D+00 OVMax= 0.00D+00

 Cycle   3  Pass 1  IDiag  3:
 E=-0.763260207731719     Delta-E=       -0.205555851807 Rises=F Damp=F
 DIIS: error= 5.42D-03 at cycle   3 NSaved=   3.
 NSaved= 3 IEnMin= 3 EnMin=-0.763260207731719     IErMin= 3 ErrMin= 5.42D-03
 ErrMax= 5.42D-03  0.00D+00 EMaxC= 1.00D-01 BMatC= 4.59D-03 BMatP= 4.60D-02
 IDIUse=3 WtCom= 9.46D-01 WtEn= 5.42D-02
 Coeff-Com:  0.270D+00-0.107D+01 0.180D+01
 Coeff-En:   0.000D+00 0.000D+00 0.100D+01
 Coeff:      0.256D+00-0.102D+01 0.176D+01
 Gap=     0.405 Goal=   None    Shift=    0.000
 RMSDP=2.40D-03 MaxDP=3.93D-02 DE=-2.06D-01 OVMax= 2.54D-02

 Cycle   4  Pass 1  IDiag  3:
 E=-0.793676616128096     Delta-E=       -0.030416408396 Rises=F Damp=F
 DIIS: error= 1.05D-03 at cycle   4 NSaved=   4.
 NSaved= 4 IEnMin= 4 EnMin=-0.793676616128096     IErMin= 4 ErrMin= 1.05D-03
 ErrMax= 1.05D-03  0.00D+00 EMaxC= 1.00D-01 BMatC= 2.01D-04 BMatP= 4.59D-03
 IDIUse=3 WtCom= 9.90D-01 WtEn= 1.05D-02
 Coeff-Com: -0.573D-01 0.249D+00-0.614D+00 0.142D+01
 Coeff-En:   0.000D+00 0.000D+00 0.000D+00 0.100D+01
 Coeff:     -0.567D-01 0.247D+00-0.607D+00 0.142D+01
 Gap=     0.403 Goal=   None    Shift=    0.000
 RMSDP=5.71D-04 MaxDP=1.02D-02 DE=-3.04D-02 OVMax= 6.74D-03

 Cycle   5  Pass 1  IDiag  3:
 E=-0.795091184896592     Delta-E=       -0.001414568768 Rises=F Damp=F
 DIIS: error= 2.09D-04 at cycle   5 NSaved=   5.
 NSaved= 5 IEnMin= 5 EnMin=-0.795091184896592     IErMin= 5 ErrMin= 2.09D-04
 ErrMax= 2.09D-04  0.00D+00 EMaxC= 1.00D-01 BMatC= 9.25D-06 BMatP= 2.01D-04
 IDIUse=3 WtCom= 9.98D-01 WtEn= 2.09D-03
 Coeff-Com:  0.914D-03-0.429D-02 0.585D-01-0.370D+00 0.131D+01
 Coeff-En:   0.000D+00 0.000D+00 0.000D+00 0.000D+00 0.100D+01
 Coeff:      0.912D-03-0.428D-02 0.584D-01-0.369D+00 0.131D+01
 Gap=     0.404 Goal=   None    Shift=    0.000
 RMSDP=9.76D-05 MaxDP=1.32D-03 DE=-1.41D-03 OVMax= 1.58D-03

 Cycle   6  Pass 1  IDiag  3:
 E=-0.795146024705900     Delta-E=       -0.000054839809 Rises=F Damp=F
 DIIS: error= 1.09D-04 at cycle   6 NSaved=   6.
 NSaved= 6 IEnMin= 6 EnMin=-0.795146024705900     IErMin= 6 ErrMin= 1.09D-04
 ErrMax= 1.09D-04  0.00D+00 EMaxC= 1.00D-01 BMatC= 6.91D-07 BMatP= 9.25D-06
 IDIUse=3 WtCom= 9.99D-01 WtEn= 1.09D-03
 Coeff-Com:  0.281D-02-0.121D-01 0.757D-02 0.847D-01-0.589D+00 0.151D+01
 Coeff-En:   0.000D+00 0.000D+00 0.000D+00 0.000D+00 0.000D+00 0.100D+01
 Coeff:      0.281D-02-0.121D-01 0.756D-02 0.846D-01-0.588D+00 0.151D+01
 Gap=     0.404 Goal=   None    Shift=    0.000
 RMSDP=3.04D-05 MaxDP=5.86D-04 DE=-5.48D-05 OVMax= 5.13D-04

 Cycle   7  Pass 1  IDiag  3:
 E=-0.795150551547749     Delta-E=       -0.000004526842 Rises=F Damp=F
 DIIS: error= 3.06D-05 at cycle   7 NSaved=   7.
 NSaved= 7 IEnMin= 7 EnMin=-0.795150551547749     IErMin= 7 ErrMin= 3.06D-05
 ErrMax= 3.06D-05  0.00D+00 EMaxC= 1.00D-01 BMatC= 4.15D-08 BMatP= 6.91D-07
 IDIUse=1 WtCom= 1.00D+00 WtEn= 0.00D+00
 Coeff-Com: -0.115D-02 0.521D-02-0.425D-02-0.296D-01 0.237D+00-0.769D+00
 Coeff-Com:  0.156D+01
 Coeff:     -0.115D-02 0.521D-02-0.425D-02-0.296D-01 0.237D+00-0.769D+00
 Coeff:      0.156D+01
 Gap=     0.404 Goal=   None    Shift=    0.000
 RMSDP=7.58D-06 MaxDP=2.03D-04 DE=-4.53D-06 OVMax= 1.15D-04

 Cycle   8  Pass 1  IDiag  3:
 E=-0.795150835289178     Delta-E=       -0.000000283741 Rises=F Damp=F
 DIIS: error= 5.98D-06 at cycle   8 NSaved=   8.
 NSaved= 8 IEnMin= 8 EnMin=-0.795150835289178     IErMin= 8 ErrMin= 5.98D-06
 ErrMax= 5.98D-06  0.00D+00 EMaxC= 1.00D-01 BMatC= 3.04D-09 BMatP= 4.15D-08
 IDIUse=1 WtCom= 1.00D+00 WtEn= 0.00D+00
 Coeff-Com:  0.297D-03-0.150D-02 0.115D-02 0.914D-02-0.757D-01 0.268D+00
 Coeff-Com: -0.755D+00 0.155D+01
 Coeff:      0.297D-03-0.150D-02 0.115D-02 0.914D-02-0.757D-01 0.268D+00
 Coeff:     -0.755D+00 0.155D+01
 Gap=     0.404 Goal=   None    Shift=    0.000
 RMSDP=2.19D-06 MaxDP=5.46D-05 DE=-2.84D-07 OVMax= 2.64D-05

 Cycle   9  Pass 1  IDiag  3:
 E=-0.795150857193903     Delta-E=       -0.000000021905 Rises=F Damp=F
 DIIS: error= 2.11D-06 at cycle   9 NSaved=   9.
 NSaved= 9 IEnMin= 9 EnMin=-0.795150857193903     IErMin= 9 ErrMin= 2.11D-06
 ErrMax= 2.11D-06  0.00D+00 EMaxC= 1.00D-01 BMatC= 2.51D-10 BMatP= 3.04D-09
 IDIUse=1 WtCom= 1.00D+00 WtEn= 0.00D+00
 Coeff-Com: -0.700D-04 0.425D-03-0.357D-03-0.211D-02 0.206D-01-0.798D-01
 Coeff-Com:  0.263D+00-0.766D+00 0.156D+01
 Coeff:     -0.700D-04 0.425D-03-0.357D-03-0.211D-02 0.206D-01-0.798D-01
 Coeff:      0.263D+00-0.766D+00 0.156D+01
 Gap=     0.404 Goal=   None    Shift=    0.000
 RMSDP=6.42D-07 MaxDP=1.81D-05 DE=-2.19D-08 OVMax= 7.25D-06

 Cycle  10  Pass 1  IDiag  3:
 E=-0.795150859001524     Delta-E=       -0.000000001808 Rises=F Damp=F
 DIIS: error= 6.99D-07 at cycle  10 NSaved=  10.
 NSaved=10 IEnMin=10 EnMin=-0.795150859001524     IErMin=10 ErrMin= 6.99D-07
 ErrMax= 6.99D-07  0.00D+00 EMaxC= 1.00D-01 BMatC= 2.52D-11 BMatP= 2.51D-10
 IDIUse=1 WtCom= 1.00D+00 WtEn= 0.00D+00
 Coeff-Com:  0.211D-04-0.135D-03 0.172D-03 0.256D-04-0.309D-02 0.144D-01
 Coeff-Com: -0.551D-01 0.205D+00-0.691D+00 0.153D+01
 Coeff:      0.211D-04-0.135D-03 0.172D-03 0.256D-04-0.309D-02 0.144D-01
 Coeff:     -0.551D-01 0.205D+00-0.691D+00 0.153D+01
 Gap=     0.404 Goal=   None    Shift=    0.000
 RMSDP=2.06D-07 MaxDP=5.47D-06 DE=-1.81D-09 OVMax= 2.27D-06

 Cycle  11  Pass 1  IDiag  3:
 E=-0.795150859196156     Delta-E=       -0.000000000195 Rises=F Damp=F
 DIIS: error= 1.96D-07 at cycle  11 NSaved=  11.
 NSaved=11 IEnMin=11 EnMin=-0.795150859196156     IErMin=11 ErrMin= 1.96D-07
 ErrMax= 1.96D-07  0.00D+00 EMaxC= 1.00D-01 BMatC= 2.34D-12 BMatP= 2.52D-11
 IDIUse=1 WtCom= 1.00D+00 WtEn= 0.00D+00
 Coeff-Com: -0.639D-05 0.390D-04-0.734D-04 0.244D-03-0.535D-03 0.555D-03
 Coeff-Com:  0.221D-02-0.266D-01 0.168D+00-0.660D+00 0.152D+01
 Coeff:     -0.639D-05 0.390D-04-0.734D-04 0.244D-03-0.535D-03 0.555D-03
 Coeff:      0.221D-02-0.266D-01 0.168D+00-0.660D+00 0.152D+01
 Gap=     0.404 Goal=   None    Shift=    0.000
 RMSDP=6.18D-08 MaxDP=1.52D-06 DE=-1.95D-10 OVMax= 6.87D-07

 Cycle  12  Pass 1  IDiag  3:
 E=-0.795150859195474     Delta-E=        0.000000000001 Rises=F Damp=F
 DIIS: error= 4.63D-08 at cycle  12 NSaved=  12.
 NSaved=12 IEnMin=11 EnMin=-0.795150859196156     IErMin=12 ErrMin= 4.63D-08
 ErrMax= 4.63D-08  0.00D+00 EMaxC= 1.00D-01 BMatC= 2.02D-13 BMatP= 2.34D-12
 IDIUse=1 WtCom= 1.00D+00 WtEn= 0.00D+00
 Coeff-Com:  0.164D-05-0.994D-05 0.245D-04-0.127D-03 0.510D-03-0.136D-02
 Coeff-Com:  0.296D-02-0.256D-02-0.242D-01 0.180D+00-0.721D+00 0.157D+01
 Coeff:      0.164D-05-0.994D-05 0.245D-04-0.127D-03 0.510D-03-0.136D-02
 Coeff:      0.296D-02-0.256D-02-0.242D-01 0.180D+00-0.721D+00 0.157D+01
 Gap=     0.404 Goal=   None    Shift=    0.000
 RMSDP=1.85D-08 MaxDP=4.11D-07 DE= 6.82D-13 OVMax= 1.80D-07

 Cycle  13  Pass 1  IDiag  3:
 E=-0.795150859203204     Delta-E=       -0.000000000008 Rises=F Damp=F
 DIIS: error= 1.31D-08 at cycle  13 NSaved=  13.
 NSaved=13 IEnMin=13 EnMin=-0.795150859203204     IErMin=13 ErrMin= 1.31D-08
 ErrMax= 1.31D-08  0.00D+00 EMaxC= 1.00D-01 BMatC= 1.54D-14 BMatP= 2.02D-13
 IDIUse=1 WtCom= 1.00D+00 WtEn= 0.00D+00
 Coeff-Com: -0.321D-06 0.221D-05-0.798D-05 0.569D-04-0.275D-03 0.816D-03
 Coeff-Com: -0.206D-02 0.393D-02 0.337D-04-0.499D-01 0.283D+00-0.853D+00
 Coeff-Com:  0.162D+01
 Coeff:     -0.321D-06 0.221D-05-0.798D-05 0.569D-04-0.275D-03 0.816D-03
 Coeff:     -0.206D-02 0.393D-02 0.337D-04-0.499D-01 0.283D+00-0.853D+00
 Coeff:      0.162D+01
 Gap=     0.404 Goal=   None    Shift=    0.000
 RMSDP=4.98D-09 MaxDP=1.10D-07 DE=-7.73D-12 OVMax= 6.12D-08

 Cycle  14  Pass 2  IDiag  1:
 SCF Done:  E(RPM6) = -0.795150859203     A.U. after   14 cycles
            NFock= 13  Conv=0.50D-08     -V/T= 0.9974
 KE=-3.045694701420D+02 PE=-2.401140516273D+03 EE= 1.305347075445D+03
 Leave Link  502 at Tue Jun 22 14:23:19 2021, MaxMem=  2147483648 cpu:               0.5 elap:               0.0
 (Enter /home/matma/Programs/gaussian/G16_x86_SSE4/tar/g16/l601.exe)
 Copying SCF densities to generalized density rwf, IOpCl= 0 IROHF=0.

 **********************************************************************

            Population analysis using the SCF Density.

 **********************************************************************

 Orbital symmetries:
       Occupied  (A) (A) (A) (A) (A) (A) (A) (A) (A) (A) (A) (A)
                 (A) (A) (A) (A) (A) (A) (A) (A) (A) (A) (A) (A)
                 (A) (A) (A) (A) (A) (A) (A) (A) (A) (A) (A) (A)
                 (A) (A) (A) (A) (A) (A) (A) (A) (A) (A) (A) (A)
                 (A) (A) (A) (A) (A) (A) (A) (A) (A) (A) (A) (A)
                 (A) (A) (A) (A) (A) (A) (A) (A)
       Virtual   (A) (A) (A) (A) (A) (A) (A) (A) (A) (A) (A) (A)
                 (A) (A) (A) (A) (A) (A) (A) (A) (A) (A) (A) (A)
                 (A) (A) (A) (A) (A) (A) (A) (A) (A) (A) (A) (A)
                 (A) (A) (A) (A) (A) (A) (A) (A) (A) (A)
 The electronic state is 1-A.
 Alpha  occ. eigenvalues --   -1.17730  -1.16448  -1.14671  -1.14127  -1.12772
 Alpha  occ. eigenvalues --   -1.11655  -1.10747  -1.10339  -1.09333  -1.09144
 Alpha  occ. eigenvalues --   -1.07234  -1.02931  -1.00702  -0.99586  -0.98624
 Alpha  occ. eigenvalues --   -0.92577  -0.91706  -0.88578  -0.85351  -0.83597
 Alpha  occ. eigenvalues --   -0.82410  -0.77288  -0.75527  -0.74065  -0.72184
 Alpha  occ. eigenvalues --   -0.70989  -0.70024  -0.68723  -0.68208  -0.66602
 Alpha  occ. eigenvalues --   -0.64979  -0.64828  -0.64302  -0.63170  -0.62300
 Alpha  occ. eigenvalues --   -0.61612  -0.60862  -0.60257  -0.59580  -0.58680
 Alpha  occ. eigenvalues --   -0.56632  -0.56301  -0.55500  -0.55134  -0.54119
 Alpha  occ. eigenvalues --   -0.53109  -0.51902  -0.51382  -0.50271  -0.50160
 Alpha  occ. eigenvalues --   -0.49528  -0.49028  -0.48736  -0.48289  -0.47222
 Alpha  occ. eigenvalues --   -0.47014  -0.45886  -0.45278  -0.43380  -0.42792
 Alpha  occ. eigenvalues --   -0.42477  -0.41622  -0.41480  -0.40761  -0.40446
 Alpha  occ. eigenvalues --   -0.39560  -0.39347  -0.38995
 Alpha virt. eigenvalues --    0.00912   0.02274   0.02969   0.04279   0.05167
 Alpha virt. eigenvalues --    0.05498   0.06101   0.07048   0.07247   0.07277
 Alpha virt. eigenvalues --    0.08051   0.08315   0.08597   0.08866   0.09490
 Alpha virt. eigenvalues --    0.09677   0.09905   0.10302   0.10758   0.11092
 Alpha virt. eigenvalues --    0.11417   0.11905   0.12676   0.13593   0.14472
 Alpha virt. eigenvalues --    0.15508   0.16171   0.16294   0.16531   0.16646
 Alpha virt. eigenvalues --    0.16854   0.17226   0.17373   0.17645   0.17774
 Alpha virt. eigenvalues --    0.17938   0.18142   0.18564   0.18958   0.19051
 Alpha virt. eigenvalues --    0.19122   0.19291   0.19462   0.20197   0.21138
 Alpha virt. eigenvalues --    0.21397
          Condensed to atoms (all electrons):
               1          2          3          4          5          6
     1  O    6.559904   0.000000   0.000000   0.000000   0.000000   0.000000
     2  C    0.000000   3.927411   0.000000   0.000000   0.000000   0.000000
     3  C    0.000000   0.000000   3.916340   0.000000   0.000000   0.000000
     4  O    0.000000   0.000000   0.000000   6.559294   0.000000   0.000000
     5  C    0.000000   0.000000   0.000000   0.000000   4.013175   0.000000
     6  C    0.000000   0.000000   0.000000   0.000000   0.000000   3.681669
     7  O    0.000000   0.000000   0.000000   0.000000   0.000000   0.000000
     8  C    0.000000   0.000000   0.000000   0.000000   0.000000   0.000000
     9  C    0.000000   0.000000   0.000000   0.000000   0.000000   0.000000
    10  O    0.000000   0.000000   0.000000   0.000000   0.000000   0.000000
    11  O    0.000000   0.000000   0.000000   0.000000   0.000000   0.000000
    12  C    0.000000   0.000000   0.000000   0.000000   0.000000   0.000000
    13  C    0.000000   0.000000   0.000000   0.000000   0.000000   0.000000
    14  C    0.000000   0.000000   0.000000   0.000000   0.000000   0.000000
    15  C    0.000000   0.000000   0.000000   0.000000   0.000000   0.000000
    16  O    0.000000   0.000000   0.000000   0.000000   0.000000   0.000000
    17  C    0.000000   0.000000   0.000000   0.000000   0.000000   0.000000
    18  C    0.000000   0.000000   0.000000   0.000000   0.000000   0.000000
    19  O    0.000000   0.000000   0.000000   0.000000   0.000000   0.000000
    20  O    0.000000   0.000000   0.000000   0.000000   0.000000   0.000000
    21  O    0.000000   0.000000   0.000000   0.000000   0.000000   0.000000
    22  O    0.000000   0.000000   0.000000   0.000000   0.000000   0.000000
    23  O    0.000000   0.000000   0.000000   0.000000   0.000000   0.000000
    24  H    0.000000   0.000000   0.000000   0.000000   0.000000   0.000000
    25  H    0.000000   0.000000   0.000000   0.000000   0.000000   0.000000
    26  H    0.000000   0.000000   0.000000   0.000000   0.000000   0.000000
    27  H    0.000000   0.000000   0.000000   0.000000   0.000000   0.000000
    28  H    0.000000   0.000000   0.000000   0.000000   0.000000   0.000000
    29  H    0.000000   0.000000   0.000000   0.000000   0.000000   0.000000
    30  H    0.000000   0.000000   0.000000   0.000000   0.000000   0.000000
    31  H    0.000000   0.000000   0.000000   0.000000   0.000000   0.000000
    32  H    0.000000   0.000000   0.000000   0.000000   0.000000   0.000000
    33  H    0.000000   0.000000   0.000000   0.000000   0.000000   0.000000
    34  H    0.000000   0.000000   0.000000   0.000000   0.000000   0.000000
    35  H    0.000000   0.000000   0.000000   0.000000   0.000000   0.000000
    36  H    0.000000   0.000000   0.000000   0.000000   0.000000   0.000000
    37  H    0.000000   0.000000   0.000000   0.000000   0.000000   0.000000
    38  H    0.000000   0.000000   0.000000   0.000000   0.000000   0.000000
    39  H    0.000000   0.000000   0.000000   0.000000   0.000000   0.000000
    40  H    0.000000   0.000000   0.000000   0.000000   0.000000   0.000000
    41  H    0.000000   0.000000   0.000000   0.000000   0.000000   0.000000
    42  H    0.000000   0.000000   0.000000   0.000000   0.000000   0.000000
    43  H    0.000000   0.000000   0.000000   0.000000   0.000000   0.000000
    44  H    0.000000   0.000000   0.000000   0.000000   0.000000   0.000000
    45  H    0.000000   0.000000   0.000000   0.000000   0.000000   0.000000
               7          8          9         10         11         12
     1  O    0.000000   0.000000   0.000000   0.000000   0.000000   0.000000
     2  C    0.000000   0.000000   0.000000   0.000000   0.000000   0.000000
     3  C    0.000000   0.000000   0.000000   0.000000   0.000000   0.000000
     4  O    0.000000   0.000000   0.000000   0.000000   0.000000   0.000000
     5  C    0.000000   0.000000   0.000000   0.000000   0.000000   0.000000
     6  C    0.000000   0.000000   0.000000   0.000000   0.000000   0.000000
     7  O    6.469383   0.000000   0.000000   0.000000   0.000000   0.000000
     8  C    0.000000   3.933674   0.000000   0.000000   0.000000   0.000000
     9  C    0.000000   0.000000   4.044124   0.000000   0.000000   0.000000
    10  O    0.000000   0.000000   0.000000   6.558189   0.000000   0.000000
    11  O    0.000000   0.000000   0.000000   0.000000   6.561714   0.000000
    12  C    0.000000   0.000000   0.000000   0.000000   0.000000   3.924198
    13  C    0.000000   0.000000   0.000000   0.000000   0.000000   0.000000
    14  C    0.000000   0.000000   0.000000   0.000000   0.000000   0.000000
    15  C    0.000000   0.000000   0.000000   0.000000   0.000000   0.000000
    16  O    0.000000   0.000000   0.000000   0.000000   0.000000   0.000000
    17  C    0.000000   0.000000   0.000000   0.000000   0.000000   0.000000
    18  C    0.000000   0.000000   0.000000   0.000000   0.000000   0.000000
    19  O    0.000000   0.000000   0.000000   0.000000   0.000000   0.000000
    20  O    0.000000   0.000000   0.000000   0.000000   0.000000   0.000000
    21  O    0.000000   0.000000   0.000000   0.000000   0.000000   0.000000
    22  O    0.000000   0.000000   0.000000   0.000000   0.000000   0.000000
    23  O    0.000000   0.000000   0.000000   0.000000   0.000000   0.000000
    24  H    0.000000   0.000000   0.000000   0.000000   0.000000   0.000000
    25  H    0.000000   0.000000   0.000000   0.000000   0.000000   0.000000
    26  H    0.000000   0.000000   0.000000   0.000000   0.000000   0.000000
    27  H    0.000000   0.000000   0.000000   0.000000   0.000000   0.000000
    28  H    0.000000   0.000000   0.000000   0.000000   0.000000   0.000000
    29  H    0.000000   0.000000   0.000000   0.000000   0.000000   0.000000
    30  H    0.000000   0.000000   0.000000   0.000000   0.000000   0.000000
    31  H    0.000000   0.000000   0.000000   0.000000   0.000000   0.000000
    32  H    0.000000   0.000000   0.000000   0.000000   0.000000   0.000000
    33  H    0.000000   0.000000   0.000000   0.000000   0.000000   0.000000
    34  H    0.000000   0.000000   0.000000   0.000000   0.000000   0.000000
    35  H    0.000000   0.000000   0.000000   0.000000   0.000000   0.000000
    36  H    0.000000   0.000000   0.000000   0.000000   0.000000   0.000000
    37  H    0.000000   0.000000   0.000000   0.000000   0.000000   0.000000
    38  H    0.000000   0.000000   0.000000   0.000000   0.000000   0.000000
    39  H    0.000000   0.000000   0.000000   0.000000   0.000000   0.000000
    40  H    0.000000   0.000000   0.000000   0.000000   0.000000   0.000000
    41  H    0.000000   0.000000   0.000000   0.000000   0.000000   0.000000
    42  H    0.000000   0.000000   0.000000   0.000000   0.000000   0.000000
    43  H    0.000000   0.000000   0.000000   0.000000   0.000000   0.000000
    44  H    0.000000   0.000000   0.000000   0.000000   0.000000   0.000000
    45  H    0.000000   0.000000   0.000000   0.000000   0.000000   0.000000
              13         14         15         16         17         18
     1  O    0.000000   0.000000   0.000000   0.000000   0.000000   0.000000
     2  C    0.000000   0.000000   0.000000   0.000000   0.000000   0.000000
     3  C    0.000000   0.000000   0.000000   0.000000   0.000000   0.000000
     4  O    0.000000   0.000000   0.000000   0.000000   0.000000   0.000000
     5  C    0.000000   0.000000   0.000000   0.000000   0.000000   0.000000
     6  C    0.000000   0.000000   0.000000   0.000000   0.000000   0.000000
     7  O    0.000000   0.000000   0.000000   0.000000   0.000000   0.000000
     8  C    0.000000   0.000000   0.000000   0.000000   0.000000   0.000000
     9  C    0.000000   0.000000   0.000000   0.000000   0.000000   0.000000
    10  O    0.000000   0.000000   0.000000   0.000000   0.000000   0.000000
    11  O    0.000000   0.000000   0.000000   0.000000   0.000000   0.000000
    12  C    0.000000   0.000000   0.000000   0.000000   0.000000   0.000000
    13  C    3.912539   0.000000   0.000000   0.000000   0.000000   0.000000
[...]
 00069612,-0.00047924,-0.00102488,0.00030839,-0.00109409,-0.00561379,0.
 00190766,0.00131834,0.00045000,0.00001473,0.00015325,-0.00043728,-0.00
 032414,-0.00000023,0.00022666,-0.00036617,0.00007411,0.00061887,0.0001
 8852,-0.00004373,0.00130448,0.00061163,-0.00080956,0.00009489,-0.00005
 316,0.00008320,-0.00001997,-0.00002003,0.00001874,-0.00001376,-0.00001
 943,-0.00001650,-0.00005268,0.00001373,-0.00002058,-0.00004393,-0.0000
 0628,0.00001343,0.00005097,-0.00001162,-0.00007747,0.00000244,-0.00005
 206,0.00000771,0.00000735,-0.00001408,0.00006784,-0.00003391,-0.000026
 12,0.00005108,-0.00009090,-0.00016869,0.00006531,0.00020307,0.00139039
 ,0.00033837,-0.00040612,-0.00057028,-0.00024735,-0.00000112,0.00004833
 ,0.00011790,-0.00001030,-0.00007666,0.00001416,0.00004292,-0.00010537,
 0.00026280,-0.00006449,0.00004568,-0.00003180,-0.00003105,0.00003074,-
 0.00009286,0.00089262,0.00087695,0.00012778,-0.00036600,-0.00091001,0.
 00069579,0.08700650,0.00003027,-0.00009312,-0.00000364,0.00000698,0.00
 004702,0.00001884,-0.00002289,0.00001693,-0.00000707,0.00002930,-0.000
 05955,0.00002198,-0.00002048,0.00001795,-0.00005309,-0.00002168,0.0000
 2468,-0.00013062,0.00010114,-0.00005968,0.00006770,-0.00000983,-0.0000
 2488,-0.00001216,-0.00018627,0.00009081,0.00012376,0.00040487,-0.00005
 362,-0.00022956,0.02602874,-0.02216952,0.04605545,0.01268170,-0.008215
 00,0.01334842,-0.00281079,0.00139011,-0.00116802,0.00033780,-0.0003889
 1,0.00016580,0.00043653,0.00051582,-0.00028540,-0.00053253,-0.00041132
 ,0.00032126,0.00204432,-0.00040194,-0.00036965,0.00029606,0.00017255,0
 .00029318,-0.00034630,0.00004723,-0.00098353,-0.00016873,-0.00019985,0
 .00007906,-0.00016063,-0.00026784,0.00008365,0.00190464,-0.00140486,0.
 00003104,0.00001198,-0.00008724,0.00007476,-0.00000140,-0.00000677,0.0
 0000218,-0.00000310,0.00000108,0.00000072,-0.00000010,0.00002321,-0.00
 001898,0.00001530,0.00003618,-0.00000032,-0.00001929,0.00000338,0.0000
 0384,-0.00001092,0.00000642,0.00000597,-0.00000173,0.00000219,0.000010
 34,0.00001124,0.00004610,-0.00001120,-0.00018601,0.00001070,0.00002050
 ,0.00164008,-0.00054312,0.00009588,-0.00065261,-0.00001046,-0.00001560
 ,0.00006698,0.00005207,0.00003080,-0.00001688,0.00000099,0.00004959,-0
 .00008735,0.00021002,-0.00006563,0.00002526,-0.00010127,0.00001305,-0.
 00002955,-0.00004451,0.00006228,0.00005829,-0.00002935,0.00146616,-0.0
 0079213,0.00016775,0.00019428,-0.04017807,0.03150529,-0.00000578,-0.00
 002346,-0.00012720,0.00003177,0.00003041,0.00003974,-0.00008560,0.0000
 2737,0.00005873,0.00009313,-0.00002418,-0.00006349,0.00004140,0.000056
 46,-0.00000993,-0.00055980,-0.00037357,0.00055520,0.00001977,0.0002252
 1,-0.00046380,-0.00002759,0.00011530,0.00019974,0.00008241,-0.00006107
 ,-0.00015924,-0.00037778,-0.00009193,-0.00013492,-0.05778868,0.0577299
 6,-0.17439819,-0.01135960,0.00206130,-0.00074126,0.00113439,-0.0014120
 2,0.00304200,-0.00024325,-0.00012063,-0.00052933,-0.00119063,-0.000338
 96,0.00021762,0.00196482,-0.00000751,0.00074378,0.00017837,0.00023470,
 -0.00175097,0.00061378,0.00027482,0.00005486,-0.00053764,-0.00065599,0
 .00003174,0.00055311,-0.00023723,-0.00017602,0.00079702,0.00060932,-0.
 00024782,-0.00275918,0.00053053,-0.00175294,0.00009546,0.00006285,-0.0
 0007204,-0.00001726,-0.00001248,0.00000922,-0.00000480,-0.00000994,-0.
 00001570,-0.00004684,-0.00000748,0.00001530,-0.00005490,-0.00003615,0.
 00003957,0.00006299,0.00001023,-0.00005868,0.00000633,-0.00004184,-0.0
 0001477,0.00003482,0.00001627,0.00005543,0.00002068,-0.00002177,0.0000
 7508,0.00010327,-0.00004908,0.00023372,0.00234069,0.00037897,0.0014785
 8,-0.00016997,-0.00031461,-0.00017310,-0.00003028,0.00001911,0.0001906
 6,-0.00002111,-0.00005558,-0.00009808,0.00013155,-0.00016428,-0.000199
 97,-0.00009026,0.00010158,-0.00001859,-0.00003993,-0.00006361,-0.00011
 727,0.00049283,0.00097553,-0.00053490,0.00052702,-0.00014506,-0.000022
 75,0.06632703,-0.05926261,0.17469224,-0.00015668,-0.00018886,-0.000351
 88,0.00054287,0.00031198,-0.00014831,-0.00187969,-0.00012511,-0.001806
 97,-0.00004520,0.00047553,-0.00021726,0.00819349,0.01751827,-0.0101731
 0,0.00094950,0.00170300,-0.00428752,-0.00088640,0.00066393,0.00055392,
 0.00022617,-0.00016996,-0.00000472,0.00023582,-0.00010245,-0.00009294,
 -0.00043885,-0.00011921,0.00024192,0.00026587,-0.00012790,0.00020413,-
 0.00019753,0.00006159,-0.00005340,-0.00037347,-0.00010391,-0.00037146,
 0.00063866,0.00113013,0.00010266,-0.00504473,0.00145364,0.00007201,0.0
 0213187,0.00027715,0.00010393,-0.00087158,0.00040361,-0.00035397,-0.00
 007620,-0.00017026,-0.00011705,0.00035099,0.00006458,0.00009956,-0.002
 86171,-0.00117664,-0.00048444,-0.00181857,-0.00152612,0.00092299,0.000
 06596,-0.00038294,0.00066151,-0.05958840,-0.07848093,0.03243129,-0.000
 17264,0.00000315,-0.00009925,-0.00023682,-0.00019401,0.00001707,-0.000
 33171,-0.00045013,0.00057347,0.00089673,0.00097526,-0.00104177,-0.0001
 9045,0.00003768,-0.00030696,-0.00000340,-0.00005614,0.00005428,0.00002
 020,0.00000101,0.00002413,0.00005904,0.00007230,-0.00001702,0.00013220
 ,0.00008312,-0.00010249,-0.00001528,-0.00005314,-0.00005160,0.00004592
 ,0.00008108,0.00001745,0.00012586,-0.00008274,-0.00026211,-0.00024420,
 0.00001919,0.00048492,0.00004505,0.00002842,0.00006212,-0.00001075,-0.
 00005968,0.00002842,-0.00000934,0.00002762,0.00004843,-0.00012062,0.00
 004557,0.00000061,0.00024393,0.00042115,-0.00019797,-0.00004638,0.0000
 4456,-0.00013661,0.05861749,-0.00002453,-0.00077483,-0.00055081,0.0007
 7969,0.00060201,0.00018673,-0.00190770,0.00184305,-0.00049811,0.000932
 46,-0.00141775,0.00015553,0.00112847,-0.01548259,0.01640433,0.00371813
 ,-0.00172362,0.00074067,-0.00069225,0.00032683,-0.00066478,0.00021717,
 0.00023710,0.00032837,0.00023328,-0.00011467,-0.00020318,-0.00050668,-
 0.00014084,0.00009378,0.00001889,-0.00017582,0.00016531,-0.00001639,0.
 00011556,-0.00013119,-0.00019235,-0.00017739,-0.00007755,0.00095357,0.
 00109239,0.00019628,-0.00285356,0.00389773,0.00024311,0.00159880,-0.00
 052557,0.00022695,-0.00063213,0.00018704,-0.00036718,0.00002050,-0.000
 11162,-0.00005647,0.00020462,-0.00003313,0.00008399,0.00297776,-0.0029
 9869,-0.00036565,-0.00216191,-0.00138843,0.00005823,-0.00008329,-0.000
 36103,0.00036748,-0.06296385,-0.11922892,0.07563698,-0.00023428,-0.000
 04540,-0.00007625,-0.00011969,-0.00023112,-0.00021898,-0.00033555,0.00
 092452,-0.00034710,-0.00009382,0.00320150,-0.00147235,-0.00006273,-0.0
 0039954,-0.00000925,0.00000721,-0.00016277,-0.00004272,0.00001522,0.00
 000799,0.00009238,0.00004668,0.00010959,0.00002902,0.00025630,0.000051
 22,0.00006420,-0.00002690,0.00000441,-0.00000290,0.00003120,0.00005751
 ,-0.00000080,0.00015346,0.00002101,-0.00009046,0.00054607,0.00008752,0
 .00028195,0.00008622,0.00004237,0.00005512,-0.00005827,0.00001188,0.00
 001920,-0.00001724,0.00001737,0.00002334,-0.00006664,0.00007988,-0.000
 03063,0.00029805,0.00038630,-0.00013895,0.00002155,0.00006786,-0.00007
 462,0.05847410,0.13182600,0.00002113,-0.00020036,0.00035193,0.00070340
 ,0.00030011,-0.00056814,-0.00213653,0.00163186,-0.00550960,-0.00065528
 ,-0.00017474,0.00092845,0.00888194,0.03538276,-0.03421306,-0.00154456,
 0.00062395,-0.00000795,0.00037155,-0.00076392,0.00025488,-0.00002844,-
 0.00002636,-0.00013847,-0.00011260,0.00003955,0.00013287,0.00024289,-0
 .00000920,-0.00005234,0.00008821,0.00005032,-0.00008445,-0.00008580,-0
 .00006041,0.00004167,0.00001970,0.00003842,-0.00005267,-0.00016280,-0.
 00055899,-0.00022086,0.00055717,-0.00029146,0.00088636,-0.00027680,-0.
 00002407,-0.00044248,0.00025079,-0.00003345,0.00007479,0.00002926,0.00
 002788,0.00002610,-0.00006515,0.00003526,-0.00009325,-0.00354176,-0.00
 227484,-0.00218281,0.00132726,0.00032438,-0.00062151,0.00011848,0.0001
 1554,-0.00013139,0.01227354,0.05607454,-0.05651044,-0.00006362,0.00008
 504,-0.00016571,-0.00020261,-0.00000294,0.00018634,0.00079323,0.000149
 38,-0.00042632,-0.00028312,-0.00059682,-0.00046081,0.00021284,-0.00002
 535,0.00036635,0.00001043,0.00007348,-0.00001800,-0.00000830,0.0000021
 9,-0.00005417,-0.00003504,0.00000783,-0.00003876,-0.00014070,0.0000294
 2,-0.00003146,-0.00000731,0.00001266,0.00000773,0.00000516,0.00000295,
 0.00003731,-0.00024050,0.00014608,0.00001149,0.00036469,0.00007799,0.0
 0024529,-0.00001134,0.00001245,0.00002529,0.00002708,-0.00000429,0.000
 02409,0.00001229,-0.00000184,0.00001212,0.00000718,-0.00004643,0.00003
 490,-0.00016071,-0.00012738,0.00004325,-0.00002661,-0.00002170,0.00002
 276,-0.01648183,-0.09023434,0.09839794,-0.00005198,0.00006320,-0.00004
 282,-0.00001569,-0.00001256,0.00000529,0.00009252,-0.00013368,-0.00002
 667,-0.00005550,0.00025266,-0.00009748,-0.00008571,-0.00001726,-0.0000
 6414,-0.00007366,-0.00004316,0.00005994,-0.00003390,0.00002648,-0.0000
 5006,0.00001846,0.00000748,0.00001258,0.00002785,-0.00001685,-0.000017
 33,-0.00008634,-0.00005442,0.00000843,0.00005822,-0.00033295,0.0002169
 8,0.00016146,0.00028455,-0.00020872,0.00031199,0.00017959,0.00003611,-
 0.00283123,0.00173513,0.00045352,0.00595632,0.04251872,0.00574021,-0.0
 0075804,-0.00229997,-0.00000231,-0.00133670,-0.00025797,0.00001472,0.0
 0002258,-0.00016203,-0.00009763,0.00035685,-0.00006496,0.00000676,-0.0
 4922464,-0.05884539,-0.00288702,0.00007516,-0.00001222,-0.00034357,-0.
 00015238,-0.00017920,-0.00022518,-0.00039140,-0.00021484,0.00042134,-0
 .00000334,-0.00000374,0.00000290,-0.00001029,-0.00000663,0.00000721,-0
 .00004159,-0.00016892,0.00009140,0.00007181,-0.00016380,-0.00006564,-0
 .00000891,0.00000919,0.00000053,-0.00000185,-0.00000707,-0.00000192,0.
 00000650,0.00000311,0.00000439,0.00001639,0.00002476,-0.00000351,0.000
 02812,0.00001525,0.00003011,-0.00012626,0.00012765,-0.00000405,-0.0000
 7367,-0.00003699,0.00004778,0.00009814,0.00020761,0.00016299,-0.004135
 46,0.00261422,0.00066210,0.00029188,0.00007236,0.00003822,-0.00026048,
 -0.00000210,0.00017922,-0.00001561,-0.00001695,0.00008158,-0.00013437,
 0.00011617,-0.00001004,0.00003508,0.00008769,-0.00002121,0.00003458,0.
 00009594,-0.00009000,0.00181249,0.00051528,-0.00001725,0.05039636,0.00
 013201,-0.00029805,-0.00026457,0.00011459,0.00016108,0.00012844,-0.000
 39840,0.00027677,0.00021559,0.00043514,-0.00041647,-0.00004960,-0.0000
 2171,0.00013027,-0.00011442,-0.00109825,-0.00091868,0.00095866,0.00016
 247,0.00039902,-0.00080153,-0.00008004,0.00024678,0.00030825,-0.000059
 43,0.00001511,-0.00012780,0.00004142,0.00012288,-0.00024080,-0.0005585
 4,-0.00014720,-0.00012690,0.00055194,0.00005861,-0.00008014,0.00080208
 ,0.00000509,0.00051836,-0.00074683,-0.00180061,0.00061285,0.01312751,-
 0.04017969,-0.00767451,0.00184805,-0.00090274,-0.00222583,0.00054321,-
 0.00147505,0.00067012,0.00012779,0.00016144,0.00012188,-0.00027243,-0.
 00040746,-0.00008227,-0.02818833,-0.18205309,-0.02246784,0.00098148,0.
 00139457,-0.00028122,-0.00047692,0.00019325,-0.00088069,0.00047286,-0.
 00013128,-0.00003121,-0.00005522,-0.00003878,0.00002011,-0.00000217,-0
 .00003884,-0.00006903,-0.00016724,0.00017267,-0.00006634,-0.00041053,-
 0.00034617,0.00037333,0.00002809,-0.00005164,-0.00012405,0.00000473,-0
 .00009519,-0.00002767,0.00000205,0.00001078,0.00009079,-0.00000556,-0.
 00001602,0.00011417,0.00007195,-0.00014878,0.00019812,-0.00005620,0.00
 027456,0.00014573,-0.00006359,-0.00012270,-0.00006329,0.00008767,0.000
 04024,0.00056787,0.00023801,-0.00106169,-0.00101038,0.00001529,-0.0000
 4310,-0.00009826,-0.00046380,0.00035319,0.00009761,-0.00005081,-0.0000
 7684,-0.00001610,0.00007604,0.00014064,-0.00008292,0.00001166,-0.00026
 656,0.00017219,0.00012594,0.00007155,0.00014834,-0.00086691,-0.0000774
 7,0.00015217,0.01415847,0.22669728,-0.00003771,-0.00040437,0.00007955,
 0.00004716,0.00019324,0.00010304,-0.00000192,0.00008623,-0.00006129,-0
 .00015277,-0.00023725,0.00000184,0.00018032,-0.00007436,0.00006893,-0.
 00033603,-0.00016092,0.00007784,0.00006788,-0.00002809,-0.00016894,-0.
 00002307,0.00002532,0.00011231,-0.00010063,0.00000011,0.00004721,0.000
 11238,-0.00007811,-0.00012899,0.00008464,0.00001126,-0.00024052,-0.000
 23796,-0.00002714,0.00009996,0.00010748,0.00018223,-0.00030214,-0.0024
 8795,0.00100956,-0.00030937,0.00393037,-0.01426470,-0.00291503,-0.0001
 3525,-0.00022261,-0.00214592,0.00101965,0.00016815,0.00010025,0.000158
 61,0.00015174,0.00012849,-0.00022846,0.00003864,-0.00027120,-0.0010635
 3,-0.01728188,-0.00115203,0.00021317,-0.00002308,-0.00016696,0.0000208
 7,-0.00002059,-0.00032236,-0.00011740,-0.00005165,-0.00049651,0.000013
 52,-0.00000399,-0.00002263,0.00001854,0.00003763,0.00001668,0.00015241
 ,0.00009874,0.00005276,0.00016764,0.00058549,0.00021114,0.00002765,0.0
 0002251,0.00003951,0.00000254,0.00001964,-0.00002243,-0.00000618,0.000
 01758,-0.00001313,-0.00001431,0.00011482,-0.00000736,-0.00001568,0.000
 00576,0.00007296,-0.00013709,0.00017279,0.00012491,0.00000419,-0.00003
 361,0.00002109,-0.00041991,0.00077193,0.00010824,0.00305656,-0.0021798
 0,-0.00088713,-0.00018972,-0.00005071,-0.00004206,0.00012622,0.0000215
 7,0.00009193,0.00004196,-0.00002143,-0.00001922,0.00004231,-0.00008912
 ,0.00005164,-0.00008927,-0.00003566,0.00002644,-0.00002058,0.00000585,
 0.00006310,0.00023392,0.00006019,0.00020740,-0.00406935,0.03130197,0.0
 0791455,-0.12135176,0.10084632,-0.00630783,0.01028670,-0.00544761,0.00
 395750,0.00277276,-0.00379231,-0.00164486,-0.00220644,0.00100211,0.001
 32779,-0.00018089,-0.00016590,0.00068889,-0.00050605,-0.00070708,0.000
 64902,0.00059169,-0.00003061,-0.00107472,-0.00207608,-0.00191587,-0.00
 048316,-0.00069982,0.00015398,0.00004126,0.00042051,0.00000309,-0.0001
 2826,0.00014017,0.00001370,-0.00000500,-0.00011510,-0.00001556,0.00001
 816,-0.00003866,0.00001977,0.00003333,0.00001161,-0.00017910,-0.000096
 73,0.00003376,-0.00026441,0.00016206,0.00007925,0.00010906,-0.00011802
 ,-0.00001583,0.00002208,0.00002594,-0.00004703,-0.00002319,-0.00002363
 ,0.00006345,0.00004417,-0.00001861,-0.00013412,0.00022492,-0.00012858,
 0.00028011,0.00029579,-0.00016007,0.00018464,0.00007530,-0.00011635,-0
 .00039459,0.00050165,-0.00042636,-0.00007236,-0.00210476,-0.00204997,-
 0.00029413,0.00059035,0.00003288,0.00057304,0.00093734,0.00056840,0.00
 007299,0.00004435,0.00041186,0.00004490,0.00014705,0.00002450,0.000327
 86,0.00008850,-0.00013626,-0.00000226,-0.00000889,-0.00011908,-0.00008
 676,0.00013785,-0.00000317,-0.00013112,0.00003991,0.00008058,-0.000004
 61,-0.00001188,-0.00000323,-0.00001060,0.00001182,0.00002024,-0.000108
 27,0.00002929,0.00016867,-0.00000838,0.00003481,0.00000305,-0.00000804
 ,0.00000513,0.00001018,0.00000924,-0.00001915,0.00000841,0.00000132,0.
 00000344,0.00001517,-0.00003302,-0.00002321,0.00002496,-0.00019723,-0.
 00011167,0.00006525,-0.00004366,-0.00001225,-0.00001508,0.00002102,-0.
 00018464,-0.00003007,0.00003682,-0.00011656,0.00005456,0.11281549,0.07
 116967,-0.10611585,-0.01426300,0.02297454,-0.04583480,-0.01014426,-0.0
 0107751,0.00154561,-0.00269799,-0.00205073,-0.00323617,-0.00296356,0.0
 0007455,-0.00008442,-0.00053099,0.00062522,0.00075297,-0.00071456,-0.0
 0003893,-0.00046721,0.00116934,-0.00094511,-0.00359418,-0.00272590,0.0
 0054389,-0.00015704,-0.00034985,-0.00086139,0.00006776,0.00052556,-0.0
 0006231,-0.00007749,0.00001783,0.00005254,0.00002246,-0.00002913,-0.00
 004137,-0.00004635,-0.00010906,0.00015315,0.00035569,0.00000377,-0.000
 20866,0.00036460,-0.00002943,0.00002198,-0.00014150,0.00002770,-0.0000
 5036,-0.00001347,-0.00002514,0.00005648,0.00000380,0.00001783,-0.00001
 442,-0.00004505,-0.00001174,0.00021277,-0.00052592,-0.00023687,-0.0005
 7555,-0.00057611,0.00018391,-0.00011416,-0.00030555,0.00021254,0.00005
 427,-0.00072003,0.00042557,-0.00089850,-0.00145063,0.00044886,0.000268
 49,-0.00058269,0.00033788,-0.00003224,0.00062603,0.00001415,0.00001252
 ,0.00051769,0.00017521,-0.00003091,-0.00014812,-0.00000040,0.00021657,
 -0.00031782,0.00007865,0.00015337,-0.00002380,0.00011617,0.00029580,0.
 00018009,-0.00006234,0.00005207,0.00003138,-0.00025264,-0.00002117,0.0
 0004551,0.00003986,0.00001562,0.00001667,-0.00001130,-0.00003336,0.000
 14142,0.00003596,0.00003279,-0.00001415,0.00002147,0.00000792,0.000007
 84,0.00000132,-0.00002159,0.00002487,0.00001039,-0.00000543,-0.0000020
 3,-0.00000296,0.00000387,0.00003180,-0.00001341,0.00030544,0.00038069,
 -0.00016332,0.00002940,0.00004478,-0.00000169,0.00005913,0.00037255,0.
 00008309,-0.00006198,0.00018837,0.00018581,-0.09024761,0.15875820,-0.0
 1885196,-0.00388297,-0.01021090,0.01470986,-0.01958520,-0.00550916,0.0
 0016864,-0.00507353,-0.00344217,-0.00067916,0.00025491,-0.00121391,-0.
 00002190,0.00023402,-0.00046039,0.00049861,-0.00104336,0.00062369,0.00
 024220,0.00017146,-0.00121418,-0.00101049,-0.00355146,-0.00089333,-0.0
 0013848,-0.00007378,-0.00032605,0.00003636,0.00004474,-0.00017465,-0.0
 0016471,0.00002342,-0.00005884,0.00011214,0.00001262,-0.00002291,0.000
 15607,-0.00004759,0.00023678,-0.00010529,0.00004211,0.00002161,0.00047
 715,0.00000031,-0.00020058,-0.00034678,-0.00010616,0.00008126,0.000161
 50,-0.00006720,0.00002509,0.00004688,0.00004558,0.00003802,-0.00010954
 ,-0.00002443,-0.00002514,-0.00040191,0.00002456,0.00035293,-0.00034423
 ,0.00026077,0.00005474,-0.00011159,0.00012743,-0.00027801,-0.00019553,
 0.00009510,0.00068267,0.00022495,0.00048675,0.00116994,-0.00015389,-0.
 00014993,0.00008355,-0.00015853,0.00095026,-0.00025898,0.00039437,-0.0
 0011503,-0.00066399,-0.00010415,0.00009448,-0.00010219,0.00035900,-0.0
 0018629,-0.00002169,-0.00003162,0.00001480,0.00013562,0.00006311,-0.00
 010989,0.00013809,0.00004501,-0.00007530,0.00014663,0.00000881,0.00001
 591,0.00002388,-0.00001134,-0.00002601,-0.00002475,0.00019373,-0.00006
 565,-0.00008511,-0.00001316,-0.00000282,-0.00002869,-0.00000179,-0.000
 00492,-0.00001424,0.00000533,0.00001093,-0.00000813,0.00000180,-0.0000
 0746,-0.00001463,0.00004461,-0.00000301,-0.00000338,-0.00001469,-0.000
 13973,0.00010861,0.00003925,-0.00000764,0.00006212,0.00022204,0.000141
 02,-0.00029461,0.00006178,0.00009152,-0.00012620,0.00469776,0.03120658
 ,0.02169177\\0.00005311,-0.00004172,0.00001522,-0.00005551,0.00002831,
 -0.00002742,0.00000714,-0.00012813,-0.00004557,-0.00005704,0.00007067,
 -0.00004273,-0.00001060,0.00007989,0.00006793,-0.00015425,-0.00002119,
 0.00001303,-0.00003255,-0.00003429,-0.00003334,0.00001608,-0.00008995,
 0.00002583,0.00000477,0.00005589,0.00006991,-0.00000943,-0.00015586,0.
 00006081,-0.00004509,0.00001073,-0.00003578,0.00000147,-0.00000062,-0.
 00000054,0.00008066,-0.00002257,0.00010938,0.00004073,-0.00001012,-0.0
 0015423,0.00008192,-0.00001130,0.00003187,-0.00000300,0.00001479,-0.00
 001239,-0.00005039,0.00005546,0.00000431,0.00010528,-0.00011203,0.0000
 1229,-0.00011652,0.00013407,-0.00002406,0.00007644,0.00004903,-0.00003
 522,0.00008485,0.00000191,-0.00001056,0.00001987,0.00006746,-0.0001397
 6,-0.00002499,-0.00004431,0.00000899,0.00000933,-0.00000150,-0.0000003
 9,0.00000863,0.00004765,0.00002805,0.00004644,-0.00004650,0.00005696,-
 0.00006122,-0.00004723,0.00001641,0.00002452,-0.00002544,0.00000714,-0
 .00002427,0.00004740,-0.00000601,0.00001858,0.00001286,-0.00003534,0.0
 0003549,0.00003620,0.00001572,0.00005056,-0.00003142,-0.00004126,-0.00
 000899,-0.00000856,-0.00002070,-0.00001629,0.00002746,-0.00000308,0.00
 000323,0.00002668,0.00010109,0.00000118,-0.00000692,-0.00004886,0.0000
 0472,-0.00002982,0.00000556,-0.00006083,0.00007152,-0.00001310,-0.0000
 2530,0.00002062,0.00001340,0.00011438,-0.00013015,0.00002842,-0.000039
 63,0.00001958,0.00006863,0.00001840,-0.00000627,0.00002803,-0.00006771
 ,0.00002872,-0.00004561,0.00000034,0.00006957,-0.00000446,-0.00004446,
 0.00002942,-0.00000856\\\@


 CHINESE FORTUNE COOKIE OF JAN 1 1967 SAY....
 ALL THINGS ARE DIFFICULT BEFORE THEY ARE EASY.
 WE LEARN SO LITTLE AND FORGET SO MUCH.
 YOU WILL OVERCOME OBSTACLES TO ACHIEVE SUCCESS.
 AH SO.
 Job cpu time:       0 days  0 hours  0 minutes 11.2 seconds.
 Elapsed time:       0 days  0 hours  0 minutes  1.0 seconds.
 File lengths (MBytes):  RWF=    217 Int=      0 D2E=      0 Chk=      4 Scr=      1
 Normal termination of Gaussian 16 at Tue Jun 22 14:23:22 2021.
