 Entering Gaussian System, Link 0=g16
 Input=input.com
 Output=input.log
 Initial command:
 /home/matma/Programs/gaussian/G16_x86_SSE4/tar/g16/l1.exe "/scratch-data/gaussian/Gau-11441.inp" -scrdir="/scratch-data/gaussian/"
 Entering Link 1 = /home/matma/Programs/gaussian/G16_x86_SSE4/tar/g16/l1.exe PID=     11443.
  
 Copyright (c) 1988-2017, Gaussian, Inc.  All Rights Reserved.
  
 This is part of the Gaussian(R) 16 program.  It is based on
 the Gaussian(R) 09 system (copyright 2009, Gaussian, Inc.),
 the Gaussian(R) 03 system (copyright 2003, Gaussian, Inc.),
 the Gaussian(R) 98 system (copyright 1998, Gaussian, Inc.),
 the Gaussian(R) 94 system (copyright 1995, Gaussian, Inc.),
 the Gaussian 92(TM) system (copyright 1992, Gaussian, Inc.),
 the Gaussian 90(TM) system (copyright 1990, Gaussian, Inc.),
 the Gaussian 88(TM) system (copyright 1988, Gaussian, Inc.),
 the Gaussian 86(TM) system (copyright 1986, Carnegie Mellon
 University), and the Gaussian 82(TM) system (copyright 1983,
 Carnegie Mellon University). Gaussian is a federally registered
 trademark of Gaussian, Inc.
  
 This software contains proprietary and confidential information,
 including trade secrets, belonging to Gaussian, Inc.
  
 This software is provided under written license and may be
 used, copied, transmitted, or stored only in accord with that
 written license.
  
 The following legend is applicable only to US Government
 contracts under FAR:
  
                    RESTRICTED RIGHTS LEGEND
  
 Use, reproduction and disclosure by the US Government is
 subject to restrictions as set forth in subparagraphs (a)
 and (c) of the Commercial Computer Software - Restricted
 Rights clause in FAR 52.227-19.
  
 Gaussian, Inc.
 340 Quinnipiac St., Bldg. 40, Wallingford CT 06492
  
  
 ---------------------------------------------------------------
 Warning -- This program may not be used in any manner that
 competes with the business of Gaussian, Inc. or will provide
 assistance to any competitor of Gaussian, Inc.  The licensee
 of this program is prohibited from giving any competitor of
 Gaussian, Inc. access to this program.  By using this program,
 the user acknowledges that Gaussian, Inc. is engaged in the
 business of creating and licensing software in the field of
 computational chemistry and represents and warrants to the
 licensee that it is not a competitor of Gaussian, Inc. and that
 it will not use this program in any manner prohibited above.
 ---------------------------------------------------------------
  

 Cite this work as:
 Gaussian 16, Revision B.01,
 M. J. Frisch, G. W. Trucks, H. B. Schlegel, G. E. Scuseria, 
 M. A. Robb, J. R. Cheeseman, G. Scalmani, V. Barone, 
 G. A. Petersson, H. Nakatsuji, X. Li, M. Caricato, A. V. Marenich, 
 J. Bloino, B. G. Janesko, R. Gomperts, B. Mennucci, H. P. Hratchian, 
 J. V. Ortiz, A. F. Izmaylov, J. L. Sonnenberg, D. Williams-Young, 
 F. Ding, F. Lipparini, F. Egidi, J. Goings, B. Peng, A. Petrone, 
 T. Henderson, D. Ranasinghe, V. G. Zakrzewski, J. Gao, N. Rega, 
 G. Zheng, W. Liang, M. Hada, M. Ehara, K. Toyota, R. Fukuda, 
 J. Hasegawa, M. Ishida, T. Nakajima, Y. Honda, O. Kitao, H. Nakai, 
 T. Vreven, K. Throssell, J. A. Montgomery, Jr., J. E. Peralta, 
 F. Ogliaro, M. J. Bearpark, J. J. Heyd, E. N. Brothers, K. N. Kudin, 
 V. N. Staroverov, T. A. Keith, R. Kobayashi, J. Normand, 
 K. Raghavachari, A. P. Rendell, J. C. Burant, S. S. Iyengar, 
 J. Tomasi, M. Cossi, J. M. Millam, M. Klene, C. Adamo, R. Cammi, 
 J. W. Ochterski, R. L. Martin, K. Morokuma, O. Farkas, 
 J. B. Foresman, and D. J. Fox, Gaussian, Inc., Wallingford CT, 2016.
 
 ******************************************
 Gaussian 16:  ES64L-G16RevB.01 20-Dec-2017
                22-Jun-2021 
 ******************************************
 %nproc=12
 Will use up to   12 processors via shared memory.
 %mem=16GB
 --------------------------------------
 #P pm6 opt=loose freq int=(grid=99590)
 --------------------------------------
 1/7=-1,18=20,19=15,26=1,38=1/1,3;
 2/9=110,12=2,17=6,18=5,40=1/2;
 3/5=2,25=1,41=3900000,71=1,75=99590/1,2,3;
 4/35=1/1;
 5/5=2,35=1,38=5/2;
 6/7=2,8=2,9=2,10=2,28=1/1;
 7//1,2,3,16;
 1/7=-1,18=20,19=15,26=1/3(2);
 2/9=110/2;
 99//99;
 2/9=110/2;
 3/5=2,25=1,41=3900000,71=1,75=99590,135=20/1,2,3;
 4/5=5,16=3,35=1/1;
 5/5=2,35=1,38=5/2;
 7//1,2,3,16;
 1/7=-1,18=20,19=15,26=1/3(-5);
 2/9=110/2;
 6/7=2,8=2,9=2,10=2,19=2,28=1/1;
 99/9=1/99;
 Leave Link    1 at Tue Jun 22 14:17:46 2021, MaxMem=  2147483648 cpu:               0.2 elap:               0.0
 (Enter /home/matma/Programs/gaussian/G16_x86_SSE4/tar/g16/l101.exe)
 ----------
 initial-02
 ----------
 Symbolic Z-matrix:
 Charge =  0 Multiplicity = 1
 O                    -6.084    -0.909    -3.916 
 C                    -7.325    -1.336    -3.304 
 C                    -7.506    -0.678    -1.921 
 O                    -7.582     0.749    -2.074 
 C                    -6.319    -1.069    -1.006 
 C                    -6.011    -2.616    -1.029 
 O                    -6.015    -3.183    -2.353 
 C                    -7.23     -2.862    -3.068 
 C                    -7.188    -3.645    -4.393 
 O                    -8.343    -3.238    -5.145 
 O                    -1.391    -3.594    -0.832 
 C                    -1.932    -2.855     0.29 
 C                    -0.971    -2.479     1.452 
 C                    -1.741    -1.62      2.485 
 C                    -2.424    -0.398     1.818 
 O                    -3.246    -0.795     0.716 
 C                    -2.566    -1.548    -0.295 
 C                    -3.69     -1.831    -1.302 
 O                    -4.794    -2.467    -0.839 
 O                    -3.327     0.147     2.761 
 O                    -0.785    -1.239     3.478 
 O                    -0.516    -3.67      2.108 
 O                    -6.659    -0.624     0.314 
 H                    -8.178    -1.102    -3.965 
 H                    -8.44     -1.071    -1.471 
 H                    -7.607     1.089    -1.134 
 H                    -5.435    -0.527    -1.385 
 H                    -6.776    -3.123    -0.401 
 H                    -8.114    -3.184    -2.483 
 H                    -6.246    -3.4      -4.921 
 H                    -7.188    -4.726    -4.164 
 H                    -8.453    -3.933    -5.846 
 H                    -2.746    -3.452     0.739 
 H                    -0.126    -1.883     1.05 
 H                    -2.548    -2.249     2.917 
 H                    -1.652     0.336     1.491 
 H                    -1.767    -0.961    -0.787 
 H                    -4.117    -0.879    -1.652 
 H                    -3.299    -2.388    -2.168 
 H                     0.124    -0.797     3.67 
 H                    -0.024    -4.193     1.184 
 H                    -2.024    -4.524    -1.054 
 H                    -5.779    -0.56      0.785 
 H                    -3.622     1.028     2.517 
 H                    -6.091     0.017    -4.17 
 
 Add virtual bond connecting atoms H42        and O11        Dist= 2.17D+00.
 Add virtual bond connecting atoms H41        and O22        Dist= 2.21D+00.
 ITRead=  0  0  0  0  0  0  0  0  0  0  0  0  0  0  0  0  0  0  0  0
 ITRead=  0  0  0  0  0  0  0  0  0  0  0  0  0  0  0  0  0  0  0  0
 ITRead=  0  0  0  0  0
 MicOpt= -1 -1 -1 -1 -1 -1 -1 -1 -1 -1 -1 -1 -1 -1 -1 -1 -1 -1 -1 -1
 MicOpt= -1 -1 -1 -1 -1 -1 -1 -1 -1 -1 -1 -1 -1 -1 -1 -1 -1 -1 -1 -1
 MicOpt= -1 -1 -1 -1 -1
 NAtoms=     45 NQM=       45 NQMF=       0 NMMI=      0 NMMIF=      0
                NMic=       0 NMicF=      0.
                    Isotopes and Nuclear Properties:
 (Nuclear quadrupole moments (NQMom) in fm**2, nuclear magnetic moments (NMagM)
  in nuclear magnetons)

  Atom         1           2           3           4           5           6           7           8           9          10
 IAtWgt=          16          12          12          16          12          12          16          12          12          16
 AtmWgt=  15.9949146  12.0000000  12.0000000  15.9949146  12.0000000  12.0000000  15.9949146  12.0000000  12.0000000  15.9949146
 NucSpn=           0           0           0           0           0           0           0           0           0           0
 AtZEff=  -0.0000000  -0.0000000  -0.0000000  -0.0000000  -0.0000000  -0.0000000  -0.0000000  -0.0000000  -0.0000000  -0.0000000
 NQMom=    0.0000000   0.0000000   0.0000000   0.0000000   0.0000000   0.0000000   0.0000000   0.0000000   0.0000000   0.0000000
 NMagM=    0.0000000   0.0000000   0.0000000   0.0000000   0.0000000   0.0000000   0.0000000   0.0000000   0.0000000   0.0000000
 AtZNuc=   8.0000000   6.0000000   6.0000000   8.0000000   6.0000000   6.0000000   8.0000000   6.0000000   6.0000000   8.0000000

  Atom        11          12          13          14          15          16          17          18          19          20
 IAtWgt=          16          12          12          12          12          16          12          12          16          16
 AtmWgt=  15.9949146  12.0000000  12.0000000  12.0000000  12.0000000  15.9949146  12.0000000  12.0000000  15.9949146  15.9949146
 NucSpn=           0           0           0           0           0           0           0           0           0           0
 AtZEff=  -0.0000000  -0.0000000  -0.0000000  -0.0000000  -0.0000000  -0.0000000  -0.0000000  -0.0000000  -0.0000000  -0.0000000
 NQMom=    0.0000000   0.0000000   0.0000000   0.0000000   0.0000000   0.0000000   0.0000000   0.0000000   0.0000000   0.0000000
 NMagM=    0.0000000   0.0000000   0.0000000   0.0000000   0.0000000   0.0000000   0.0000000   0.0000000   0.0000000   0.0000000
 AtZNuc=   8.0000000   6.0000000   6.0000000   6.0000000   6.0000000   8.0000000   6.0000000   6.0000000   8.0000000   8.0000000

  Atom        21          22          23          24          25          26          27          28          29          30
 IAtWgt=          16          16          16           1           1           1           1           1           1           1
 AtmWgt=  15.9949146  15.9949146  15.9949146   1.0078250   1.0078250   1.0078250   1.0078250   1.0078250   1.0078250   1.0078250
 NucSpn=           0           0           0           1           1           1           1           1           1           1
 AtZEff=  -0.0000000  -0.0000000  -0.0000000  -0.0000000  -0.0000000  -0.0000000  -0.0000000  -0.0000000  -0.0000000  -0.0000000
 NQMom=    0.0000000   0.0000000   0.0000000   0.0000000   0.0000000   0.0000000   0.0000000   0.0000000   0.0000000   0.0000000
 NMagM=    0.0000000   0.0000000   0.0000000   2.7928460   2.7928460   2.7928460   2.7928460   2.7928460   2.7928460   2.7928460
 AtZNuc=   8.0000000   8.0000000   8.0000000   1.0000000   1.0000000   1.0000000   1.0000000   1.0000000   1.0000000   1.0000000

  Atom        31          32          33          34          35          36          37          38          39          40
 IAtWgt=           1           1           1           1           1           1           1           1           1           1
 AtmWgt=   1.0078250   1.0078250   1.0078250   1.0078250   1.0078250   1.0078250   1.0078250   1.0078250   1.0078250   1.0078250
 NucSpn=           1           1           1           1           1           1           1           1           1           1
 AtZEff=  -0.0000000  -0.0000000  -0.0000000  -0.0000000  -0.0000000  -0.0000000  -0.0000000  -0.0000000  -0.0000000  -0.0000000
 NQMom=    0.0000000   0.0000000   0.0000000   0.0000000   0.0000000   0.0000000   0.0000000   0.0000000   0.0000000   0.0000000
 NMagM=    2.7928460   2.7928460   2.7928460   2.7928460   2.7928460   2.7928460   2.7928460   2.7928460   2.7928460   2.7928460
 AtZNuc=   1.0000000   1.0000000   1.0000000   1.0000000   1.0000000   1.0000000   1.0000000   1.0000000   1.0000000   1.0000000

  Atom        41          42          43          44          45
 IAtWgt=           1           1           1           1           1
 AtmWgt=   1.0078250   1.0078250   1.0078250   1.0078250   1.0078250
 NucSpn=           1           1           1           1           1
 AtZEff=  -0.0000000  -0.0000000  -0.0000000  -0.0000000  -0.0000000
 NQMom=    0.0000000   0.0000000   0.0000000   0.0000000   0.0000000
 NMagM=    2.7928460   2.7928460   2.7928460   2.7928460   2.7928460
 AtZNuc=   1.0000000   1.0000000   1.0000000   1.0000000   1.0000000
 Leave Link  101 at Tue Jun 22 14:17:47 2021, MaxMem=  2147483648 cpu:               2.8 elap:               0.2
 (Enter /home/matma/Programs/gaussian/G16_x86_SSE4/tar/g16/l103.exe)

 GradGradGradGradGradGradGradGradGradGradGradGradGradGradGradGradGradGrad
 Berny optimization.
 Initialization pass.
                           ----------------------------
                           !    Initial Parameters    !
                           ! (Angstroms and Degrees)  !
 --------------------------                            --------------------------
 ! Name  Definition              Value          Derivative Info.                !
 --------------------------------------------------------------------------------
 ! R1    R(1,2)                  1.4481         estimate D2E/DX2                !
 ! R2    R(1,45)                 0.9602         estimate D2E/DX2                !
 ! R3    R(2,3)                  1.5422         estimate D2E/DX2                !
 ! R4    R(2,8)                  1.5471         estimate D2E/DX2                !
 ! R5    R(2,24)                 1.1042         estimate D2E/DX2                !
 ! R6    R(3,4)                  1.4372         estimate D2E/DX2                !
 ! R7    R(3,5)                  1.5489         estimate D2E/DX2                !
 ! R8    R(3,25)                 1.1087         estimate D2E/DX2                !
 ! R9    R(4,26)                 0.9999         estimate D2E/DX2                !
 ! R10   R(5,6)                  1.5775         estimate D2E/DX2                !
 ! R11   R(5,23)                 1.4339         estimate D2E/DX2                !
 ! R12   R(5,27)                 1.104          estimate D2E/DX2                !
 ! R13   R(6,7)                  1.4403         estimate D2E/DX2                !
 ! R14   R(6,19)                 1.2407         estimate D2E/DX2                !
 ! R15   R(6,28)                 1.1121         estimate D2E/DX2                !
 ! R16   R(7,8)                  1.4459         estimate D2E/DX2                !
 ! R17   R(8,9)                  1.5396         estimate D2E/DX2                !
 ! R18   R(8,29)                 1.1079         estimate D2E/DX2                !
 ! R19   R(9,10)                 1.4371         estimate D2E/DX2                !
 ! R20   R(9,30)                 1.1073         estimate D2E/DX2                !
 ! R21   R(9,31)                 1.105          estimate D2E/DX2                !
 ! R22   R(10,32)                0.9932         estimate D2E/DX2                !
 ! R23   R(11,12)                1.4483         estimate D2E/DX2                !
 ! R24   R(11,42)                1.1467         estimate D2E/DX2                !
 ! R25   R(12,13)                1.5541         estimate D2E/DX2                !
 ! R26   R(12,17)                1.566          estimate D2E/DX2                !
 ! R27   R(12,33)                1.1048         estimate D2E/DX2                !
 ! R28   R(13,14)                1.5485         estimate D2E/DX2                !
 ! R29   R(13,22)                1.4338         estimate D2E/DX2                !
 ! R30   R(13,34)                1.1094         estimate D2E/DX2                !
 ! R31   R(14,15)                1.5507         estimate D2E/DX2                !
 ! R32   R(14,21)                1.4301         estimate D2E/DX2                !
 ! R33   R(14,35)                1.1106         estimate D2E/DX2                !
 ! R34   R(15,16)                1.431          estimate D2E/DX2                !
 ! R35   R(15,20)                1.4148         estimate D2E/DX2                !
 ! R36   R(15,36)                1.1143         estimate D2E/DX2                !
 ! R37   R(16,17)                1.4323         estimate D2E/DX2                !
 ! R38   R(17,18)                1.5354         estimate D2E/DX2                !
 ! R39   R(17,37)                1.1068         estimate D2E/DX2                !
 ! R40   R(18,19)                1.3556         estimate D2E/DX2                !
 ! R41   R(18,38)                1.1005         estimate D2E/DX2                !
 ! R42   R(18,39)                1.1014         estimate D2E/DX2                !
 ! R43   R(20,44)                0.9606         estimate D2E/DX2                !
 ! R44   R(21,40)                1.0288         estimate D2E/DX2                !
 ! R45   R(22,41)                1.1702         estimate D2E/DX2                !
 ! R46   R(23,43)                1.0002         estimate D2E/DX2                !
 ! A1    A(2,1,45)             112.9487         estimate D2E/DX2                !
 ! A2    A(1,2,3)              110.7179         estimate D2E/DX2                !
 ! A3    A(1,2,8)              107.62           estimate D2E/DX2                !
 ! A4    A(1,2,24)             110.2761         estimate D2E/DX2                !
 ! A5    A(3,2,8)              106.9334         estimate D2E/DX2                !
 ! A6    A(3,2,24)             110.8387         estimate D2E/DX2                !
 ! A7    A(8,2,24)             110.3519         estimate D2E/DX2                !
 ! A8    A(2,3,4)              109.5345         estimate D2E/DX2                !
 ! A9    A(2,3,5)              109.3969         estimate D2E/DX2                !
 ! A10   A(2,3,25)             108.1557         estimate D2E/DX2                !
 ! A11   A(4,3,5)              110.736          estimate D2E/DX2                !
 ! A12   A(4,3,25)             110.5243         estimate D2E/DX2                !
 ! A13   A(5,3,25)             108.4413         estimate D2E/DX2                !
 ! A14   A(3,4,26)             103.8194         estimate D2E/DX2                !
 ! A15   A(3,5,6)              112.8652         estimate D2E/DX2                !
 ! A16   A(3,5,23)             106.4851         estimate D2E/DX2                !
 ! A17   A(3,5,27)             106.6724         estimate D2E/DX2                !
 ! A18   A(6,5,23)             111.3495         estimate D2E/DX2                !
 ! A19   A(6,5,27)             108.6686         estimate D2E/DX2                !
 ! A20   A(23,5,27)            110.7033         estimate D2E/DX2                !
 ! A21   A(5,6,7)              113.5099         estimate D2E/DX2                !
 ! A22   A(5,6,19)              94.1007         estimate D2E/DX2                !
 ! A23   A(5,6,28)             107.7309         estimate D2E/DX2                !
 ! A24   A(7,6,19)             100.9978         estimate D2E/DX2                !
 ! A25   A(7,6,28)             109.7387         estimate D2E/DX2                !
 ! A26   A(19,6,28)            130.0187         estimate D2E/DX2                !
 ! A27   A(6,7,8)              111.686          estimate D2E/DX2                !
 ! A28   A(2,8,7)              110.2448         estimate D2E/DX2                !
 ! A29   A(2,8,9)              111.841          estimate D2E/DX2                !
 ! A30   A(2,8,29)             108.5569         estimate D2E/DX2                !
 ! A31   A(7,8,9)              106.8428         estimate D2E/DX2                !
 ! A32   A(7,8,29)             110.1741         estimate D2E/DX2                !
 ! A33   A(9,8,29)             109.1707         estimate D2E/DX2                !
 ! A34   A(8,9,10)             106.5218         estimate D2E/DX2                !
 ! A35   A(8,9,30)             108.7256         estimate D2E/DX2                !
 ! A36   A(8,9,31)             108.6127         estimate D2E/DX2                !
 ! A37   A(10,9,30)            111.8108         estimate D2E/DX2                !
 ! A38   A(10,9,31)            112.6756         estimate D2E/DX2                !
 ! A39   A(30,9,31)            108.377          estimate D2E/DX2                !
 ! A40   A(9,10,32)            105.0794         estimate D2E/DX2                !
 ! A41   A(12,11,42)           110.9531         estimate D2E/DX2                !
 ! A42   A(11,12,13)           118.1451         estimate D2E/DX2                !
 ! A43   A(11,12,17)           106.7191         estimate D2E/DX2                !
 ! A44   A(11,12,33)           108.3203         estimate D2E/DX2                !
 ! A45   A(13,12,17)           109.1313         estimate D2E/DX2                !
 ! A46   A(13,12,33)           106.4077         estimate D2E/DX2                !
 ! A47   A(17,12,33)           107.7293         estimate D2E/DX2                !
 ! A48   A(12,13,14)           108.9971         estimate D2E/DX2                !
 ! A49   A(12,13,22)           109.7157         estimate D2E/DX2                !
 ! A50   A(12,13,34)           109.2705         estimate D2E/DX2                !
 ! A51   A(14,13,22)           108.2625         estimate D2E/DX2                !
 ! A52   A(14,13,34)           108.8109         estimate D2E/DX2                !
 ! A53   A(22,13,34)           111.7351         estimate D2E/DX2                !
 ! A54   A(13,14,15)           111.6676         estimate D2E/DX2                !
 ! A55   A(13,14,21)           106.1758         estimate D2E/DX2                !
 ! A56   A(13,14,35)           107.8557         estimate D2E/DX2                !
 ! A57   A(15,14,21)           112.5293         estimate D2E/DX2                !
 ! A58   A(15,14,35)           107.0717         estimate D2E/DX2                !
 ! A59   A(21,14,35)           111.5019         estimate D2E/DX2                !
 ! A60   A(14,15,16)           111.446          estimate D2E/DX2                !
 ! A61   A(14,15,20)           107.3365         estimate D2E/DX2                !
 ! A62   A(14,15,36)           109.8867         estimate D2E/DX2                !
 ! A63   A(16,15,20)           104.6865         estimate D2E/DX2                !
 ! A64   A(16,15,36)           110.7768         estimate D2E/DX2                !
 ! A65   A(20,15,36)           112.5841         estimate D2E/DX2                !
 ! A66   A(15,16,17)           114.6273         estimate D2E/DX2                !
 ! A67   A(12,17,16)           111.5488         estimate D2E/DX2                !
 ! A68   A(12,17,18)           112.8012         estimate D2E/DX2                !
 ! A69   A(12,17,37)           108.447          estimate D2E/DX2                !
 ! A70   A(16,17,18)           102.2562         estimate D2E/DX2                !
 ! A71   A(16,17,37)           112.1894         estimate D2E/DX2                !
 ! A72   A(18,17,37)           109.5527         estimate D2E/DX2                !
 ! A73   A(17,18,19)           117.2999         estimate D2E/DX2                !
 ! A74   A(17,18,38)           109.4616         estimate D2E/DX2                !
 ! A75   A(17,18,39)           110.4265         estimate D2E/DX2                !
 ! A76   A(19,18,38)           101.4484         estimate D2E/DX2                !
 ! A77   A(19,18,39)           108.6867         estimate D2E/DX2                !
 ! A78   A(38,18,39)           108.9748         estimate D2E/DX2                !
 ! A79   A(6,19,18)            143.4043         estimate D2E/DX2                !
 ! A80   A(15,20,44)           112.3338         estimate D2E/DX2                !
 ! A81   A(14,21,40)           146.5807         estimate D2E/DX2                !
 ! A82   A(13,22,41)            98.2448         estimate D2E/DX2                !
 ! A83   A(5,23,43)            104.167          estimate D2E/DX2                !
 ! D1    D(45,1,2,3)           -68.6886         estimate D2E/DX2                !
 ! D2    D(45,1,2,8)           174.7696         estimate D2E/DX2                !
 ! D3    D(45,1,2,24)           54.349          estimate D2E/DX2                !
 ! D4    D(1,2,3,4)             62.2274         estimate D2E/DX2                !
 ! D5    D(1,2,3,5)            -59.3208         estimate D2E/DX2                !
 ! D6    D(1,2,3,25)          -177.2514         estimate D2E/DX2                !
 ! D7    D(8,2,3,4)            179.1928         estimate D2E/DX2                !
 ! D8    D(8,2,3,5)             57.6446         estimate D2E/DX2                !
 ! D9    D(8,2,3,25)           -60.286          estimate D2E/DX2                !
 ! D10   D(24,2,3,4)           -60.4837         estimate D2E/DX2                !
 ! D11   D(24,2,3,5)           177.9681         estimate D2E/DX2                !
 ! D12   D(24,2,3,25)           60.0375         estimate D2E/DX2                !
 ! D13   D(1,2,8,7)             52.0069         estimate D2E/DX2                !
 ! D14   D(1,2,8,9)            -66.7131         estimate D2E/DX2                !
 ! D15   D(1,2,8,29)           172.7742         estimate D2E/DX2                !
 ! D16   D(3,2,8,7)            -66.986          estimate D2E/DX2                !
 ! D17   D(3,2,8,9)            174.2941         estimate D2E/DX2                !
 ! D18   D(3,2,8,29)            53.7814         estimate D2E/DX2                !
 ! D19   D(24,2,8,7)           172.3797         estimate D2E/DX2                !
 ! D20   D(24,2,8,9)            53.6597         estimate D2E/DX2                !
 ! D21   D(24,2,8,29)          -66.853          estimate D2E/DX2                !
 ! D22   D(2,3,4,26)          -174.6509         estimate D2E/DX2                !
 ! D23   D(5,3,4,26)           -53.9122         estimate D2E/DX2                !
 ! D24   D(25,3,4,26)           66.2799         estimate D2E/DX2                !
 ! D25   D(2,3,5,6)            -47.8328         estimate D2E/DX2                !
 ! D26   D(2,3,5,23)          -170.3013         estimate D2E/DX2                !
 ! D27   D(2,3,5,27)            71.4376         estimate D2E/DX2                !
 ! D28   D(4,3,5,6)           -168.6532         estimate D2E/DX2                !
 ! D29   D(4,3,5,23)            68.8784         estimate D2E/DX2                !
 ! D30   D(4,3,5,27)           -49.3828         estimate D2E/DX2                !
 ! D31   D(25,3,5,6)            69.919          estimate D2E/DX2                !
 ! D32   D(25,3,5,23)          -52.5495         estimate D2E/DX2                !
 ! D33   D(25,3,5,27)         -170.8106         estimate D2E/DX2                !
 ! D34   D(3,5,6,7)             44.6794         estimate D2E/DX2                !
 ! D35   D(3,5,6,19)           148.5518         estimate D2E/DX2                !
 ! D36   D(3,5,6,28)           -77.0403         estimate D2E/DX2                !
 ! D37   D(23,5,6,7)           164.3814         estimate D2E/DX2                !
 ! D38   D(23,5,6,19)          -91.7461         estimate D2E/DX2                !
 ! D39   D(23,5,6,28)           42.6618         estimate D2E/DX2                !
 ! D40   D(27,5,6,7)           -73.4289         estimate D2E/DX2                !
 ! D41   D(27,5,6,19)           30.4436         estimate D2E/DX2                !
 ! D42   D(27,5,6,28)          164.8515         estimate D2E/DX2                !
 ! D43   D(3,5,23,43)         -158.8096         estimate D2E/DX2                !
 ! D44   D(6,5,23,43)           77.7719         estimate D2E/DX2                !
 ! D45   D(27,5,23,43)         -43.2344         estimate D2E/DX2                !
 ! D46   D(5,6,7,8)            -52.2231         estimate D2E/DX2                !
 ! D47   D(19,6,7,8)          -151.6612         estimate D2E/DX2                !
 ! D48   D(28,6,7,8)            68.3701         estimate D2E/DX2                !
 ! D49   D(5,6,19,18)          -53.5233         estimate D2E/DX2                !
 ! D50   D(7,6,19,18)           61.3963         estimate D2E/DX2                !
 ! D51   D(28,6,19,18)        -170.8385         estimate D2E/DX2                !
 ! D52   D(6,7,8,2)             64.4676         estimate D2E/DX2                !
 ! D53   D(6,7,8,9)           -173.8            estimate D2E/DX2                !
 ! D54   D(6,7,8,29)           -55.3262         estimate D2E/DX2                !
 ! D55   D(2,8,9,10)           -54.6918         estimate D2E/DX2                !
 ! D56   D(2,8,9,30)            65.9557         estimate D2E/DX2                !
 ! D57   D(2,8,9,31)          -176.3066         estimate D2E/DX2                !
 ! D58   D(7,8,9,10)          -175.4112         estimate D2E/DX2                !
 ! D59   D(7,8,9,30)           -54.7638         estimate D2E/DX2                !
 ! D60   D(7,8,9,31)            62.9739         estimate D2E/DX2                !
 ! D61   D(29,8,9,10)           65.4625         estimate D2E/DX2                !
 ! D62   D(29,8,9,30)         -173.89           estimate D2E/DX2                !
 ! D63   D(29,8,9,31)          -56.1524         estimate D2E/DX2                !
 ! D64   D(8,9,10,32)         -163.2092         estimate D2E/DX2                !
 ! D65   D(30,9,10,32)          78.1454         estimate D2E/DX2                !
 ! D66   D(31,9,10,32)         -44.2139         estimate D2E/DX2                !
 ! D67   D(42,11,12,13)        128.5938         estimate D2E/DX2                !
 ! D68   D(42,11,12,17)       -108.1228         estimate D2E/DX2                !
 ! D69   D(42,11,12,33)          7.6241         estimate D2E/DX2                !
 ! D70   D(11,12,13,14)        176.3282         estimate D2E/DX2                !
 ! D71   D(11,12,13,22)        -65.2843         estimate D2E/DX2                !
 ! D72   D(11,12,13,34)         57.5366         estimate D2E/DX2                !
 ! D73   D(17,12,13,14)         54.2615         estimate D2E/DX2                !
 ! D74   D(17,12,13,22)        172.6491         estimate D2E/DX2                !
 ! D75   D(17,12,13,34)        -64.53           estimate D2E/DX2                !
 ! D76   D(33,12,13,14)        -61.7245         estimate D2E/DX2                !
 ! D77   D(33,12,13,22)         56.663          estimate D2E/DX2                !
 ! D78   D(33,12,13,34)        179.4839         estimate D2E/DX2                !
 ! D79   D(11,12,17,16)        174.5268         estimate D2E/DX2                !
 ! D80   D(11,12,17,18)         60.0961         estimate D2E/DX2                !
 ! D81   D(11,12,17,37)        -61.4334         estimate D2E/DX2                !
 ! D82   D(13,12,17,16)        -56.753          estimate D2E/DX2                !
 ! D83   D(13,12,17,18)       -171.1837         estimate D2E/DX2                !
 ! D84   D(13,12,17,37)         67.2869         estimate D2E/DX2                !
 ! D85   D(33,12,17,16)         58.3847         estimate D2E/DX2                !
 ! D86   D(33,12,17,18)        -56.0461         estimate D2E/DX2                !
 ! D87   D(33,12,17,37)       -177.5755         estimate D2E/DX2                !
 ! D88   D(12,13,14,15)        -53.4337         estimate D2E/DX2                !
 ! D89   D(12,13,14,21)       -176.4259         estimate D2E/DX2                !
 ! D90   D(12,13,14,35)         63.9442         estimate D2E/DX2                !
 ! D91   D(22,13,14,15)       -172.7293         estimate D2E/DX2                !
 ! D92   D(22,13,14,21)         64.2785         estimate D2E/DX2                !
 ! D93   D(22,13,14,35)        -55.3515         estimate D2E/DX2                !
 ! D94   D(34,13,14,15)         65.6448         estimate D2E/DX2                !
 ! D95   D(34,13,14,21)        -57.3474         estimate D2E/DX2                !
 ! D96   D(34,13,14,35)       -176.9773         estimate D2E/DX2                !
 ! D97   D(12,13,22,41)         58.4902         estimate D2E/DX2                !
 ! D98   D(14,13,22,41)        177.3317         estimate D2E/DX2                !
 ! D99   D(34,13,22,41)        -62.8606         estimate D2E/DX2                !
 ! D100  D(13,14,15,16)         53.2962         estimate D2E/DX2                !
 ! D101  D(13,14,15,20)        167.3741         estimate D2E/DX2                !
 ! D102  D(13,14,15,36)        -69.8913         estimate D2E/DX2                !
 ! D103  D(21,14,15,16)        172.5932         estimate D2E/DX2                !
 ! D104  D(21,14,15,20)        -73.3289         estimate D2E/DX2                !
 ! D105  D(21,14,15,36)         49.4057         estimate D2E/DX2                !
 ! D106  D(35,14,15,16)        -64.5532         estimate D2E/DX2                !
 ! D107  D(35,14,15,20)         49.5247         estimate D2E/DX2                !
 ! D108  D(35,14,15,36)        172.2593         estimate D2E/DX2                !
 ! D109  D(13,14,21,40)         54.2491         estimate D2E/DX2                !
 ! D110  D(15,14,21,40)        -68.1985         estimate D2E/DX2                !
 ! D111  D(35,14,21,40)        171.4695         estimate D2E/DX2                !
 ! D112  D(14,15,16,17)        -56.0806         estimate D2E/DX2                !
 ! D113  D(20,15,16,17)       -171.7971         estimate D2E/DX2                !
 ! D114  D(36,15,16,17)         66.5978         estimate D2E/DX2                !
 ! D115  D(14,15,20,44)        165.2919         estimate D2E/DX2                !
 ! D116  D(16,15,20,44)        -76.1677         estimate D2E/DX2                !
 ! D117  D(36,15,20,44)         44.2418         estimate D2E/DX2                !
 ! D118  D(15,16,17,12)         58.502          estimate D2E/DX2                !
 ! D119  D(15,16,17,18)        179.3099         estimate D2E/DX2                !
 ! D120  D(15,16,17,37)        -63.4012         estimate D2E/DX2                !
 ! D121  D(12,17,18,19)         63.3695         estimate D2E/DX2                !
 ! D122  D(12,17,18,38)        178.1587         estimate D2E/DX2                !
 ! D123  D(12,17,18,39)        -61.8679         estimate D2E/DX2                !
 ! D124  D(16,17,18,19)        -56.5674         estimate D2E/DX2                !
 ! D125  D(16,17,18,38)         58.2219         estimate D2E/DX2                !
 ! D126  D(16,17,18,39)        178.1952         estimate D2E/DX2                !
 ! D127  D(37,17,18,19)       -175.7294         estimate D2E/DX2                !
 ! D128  D(37,17,18,38)        -60.9401         estimate D2E/DX2                !
 ! D129  D(37,17,18,39)         59.0333         estimate D2E/DX2                !
 ! D130  D(17,18,19,6)         153.0876         estimate D2E/DX2                !
 ! D131  D(38,18,19,6)          33.9393         estimate D2E/DX2                !
 ! D132  D(39,18,19,6)         -80.8139         estimate D2E/DX2                !
 --------------------------------------------------------------------------------
 Trust Radius=3.00D-01 FncErr=1.00D-07 GrdErr=1.00D-07 EigMax=2.50D+02 EigMin=1.00D-04
 Number of steps in this run=    270 maximum allowed number of steps=    270.
 GradGradGradGradGradGradGradGradGradGradGradGradGradGradGradGradGradGrad

 Leave Link  103 at Tue Jun 22 14:17:47 2021, MaxMem=  2147483648 cpu:               0.0 elap:               0.0
 (Enter /home/matma/Programs/gaussian/G16_x86_SSE4/tar/g16/l202.exe)
                          Input orientation:                          
 ---------------------------------------------------------------------
 Center     Atomic      Atomic             Coordinates (Angstroms)
 Number     Number       Type             X           Y           Z
 ---------------------------------------------------------------------
      1          8           0       -6.084000   -0.909000   -3.916000
      2          6           0       -7.325000   -1.336000   -3.304000
      3          6           0       -7.506000   -0.678000   -1.921000
      4          8           0       -7.582000    0.749000   -2.074000
      5          6           0       -6.319000   -1.069000   -1.006000
      6          6           0       -6.011000   -2.616000   -1.029000
      7          8           0       -6.015000   -3.183000   -2.353000
      8          6           0       -7.230000   -2.862000   -3.068000
      9          6           0       -7.188000   -3.645000   -4.393000
     10          8           0       -8.343000   -3.238000   -5.145000
     11          8           0       -1.391000   -3.594000   -0.832000
     12          6           0       -1.932000   -2.855000    0.290000
     13          6           0       -0.971000   -2.479000    1.452000
     14          6           0       -1.741000   -1.620000    2.485000
     15          6           0       -2.424000   -0.398000    1.818000
     16          8           0       -3.246000   -0.795000    0.716000
     17          6           0       -2.566000   -1.548000   -0.295000
     18          6           0       -3.690000   -1.831000   -1.302000
     19          8           0       -4.794000   -2.467000   -0.839000
     20          8           0       -3.327000    0.147000    2.761000
     21          8           0       -0.785000   -1.239000    3.478000
     22          8           0       -0.516000   -3.670000    2.108000
     23          8           0       -6.659000   -0.624000    0.314000
     24          1           0       -8.178000   -1.102000   -3.965000
     25          1           0       -8.440000   -1.071000   -1.471000
     26          1           0       -7.607000    1.089000   -1.134000
     27          1           0       -5.435000   -0.527000   -1.385000
     28          1           0       -6.776000   -3.123000   -0.401000
     29          1           0       -8.114000   -3.184000   -2.483000
     30          1           0       -6.246000   -3.400000   -4.921000
     31          1           0       -7.188000   -4.726000   -4.164000
     32          1           0       -8.453000   -3.933000   -5.846000
     33          1           0       -2.746000   -3.452000    0.739000
     34          1           0       -0.126000   -1.883000    1.050000
     35          1           0       -2.548000   -2.249000    2.917000
     36          1           0       -1.652000    0.336000    1.491000
     37          1           0       -1.767000   -0.961000   -0.787000
     38          1           0       -4.117000   -0.879000   -1.652000
     39          1           0       -3.299000   -2.388000   -2.168000
     40          1           0        0.124000   -0.797000    3.670000
     41          1           0       -0.024000   -4.193000    1.184000
     42          1           0       -2.024000   -4.524000   -1.054000
     43          1           0       -5.779000   -0.560000    0.785000
     44          1           0       -3.622000    1.028000    2.517000
     45          1           0       -6.091000    0.017000   -4.170000
 ---------------------------------------------------------------------
                    Distance matrix (angstroms):
                    1          2          3          4          5
     1  O    0.000000
     2  C    1.448086   0.000000
     3  C    2.460786   1.542211   0.000000
     4  O    2.895847   2.434373   1.437190   0.000000
     5  C    2.923854   2.522723   1.548895   2.457828   0.000000
     6  C    3.354690   2.922434   2.605098   3.857887   1.577530
     7  O    2.760218   2.455995   2.946987   4.241928   2.525039
     8  C    2.417980   1.547061   2.482265   3.761816   2.880384
     9  C    2.988652   2.556594   3.874919   4.983998   4.343122
    10  O    3.469548   2.836055   4.200993   5.089826   5.092392
    11  O    6.224510   6.813347   6.861647   7.663726   5.539954
    12  C    6.222255   6.656474   6.379446   7.106322   4.910721
    13  C    7.577803   8.018684   7.571457   8.158307   6.052352
    14  C    7.767881   8.048244   7.316791   7.779070   5.783491
    15  C    6.821692   7.150841   6.315477   6.562639   4.857596
    16  O    5.433476   5.752506   5.011493   5.382279   3.533226
    17  C    5.088839   5.634457   5.272985   5.796663   3.849672
    18  C    3.662556   4.179265   4.034157   4.732869   2.753162
    19  O    3.682308   3.709629   3.424352   4.431797   2.075552
    20  O    7.300583   7.414008   6.329754   6.468744   4.961956
    21  O    9.102721   9.422130   8.639199   8.998670   7.124627
    22  O    8.655306   9.005542   8.604941   9.324432   7.080749
    23  O    4.278405   3.747055   2.390722   2.905099   1.433885
    24  H    2.103446   1.104213   2.193011   2.712434   3.494660
    25  H    3.399265   2.161791   1.108740   2.100517   2.171375
    26  H    3.748474   3.266351   1.936972   0.999912   2.516405
    27  H    2.640660   2.812320   2.144560   2.590850   1.104020
    28  H    4.211399   3.452851   2.970072   4.294293   2.189473
    29  H    3.368978   2.170637   2.639232   3.989836   3.142734
    30  H    2.690976   2.835318   4.242273   5.206199   4.556985
    31  H    3.981182   3.500067   4.638801   5.873582   4.909356
    32  H    4.299027   3.805070   5.186276   6.075175   6.015152
    33  H    6.267226   6.464561   6.117865   6.996304   4.635735
    34  H    7.817135   8.431022   8.046320   8.501690   6.575940
    35  H    7.809532   7.896464   7.103242   7.696703   5.568013
    36  H    7.101288   7.613839   6.851223   6.931428   5.476306
    37  H    5.331963   6.112878   5.856805   6.196345   4.558545
    38  H    2.999281   3.637199   3.405596   3.851583   2.302655
    39  H    3.605436   4.313453   4.547962   5.309773   3.494339
    40  H    9.803020  10.218356   9.459934   9.734788   7.965627
    41  H    8.574279   9.033781   8.830435   9.600067   7.360876
    42  H    6.143523   6.582283   6.752461   7.728926   5.512382
    43  H    4.723794   4.439844   3.212303   3.624662   1.938650
    44  H    7.155201   7.292787   6.139360   6.069326   4.907418
    45  H    0.960230   2.025666   2.746498   2.674345   3.352950
                    6          7          8          9         10
     6  C    0.000000
     7  O    1.440306   0.000000
     8  C    2.388304   1.445853   0.000000
     9  C    3.709537   2.398119   1.539636   0.000000
    10  O    4.771432   3.635639   2.386226   1.437073   0.000000
    11  O    4.726488   4.885053   6.295192   6.803568   8.188957
    12  C    4.293614   4.874825   6.272561   7.083793   8.413491
    13  C    5.619229   6.357325   7.729953   8.612472   9.921838
    14  C    5.618996   6.642009   7.906168   9.004294  10.218671
    15  C    5.088369   6.168367   7.282989   8.474386   9.569928
    16  O    3.742498   4.773748   5.870554   7.054342   8.142418
    17  C    3.680680   4.336380   5.582922   6.523335   7.729963
    18  C    2.465318   2.887582   4.088192   5.008082   6.196669
    19  O    1.240722   2.072605   3.325442   4.444079   5.633070
    20  O    5.403899   6.668376   7.633134   8.970301   9.956069
    21  O    7.037063   8.070477   9.328573  10.427842  11.639394
    22  O    6.414570   7.097654   8.515964   9.315536  10.679633
    23  O    2.488296   3.751814   4.095438   5.618018   6.282478
    24  H    3.950719   3.407004   2.191099   2.762270   2.445837
    25  H    2.912461   3.334530   2.687413   4.090362   4.266565
    26  H    4.035501   4.719153   4.415075   5.762586   5.945818
    27  H    2.196004   2.885786   3.392158   4.673649   5.472073
    28  H    1.112051   2.095954   2.717927   4.047010   4.997424
    29  H    2.619036   2.103022   1.107865   2.172118   2.672377
    30  H    3.977128   2.587484   2.165943   1.107327   2.115143
    31  H    3.957986   2.652640   2.162747   1.104990   2.123801
    32  H    5.558898   4.325204   3.218704   1.947916   0.993240
    33  H    3.805909   4.507681   5.911650   6.790143   8.123648
    34  H    6.284326   6.924647   8.269412   9.088605  10.379458
    35  H    5.262886   6.376939   7.623458   8.770092   9.977775
    36  H    5.836573   6.796725   7.881990   9.006504  10.078663
    37  H    4.561702   5.043327   6.217808   7.042324   8.211009
    38  H    2.644340   3.066304   3.953241   4.959322   5.968669
    39  H    2.950296   2.836002   4.060473   4.653493   5.918358
    40  H    7.938992   8.925068  10.185587  11.251152  12.464060
    41  H    6.574836   7.030117   8.472160   9.095391  10.496382
    42  H    4.420097   4.406105   5.824163   6.211961   7.636743
    43  H    2.751646   4.096690   4.717013   6.189846   6.993617
    44  H    5.617844   6.868469   7.703375   9.072011   9.959560
    45  H    4.099387   3.680661   3.286391   3.829280   4.076414
                   11         12         13         14         15
    11  O    0.000000
    12  C    1.448339   0.000000
    13  C    2.576098   1.554072   0.000000
    14  C    3.875779   2.525813   1.548506   0.000000
    15  C    4.278318   2.934910   2.564318   1.550697   0.000000
    16  O    3.697530   2.480256   2.924582   2.464754   1.430978
    17  C    2.419733   1.566024   2.542203   2.900726   2.409862
    18  C    2.935042   2.583332   3.923950   4.264328   3.659323
    19  O    3.584772   3.101005   4.456922   4.592079   4.117925
    20  O    5.536499   4.130844   3.762990   2.390368   1.414808
    21  O    4.948673   3.753719   2.382619   1.430086   2.479758
    22  O    3.068387   2.444260   1.433821   2.417696   3.798756
    23  O    6.155164   5.227090   6.090108   5.467356   4.499813
    24  H    7.879665   7.758257   9.120355   9.127201   8.188237
    25  H    7.514137   6.974084   8.143240   7.799227   6.889318
    26  H    7.788475   7.056099   7.965834   7.405795   6.147273
    27  H    5.105510   4.527275   5.637922   5.460511   4.397951
    28  H    5.422714   4.900372   6.127509   5.994934   5.593701
    29  H    6.934885   6.783428   8.185579   8.230568   7.657447
    30  H    6.350479   6.786910   8.324001   8.849422   8.308659
    31  H    6.781508   7.138928   8.674074   9.139269   8.787013
    32  H    8.667581   9.018649  10.552499  10.945614  10.372172
    33  H    2.079478   1.104810   2.146095   2.723007   3.254972
    34  H    2.840716   2.187240   1.109435   2.176377   2.841805
    35  H    4.147611   2.765469   2.164730   1.110637   2.156242
    36  H    4.572674   3.421006   2.896465   2.195881   1.114302
    37  H    2.660092   2.185038   2.819763   3.337805   2.744930
    38  H    3.933790   3.528479   4.700227   4.827963   3.890824
    39  H    2.622937   2.851060   4.304912   4.966648   4.540256
    40  H    5.512390   4.459473   2.991266   2.357918   3.175123
    41  H    2.508335   2.495986   1.976469   3.355744   4.534753
    42  H    1.146679   2.144845   3.401598   4.586701   5.043041
    43  H    5.574441   4.506824   5.219609   4.507665   3.514165
    44  H    6.128299   4.784696   4.523392   3.248244   1.989292
    45  H    6.802321   6.740717   8.003206   8.117345   7.033865
                   16         17         18         19         20
    16  O    0.000000
    17  C    1.432316   0.000000
    18  C    2.311440   1.535420   0.000000
    19  O    2.758607   2.470725   1.355611   0.000000
    20  O    2.252987   3.576490   4.533456   4.684558   0.000000
    21  O    3.725896   4.183655   5.624757   6.018019   2.982759
    22  O    4.201927   3.805232   5.008423   5.332289   4.785146
    23  O    3.440845   4.239965   3.589327   2.864312   4.205291
    24  H    6.806661   6.720295   5.269265   4.804847   8.386375
    25  H    5.642409   6.009524   4.813384   3.954941   6.748045
    26  H    5.098066   5.750597   4.888508   4.543691   5.863172
    27  H    3.045939   3.234455   2.179984   2.114852   4.699708
    28  H    4.373577   4.496216   3.464745   2.133191   5.708480
    29  H    6.295899   6.184185   4.774636   3.773490   7.842861
    30  H    6.896506   6.194528   4.700219   4.431875   8.950692
    31  H    7.403143   6.814083   5.367315   4.678669   9.306400
    32  H    8.945375   8.435555   6.910319   6.372400  10.816780
    33  H    2.703734   2.174114   2.772085   2.766697   4.168794
    34  H    3.321099   2.806216   4.270445   5.069477   4.158704
    35  H    2.728685   3.287654   4.390769   4.381732   2.524281
    36  H    2.102528   2.752208   4.080463   4.812263   2.110508
    37  H    2.115185   1.106813   2.172569   3.381341   4.031075
    38  H    2.524504   2.166705   1.100515   1.908151   4.599059
    39  H    3.295135   2.179683   1.101402   2.001876   5.542748
    40  H    4.481408   4.849879   6.351105   6.877987   3.691452
    41  H    4.706029   3.955405   5.019840   5.461182   5.677353
    42  H    4.304837   3.118721   3.176367   3.456931   6.170111
    43  H    2.544813   3.530710   3.214799   2.691514   3.227496
    44  H    2.590040   3.957051   4.771086   4.985112   0.960584
    45  H    5.711949   5.467218   4.171969   4.352933   7.462932
                   21         22         23         24         25
    21  O    0.000000
    22  O    2.803395   0.000000
    23  O    6.700224   7.087524   0.000000
    24  H   10.491590  10.108521   4.565708   0.000000
    25  H    9.117009   9.074900   2.560858   2.507916   0.000000
    26  H    8.557442   9.134600   2.435113   3.625063   2.339457
    27  H    6.765960   6.802651   2.096231   3.809340   3.055054
    28  H    7.381611   6.766232   2.601906   4.330374   2.850351
    29  H    9.645247   8.890618   4.061260   2.556393   2.365415
    30  H   10.248690   9.072631   5.939863   3.150772   4.705356
    31  H   10.562090   9.217847   6.095796   3.762058   4.709435
    32  H   12.369027  11.239718   7.218969   3.410036   5.227986
    33  H    4.030510   2.625754   4.846625   7.560208   6.555524
    34  H    2.596960   2.113015   6.693793   9.518135   8.725674
    35  H    2.107840   2.608207   5.129966   8.965179   7.440288
    36  H    2.679642   4.209421   5.232301   8.626961   7.538570
    37  H    4.385411   4.157488   5.025677   7.156849   6.708866
    38  H    6.127701   5.907155   3.223654   4.678827   4.331045
    39  H    6.286312   5.260493   4.534492   5.356085   5.352586
    40  H    1.028839   3.332202   7.569792  11.283149   9.992350
    41  H    3.816762   1.170200   7.584055  10.126905   9.360821
    42  H    5.732833   3.605776   6.210044   7.619430   7.298092
    43  H    5.714309   6.254726   1.000168   5.348969   3.525844
    44  H    3.756512   5.646744   4.099473   8.204289   6.597202
    45  H    9.392714   9.169944   4.565059   2.376921   3.739806
                   26         27         28         29         30
    26  H    0.000000
    27  H    2.718831   0.000000
    28  H    4.355318   3.083140   0.000000
    29  H    4.509477   3.929668   2.475619   0.000000
    30  H    6.028666   4.627650   4.559389   3.078949   0.000000
    31  H    6.570440   5.331740   4.110903   2.461910   1.794071
    32  H    6.938238   6.372573   5.754690   3.462036   2.451645
    33  H    6.910726   4.505299   4.201040   6.266461   6.654946
    34  H    8.340743   5.996119   6.918490   8.830789   8.683808
    35  H    7.290153   5.459602   5.445088   7.811183   8.742668
    36  H    6.551310   4.829828   6.465270   8.363045   8.727902
    37  H    6.199073   3.741682   5.469307   6.935600   6.565068
    38  H    4.039981   1.390078   3.697407   4.688240   4.644830
    39  H    5.631834   2.939202   3.968884   4.890508   4.157880
    40  H    9.295363   7.518537   8.342261  10.555654  11.007170
    41  H    9.527567   7.022694   7.017594   8.939411   8.752894
    42  H    7.917200   5.265025   4.997071   6.397323   5.834582
    43  H    3.121433   2.197345   2.994925   4.797648   6.390784
    44  H    5.404974   4.574997   5.974382   7.932150   9.045242
    45  H    3.558755   2.912473   4.953200   4.145467   3.501987
                   31         32         33         34         35
    31  H    0.000000
    32  H    2.249044   0.000000
    33  H    6.737496   8.727166   0.000000
    34  H    9.227150  11.004374   3.069671   0.000000
    35  H    8.820753  10.700236   2.496016   3.079891   0.000000
    36  H    9.394156  10.877018   4.013886   2.728941   3.085209
    37  H    7.413946   8.895440   3.080941   2.630121   3.998565
    38  H    5.526354   6.761468   3.770524   4.923099   5.021396
    39  H    4.957276   6.517547   3.144607   4.547359   5.142037
    40  H   11.413761  13.189150   4.886378   2.847156   3.132874
    41  H    8.955897  10.978913   2.855939   2.316130   3.626707
    42  H    6.031567   8.040186   2.210275   3.873513   4.606413
    43  H    6.620683   7.905540   4.191046   5.811795   4.223447
    44  H    9.511079  10.857709   4.898884   4.779961   3.471629
    45  H    4.868213   4.898012   6.879046   8.151051   8.240945
                   36         37         38         39         40
    36  H    0.000000
    37  H    2.623875   0.000000
    38  H    4.175033   2.505484   0.000000
    39  H    4.849852   2.508090   1.792334   0.000000
    40  H    3.030826   4.844340   6.805622   6.952011   0.000000
    41  H    4.822497   4.167579   5.981483   5.021907   4.211284
    42  H    5.498637   3.582221   4.245501   2.725641   6.389101
    43  H    4.281750   4.327601   2.966981   4.267575   6.574557
    44  H    2.326465   4.279435   4.611099   5.807117   4.323488
    45  H    7.200931   5.576571   3.322622   4.193721  10.037650
                   41         42         43         44         45
    41  H    0.000000
    42  H    3.019637   0.000000
    43  H    6.817471   5.761531   0.000000
    44  H    6.479300   6.791933   3.189705   0.000000
    45  H    9.121289   6.846213   4.998229   7.199587   0.000000
 Stoichiometry    C12H22O11
 Framework group  C1[X(C12H22O11)]
 Deg. of freedom   129
 Full point group                 C1      NOp   1
 Largest Abelian subgroup         C1      NOp   1
 Largest concise Abelian subgroup C1      NOp   1
                         Standard orientation:                         
 ---------------------------------------------------------------------
 Center     Atomic      Atomic             Coordinates (Angstroms)
 Number     Number       Type             X           Y           Z
 ---------------------------------------------------------------------
      1          8           0        3.303965    0.014862    1.634126
      2          6           0        3.819873    0.449765    0.352856
      3          6           0        3.004712    1.642360   -0.187184
      4          8           0        3.126068    2.755000    0.714381
      5          6           0        1.521971    1.222966   -0.344234
      6          6           0        1.350945   -0.157681   -1.087985
      7          8           0        2.260623   -1.174954   -0.627418
      8          6           0        3.631207   -0.714978   -0.647732
      9          6           0        4.513303   -1.925332   -0.290761
     10          8           0        5.862203   -1.437047   -0.205750
     11          8           0       -2.168722   -2.785278    0.657686
     12          6           0       -2.544311   -1.488647    0.132931
     13          6           0       -4.046783   -1.092682    0.163431
     14          6           0       -4.196444    0.357908   -0.357395
     15          6           0       -3.275075    1.340166    0.411313
     16          8           0       -1.915139    0.894927    0.405670
     17          6           0       -1.716619   -0.423647    0.928626
     18          6           0       -0.200590   -0.610993    0.773478
     19          8           0        0.320002   -0.464481   -0.469583
     20          8           0       -3.257548    2.555706   -0.312453
     21          8           0       -5.581536    0.688039   -0.224433
     22          8           0       -4.793135   -1.959676   -0.700931
     23          8           0        0.872343    2.283960   -1.057186
     24          1           0        4.888976    0.711943    0.439846
     25          1           0        3.402034    1.907632   -1.187719
     26          1           0        2.502448    3.438600    0.335416
     27          1           0        1.109818    1.128427    0.675596
     28          1           0        1.506564    0.021347   -2.174442
     29          1           0        3.898790   -0.356064   -1.661115
     30          1           0        4.166527   -2.346005    0.673061
     31          1           0        4.387733   -2.696053   -1.072569
     32          1           0        6.433999   -2.247753   -0.254020
     33          1           0       -2.229554   -1.437667   -0.924866
     34          1           0       -4.416067   -1.137384    1.208646
     35          1           0       -3.874561    0.373034   -1.420258
     36          1           0       -3.644602    1.468653    1.454678
     37          1           0       -1.991069   -0.494708    1.998514
     38          1           0        0.325328    0.182627    1.325484
     39          1           0        0.108571   -1.589954    1.172402
     40          1           0       -6.394065    0.745809    0.404032
     41          1           0       -4.520425   -2.978123   -0.193227
     42          1           0       -1.526940   -3.362809   -0.096931
     43          1           0       -0.096644    2.168988   -0.837680
     44          1           0       -2.898649    3.282394    0.203142
     45          1           0        3.455653    0.653374    2.335079
 ---------------------------------------------------------------------
 Rotational constants (GHZ):           0.5030247           0.1267050           0.1088738
 Leave Link  202 at Tue Jun 22 14:17:47 2021, MaxMem=  2147483648 cpu:               0.0 elap:               0.0
 (Enter /home/matma/Programs/gaussian/G16_x86_SSE4/tar/g16/l301.exe)
 Standard basis: VSTO-6G (5D, 7F)
 Ernie: Thresh=  0.10000D-02 Tol=  0.10000D-05 Strict=F.
  NNHCO=     0 NNPyr=     0 NCTC=     0               EPep=         0.000000000
    EC=      1151.399508565  ECS=         9.115015515   EG=         0.748413439
   EHC=         0.002833283  EAt=      -175.965002454  AtH=         6.138669069
 EPDDG=         0.000000000  ECC=      1161.265770801 EAtT=       182.103671523
 There are   114 symmetry adapted cartesian basis functions of A   symmetry.
 There are   114 symmetry adapted basis functions of A   symmetry.
   114 basis functions,   684 primitive gaussians,   114 cartesian basis functions
    68 alpha electrons       68 beta electrons
       nuclear repulsion energy      1343.3694423242 Hartrees.
 IExCor=    0 DFT=F Ex=HF Corr=None ExCW=0 ScaHFX=  1.000000
 ScaDFX=  1.000000  1.000000  1.000000  1.000000 ScalE2=  1.000000  1.000000
 IRadAn=  99590 IRanWt=     -1 IRanGd=            0 ICorTp=0 IEmpDi=  4
 Integral buffers will be    131072 words long.
 Regular integral format.
 Two-electron integral symmetry is turned off.
 Leave Link  301 at Tue Jun 22 14:17:47 2021, MaxMem=  2147483648 cpu:               0.2 elap:               0.0
 (Enter /home/matma/Programs/gaussian/G16_x86_SSE4/tar/g16/l302.exe)
 Do NDO integrals.
 NPDir=0 NMtPBC=     1 NCelOv=     1 NCel=       1 NClECP=     1 NCelD=      1
         NCelK=      1 NCelE2=     1 NClLst=     1 CellRange=     0.0.
 One-electron integrals computed using PRISM.
 NBasis=   114 RedAO= F EigKep=  0.00D+00  NBF=   114
 NBsUse=   114 1.00D-04 EigRej=  0.00D+00 NBFU=   114
 Leave Link  302 at Tue Jun 22 14:17:47 2021, MaxMem=  2147483648 cpu:               0.6 elap:               0.0
 (Enter /home/matma/Programs/gaussian/G16_x86_SSE4/tar/g16/l303.exe)
 DipDrv:  MaxL=1.
 Leave Link  303 at Tue Jun 22 14:17:47 2021, MaxMem=  2147483648 cpu:               0.1 elap:               0.0
 (Enter /home/matma/Programs/gaussian/G16_x86_SSE4/tar/g16/l401.exe)
 Simple Huckel Guess.
 JPrj=0 DoOrth=F DoCkMO=F.
 Leave Link  401 at Tue Jun 22 14:17:47 2021, MaxMem=  2147483648 cpu:               0.2 elap:               0.0
 (Enter /home/matma/Programs/gaussian/G16_x86_SSE4/tar/g16/l502.exe)
 Keep J ints in memory in canonical form, NReq=892272.
 FoFCou: FMM=F IPFlag=           0 FMFlag=           0 FMFlg1=           0
         NFxFlg=           0 DoJE=F BraDBF=F KetDBF=F FulRan=T
         wScrn=  0.000000 ICntrl=       600 IOpCl=  2 I1Cent=           0 NGrid=           0
         NMat0=    1 NMatS0=    252 NMatT0=    0 NMatD0=    1 NMtDS0=    0 NMtDT0=    0
 Symmetry not used in FoFCou.
 Two-electron integral symmetry not used.
 Closed shell SCF:
 Using DIIS extrapolation, IDIIS=  1040.
 Overlap will be assumed to be unity.
 NGot=  2147483648 LenX=  2147363403 LenY=  2147349966
 Requested convergence on RMS density matrix=1.00D-08 within 128 cycles.
 Requested convergence on MAX density matrix=1.00D-06.
 Requested convergence on             energy=1.00D-06.
 No special actions if energy rises.

 Cycle   1  Pass 1  IDiag  1:
 E= 0.593700079844211    
 DIIS: error= 5.55D-02 at cycle   1 NSaved=   1.
 NSaved= 1 IEnMin= 1 EnMin= 0.593700079844211     IErMin= 1 ErrMin= 5.55D-02
 ErrMax= 5.55D-02  0.00D+00 EMaxC= 1.00D-01 BMatC= 3.10D-01 BMatP= 3.10D-01
 IDIUse=3 WtCom= 4.45D-01 WtEn= 5.55D-01
 Coeff-Com:  0.100D+01
 Coeff-En:   0.100D+01
 Coeff:      0.100D+01
 GapD=    2.000 DampG=2.000 DampE=0.500 DampFc=1.0000 IDamp=-1.
 RMSDP=8.09D-03 MaxDP=1.25D-01              OVMax= 0.00D+00

 Cycle   2  Pass 1  IDiag  1:
 E=-0.376221069162966     Delta-E=       -0.969921149007 Rises=F Damp=F
 DIIS: error= 1.72D-02 at cycle   2 NSaved=   2.
 NSaved= 2 IEnMin= 2 EnMin=-0.376221069162966     IErMin= 2 ErrMin= 1.72D-02
 ErrMax= 1.72D-02  0.00D+00 EMaxC= 1.00D-01 BMatC= 4.32D-02 BMatP= 3.10D-01
 IDIUse=3 WtCom= 8.28D-01 WtEn= 1.72D-01
 Coeff-Com: -0.418D+00 0.142D+01
 Coeff-En:   0.000D+00 0.100D+01
 Coeff:     -0.346D+00 0.135D+01
 RMSDP=4.58D-03 MaxDP=5.54D-02 DE=-9.70D-01 OVMax= 0.00D+00

 Cycle   3  Pass 1  IDiag  3:
 E=-0.569533467171368     Delta-E=       -0.193312398008 Rises=F Damp=F
 DIIS: error= 5.94D-03 at cycle   3 NSaved=   3.
 NSaved= 3 IEnMin= 3 EnMin=-0.569533467171368     IErMin= 3 ErrMin= 5.94D-03
 ErrMax= 5.94D-03  0.00D+00 EMaxC= 1.00D-01 BMatC= 4.40D-03 BMatP= 4.32D-02
 IDIUse=3 WtCom= 9.41D-01 WtEn= 5.94D-02
 Coeff-Com:  0.227D+00-0.972D+00 0.175D+01
 Coeff-En:   0.000D+00 0.000D+00 0.100D+01
 Coeff:      0.213D+00-0.914D+00 0.170D+01
 Gap=     0.370 Goal=   None    Shift=    0.000
 RMSDP=2.29D-03 MaxDP=4.03D-02 DE=-1.93D-01 OVMax= 2.90D-02

 Cycle   4  Pass 1  IDiag  3:
 E=-0.597898474949943     Delta-E=       -0.028365007779 Rises=F Damp=F
 DIIS: error= 1.16D-03 at cycle   4 NSaved=   4.
 NSaved= 4 IEnMin= 4 EnMin=-0.597898474949943     IErMin= 4 ErrMin= 1.16D-03
 ErrMax= 1.16D-03  0.00D+00 EMaxC= 1.00D-01 BMatC= 2.06D-04 BMatP= 4.40D-03
 IDIUse=3 WtCom= 9.88D-01 WtEn= 1.16D-02
 Coeff-Com: -0.573D-01 0.276D+00-0.680D+00 0.146D+01
 Coeff-En:   0.000D+00 0.000D+00 0.000D+00 0.100D+01
 Coeff:     -0.566D-01 0.272D+00-0.672D+00 0.146D+01
 Gap=     0.372 Goal=   None    Shift=    0.000
 RMSDP=5.53D-04 MaxDP=9.79D-03 DE=-2.84D-02 OVMax= 6.88D-03

 Cycle   5  Pass 1  IDiag  3:
 E=-0.599340315773816     Delta-E=       -0.001441840824 Rises=F Damp=F
 DIIS: error= 3.77D-04 at cycle   5 NSaved=   5.
 NSaved= 5 IEnMin= 5 EnMin=-0.599340315773816     IErMin= 5 ErrMin= 3.77D-04
 ErrMax= 3.77D-04  0.00D+00 EMaxC= 1.00D-01 BMatC= 1.37D-05 BMatP= 2.06D-04
 IDIUse=3 WtCom= 9.96D-01 WtEn= 3.77D-03
 Coeff-Com:  0.682D-02-0.370D-01 0.130D+00-0.506D+00 0.141D+01
 Coeff-En:   0.000D+00 0.000D+00 0.000D+00 0.000D+00 0.100D+01
 Coeff:      0.679D-02-0.369D-01 0.130D+00-0.504D+00 0.140D+01
 Gap=     0.372 Goal=   None    Shift=    0.000
 RMSDP=1.31D-04 MaxDP=2.28D-03 DE=-1.44D-03 OVMax= 2.00D-03

 Cycle   6  Pass 1  IDiag  3:
 E=-0.599434559795100     Delta-E=       -0.000094244021 Rises=F Damp=F
 DIIS: error= 1.72D-04 at cycle   6 NSaved=   6.
 NSaved= 6 IEnMin= 6 EnMin=-0.599434559795100     IErMin= 6 ErrMin= 1.72D-04
 ErrMax= 1.72D-04  0.00D+00 EMaxC= 1.00D-01 BMatC= 1.54D-06 BMatP= 1.37D-05
 IDIUse=3 WtCom= 9.98D-01 WtEn= 1.72D-03
 Coeff-Com:  0.789D-03-0.183D-02-0.150D-01 0.144D+00-0.736D+00 0.161D+01
 Coeff-En:   0.000D+00 0.000D+00 0.000D+00 0.000D+00 0.000D+00 0.100D+01
 Coeff:      0.788D-03-0.182D-02-0.150D-01 0.144D+00-0.735D+00 0.161D+01
 Gap=     0.372 Goal=   None    Shift=    0.000
 RMSDP=5.32D-05 MaxDP=1.15D-03 DE=-9.42D-05 OVMax= 1.07D-03

 Cycle   7  Pass 1  IDiag  3:
 E=-0.599446851633957     Delta-E=       -0.000012291839 Rises=F Damp=F
 DIIS: error= 5.74D-05 at cycle   7 NSaved=   7.
 NSaved= 7 IEnMin= 7 EnMin=-0.599446851633957     IErMin= 7 ErrMin= 5.74D-05
 ErrMax= 5.74D-05  0.00D+00 EMaxC= 1.00D-01 BMatC= 1.33D-07 BMatP= 1.54D-06
 IDIUse=1 WtCom= 1.00D+00 WtEn= 0.00D+00
 Coeff-Com: -0.876D-03 0.344D-02-0.133D-02-0.377D-01 0.276D+00-0.848D+00
 Coeff-Com:  0.161D+01
 Coeff:     -0.876D-03 0.344D-02-0.133D-02-0.377D-01 0.276D+00-0.848D+00
 Coeff:      0.161D+01
 Gap=     0.372 Goal=   None    Shift=    0.000
 RMSDP=1.64D-05 MaxDP=4.11D-04 DE=-1.23D-05 OVMax= 3.88D-04

 Cycle   8  Pass 1  IDiag  3:
 E=-0.599447948944544     Delta-E=       -0.000001097311 Rises=F Damp=F
 DIIS: error= 1.43D-05 at cycle   8 NSaved=   8.
 NSaved= 8 IEnMin= 8 EnMin=-0.599447948944544     IErMin= 8 ErrMin= 1.43D-05
 ErrMax= 1.43D-05  0.00D+00 EMaxC= 1.00D-01 BMatC= 1.14D-08 BMatP= 1.33D-07
 IDIUse=1 WtCom= 1.00D+00 WtEn= 0.00D+00
 Coeff-Com:  0.807D-04-0.352D-03-0.415D-03 0.903D-02-0.627D-01 0.222D+00
 Coeff-Com: -0.666D+00 0.150D+01
 Coeff:      0.807D-04-0.352D-03-0.415D-03 0.903D-02-0.627D-01 0.222D+00
 Coeff:     -0.666D+00 0.150D+01
 Gap=     0.372 Goal=   None    Shift=    0.000
 RMSDP=4.58D-06 MaxDP=1.11D-04 DE=-1.10D-06 OVMax= 1.10D-04

 Cycle   9  Pass 1  IDiag  3:
 E=-0.599448035719888     Delta-E=       -0.000000086775 Rises=F Damp=F
 DIIS: error= 3.39D-06 at cycle   9 NSaved=   9.
 NSaved= 9 IEnMin= 9 EnMin=-0.599448035719888     IErMin= 9 ErrMin= 3.39D-06
 ErrMax= 3.39D-06  0.00D+00 EMaxC= 1.00D-01 BMatC= 8.49D-10 BMatP= 1.14D-08
 IDIUse=1 WtCom= 1.00D+00 WtEn= 0.00D+00
 Coeff-Com:  0.127D-04-0.288D-04 0.159D-03-0.107D-02 0.810D-02-0.356D-01
 Coeff-Com:  0.143D+00-0.535D+00 0.142D+01
 Coeff:      0.127D-04-0.288D-04 0.159D-03-0.107D-02 0.810D-02-0.356D-01
 Coeff:      0.143D+00-0.535D+00 0.142D+01
 Gap=     0.372 Goal=   None    Shift=    0.000
 RMSDP=1.13D-06 MaxDP=2.44D-05 DE=-8.68D-08 OVMax= 2.60D-05

 Cycle  10  Pass 1  IDiag  3:
 E=-0.599448041712094     Delta-E=       -0.000000005992 Rises=F Damp=F
 DIIS: error= 1.03D-06 at cycle  10 NSaved=  10.
 NSaved=10 IEnMin=10 EnMin=-0.599448041712094     IErMin=10 ErrMin= 1.03D-06
 ErrMax= 1.03D-06  0.00D+00 EMaxC= 1.00D-01 BMatC= 7.97D-11 BMatP= 8.49D-10
 IDIUse=1 WtCom= 1.00D+00 WtEn= 0.00D+00
 Coeff-Com:  0.400D-05-0.262D-04 0.221D-04 0.104D-03-0.169D-02 0.802D-02
 Coeff-Com: -0.307D-01 0.138D+00-0.609D+00 0.150D+01
 Coeff:      0.400D-05-0.262D-04 0.221D-04 0.104D-03-0.169D-02 0.802D-02
 Coeff:     -0.307D-01 0.138D+00-0.609D+00 0.150D+01
 Gap=     0.372 Goal=   None    Shift=    0.000
 RMSDP=3.43D-07 MaxDP=6.51D-06 DE=-5.99D-09 OVMax= 6.84D-06

 Cycle  11  Pass 1  IDiag  3:
 E=-0.599448042282120     Delta-E=       -0.000000000570 Rises=F Damp=F
 DIIS: error= 3.06D-07 at cycle  11 NSaved=  11.
 NSaved=11 IEnMin=11 EnMin=-0.599448042282120     IErMin=11 ErrMin= 3.06D-07
 ErrMax= 3.06D-07  0.00D+00 EMaxC= 1.00D-01 BMatC= 6.64D-12 BMatP= 7.97D-11
 IDIUse=1 WtCom= 1.00D+00 WtEn= 0.00D+00
 Coeff-Com: -0.253D-05 0.139D-04-0.159D-04-0.130D-05 0.392D-03-0.210D-02
 Coeff-Com:  0.775D-02-0.349D-01 0.178D+00-0.663D+00 0.151D+01
 Coeff:     -0.253D-05 0.139D-04-0.159D-04-0.130D-05 0.392D-03-0.210D-02
 Coeff:      0.775D-02-0.349D-01 0.178D+00-0.663D+00 0.151D+01
 Gap=     0.372 Goal=   None    Shift=    0.000
 RMSDP=1.04D-07 MaxDP=2.42D-06 DE=-5.70D-10 OVMax= 1.71D-06

 Cycle  12  Pass 1  IDiag  3:
 E=-0.599448042329868     Delta-E=       -0.000000000048 Rises=F Damp=F
 DIIS: error= 7.86D-08 at cycle  12 NSaved=  12.
 NSaved=12 IEnMin=12 EnMin=-0.599448042329868     IErMin=12 ErrMin= 7.86D-08
 ErrMax= 7.86D-08  0.00D+00 EMaxC= 1.00D-01 BMatC= 5.21D-13 BMatP= 6.64D-12
 IDIUse=1 WtCom= 1.00D+00 WtEn= 0.00D+00
 Coeff-Com:  0.857D-06-0.537D-05 0.778D-05-0.159D-04-0.484D-04 0.501D-03
 Coeff-Com: -0.214D-02 0.101D-01-0.511D-01 0.217D+00-0.714D+00 0.154D+01
 Coeff:      0.857D-06-0.537D-05 0.778D-05-0.159D-04-0.484D-04 0.501D-03
 Coeff:     -0.214D-02 0.101D-01-0.511D-01 0.217D+00-0.714D+00 0.154D+01
 Gap=     0.372 Goal=   None    Shift=    0.000
 RMSDP=2.92D-08 MaxDP=6.89D-07 DE=-4.77D-11 OVMax= 4.76D-07

 Cycle  13  Pass 1  IDiag  3:
 E=-0.599448042342146     Delta-E=       -0.000000000012 Rises=F Damp=F
 DIIS: error= 1.75D-08 at cycle  13 NSaved=  13.
 NSaved=13 IEnMin=13 EnMin=-0.599448042342146     IErMin=13 ErrMin= 1.75D-08
 ErrMax= 1.75D-08  0.00D+00 EMaxC= 1.00D-01 BMatC= 4.22D-14 BMatP= 5.21D-13
 IDIUse=1 WtCom= 1.00D+00 WtEn= 0.00D+00
 Coeff-Com: -0.388D-06 0.247D-05-0.419D-05 0.117D-04-0.478D-05-0.126D-03
 Coeff-Com:  0.612D-03-0.317D-02 0.160D-01-0.700D-01 0.260D+00-0.774D+00
 Coeff-Com:  0.157D+01
 Coeff:     -0.388D-06 0.247D-05-0.419D-05 0.117D-04-0.478D-05-0.126D-03
 Coeff:      0.612D-03-0.317D-02 0.160D-01-0.700D-01 0.260D+00-0.774D+00
 Coeff:      0.157D+01
 Gap=     0.372 Goal=   None    Shift=    0.000
 RMSDP=8.42D-09 MaxDP=1.76D-07 DE=-1.23D-11 OVMax= 1.30D-07

 Cycle  14  Pass 2  IDiag  1:
 SCF Done:  E(RPM6) = -0.599448042342     A.U. after   14 cycles
            NFock= 13  Conv=0.84D-08     -V/T= 0.9980
 KE=-3.041342192298D+02 PE=-2.290153785819D+03 EE= 1.250319114682D+03
 Leave Link  502 at Tue Jun 22 14:17:47 2021, MaxMem=  2147483648 cpu:               0.5 elap:               0.0
 (Enter /home/matma/Programs/gaussian/G16_x86_SSE4/tar/g16/l601.exe)
 Copying SCF densities to generalized density rwf, IOpCl= 0 IROHF=0.

 **********************************************************************

            Population analysis using the SCF Density.

 **********************************************************************

 Orbital symmetries:
       Occupied  (A) (A) (A) (A) (A) (A) (A) (A) (A) (A) (A) (A)
                 (A) (A) (A) (A) (A) (A) (A) (A) (A) (A) (A) (A)
                 (A) (A) (A) (A) (A) (A) (A) (A) (A) (A) (A) (A)
                 (A) (A) (A) (A) (A) (A) (A) (A) (A) (A) (A) (A)
                 (A) (A) (A) (A) (A) (A) (A) (A) (A) (A) (A) (A)
                 (A) (A) (A) (A) (A) (A) (A) (A)
       Virtual   (A) (A) (A) (A) (A) (A) (A) (A) (A) (A) (A) (A)
                 (A) (A) (A) (A) (A) (A) (A) (A) (A) (A) (A) (A)
                 (A) (A) (A) (A) (A) (A) (A) (A) (A) (A) (A) (A)
                 (A) (A) (A) (A) (A) (A) (A) (A) (A) (A)
 The electronic state is 1-A.
 Alpha  occ. eigenvalues --   -1.21827  -1.16134  -1.13967  -1.13336  -1.11433
 Alpha  occ. eigenvalues --   -1.10539  -1.09755  -1.09139  -1.07725  -1.07464
 Alpha  occ. eigenvalues --   -1.04712  -1.04057  -1.00151  -0.98810  -0.97741
 Alpha  occ. eigenvalues --   -0.94430  -0.89568  -0.86381  -0.85252  -0.81363
 Alpha  occ. eigenvalues --   -0.79494  -0.77786  -0.76374  -0.71628  -0.71286
 Alpha  occ. eigenvalues --   -0.70031  -0.69454  -0.69313  -0.67067  -0.66273
 Alpha  occ. eigenvalues --   -0.65007  -0.64675  -0.64219  -0.63259  -0.61823
 Alpha  occ. eigenvalues --   -0.60957  -0.59125  -0.58383  -0.57251  -0.56346
 Alpha  occ. eigenvalues --   -0.56095  -0.55644  -0.55361  -0.53340  -0.53116
 Alpha  occ. eigenvalues --   -0.51842  -0.51210  -0.50237  -0.49804  -0.49516
 Alpha  occ. eigenvalues --   -0.49167  -0.47960  -0.46904  -0.45972  -0.45017
 Alpha  occ. eigenvalues --   -0.44755  -0.43725  -0.43211  -0.42820  -0.41574
 Alpha  occ. eigenvalues --   -0.40699  -0.40301  -0.39617  -0.39550  -0.39397
 Alpha  occ. eigenvalues --   -0.38889  -0.37835  -0.35397
 Alpha virt. eigenvalues --    0.01782   0.02592   0.04018   0.05013   0.05198
 Alpha virt. eigenvalues --    0.06451   0.07249   0.07619   0.07962   0.08349
 Alpha virt. eigenvalues --    0.08570   0.08927   0.09888   0.10018   0.10339
 Alpha virt. eigenvalues --    0.10532   0.10605   0.11115   0.11432   0.12192
 Alpha virt. eigenvalues --    0.12490   0.13252   0.13865   0.14028   0.14269
 Alpha virt. eigenvalues --    0.15058   0.15892   0.16135   0.16736   0.17103
 Alpha virt. eigenvalues --    0.17364   0.17958   0.18284   0.18319   0.18499
 Alpha virt. eigenvalues --    0.18537   0.19004   0.19084   0.19195   0.19338
 Alpha virt. eigenvalues --    0.19924   0.19988   0.20235   0.20877   0.21647
 Alpha virt. eigenvalues --    0.21753
          Condensed to atoms (all electrons):
               1          2          3          4          5          6
     1  O    6.553838   0.000000   0.000000   0.000000   0.000000   0.000000
     2  C    0.000000   3.902667   0.000000   0.000000   0.000000   0.000000
     3  C    0.000000   0.000000   3.952492   0.000000   0.000000   0.000000
     4  O    0.000000   0.000000   0.000000   6.537324   0.000000   0.000000
     5  C    0.000000   0.000000   0.000000   0.000000   4.093386   0.000000
     6  C    0.000000   0.000000   0.000000   0.000000   0.000000   3.540545
     7  O    0.000000   0.000000   0.000000   0.000000   0.000000   0.000000
     8  C    0.000000   0.000000   0.000000   0.000000   0.000000   0.000000
     9  C    0.000000   0.000000   0.000000   0.000000   0.000000   0.000000
    10  O    0.000000   0.000000   0.000000   0.000000   0.000000   0.000000
    11  O    0.000000   0.000000   0.000000   0.000000   0.000000   0.000000
    12  C    0.000000   0.000000   0.000000   0.000000   0.000000   0.000000
    13  C    0.000000   0.000000   0.000000   0.000000   0.000000   0.000000
    14  C    0.000000   0.000000   0.000000   0.000000   0.000000   0.000000
    15  C    0.000000   0.000000   0.000000   0.000000   0.000000   0.000000
    16  O    0.000000   0.000000   0.000000   0.000000   0.000000   0.000000
    17  C    0.000000   0.000000   0.000000   0.000000   0.000000   0.000000
    18  C    0.000000   0.000000   0.000000   0.000000   0.000000   0.000000
    19  O    0.000000   0.000000   0.000000   0.000000   0.000000   0.000000
    20  O    0.000000   0.000000   0.000000   0.000000   0.000000   0.000000
    21  O    0.000000   0.000000   0.000000   0.000000   0.000000   0.000000
    22  O    0.000000   0.000000   0.000000   0.000000   0.000000   0.000000
    23  O    0.000000   0.000000   0.000000   0.000000   0.000000   0.000000
    24  H    0.000000   0.000000   0.000000   0.000000   0.000000   0.000000
    25  H    0.000000   0.000000   0.000000   0.000000   0.000000   0.000000
    26  H    0.000000   0.000000   0.000000   0.000000   0.000000   0.000000
    27  H    0.000000   0.000000   0.000000   0.000000   0.000000   0.000000
    28  H    0.000000   0.000000   0.000000   0.000000   0.000000   0.000000
    29  H    0.000000   0.000000   0.000000   0.000000   0.000000   0.000000
    30  H    0.000000   0.000000   0.000000   0.000000   0.000000   0.000000
    31  H    0.000000   0.000000   0.000000   0.000000   0.000000   0.000000
    32  H    0.000000   0.000000   0.000000   0.000000   0.000000   0.000000
    33  H    0.000000   0.000000   0.000000   0.000000   0.000000   0.000000
    34  H    0.000000   0.000000   0.000000   0.000000   0.000000   0.000000
    35  H    0.000000   0.000000   0.000000   0.000000   0.000000   0.000000
    36  H    0.000000   0.000000   0.000000   0.000000   0.000000   0.000000
    37  H    0.000000   0.000000   0.000000   0.000000   0.000000   0.000000
    38  H    0.000000   0.000000   0.000000   0.000000   0.000000   0.000000
    39  H    0.000000   0.000000   0.000000   0.000000   0.000000   0.000000
    40  H    0.000000   0.000000   0.000000   0.000000   0.000000   0.000000
    41  H    0.000000   0.000000   0.000000   0.000000   0.000000   0.000000
    42  H    0.000000   0.000000   0.000000   0.000000   0.000000   0.000000
    43  H    0.000000   0.000000   0.000000   0.000000   0.000000   0.000000
    44  H    0.000000   0.000000   0.000000   0.000000   0.000000   0.000000
    45  H    0.000000   0.000000   0.000000   0.000000   0.000000   0.000000
               7          8          9         10         11         12
     1  O    0.000000   0.000000   0.000000   0.000000   0.000000   0.000000
     2  C    0.000000   0.000000   0.000000   0.000000   0.000000   0.000000
     3  C    0.000000   0.000000   0.000000   0.000000   0.000000   0.000000
     4  O    0.000000   0.000000   0.000000   0.000000   0.000000   0.000000
     5  C    0.000000   0.000000   0.000000   0.000000   0.000000   0.000000
     6  C    0.000000   0.000000   0.000000   0.000000   0.000000   0.000000
     7  O    6.520596   0.000000   0.000000   0.000000   0.000000   0.000000
     8  C    0.000000   3.888716   0.000000   0.000000   0.000000   0.000000
     9  C    0.000000   0.000000   4.052689   0.000000   0.000000   0.000000
    10  O    0.000000   0.000000   0.000000   6.529475   0.000000   0.000000
    11  O    0.000000   0.000000   0.000000   0.000000   6.558239   0.000000
    12  C    0.000000   0.000000   0.000000   0.000000   0.000000   3.986637
    13  C    0.000000   0.000000   0.000000   0.000000   0.000000   0.000000
    14  C    0.000000   0.000000   0.000000   0.000000   0.000000   0.000000
    15  C    0.000000   0.000000   0.000000   0.000000   0.000000   0.000000
    16  O    0.000000   0.000000   0.000000   0.000000   0.000000   0.000000
    17  C    0.000000   0.000000   0.000000   0.000000   0.000000   0.000000
    18  C    0.000000   0.000000   0.000000   0.000000   0.000000   0.000000
    19  O    0.000000   0.000000   0.000000   0.000000   0.000000   0.000000
    20  O    0.000000   0.000000   0.000000   0.000000   0.000000   0.000000
    21  O    0.000000   0.000000   0.000000   0.000000   0.000000   0.000000
    22  O    0.000000   0.000000   0.000000   0.000000   0.000000   0.000000
    23  O    0.000000   0.000000   0.000000   0.000000   0.000000   0.000000
    24  H    0.000000   0.000000   0.000000   0.000000   0.000000   0.000000
    25  H    0.000000   0.000000   0.000000   0.000000   0.000000   0.000000
    26  H    0.000000   0.000000   0.000000   0.000000   0.000000   0.000000
    27  H    0.000000   0.000000   0.000000   0.000000   0.000000   0.000000
    28  H    0.000000   0.000000   0.000000   0.000000   0.000000   0.000000
    29  H    0.000000   0.000000   0.000000   0.000000   0.000000   0.000000
    30  H    0.000000   0.000000   0.000000   0.000000   0.000000   0.000000
    31  H    0.000000   0.000000   0.000000   0.000000   0.000000   0.000000
    32  H    0.000000   0.000000   0.000000   0.000000   0.000000   0.000000
    33  H    0.000000   0.000000   0.000000   0.000000   0.000000   0.000000
    34  H    0.000000   0.000000   0.000000   0.000000   0.000000   0.000000
    35  H    0.000000   0.000000   0.000000   0.000000   0.000000   0.000000
    36  H    0.000000   0.000000   0.000000   0.000000   0.000000   0.000000
    37  H    0.000000   0.000000   0.000000   0.000000   0.000000   0.000000
    38  H    0.000000   0.000000   0.000000   0.000000   0.000000   0.000000
    39  H    0.000000   0.000000   0.000000   0.000000   0.000000   0.000000
    40  H    0.000000   0.000000   0.000000   0.000000   0.000000   0.000000
    41  H    0.000000   0.000000   0.000000   0.000000   0.000000   0.000000
    42  H    0.000000   0.000000   0.000000   0.000000   0.000000   0.000000
    43  H    0.000000   0.000000   0.000000   0.000000   0.000000   0.000000
    44  H    0.000000   0.000000   0.000000   0.000000   0.000000   0.000000
    45  H    0.000000   0.000000   0.000000   0.000000   0.000000   0.000000
              13         14         15         16         17         18
     1  O    0.000000   0.000000   0.000000   0.000000   0.000000   0.000000
     2  C    0.000000   0.000000   0.000000   0.000000   0.000000   0.000000
     3  C    0.000000   0.000000   0.000000   0.000000   0.000000   0.000000
     4  O    0.000000   0.000000   0.000000   0.000000   0.000000   0.000000
     5  C    0.000000   0.000000   0.000000   0.000000   0.000000   0.000000
     6  C    0.000000   0.000000   0.000000   0.000000   0.000000   0.000000
     7  O    0.000000   0.000000   0.000000   0.000000   0.000000   0.000000
     8  C    0.000000   0.000000   0.000000   0.000000   0.000000   0.000000
     9  C    0.000000   0.000000   0.000000   0.000000   0.000000   0.000000
    10  O    0.000000   0.000000   0.000000   0.000000   0.000000   0.000000
    11  O    0.000000   0.000000   0.000000   0.000000   0.000000   0.000000
[...]
 28488,-0.00026180,-0.00030141,0.00086576,-0.00018578,-0.00020988,-0.00
 050108,0.00106524,0.00143602,0.00100634,-0.00007830,0.00020153,-0.0015
 3512,0.00102041,-0.00077063,0.00013888,-0.00008378,0.00037923,0.000348
 26,-0.00011090,-0.00029958,-0.00078327,0.00072744,-0.00013360,-0.00051
 758,-0.00029994,-0.00002470,-0.00000503,-0.00000158,-0.00000566,0.0000
 1469,0.00000652,0.00004268,0.00002089,0.00007507,0.00025375,0.00012605
 ,0.00001699,-0.00010291,0.00009461,-0.00011609,0.00000481,-0.00001121,
 -0.00000862,-0.00000538,0.00003041,0.00000472,0.00003584,0.00002500,-0
 .00000990,0.00001071,0.00001259,-0.00005561,0.00090367,0.00281389,0.00
 038364,-0.00035944,0.00019812,-0.00016266,0.00004828,0.00007173,-0.000
 20661,-0.00007307,-0.00007257,0.00005194,-0.00017179,-0.00015096,0.000
 07230,-0.00013794,-0.00012898,0.00000575,0.00004848,-0.00018946,-0.000
 02219,-0.00010363,-0.00007609,0.00007335,0.00015183,0.00053433,-0.0000
 1087,0.08115275,-0.00010395,0.00000687,-0.00008850,-0.00001263,0.00003
 800,0.00003132,0.00000576,-0.00008898,0.00001862,-0.00014735,0.0000699
 1,-0.00000946,-0.00002370,-0.00017402,0.00014549,0.00073212,-0.0002280
 7,0.00043392,-0.00030523,-0.00010052,-0.00032207,0.00013582,-0.0000702
 8,-0.00002098,0.00000497,0.00013405,0.00010861,-0.00002288,-0.00018330
 ,-0.00008882,-0.03837287,-0.08822569,-0.05146865,-0.02004773,-0.046604
 70,-0.02490962,0.00223656,-0.00481387,-0.00180816,-0.00043574,-0.00041
 259,-0.00026908,0.00038740,-0.00026059,-0.00087722,-0.00020512,0.00153
 596,0.00028709,0.00029225,-0.00391252,0.00084482,0.00097779,0.00022230
 ,0.00055034,-0.00095436,-0.00106675,0.00008888,-0.00050684,0.00026892,
 0.00013530,0.00016600,0.00010575,-0.00005861,-0.00043583,-0.00027780,0
 .00085160,-0.00061347,0.00005789,-0.00019716,0.00002741,-0.00000382,-0
 .00000367,0.00001827,0.00004667,-0.00002454,0.00008635,-0.00002266,-0.
 00002248,0.00015685,-0.00000910,0.00000799,-0.00006373,0.00027544,-0.0
 0008856,0.00002224,0.00004156,0.00000200,0.00001119,-0.00000903,-0.000
 00304,0.00000492,0.00000645,0.00001010,-0.00003037,0.00009054,0.000005
 10,0.00145437,0.00119028,-0.00078417,0.00008670,-0.00003415,0.00021494
 ,0.00005518,-0.00015984,-0.00008468,-0.00007348,-0.00005393,0.00010746
 ,-0.00031802,-0.00012882,0.00000040,-0.00004658,-0.00014909,0.00018222
 ,-0.00010454,0.00010211,0.00042390,-0.00007189,-0.00008392,0.00002268,
 0.00008348,0.00039178,-0.00035998,0.05535926,0.14275570,-0.00000858,-0
 .00009903,-0.00007128,0.00003426,0.00002053,0.00002786,-0.00008594,0.0
 0007955,-0.00002497,-0.00000940,-0.00014536,-0.00019922,0.00030829,-0.
 00025772,0.00063039,-0.00142287,0.00051279,0.00041247,0.00051377,-0.00
 045318,0.00009688,-0.00025838,0.00027560,-0.00001255,0.00006844,-0.000
 08934,0.00001148,0.00004450,-0.00001648,0.00002753,-0.06546264,-0.0693
 5599,-0.06473608,0.00075957,-0.00924319,-0.00397567,-0.00050573,-0.001
 43675,-0.00038726,-0.00030854,-0.00025104,0.00006603,0.00005020,-0.000
 19109,0.00042459,0.00016597,0.00037412,-0.00129126,-0.00087571,0.00303
 461,0.00111841,0.00099198,0.00010706,-0.00004964,0.00150385,-0.0009772
 4,-0.00057259,-0.00021614,0.00025563,-0.00017885,0.00029877,0.00020716
 ,-0.00020214,0.00030249,0.00050992,0.00035070,-0.00068754,0.00016964,-
 0.00084605,-0.00001979,-0.00000599,-0.00001774,-0.00001610,-0.00000658
 ,0.00002819,0.00002730,-0.00001706,0.00009931,0.00011769,0.00004922,0.
 00002071,0.00007310,-0.00016317,0.00006226,0.00000880,-0.00003626,0.00
 000936,-0.00001547,0.00003041,0.00000147,-0.00001931,0.00002966,-0.000
 01223,-0.00004292,0.00002637,-0.00002572,0.00078189,-0.00013134,0.0003
 3638,-0.00015123,0.00003446,0.00007745,0.00000696,-0.00004915,-0.00006
 596,-0.00004208,-0.00008671,-0.00007637,-0.00008377,0.00025128,-0.0000
 8253,-0.00007873,0.00007911,-0.00011728,-0.00027268,0.00055083,-0.0005
 7820,-0.00008478,-0.00003088,0.00014788,-0.00028854,-0.00032726,-0.000
 43509,0.06420649,0.07693602,0.06965040,-0.00030840,-0.00073664,0.00033
 990,0.00046019,0.00032618,-0.00043258,-0.00142348,0.00123682,-0.000384
 46,0.00007953,-0.00088969,0.00014118,-0.00260674,0.00263047,-0.0103582
 9,0.00283575,-0.00276520,0.00148667,0.00014963,0.00093939,0.00209431,-
 0.00053101,0.00010355,-0.00008353,-0.00006437,-0.00030792,-0.00028792,
 0.00001846,0.00028378,0.00032371,0.00035839,-0.00148763,-0.00073085,-0
 .00257772,0.00131922,0.00076502,-0.00027092,-0.00009794,-0.00035465,-0
 .00132015,-0.00033053,0.00002668,-0.00355199,0.00111610,0.00258202,0.0
 0066374,-0.00104504,-0.00190979,-0.00019388,0.00053681,0.00027996,0.00
 100528,0.00102884,-0.00014655,-0.00278019,0.00001106,-0.00025586,0.001
 08841,0.00383863,-0.00279089,0.00108837,0.00014317,-0.00037466,0.00097
 853,-0.00065609,0.00137804,-0.09501986,-0.07493939,-0.06475695,-0.0001
 2853,0.00000632,0.00010543,-0.00026170,-0.00012709,-0.00007575,-0.0004
 9985,0.00084864,-0.00020399,0.00243750,0.00093988,0.00173703,-0.000350
 77,-0.00003565,0.00018138,-0.00007602,-0.00005079,-0.00004745,-0.00001
 549,0.00006754,-0.00001589,0.00010273,0.00003402,-0.00001081,0.0000734
 1,-0.00010129,-0.00010527,0.00235341,-0.00072145,-0.00050777,-0.000209
 04,0.00007187,0.00004783,-0.00010931,-0.00020543,-0.00030042,0.0003170
 1,-0.00041585,-0.00023999,-0.00010858,0.00002356,-0.00012124,0.0002058
 5,-0.00013285,0.00008981,-0.00013862,-0.00013619,0.00000773,-0.0001678
 1,0.00010949,0.00028049,-0.00010459,0.00047108,-0.00046244,0.00045324,
 0.00037665,0.00053886,0.09541029,-0.00034717,-0.00078265,0.00006038,0.
 00128101,-0.00007709,-0.00048135,0.00066042,0.00070356,0.00536816,-0.0
 0107814,-0.00127786,-0.00236977,0.00741985,0.00578727,0.00045947,0.000
 31732,-0.00209040,-0.00140189,0.00018146,0.00031209,0.00078179,-0.0003
 1792,-0.00002953,-0.00006763,-0.00000993,-0.00021460,-0.00017526,0.000
 02420,0.00016292,0.00020397,-0.00066305,-0.00020092,0.00016505,0.00045
 566,-0.00020783,-0.00022372,0.00025800,0.00051810,0.00042133,-0.000454
 38,0.00040396,-0.00067563,-0.00662534,0.00426679,0.00434548,0.00085429
 ,-0.00327069,-0.00264399,-0.00058707,0.00192505,-0.00019517,0.00056800
 ,0.00019683,-0.00022219,-0.00071840,-0.00011160,0.00073931,0.00640937,
 -0.00229893,-0.00257546,0.00073379,-0.00045580,0.00008716,-0.00056475,
 -0.00090196,-0.00031027,-0.08195800,-0.06373679,-0.04535561,-0.0001180
 1,0.00002480,0.00027457,-0.00021532,-0.00014272,0.00021253,0.00109987,
 -0.00021966,0.00115266,0.00109515,0.00159835,0.00156013,-0.00013248,-0
 .00018431,0.00001436,-0.00005235,-0.00003468,-0.00002971,-0.00001512,0
 .00005478,-0.00001023,0.00005696,0.00002803,-0.00000853,0.00003615,-0.
 00005150,-0.00006497,0.00232221,-0.00005712,0.00000094,-0.00002607,-0.
 00007017,-0.00008839,-0.00019062,0.00001579,-0.00007172,0.00099092,-0.
 00046810,-0.00038224,0.00002061,-0.00018900,0.00005689,0.00008070,0.00
 003993,-0.00001955,-0.00006688,-0.00004760,-0.00008578,-0.00016171,0.0
 0026617,0.00009429,0.00039105,0.00018183,0.00025152,0.00035219,-0.0000
 9702,-0.00015786,0.06802440,0.06162588,-0.00000668,-0.00036427,0.00022
 570,0.00007039,0.00031192,-0.00032527,-0.00018883,0.00188324,-0.002152
 85,0.00029444,-0.00132256,-0.00071216,-0.03129315,-0.01939302,-0.04270
 779,0.00049892,0.00051642,-0.00543470,0.00030068,-0.00052213,0.0002157
 8,-0.00014968,-0.00002802,0.00000878,-0.00002164,-0.00016757,-0.000154
 57,0.00002350,0.00016476,0.00019212,-0.00015514,0.00005538,-0.00034201
 ,0.00018560,-0.00035561,0.00003149,-0.00053714,-0.00025455,0.00116143,
 -0.00015872,-0.00011708,-0.00017018,-0.00000763,0.00139453,0.00144911,
 -0.00078174,-0.00096530,-0.00088905,0.00006533,0.00011034,-0.00015463,
 0.00040593,0.00040306,-0.00016100,-0.00095112,0.00036550,0.00069005,0.
 00190892,0.00231034,-0.00328736,0.00020292,-0.00001360,-0.00028744,0.0
 0168234,0.00001948,-0.00018738,-0.04613361,-0.02613455,-0.06833837,-0.
 00009695,-0.00000477,0.00000436,0.00006124,-0.00020309,0.00004873,-0.0
 0010888,0.00035586,0.00084989,0.00095208,0.00067507,0.00023660,-0.0001
 9805,0.00021468,0.00021610,-0.00002793,-0.00002258,-0.00002304,-0.0000
 1735,0.00004285,-0.00001331,0.00003319,0.00001776,-0.00000862,0.000033
 98,-0.00005375,-0.00006052,0.00175484,-0.00070250,0.00048723,-0.000029
 29,0.00000290,-0.00012224,-0.00032410,-0.00003423,0.00016493,0.0002436
 6,-0.00005186,-0.00008881,0.00002689,-0.00006275,-0.00004237,0.0000508
 9,-0.00004740,-0.00012826,0.00000059,-0.00005971,-0.00008160,0.0000025
 0,0.00005442,0.00015143,-0.00023410,0.00010367,-0.00013572,0.00015657,
 -0.00003678,0.00017620,0.07170274,0.03953992,0.11936164,0.00012958,0.0
 0015004,0.00069835,-0.00019136,0.00014426,-0.00013858,-0.00017472,-0.0
 0241656,-0.00145256,0.00451148,0.00206492,0.00268121,-0.00098157,-0.00
 129647,0.00049766,0.00131275,-0.00081127,-0.00022619,-0.00043101,0.000
 44797,-0.00003405,0.00035443,-0.00042531,0.00009051,-0.00013347,-0.000
 05708,-0.00022738,-0.00002200,0.00021663,0.00020136,-0.00006311,-0.000
 65280,-0.00012400,-0.00026325,0.00047403,0.00002679,0.00029544,0.00025
 778,-0.00003376,-0.00547537,-0.00053794,0.00140039,-0.04778542,0.02090
 393,-0.02550902,0.00118294,-0.00208320,-0.00028461,-0.00036172,0.00166
 299,-0.00031649,0.00066437,0.00027955,-0.00019121,-0.00153365,0.000052
 68,0.00002607,-0.08351005,0.03278716,-0.04825320,-0.00027561,0.0002076
 1,-0.00067858,-0.00006586,-0.00048176,0.00036829,-0.00142320,0.0007632
 6,-0.00105817,-0.00009162,0.00001046,0.00000955,-0.00018489,0.00004668
 ,0.00010211,-0.00231468,-0.00006838,0.00053955,0.00174460,0.00144775,0
 .00060017,-0.00013164,0.00013348,0.00013081,-0.00006962,0.00000522,0.0
 0000704,0.00000598,0.00000310,-0.00003796,0.00007857,-0.00000609,0.000
 00541,0.00007361,-0.00007695,-0.00003638,0.00035111,0.00010290,0.00005
 368,-0.00012601,-0.00000496,-0.00000936,-0.00008885,-0.00010036,0.0000
 0811,-0.00064205,-0.00142272,-0.00025045,-0.00009395,-0.00018406,-0.00
 002090,0.00014374,-0.00007556,0.00012139,-0.00010803,-0.00004222,-0.00
 001148,-0.00015023,0.00011942,-0.00011393,0.00002681,0.00020864,-0.000
 09280,0.00022351,0.00015685,0.00014025,0.00264890,0.00057373,0.0008213
 9,0.13313465,-0.00023235,-0.00094847,0.00006241,0.00047938,0.00026293,
 -0.00038862,-0.00087684,0.00136409,0.00036351,-0.00006115,-0.00248673,
 -0.00093908,-0.00182712,-0.00244243,-0.00094567,0.00020980,-0.00028757
 ,-0.00131221,0.00048572,-0.00006982,0.00089815,-0.00049399,0.00021863,
 -0.00009152,0.00004491,-0.00017931,-0.00007319,0.00004124,0.00006300,0
 .00012786,-0.00014125,0.00053520,0.00000900,0.00007378,-0.00049544,0.0
 0003423,-0.00014816,0.00002092,0.00038466,0.00039247,0.00058075,0.0005
 3895,0.00866057,-0.00391405,-0.00124646,-0.00097607,0.00077940,0.00154
 688,0.00033570,-0.00105459,-0.00011443,-0.00009874,0.00009305,0.000074
 40,0.00007184,0.00027690,0.00030420,0.04892937,-0.03807571,0.05986103,
 -0.00054645,-0.00012421,-0.00000453,0.00001822,0.00009359,-0.00044265,
 0.00034182,0.00049498,-0.00016624,-0.00007816,-0.00000316,0.00008371,0
 .00003505,-0.00027267,-0.00000023,-0.00019342,0.00079622,0.00035975,-0
 .00037930,0.00008909,-0.00138549,-0.00012458,0.00005610,0.00018375,-0.
 00000279,-0.00004463,-0.00002087,-0.00002085,0.00006864,-0.00000087,0.
 00000604,0.00003817,-0.00001846,-0.00000307,-0.00001383,-0.00005403,0.
 00016728,-0.00018603,0.00006824,0.00007429,-0.00001206,-0.00001148,-0.
 00024406,0.00019928,0.00029613,-0.00224380,0.00155920,0.00014004,0.000
 09490,-0.00001221,-0.00004373,0.00002720,0.00003411,-0.00021508,0.0000
 7812,-0.00002382,-0.00006988,0.00009579,0.00000404,-0.00005959,0.00006
 618,-0.00010066,0.00011336,-0.00004398,-0.00013868,-0.00004961,0.00033
 620,-0.00126338,0.00214946,-0.05252728,0.04387838,0.00079560,0.0004720
 4,0.00074481,-0.00040972,-0.00043451,0.00002889,-0.00040822,-0.0000841
 6,-0.00051977,0.00242965,0.00022267,-0.00080773,-0.00103926,-0.0010351
 0,0.00138301,0.00103367,-0.00084726,-0.00042359,-0.00012293,0.00044015
 ,0.00009737,0.00011555,-0.00016401,-0.00002169,-0.00008136,-0.00014641
 ,-0.00021706,0.00002045,0.00024591,0.00017929,-0.00014111,-0.00035405,
 -0.00024244,-0.00016624,0.00029112,0.00024732,0.00016648,0.00032447,-0
 .00015573,0.00160435,0.00153875,-0.00151196,-0.00113275,-0.00170903,0.
 01444741,-0.00000699,-0.00322964,-0.00540314,0.00024469,0.00094909,-0.
 00044757,0.00023501,0.00046098,-0.00012666,-0.00100506,0.00010467,0.00
 001568,-0.07715010,0.06203286,-0.11336054,0.00177510,-0.00047213,0.000
 69484,-0.00015129,-0.00036347,0.00012438,-0.00061274,-0.00034797,-0.00
 169047,-0.00007061,0.00004204,-0.00001530,-0.00005652,-0.00009015,0.00
 009167,0.00017762,0.00025054,0.00105144,0.00066536,0.00158070,0.001059
 84,-0.00013698,0.00007167,0.00014826,-0.00007014,-0.00000330,0.0000112
 6,-0.00002110,0.00000591,-0.00002876,0.00003112,-0.00001817,-0.0000134
 8,0.00005539,-0.00008334,-0.00003007,0.00028803,-0.00001875,0.00007176
 ,-0.00010289,-0.00000771,-0.00003721,0.00011829,0.00000487,-0.00036992
 ,0.00159066,-0.00100217,0.00013634,0.00000162,-0.00009904,0.00005499,0
 .00021003,-0.00030844,-0.00000947,-0.00003405,-0.00004346,-0.00004168,
 -0.00038034,0.00026118,0.00026995,0.00001473,0.00016872,-0.00001360,0.
 00017542,0.00006738,0.00012840,0.00087050,0.00158024,0.00038564,0.0713
 7051,-0.06031553,0.10478841,-0.01565091,0.00749051,0.02677615,-0.00598
 482,-0.02846722,-0.01509184,0.00120443,-0.00134966,0.00066306,-0.00155
 911,0.00003440,0.00135486,-0.00022246,-0.00007120,-0.00029775,0.000159
 17,0.00010804,0.00055363,-0.00055743,0.00039972,-0.00045154,-0.0019879
 5,-0.00257181,0.00152004,-0.00017797,0.00010748,-0.00002921,-0.0000739
 0,0.00021237,0.00005205,0.00000589,-0.00018611,0.00000882,-0.00001971,
 0.00010438,-0.00001729,0.00005842,0.00002968,-0.00006630,-0.00013421,0
 .00001099,0.00000035,-0.00027120,-0.00003280,-0.00011316,0.00028804,-0
 .00033810,0.00010856,-0.00007071,0.00028857,0.00006510,0.00020422,-0.0
 0001551,-0.00000084,-0.00022086,-0.00010135,-0.00007413,0.00026089,-0.
 00019929,0.00036788,0.00016078,-0.00003586,0.00003619,-0.00001959,-0.0
 0009490,0.00011951,-0.00021141,-0.00010501,0.00015548,-0.00158097,-0.0
 0230470,0.00082967,-0.00000561,0.00011558,-0.00015589,0.00007660,0.000
 34967,-0.00013989,0.00009583,0.00052485,-0.00029355,0.00000696,-0.0000
 0325,-0.00007248,0.00022168,-0.00043383,-0.00020379,0.00009776,-0.0001
 8126,-0.00009177,0.00010040,-0.00001503,-0.00004887,0.00007860,-0.0000
 6419,0.00003392,0.00002270,0.00001511,-0.00000586,-0.00002853,0.000005
 33,-0.00000318,0.00001777,-0.00001728,-0.00004882,-0.00004454,0.000011
 42,-0.00005426,-0.00002412,-0.00002567,-0.00000539,-0.00005669,0.00017
 978,0.00002912,-0.00002820,0.00001970,0.00003190,-0.00005116,0.0000376
 9,-0.00000441,-0.00000598,0.00005272,-0.00003309,0.00003546,0.00005856
 ,0.00001442,0.00009107,0.00009608,-0.00005734,-0.00018927,0.00019700,-
 0.00068841,0.02599036,-0.01308262,-0.13538953,-0.07378308,-0.00888034,
 -0.04520387,-0.01341592,-0.00017850,-0.00067144,0.00291716,-0.00071682
 ,-0.00293464,0.00221110,0.00041244,-0.00054363,0.00074705,0.00079605,-
 0.00085263,0.00033728,-0.00055847,0.00115089,-0.00018940,-0.00229792,-
 0.00410584,0.00082256,-0.00027149,-0.00037202,-0.00052744,0.00003772,0
 .00058360,0.00052428,-0.00009931,0.00003688,-0.00004151,-0.00003330,-0
 .00009873,0.00002195,-0.00000735,0.00003400,0.00009749,0.00014062,0.00
 004301,-0.00008881,0.00000587,0.00022712,0.00031795,-0.00021364,-0.000
 40757,-0.00020624,-0.00006019,0.00018989,0.00002575,0.00018849,0.00032
 780,-0.00001741,-0.00086332,0.00013276,-0.00003316,-0.00012358,-0.0005
 7092,-0.00017836,-0.00011922,-0.00009716,0.00005615,-0.00005978,-0.000
 02590,-0.00013167,-0.00050827,0.00001365,-0.00113278,-0.00065126,0.001
 48268,-0.00114911,-0.00036147,-0.00039579,-0.00052043,-0.00009216,0.00
 028174,0.00060130,0.00039623,0.00002664,0.00025838,-0.00009653,-0.0000
 3318,0.00006746,-0.00001130,-0.00048274,-0.00026536,-0.00005606,0.0001
 2435,-0.00019294,0.00012863,0.00002157,-0.00003836,0.00014254,-0.00015
 344,-0.00005647,0.00014293,-0.00000557,0.00003266,0.00002034,-0.000015
 48,-0.00000659,-0.00001145,0.00004132,0.00003436,0.00000720,0.00011831
 ,-0.00007783,0.00003744,-0.00002779,-0.00003249,0.00018137,-0.00007667
 ,-0.00000778,0.00001189,-0.00005968,-0.00004915,0.00001925,0.00003522,
 -0.00002845,0.00004246,-0.00000794,0.00005298,0.00007036,-0.00002977,0
 .00004438,0.00035850,0.00036920,0.00022590,0.00004973,0.00064244,0.000
 06205,0.02616457,0.18667973,0.01306078,-0.10113987,-0.08792523,-0.0022
 4351,0.01127782,0.00805502,0.00186841,0.00604960,0.00081140,-0.0001690
 8,-0.00044858,-0.00211210,0.00002572,-0.00045410,-0.00029528,0.0004744
 5,0.00003763,0.00173103,-0.00104000,0.00029056,-0.00136524,0.00411881,
 0.00190818,-0.00075072,-0.00021754,-0.00016517,-0.00065823,-0.00003372
 ,0.00027938,0.00027304,0.00000684,-0.00018017,-0.00005636,-0.00001807,
 0.00009969,0.00000361,0.00003784,0.00002734,0.00000205,-0.00010216,0.0
 0000089,-0.00008702,-0.00085365,0.00024025,0.00046496,0.00030402,-0.00
 049072,-0.00030377,-0.00005543,0.00033189,0.00002607,0.00015772,0.0001
 0638,-0.00001981,-0.00038580,-0.00018923,-0.00036602,0.00106751,-0.000
 40218,0.00027318,0.00020378,-0.00004561,-0.00000173,0.00003078,-0.0000
 8594,0.00005097,-0.00007209,-0.00037988,-0.00016888,-0.00003603,0.0006
 9782,0.00005259,-0.00004490,-0.00036849,-0.00034942,-0.00025980,-0.001
 15579,0.00033687,-0.00012922,0.00042840,-0.00005142,0.00001878,-0.0000
 6355,-0.00009414,-0.00041171,0.00055285,0.00048262,0.00009719,-0.00011
 235,-0.00002921,0.00011658,0.00001433,0.00006305,0.00008846,-0.0001441
 0,-0.00006938,-0.00002064,0.00003317,0.00000952,-0.00002808,0.00000376
 ,-0.00000530,-0.00001683,0.00000573,-0.00002252,-0.00000538,-0.0000249
 3,-0.00004315,-0.00001806,-0.00002791,0.00000168,0.00002182,0.00003469
 ,0.00010156,-0.00002075,-0.00000785,0.00003431,-0.00005740,0.00003930,
 0.00003561,-0.00001200,0.00004660,-0.00002093,0.00004451,0.00005123,0.
 00005562,-0.00002203,0.00024658,-0.00004792,-0.00079942,0.00036975,-0.
 00067223,-0.01467091,0.08271277,0.08265147\\-0.00000146,0.00000252,-0.
 00001524,-0.00000741,-0.00000981,0.00001491,-0.00000508,-0.00000094,-0
 .00002470,0.00000822,0.00000376,-0.00002326,-0.00000878,-0.00000554,-0
 .00001254,0.00004142,0.00000985,0.00000193,-0.00002181,-0.00000285,-0.
 00000611,0.00000889,-0.00001079,0.00000797,0.00000427,-0.00001460,-0.0
 0000875,0.00001662,0.00000460,0.00001692,0.00001194,-0.00002088,-0.000
 02286,-0.00002976,0.00002260,0.00001679,-0.00000065,-0.00000332,0.0000
 1256,0.00000639,0.00000602,0.00000248,0.00000025,-0.00000088,-0.000018
 84,0.00000155,0.00002353,0.00000827,0.00000753,-0.00002528,-0.00001034
 ,0.00001011,0.00000364,0.00001969,-0.00003560,0.00000774,-0.00001708,-
 0.00001529,0.00001462,-0.00000439,0.00000436,-0.00000547,0.00002261,-0
 .00001831,-0.00001015,-0.00001046,-0.00000726,-0.00001945,-0.00000140,
 0.00000651,-0.00000022,-0.00000356,-0.00000239,-0.00000172,0.00000168,
 -0.00000848,0.00000118,0.00002290,-0.00000289,-0.00000112,-0.00000328,
 -0.00000243,-0.00000428,0.00000409,0.00000718,0.00000536,-0.00000483,-
 0.00000353,-0.00000105,0.00000249,-0.00000718,-0.00000412,0.00000558,-
 0.00000955,0.00001817,0.00000021,0.00000967,-0.00000551,-0.00000114,0.
 00000155,-0.00000712,-0.00000289,-0.00000222,0.00000417,-0.00000005,-0
 .00000250,-0.00000203,0.00000317,0.00000374,0.00000137,-0.00000067,-0.
 00000150,-0.00000204,-0.00000963,-0.00000533,-0.00000140,-0.00000438,0
 .00000710,0.00000151,-0.00001777,0.00001102,0.00000917,0.00000470,0.00
 000381,0.00000806,0.00001461,0.00001561,0.00001115,0.00002213,0.000008
 95,-0.00000185,0.00000885,0.00000271,0.00000341,0.00000964\\\@


 WE THE UNWILLING
 LED BY THE UNQUALIFIED
 HAVE BEEN DOING THE UNBELIEVABLE SO LONG WITH SO LITTLE
 THAT WE NOW ATTEMPT THE IMPOSSIBLE WITH NOTHING.

                                    -- ANONYMOUS
 Job cpu time:       0 days  0 hours  0 minutes 11.5 seconds.
 Elapsed time:       0 days  0 hours  0 minutes  1.0 seconds.
 File lengths (MBytes):  RWF=    217 Int=      0 D2E=      0 Chk=      4 Scr=      1
 Normal termination of Gaussian 16 at Tue Jun 22 14:18:03 2021.
