 Entering Gaussian System, Link 0=g09
 Initial command:
 /share/apps//g09/l1.exe "/scratch/Gau-25627.inp" -scrdir="/scratch/"
 Entering Link 1 = /share/apps//g09/l1.exe PID=     25628.
  
 Copyright (c) 1988,1990,1992,1993,1995,1998,2003,2009,2013,
            Gaussian, Inc.  All Rights Reserved.
  
 This is part of the Gaussian(R) 09 program.  It is based on
 the Gaussian(R) 03 system (copyright 2003, Gaussian, Inc.),
 the Gaussian(R) 98 system (copyright 1998, Gaussian, Inc.),
 the Gaussian(R) 94 system (copyright 1995, Gaussian, Inc.),
 the Gaussian 92(TM) system (copyright 1992, Gaussian, Inc.),
 the Gaussian 90(TM) system (copyright 1990, Gaussian, Inc.),
 the Gaussian 88(TM) system (copyright 1988, Gaussian, Inc.),
 the Gaussian 86(TM) system (copyright 1986, Carnegie Mellon
 University), and the Gaussian 82(TM) system (copyright 1983,
 Carnegie Mellon University). Gaussian is a federally registered
 trademark of Gaussian, Inc.
  
 This software contains proprietary and confidential information,
 including trade secrets, belonging to Gaussian, Inc.
  
 This software is provided under written license and may be
 used, copied, transmitted, or stored only in accord with that
 written license.
  
 The following legend is applicable only to US Government
 contracts under FAR:
  
                    RESTRICTED RIGHTS LEGEND
  
 Use, reproduction and disclosure by the US Government is
 subject to restrictions as set forth in subparagraphs (a)
 and (c) of the Commercial Computer Software - Restricted
 Rights clause in FAR 52.227-19.
  
 Gaussian, Inc.
 340 Quinnipiac St., Bldg. 40, Wallingford CT 06492
  
  
 ---------------------------------------------------------------
 Warning -- This program may not be used in any manner that
 competes with the business of Gaussian, Inc. or will provide
 assistance to any competitor of Gaussian, Inc.  The licensee
 of this program is prohibited from giving any competitor of
 Gaussian, Inc. access to this program.  By using this program,
 the user acknowledges that Gaussian, Inc. is engaged in the
 business of creating and licensing software in the field of
 computational chemistry and represents and warrants to the
 licensee that it is not a competitor of Gaussian, Inc. and that
 it will not use this program in any manner prohibited above.
 ---------------------------------------------------------------
  

 Cite this work as:
 Gaussian 09, Revision D.01,
 M. J. Frisch, G. W. Trucks, H. B. Schlegel, G. E. Scuseria, 
 M. A. Robb, J. R. Cheeseman, G. Scalmani, V. Barone, B. Mennucci, 
 G. A. Petersson, H. Nakatsuji, M. Caricato, X. Li, H. P. Hratchian, 
 A. F. Izmaylov, J. Bloino, G. Zheng, J. L. Sonnenberg, M. Hada, 
 M. Ehara, K. Toyota, R. Fukuda, J. Hasegawa, M. Ishida, T. Nakajima, 
 Y. Honda, O. Kitao, H. Nakai, T. Vreven, J. A. Montgomery, Jr., 
 J. E. Peralta, F. Ogliaro, M. Bearpark, J. J. Heyd, E. Brothers, 
 K. N. Kudin, V. N. Staroverov, T. Keith, R. Kobayashi, J. Normand, 
 K. Raghavachari, A. Rendell, J. C. Burant, S. S. Iyengar, J. Tomasi, 
 M. Cossi, N. Rega, J. M. Millam, M. Klene, J. E. Knox, J. B. Cross, 
 V. Bakken, C. Adamo, J. Jaramillo, R. Gomperts, R. E. Stratmann, 
 O. Yazyev, A. J. Austin, R. Cammi, C. Pomelli, J. W. Ochterski, 
 R. L. Martin, K. Morokuma, V. G. Zakrzewski, G. A. Voth, 
 P. Salvador, J. J. Dannenberg, S. Dapprich, A. D. Daniels, 
 O. Farkas, J. B. Foresman, J. V. Ortiz, J. Cioslowski, 
 and D. J. Fox, Gaussian, Inc., Wallingford CT, 2013.
 
 ******************************************
 Gaussian 09:  EM64L-G09RevD.01 24-Apr-2013
                 6-Apr-2016 
 ******************************************
 %nproc=20
 Will use up to   20 processors via shared memory.
 %mem=80GB
 %chk=Tri_A131_of.chk
 ----------------------------------------------------------------------
 #P PBE1PBE/6-311+G(d,p) opt=ModRedundant freq optcyc=999 EmpiricalDisp
 ersion=GD3
 ----------------------------------------------------------------------
 1/6=999,14=-1,18=120,19=15,26=3,38=1/1,3;
 2/9=110,12=2,17=6,18=5,40=1/2;
 3/5=4,6=6,7=111,11=2,16=1,25=1,30=1,71=1,74=-13,124=31/1,2,3;
 4//1;
 5/5=2,38=5/2;
 6/7=2,8=2,9=2,10=2,28=1/1;
 7//1,2,3,16;
 1/6=999,14=-1,18=20,19=15,26=3/3(2);
 2/9=110/2;
 99//99;
 2/9=110/2;
 3/5=4,6=6,7=111,11=2,16=1,25=1,30=1,71=1,74=-13,124=31/1,2,3;
 4/5=5,16=3,69=1/1;
 5/5=2,38=5/2;
 7//1,2,3,16;
 1/6=999,14=-1,18=20,19=15,26=3/3(-5);
 2/9=110/2;
 6/7=2,8=2,9=2,10=2,19=2,28=1/1;
 99/9=1/99;
 Leave Link    1 at Wed Apr  6 15:56:02 2016, MaxMem= 10737418240 cpu:         1.6
 (Enter /share/apps//g09/l101.exe)
 -------
 disacch
 -------
 Symbolic Z-matrix:
 Charge =  1 Multiplicity = 1
 O                     2.32486  -0.56913   4.63775 
 C                     0.91516  -0.63013   4.6724 
 C                     0.36748  -0.63372   3.24342 
 C                     0.93241  -1.80229   2.43138 
 C                     2.46151  -1.72678   2.43277 
 C                     2.96985  -1.6388    3.88085 
 H                     0.60829   0.28144   5.21497 
 H                     0.69874   0.31046   2.78141 
 H                     0.60912  -2.75522   2.87981 
 H                     2.86608  -2.66418   2.00039 
 H                     2.7591   -2.60379   4.37584 
 O                     2.79831  -0.61585   1.603 
 O                     0.38093  -1.75818   1.11438 
 O                    -1.07761  -0.67522   3.22217 
 O                     0.42013  -1.8002    5.32389 
 C                     4.46675  -1.36899   3.98725 
 H                     4.76359  -1.35503   5.04833 
 H                     5.01769  -2.18018   3.491 
 O                     4.86986  -0.15463   3.32997 
 H                     4.53866   0.59075   3.86419 
 H                     3.66793  -0.27231   1.91228 
 H                     0.96349  -1.16044   0.59982 
 H                    -1.28833  -0.78514   2.26999 
 O                     0.32642  -3.15502   9.26767 
 C                     1.17454  -3.88335   8.36616 
 C                     0.94737  -3.49786   6.88605 
 C                     0.85338  -1.98663   6.68482 
 C                    -0.14123  -1.36395   7.67564 
 C                     0.25666  -1.7298    9.11284 
 H                     2.23326  -3.69971   8.62479 
 H                    -0.02834  -3.88209   6.55524 
 H                     1.84599  -1.52357   6.82275 
 H                    -0.10811  -0.26239   7.57925 
 H                     1.23883  -1.26895   9.33949 
 O                    -1.47112  -1.83276   7.38574 
 O                     1.98868  -4.02488   6.08109 
 O                     0.96491  -5.24643   8.66378 
 C                    -0.75684  -1.24861   10.1607 
 H                    -0.4029   -1.52471   11.16576 
 H                    -0.83855  -0.15307   10.11644 
 O                    -2.07145  -1.78343   9.9261 
 H                    -2.08307  -2.7139    10.28477 
 H                    -1.95585  -1.84928   8.26732 
 H                     1.86119  -5.00286   6.05661 
 O                    -2.01902  -7.44665   8.49434 
 C                    -2.11297  -7.50715   7.07658 
 C                    -0.7412   -7.64951   6.37574 
 C                     0.37301  -7.14855   7.2919 
 C                    -0.15165  -5.92215   8.04991 
 C                    -1.22002  -6.37557   9.06389 
 H                    -2.70036  -8.42062   6.89049 
 H                    -0.7558   -6.99661   5.48211 
 H                     0.64315  -7.94533   8.00426 
 H                    -0.7208   -6.81427   9.94435 
 H                    -0.65065  -5.2573    7.33332 
 O                     1.51656  -6.83538   6.46521 
 O                    -0.59386  -9.01274   6.00637 
 O                    -2.74392  -6.36385   6.50889 
 C                    -2.16353  -5.25711   9.54365 
 H                    -2.44939  -4.62357   8.68214 
 H                    -3.07044  -5.73317   9.93974 
 O                    -1.62759  -4.46031   10.60771 
 H                    -0.73199  -4.17318   10.32042 
 H                     2.31024  -6.95322   7.01743 
 H                     0.24216  -9.10293   5.51489 
 C                    -4.16851  -6.2919    6.73715 
 H                    -4.67085  -7.06113   6.12156 
 H                    -4.3839   -6.50772   7.7957 
 C                    -4.66664  -4.89432   6.38742 
 H                    -4.06924  -4.16301   6.95953 
 H                    -5.68955  -4.80955   6.78663 
 C                    -4.72161  -4.51859   4.89442 
 H                    -5.42639  -5.19145   4.38077 
 H                    -5.19485  -3.52237   4.81781 
 C                    -3.40286  -4.54026   4.09658 
 H                    -3.05832  -5.57847   3.98328 
 H                    -3.59228  -4.16768   3.07635 
 C                    -2.23914  -3.78283   4.72415 
 H                    -1.3353   -3.85741   4.10708 
 H                    -2.01305  -4.20599   5.70924 
 N                    -2.50578  -2.31093   4.92596 
 H                    -2.13782  -2.01413   5.87373 
 H                    -3.50998  -2.10422   4.88378 
 H                    -1.99462  -1.72005   4.21421 
 
 The following ModRedundant input section has been read:
 B      35      82 B                                                           
 B      14      84 B                                                           
 B      44      56 B                                                           
 B      42      62 B                                                           
 B      24      63 B                                                           
 
 NAtoms=     84 NQM=       84 NQMF=       0 NMMI=      0 NMMIF=      0
                NMic=       0 NMicF=      0.
                    Isotopes and Nuclear Properties:
 (Nuclear quadrupole moments (NQMom) in fm**2, nuclear magnetic moments (NMagM)
  in nuclear magnetons)

  Atom         1           2           3           4           5           6           7           8           9          10
 IAtWgt=          16          12          12          12          12          12           1           1           1           1
 AtmWgt=  15.9949146  12.0000000  12.0000000  12.0000000  12.0000000  12.0000000   1.0078250   1.0078250   1.0078250   1.0078250
 NucSpn=           0           0           0           0           0           0           1           1           1           1
 AtZEff=   0.0000000   0.0000000   0.0000000   0.0000000   0.0000000   0.0000000   0.0000000   0.0000000   0.0000000   0.0000000
 NQMom=    0.0000000   0.0000000   0.0000000   0.0000000   0.0000000   0.0000000   0.0000000   0.0000000   0.0000000   0.0000000
 NMagM=    0.0000000   0.0000000   0.0000000   0.0000000   0.0000000   0.0000000   2.7928460   2.7928460   2.7928460   2.7928460
 AtZNuc=   8.0000000   6.0000000   6.0000000   6.0000000   6.0000000   6.0000000   1.0000000   1.0000000   1.0000000   1.0000000

  Atom        11          12          13          14          15          16          17          18          19          20
 IAtWgt=           1          16          16          16          16          12           1           1          16           1
 AtmWgt=   1.0078250  15.9949146  15.9949146  15.9949146  15.9949146  12.0000000   1.0078250   1.0078250  15.9949146   1.0078250
 NucSpn=           1           0           0           0           0           0           1           1           0           1
 AtZEff=   0.0000000   0.0000000   0.0000000   0.0000000   0.0000000   0.0000000   0.0000000   0.0000000   0.0000000   0.0000000
 NQMom=    0.0000000   0.0000000   0.0000000   0.0000000   0.0000000   0.0000000   0.0000000   0.0000000   0.0000000   0.0000000
 NMagM=    2.7928460   0.0000000   0.0000000   0.0000000   0.0000000   0.0000000   2.7928460   2.7928460   0.0000000   2.7928460
 AtZNuc=   1.0000000   8.0000000   8.0000000   8.0000000   8.0000000   6.0000000   1.0000000   1.0000000   8.0000000   1.0000000

  Atom        21          22          23          24          25          26          27          28          29          30
 IAtWgt=           1           1           1          16          12          12          12          12          12           1
 AtmWgt=   1.0078250   1.0078250   1.0078250  15.9949146  12.0000000  12.0000000  12.0000000  12.0000000  12.0000000   1.0078250
 NucSpn=           1           1           1           0           0           0           0           0           0           1
 AtZEff=   0.0000000   0.0000000   0.0000000   0.0000000   0.0000000   0.0000000   0.0000000   0.0000000   0.0000000   0.0000000
 NQMom=    0.0000000   0.0000000   0.0000000   0.0000000   0.0000000   0.0000000   0.0000000   0.0000000   0.0000000   0.0000000
 NMagM=    2.7928460   2.7928460   2.7928460   0.0000000   0.0000000   0.0000000   0.0000000   0.0000000   0.0000000   2.7928460
 AtZNuc=   1.0000000   1.0000000   1.0000000   8.0000000   6.0000000   6.0000000   6.0000000   6.0000000   6.0000000   1.0000000

  Atom        31          32          33          34          35          36          37          38          39          40
 IAtWgt=           1           1           1           1          16          16          16          12           1           1
 AtmWgt=   1.0078250   1.0078250   1.0078250   1.0078250  15.9949146  15.9949146  15.9949146  12.0000000   1.0078250   1.0078250
 NucSpn=           1           1           1           1           0           0           0           0           1           1
 AtZEff=   0.0000000   0.0000000   0.0000000   0.0000000   0.0000000   0.0000000   0.0000000   0.0000000   0.0000000   0.0000000
 NQMom=    0.0000000   0.0000000   0.0000000   0.0000000   0.0000000   0.0000000   0.0000000   0.0000000   0.0000000   0.0000000
 NMagM=    2.7928460   2.7928460   2.7928460   2.7928460   0.0000000   0.0000000   0.0000000   0.0000000   2.7928460   2.7928460
 AtZNuc=   1.0000000   1.0000000   1.0000000   1.0000000   8.0000000   8.0000000   8.0000000   6.0000000   1.0000000   1.0000000

  Atom        41          42          43          44          45          46          47          48          49          50
 IAtWgt=          16           1           1           1          16          12          12          12          12          12
 AtmWgt=  15.9949146   1.0078250   1.0078250   1.0078250  15.9949146  12.0000000  12.0000000  12.0000000  12.0000000  12.0000000
 NucSpn=           0           1           1           1           0           0           0           0           0           0
 AtZEff=   0.0000000   0.0000000   0.0000000   0.0000000   0.0000000   0.0000000   0.0000000   0.0000000   0.0000000   0.0000000
 NQMom=    0.0000000   0.0000000   0.0000000   0.0000000   0.0000000   0.0000000   0.0000000   0.0000000   0.0000000   0.0000000
 NMagM=    0.0000000   2.7928460   2.7928460   2.7928460   0.0000000   0.0000000   0.0000000   0.0000000   0.0000000   0.0000000
 AtZNuc=   8.0000000   1.0000000   1.0000000   1.0000000   8.0000000   6.0000000   6.0000000   6.0000000   6.0000000   6.0000000

  Atom        51          52          53          54          55          56          57          58          59          60
 IAtWgt=           1           1           1           1           1          16          16          16          12           1
 AtmWgt=   1.0078250   1.0078250   1.0078250   1.0078250   1.0078250  15.9949146  15.9949146  15.9949146  12.0000000   1.0078250
 NucSpn=           1           1           1           1           1           0           0           0           0           1
 AtZEff=   0.0000000   0.0000000   0.0000000   0.0000000   0.0000000   0.0000000   0.0000000   0.0000000   0.0000000   0.0000000
 NQMom=    0.0000000   0.0000000   0.0000000   0.0000000   0.0000000   0.0000000   0.0000000   0.0000000   0.0000000   0.0000000
 NMagM=    2.7928460   2.7928460   2.7928460   2.7928460   2.7928460   0.0000000   0.0000000   0.0000000   0.0000000   2.7928460
 AtZNuc=   1.0000000   1.0000000   1.0000000   1.0000000   1.0000000   8.0000000   8.0000000   8.0000000   6.0000000   1.0000000

  Atom        61          62          63          64          65          66          67          68          69          70
 IAtWgt=           1          16           1           1           1          12           1           1          12           1
 AtmWgt=   1.0078250  15.9949146   1.0078250   1.0078250   1.0078250  12.0000000   1.0078250   1.0078250  12.0000000   1.0078250
 NucSpn=           1           0           1           1           1           0           1           1           0           1
 AtZEff=   0.0000000   0.0000000   0.0000000   0.0000000   0.0000000   0.0000000   0.0000000   0.0000000   0.0000000   0.0000000
 NQMom=    0.0000000   0.0000000   0.0000000   0.0000000   0.0000000   0.0000000   0.0000000   0.0000000   0.0000000   0.0000000
 NMagM=    2.7928460   0.0000000   2.7928460   2.7928460   2.7928460   0.0000000   2.7928460   2.7928460   0.0000000   2.7928460
 AtZNuc=   1.0000000   8.0000000   1.0000000   1.0000000   1.0000000   6.0000000   1.0000000   1.0000000   6.0000000   1.0000000

  Atom        71          72          73          74          75          76          77          78          79          80
 IAtWgt=           1          12           1           1          12           1           1          12           1           1
 AtmWgt=   1.0078250  12.0000000   1.0078250   1.0078250  12.0000000   1.0078250   1.0078250  12.0000000   1.0078250   1.0078250
 NucSpn=           1           0           1           1           0           1           1           0           1           1
 AtZEff=   0.0000000   0.0000000   0.0000000   0.0000000   0.0000000   0.0000000   0.0000000   0.0000000   0.0000000   0.0000000
 NQMom=    0.0000000   0.0000000   0.0000000   0.0000000   0.0000000   0.0000000   0.0000000   0.0000000   0.0000000   0.0000000
 NMagM=    2.7928460   0.0000000   2.7928460   2.7928460   0.0000000   2.7928460   2.7928460   0.0000000   2.7928460   2.7928460
 AtZNuc=   1.0000000   6.0000000   1.0000000   1.0000000   6.0000000   1.0000000   1.0000000   6.0000000   1.0000000   1.0000000

  Atom        81          82          83          84
 IAtWgt=          14           1           1           1
 AtmWgt=  14.0030740   1.0078250   1.0078250   1.0078250
 NucSpn=           2           1           1           1
 AtZEff=   0.0000000   0.0000000   0.0000000   0.0000000
 NQMom=    2.0440000   0.0000000   0.0000000   0.0000000
 NMagM=    0.4037610   2.7928460   2.7928460   2.7928460
 AtZNuc=   7.0000000   1.0000000   1.0000000   1.0000000
 Leave Link  101 at Wed Apr  6 15:56:02 2016, MaxMem= 10737418240 cpu:         5.2
 (Enter /share/apps//g09/l103.exe)

 GradGradGradGradGradGradGradGradGradGradGradGradGradGradGradGradGradGrad
 Berny optimization.
 Initialization pass.
                           ----------------------------
                           !    Initial Parameters    !
                           ! (Angstroms and Degrees)  !
 --------------------------                            --------------------------
 ! Name  Definition              Value          Derivative Info.                !
 --------------------------------------------------------------------------------
 ! R1    R(1,2)                  1.4114         estimate D2E/DX2                !
 ! R2    R(1,6)                  1.4605         estimate D2E/DX2                !
 ! R3    R(2,3)                  1.5303         estimate D2E/DX2                !
 ! R4    R(2,7)                  1.1043         estimate D2E/DX2                !
 ! R5    R(2,15)                 1.4278         estimate D2E/DX2                !
 ! R6    R(3,4)                  1.531          estimate D2E/DX2                !
 ! R7    R(3,8)                  1.1021         estimate D2E/DX2                !
 ! R8    R(3,14)                 1.4458         estimate D2E/DX2                !
 ! R9    R(4,5)                  1.531          estimate D2E/DX2                !
 ! R10   R(4,9)                  1.1017         estimate D2E/DX2                !
 ! R11   R(4,13)                 1.4285         estimate D2E/DX2                !
 ! R12   R(5,6)                  1.5372         estimate D2E/DX2                !
 ! R13   R(5,10)                 1.1088         estimate D2E/DX2                !
 ! R14   R(5,12)                 1.4269         estimate D2E/DX2                !
 ! R15   R(6,11)                 1.1048         estimate D2E/DX2                !
 ! R16   R(6,16)                 1.5247         estimate D2E/DX2                !
 ! R17   R(12,21)                0.9848         estimate D2E/DX2                !
 ! R18   R(13,22)                0.9805         estimate D2E/DX2                !
 ! R19   R(14,23)                0.9814         estimate D2E/DX2                !
 ! R20   R(14,84)                1.7078         estimate D2E/DX2                !
 ! R21   R(15,27)                1.4403         estimate D2E/DX2                !
 ! R22   R(16,17)                1.1019         estimate D2E/DX2                !
 ! R23   R(16,18)                1.099          estimate D2E/DX2                !
 ! R24   R(16,19)                1.4385         estimate D2E/DX2                !
 ! R25   R(19,20)                0.975          estimate D2E/DX2                !
 ! R26   R(24,25)                1.4361         estimate D2E/DX2                !
 ! R27   R(24,29)                1.4353         estimate D2E/DX2                !
 ! R28   R(24,63)                1.807          estimate D2E/DX2                !
 ! R29   R(25,26)                1.5463         estimate D2E/DX2                !
 ! R30   R(25,30)                1.1052         estimate D2E/DX2                !
 ! R31   R(25,37)                1.4109         estimate D2E/DX2                !
 ! R32   R(26,27)                1.5275         estimate D2E/DX2                !
 ! R33   R(26,31)                1.0996         estimate D2E/DX2                !
 ! R34   R(26,36)                1.4178         estimate D2E/DX2                !
 ! R35   R(27,28)                1.5358         estimate D2E/DX2                !
 ! R36   R(27,32)                1.104          estimate D2E/DX2                !
 ! R37   R(28,29)                1.5355         estimate D2E/DX2                !
 ! R38   R(28,33)                1.1063         estimate D2E/DX2                !
 ! R39   R(28,35)                1.4396         estimate D2E/DX2                !
 ! R40   R(29,34)                1.1083         estimate D2E/DX2                !
 ! R41   R(29,38)                1.5352         estimate D2E/DX2                !
 ! R42   R(35,43)                1.0062         estimate D2E/DX2                !
 ! R43   R(35,82)                1.6624         estimate D2E/DX2                !
 ! R44   R(36,44)                0.9866         estimate D2E/DX2                !
 ! R45   R(37,49)                1.4423         estimate D2E/DX2                !
 ! R46   R(38,39)                1.1007         estimate D2E/DX2                !
 ! R47   R(38,40)                1.0995         estimate D2E/DX2                !
 ! R48   R(38,41)                1.4385         estimate D2E/DX2                !
 ! R49   R(41,42)                0.9973         estimate D2E/DX2                !
 ! R50   R(42,62)                1.8335         estimate D2E/DX2                !
 ! R51   R(44,56)                1.9089         estimate D2E/DX2                !
 ! R52   R(45,46)                1.4222         estimate D2E/DX2                !
 ! R53   R(45,50)                1.4526         estimate D2E/DX2                !
 ! R54   R(46,47)                1.547          estimate D2E/DX2                !
 ! R55   R(46,51)                1.1019         estimate D2E/DX2                !
 ! R56   R(46,58)                1.4239         estimate D2E/DX2                !
 ! R57   R(47,48)                1.527          estimate D2E/DX2                !
 ! R58   R(47,52)                1.1068         estimate D2E/DX2                !
 ! R59   R(47,57)                1.42           estimate D2E/DX2                !
 ! R60   R(48,49)                1.5342         estimate D2E/DX2                !
 ! R61   R(48,53)                1.1024         estimate D2E/DX2                !
 ! R62   R(48,56)                1.4454         estimate D2E/DX2                !
 ! R63   R(49,50)                1.5412         estimate D2E/DX2                !
 ! R64   R(49,55)                1.0975         estimate D2E/DX2                !
 ! R65   R(50,54)                1.1031         estimate D2E/DX2                !
 ! R66   R(50,59)                1.5399         estimate D2E/DX2                !
 ! R67   R(56,64)                0.974          estimate D2E/DX2                !
 ! R68   R(57,65)                0.974          estimate D2E/DX2                !
 ! R69   R(58,66)                1.4446         estimate D2E/DX2                !
 ! R70   R(59,60)                1.1069         estimate D2E/DX2                !
 ! R71   R(59,61)                1.0982         estimate D2E/DX2                !
 ! R72   R(59,62)                1.4333         estimate D2E/DX2                !
 ! R73   R(62,63)                0.9834         estimate D2E/DX2                !
 ! R74   R(66,67)                1.1059         estimate D2E/DX2                !
 ! R75   R(66,68)                1.1016         estimate D2E/DX2                !
 ! R76   R(66,69)                1.5244         estimate D2E/DX2                !
 ! R77   R(69,70)                1.1041         estimate D2E/DX2                !
 ! R78   R(69,71)                1.1013         estimate D2E/DX2                !
 ! R79   R(69,72)                1.5405         estimate D2E/DX2                !
 ! R80   R(72,73)                1.1015         estimate D2E/DX2                !
 ! R81   R(72,74)                1.1056         estimate D2E/DX2                !
 ! R82   R(72,75)                1.5415         estimate D2E/DX2                !
 ! R83   R(75,76)                1.0997         estimate D2E/DX2                !
 ! R84   R(75,77)                1.1025         estimate D2E/DX2                !
 ! R85   R(75,78)                1.5237         estimate D2E/DX2                !
 ! R86   R(78,79)                1.0969         estimate D2E/DX2                !
 ! R87   R(78,80)                1.0957         estimate D2E/DX2                !
 ! R88   R(78,81)                1.5094         estimate D2E/DX2                !
 ! R89   R(81,82)                1.0591         estimate D2E/DX2                !
 ! R90   R(81,83)                1.0261         estimate D2E/DX2                !
 ! R91   R(81,84)                1.0569         estimate D2E/DX2                !
 ! A1    A(2,1,6)              114.9699         estimate D2E/DX2                !
 ! A2    A(1,2,3)              109.5492         estimate D2E/DX2                !
 ! A3    A(1,2,7)              104.7099         estimate D2E/DX2                !
 ! A4    A(1,2,15)             113.1353         estimate D2E/DX2                !
 ! A5    A(3,2,7)              111.1778         estimate D2E/DX2                !
 ! A6    A(3,2,15)             107.4617         estimate D2E/DX2                !
 ! A7    A(7,2,15)             110.8508         estimate D2E/DX2                !
 ! A8    A(2,3,4)              111.407          estimate D2E/DX2                !
 ! A9    A(2,3,8)              106.3712         estimate D2E/DX2                !
 ! A10   A(2,3,14)             111.8073         estimate D2E/DX2                !
 ! A11   A(4,3,8)              108.7011         estimate D2E/DX2                !
 ! A12   A(4,3,14)             109.8213         estimate D2E/DX2                !
 ! A13   A(8,3,14)             108.5927         estimate D2E/DX2                !
 ! A14   A(3,4,5)              109.2935         estimate D2E/DX2                !
 ! A15   A(3,4,9)              109.6352         estimate D2E/DX2                !
 ! A16   A(3,4,13)             108.8427         estimate D2E/DX2                !
 ! A17   A(5,4,9)              109.5962         estimate D2E/DX2                !
 ! A18   A(5,4,13)             112.6378         estimate D2E/DX2                !
 ! A19   A(9,4,13)             106.78           estimate D2E/DX2                !
 ! A20   A(4,5,6)              109.5093         estimate D2E/DX2                !
 ! A21   A(4,5,10)             108.8074         estimate D2E/DX2                !
 ! A22   A(4,5,12)             105.8796         estimate D2E/DX2                !
 ! A23   A(6,5,10)             107.1621         estimate D2E/DX2                !
 ! A24   A(6,5,12)             115.1616         estimate D2E/DX2                !
 ! A25   A(10,5,12)            110.2019         estimate D2E/DX2                !
 ! A26   A(1,6,5)              112.5858         estimate D2E/DX2                !
 ! A27   A(1,6,11)             108.8608         estimate D2E/DX2                !
 ! A28   A(1,6,16)             105.5328         estimate D2E/DX2                !
 ! A29   A(5,6,11)             107.9974         estimate D2E/DX2                !
 ! A30   A(5,6,16)             113.6101         estimate D2E/DX2                !
 ! A31   A(11,6,16)            108.0933         estimate D2E/DX2                !
 ! A32   A(5,12,21)            107.3003         estimate D2E/DX2                !
 ! A33   A(4,13,22)            105.8594         estimate D2E/DX2                !
 ! A34   A(3,14,23)            103.4195         estimate D2E/DX2                !
 ! A35   A(3,14,84)            123.0715         estimate D2E/DX2                !
 ! A36   A(23,14,84)           112.3195         estimate D2E/DX2                !
 ! A37   A(2,15,27)            115.653          estimate D2E/DX2                !
 ! A38   A(6,16,17)            109.5061         estimate D2E/DX2                !
 ! A39   A(6,16,18)            109.2706         estimate D2E/DX2                !
 ! A40   A(6,16,19)            113.1176         estimate D2E/DX2                !
 ! A41   A(17,16,18)           108.006          estimate D2E/DX2                !
 ! A42   A(17,16,19)           110.7208         estimate D2E/DX2                !
 ! A43   A(18,16,19)           106.0399         estimate D2E/DX2                !
 ! A44   A(16,19,20)           107.4471         estimate D2E/DX2                !
 ! A45   A(25,24,29)           117.6824         estimate D2E/DX2                !
 ! A46   A(25,24,63)           115.2059         estimate D2E/DX2                !
 ! A47   A(29,24,63)           126.4329         estimate D2E/DX2                !
 ! A48   A(24,25,26)           112.8103         estimate D2E/DX2                !
 ! A49   A(24,25,30)           109.5452         estimate D2E/DX2                !
 ! A50   A(24,25,37)           105.6526         estimate D2E/DX2                !
 ! A51   A(26,25,30)           108.8631         estimate D2E/DX2                !
 ! A52   A(26,25,37)           114.8951         estimate D2E/DX2                !
 ! A53   A(30,25,37)           104.6847         estimate D2E/DX2                !
 ! A54   A(25,26,27)           112.4452         estimate D2E/DX2                !
 ! A55   A(25,26,31)           109.3434         estimate D2E/DX2                !
 ! A56   A(25,26,36)           110.0536         estimate D2E/DX2                !
 ! A57   A(27,26,31)           104.5653         estimate D2E/DX2                !
 ! A58   A(27,26,36)           109.7656         estimate D2E/DX2                !
 ! A59   A(31,26,36)           110.5502         estimate D2E/DX2                !
 ! A60   A(15,27,26)           105.7265         estimate D2E/DX2                !
 ! A61   A(15,27,28)           111.2414         estimate D2E/DX2                !
 ! A62   A(15,27,32)           109.525          estimate D2E/DX2                !
 ! A63   A(26,27,28)           110.8541         estimate D2E/DX2                !
 ! A64   A(26,27,32)           110.0725         estimate D2E/DX2                !
 ! A65   A(28,27,32)           109.3674         estimate D2E/DX2                !
 ! A66   A(27,28,29)           109.8424         estimate D2E/DX2                !
 ! A67   A(27,28,33)           109.1545         estimate D2E/DX2                !
 ! A68   A(27,28,35)           109.6523         estimate D2E/DX2                !
 ! A69   A(29,28,33)           108.1223         estimate D2E/DX2                !
 ! A70   A(29,28,35)           110.5043         estimate D2E/DX2                !
 ! A71   A(33,28,35)           109.5349         estimate D2E/DX2                !
 ! A72   A(24,29,28)           110.4967         estimate D2E/DX2                !
 ! A73   A(24,29,34)           110.3499         estimate D2E/DX2                !
 ! A74   A(24,29,38)           105.6464         estimate D2E/DX2                !
 ! A75   A(28,29,34)           108.782          estimate D2E/DX2                !
 ! A76   A(28,29,38)           113.149          estimate D2E/DX2                !
 ! A77   A(34,29,38)           108.3682         estimate D2E/DX2                !
 ! A78   A(28,35,43)           105.8992         estimate D2E/DX2                !
 ! A79   A(28,35,82)           126.0984         estimate D2E/DX2                !
 ! A80   A(43,35,82)           127.0062         estimate D2E/DX2                !
 ! A81   A(26,36,44)           106.7185         estimate D2E/DX2                !
 ! A82   A(25,37,49)           118.5477         estimate D2E/DX2                !
 ! A83   A(29,38,39)           109.4104         estimate D2E/DX2                !
 ! A84   A(29,38,40)           109.5062         estimate D2E/DX2                !
 ! A85   A(29,38,41)           112.0539         estimate D2E/DX2                !
 ! A86   A(39,38,40)           108.0944         estimate D2E/DX2                !
 ! A87   A(39,38,41)           110.4571         estimate D2E/DX2                !
 ! A88   A(40,38,41)           107.2162         estimate D2E/DX2                !
 ! A89   A(38,41,42)           107.3904         estimate D2E/DX2                !
 ! A90   A(41,42,62)           161.6501         estimate D2E/DX2                !
 ! A91   A(46,45,50)           117.296          estimate D2E/DX2                !
 ! A92   A(45,46,47)           113.3888         estimate D2E/DX2                !
 ! A93   A(45,46,51)           103.8187         estimate D2E/DX2                !
 ! A94   A(45,46,58)           113.1144         estimate D2E/DX2                !
 ! A95   A(47,46,51)           108.6573         estimate D2E/DX2                !
 ! A96   A(47,46,58)           106.6302         estimate D2E/DX2                !
 ! A97   A(51,46,58)           111.2293         estimate D2E/DX2                !
 ! A98   A(46,47,48)           110.1832         estimate D2E/DX2                !
 ! A99   A(46,47,52)           107.445          estimate D2E/DX2                !
 ! A100  A(46,47,57)           107.3486         estimate D2E/DX2                !
 ! A101  A(48,47,52)           107.488          estimate D2E/DX2                !
 ! A102  A(48,47,57)           113.284          estimate D2E/DX2                !
 ! A103  A(52,47,57)           110.9555         estimate D2E/DX2                !
 ! A104  A(47,48,49)           108.0073         estimate D2E/DX2                !
 ! A105  A(47,48,53)           109.2312         estimate D2E/DX2                !
 ! A106  A(47,48,56)           107.7712         estimate D2E/DX2                !
 ! A107  A(49,48,53)           110.0162         estimate D2E/DX2                !
 ! A108  A(49,48,56)           112.3296         estimate D2E/DX2                !
 ! A109  A(53,48,56)           109.4091         estimate D2E/DX2                !
 ! A110  A(37,49,48)           108.6661         estimate D2E/DX2                !
 ! A111  A(37,49,50)           113.2335         estimate D2E/DX2                !
 ! A112  A(37,49,55)           110.2474         estimate D2E/DX2                !
 ! A113  A(48,49,50)           109.0834         estimate D2E/DX2                !
 ! A114  A(48,49,55)           108.4893         estimate D2E/DX2                !
 ! A115  A(50,49,55)           107.0149         estimate D2E/DX2                !
 ! A116  A(45,50,49)           109.8938         estimate D2E/DX2                !
 ! A117  A(45,50,54)           105.5832         estimate D2E/DX2                !
 ! A118  A(45,50,59)           108.7048         estimate D2E/DX2                !
 ! A119  A(49,50,54)           109.1725         estimate D2E/DX2                !
 ! A120  A(49,50,59)           114.5845         estimate D2E/DX2                !
 ! A121  A(54,50,59)           108.5095         estimate D2E/DX2                !
 ! A122  A(44,56,48)           118.2461         estimate D2E/DX2                !
 ! A123  A(44,56,64)            95.1857         estimate D2E/DX2                !
 ! A124  A(48,56,64)           107.1093         estimate D2E/DX2                !
 ! A125  A(47,57,65)           108.0118         estimate D2E/DX2                !
 ! A126  A(46,58,66)           114.4553         estimate D2E/DX2                !
 ! A127  A(50,59,60)           109.3569         estimate D2E/DX2                !
 ! A128  A(50,59,61)           107.668          estimate D2E/DX2                !
 ! A129  A(50,59,62)           113.9513         estimate D2E/DX2                !
 ! A130  A(60,59,61)           108.3942         estimate D2E/DX2                !
 ! A131  A(60,59,62)           110.8657         estimate D2E/DX2                !
 ! A132  A(61,59,62)           106.381          estimate D2E/DX2                !
 ! A133  A(42,62,59)           107.8103         estimate D2E/DX2                !
 ! A134  A(42,62,63)            84.0695         estimate D2E/DX2                !
 ! A135  A(59,62,63)           106.6169         estimate D2E/DX2                !
 ! A136  A(24,63,62)           150.2452         estimate D2E/DX2                !
 ! A137  A(58,66,67)           108.9872         estimate D2E/DX2                !
 ! A138  A(58,66,68)           109.5669         estimate D2E/DX2                !
 ! A139  A(58,66,69)           109.3705         estimate D2E/DX2                !
 ! A140  A(67,66,68)           108.0475         estimate D2E/DX2                !
 ! A141  A(67,66,69)           111.197          estimate D2E/DX2                !
 ! A142  A(68,66,69)           109.645          estimate D2E/DX2                !
 ! A143  A(66,69,70)           108.1545         estimate D2E/DX2                !
 ! A144  A(66,69,71)           106.9131         estimate D2E/DX2                !
 ! A145  A(66,69,72)           117.2336         estimate D2E/DX2                !
 ! A146  A(70,69,71)           105.2924         estimate D2E/DX2                !
 ! A147  A(70,69,72)           111.0968         estimate D2E/DX2                !
 ! A148  A(71,69,72)           107.4206         estimate D2E/DX2                !
 ! A149  A(69,72,73)           109.0126         estimate D2E/DX2                !
 ! A150  A(69,72,74)           107.59           estimate D2E/DX2                !
 ! A151  A(69,72,75)           117.8825         estimate D2E/DX2                !
 ! A152  A(73,72,74)           104.1372         estimate D2E/DX2                !
 ! A153  A(73,72,75)           107.3042         estimate D2E/DX2                !
 ! A154  A(74,72,75)           110.0602         estimate D2E/DX2                !
 ! A155  A(72,75,76)           109.5496         estimate D2E/DX2                !
 ! A156  A(72,75,77)           109.1            estimate D2E/DX2                !
 ! A157  A(72,75,78)           115.672          estimate D2E/DX2                !
 ! A158  A(76,75,77)           106.1121         estimate D2E/DX2                !
 ! A159  A(76,75,78)           105.8093         estimate D2E/DX2                !
 ! A160  A(77,75,78)           110.1421         estimate D2E/DX2                !
 ! A161  A(75,78,79)           111.3338         estimate D2E/DX2                !
 ! A162  A(75,78,80)           109.627          estimate D2E/DX2                !
 ! A163  A(75,78,81)           113.884          estimate D2E/DX2                !
 ! A164  A(79,78,80)           108.0274         estimate D2E/DX2                !
 ! A165  A(79,78,81)           106.6825         estimate D2E/DX2                !
 ! A166  A(80,78,81)           107.0285         estimate D2E/DX2                !
 ! A167  A(78,81,82)           109.3622         estimate D2E/DX2                !
 ! A168  A(78,81,83)           111.3352         estimate D2E/DX2                !
 ! A169  A(78,81,84)           111.6975         estimate D2E/DX2                !
 ! A170  A(82,81,83)           108.6828         estimate D2E/DX2                !
 ! A171  A(82,81,84)           106.137          estimate D2E/DX2                !
 ! A172  A(83,81,84)           109.4514         estimate D2E/DX2                !
 ! A173  L(36,44,56,37,-1)     165.9116         estimate D2E/DX2                !
 ! A174  L(35,82,81,1,-1)      180.3128         estimate D2E/DX2                !
 ! A175  L(14,84,81,15,-1)     175.0173         estimate D2E/DX2                !
 ! A176  L(36,44,56,37,-2)     181.3426         estimate D2E/DX2                !
 ! A177  L(35,82,81,1,-2)      169.524          estimate D2E/DX2                !
 ! A178  L(14,84,81,15,-2)     175.2479         estimate D2E/DX2                !
 ! D1    D(6,1,2,3)            -56.7138         estimate D2E/DX2                !
 ! D2    D(6,1,2,7)           -176.0264         estimate D2E/DX2                !
 ! D3    D(6,1,2,15)            63.1531         estimate D2E/DX2                !
 ! D4    D(2,1,6,5)             55.6933         estimate D2E/DX2                !
 ! D5    D(2,1,6,11)           -64.0244         estimate D2E/DX2                !
 ! D6    D(2,1,6,16)          -179.8463         estimate D2E/DX2                !
 ! D7    D(1,2,3,4)             57.5545         estimate D2E/DX2                !
 ! D8    D(1,2,3,8)            -60.7471         estimate D2E/DX2                !
 ! D9    D(1,2,3,14)          -179.137          estimate D2E/DX2                !
 ! D10   D(7,2,3,4)            172.803          estimate D2E/DX2                !
 ! D11   D(7,2,3,8)             54.5015         estimate D2E/DX2                !
 ! D12   D(7,2,3,14)           -63.8884         estimate D2E/DX2                !
 ! D13   D(15,2,3,4)           -65.7287         estimate D2E/DX2                !
 ! D14   D(15,2,3,8)           175.9698         estimate D2E/DX2                !
 ! D15   D(15,2,3,14)           57.5799         estimate D2E/DX2                !
 ! D16   D(1,2,15,27)           57.7993         estimate D2E/DX2                !
 ! D17   D(3,2,15,27)          178.8543         estimate D2E/DX2                !
 ! D18   D(7,2,15,27)          -59.473          estimate D2E/DX2                !
 ! D19   D(2,3,4,5)            -56.9677         estimate D2E/DX2                !
 ! D20   D(2,3,4,9)             63.1767         estimate D2E/DX2                !
 ! D21   D(2,3,4,13)           179.6404         estimate D2E/DX2                !
 ! D22   D(8,3,4,5)             59.9253         estimate D2E/DX2                !
 ! D23   D(8,3,4,9)           -179.9303         estimate D2E/DX2                !
 ! D24   D(8,3,4,13)           -63.4666         estimate D2E/DX2                !
 ! D25   D(14,3,4,5)           178.599          estimate D2E/DX2                !
 ! D26   D(14,3,4,9)           -61.2567         estimate D2E/DX2                !
 ! D27   D(14,3,4,13)           55.207          estimate D2E/DX2                !
 ! D28   D(2,3,14,23)         -173.2667         estimate D2E/DX2                !
 ! D29   D(2,3,14,84)          -44.8569         estimate D2E/DX2                !
 ! D30   D(4,3,14,23)          -49.0655         estimate D2E/DX2                !
 ! D31   D(4,3,14,84)           79.3442         estimate D2E/DX2                !
 ! D32   D(8,3,14,23)           69.6749         estimate D2E/DX2                !
 ! D33   D(8,3,14,84)         -161.9154         estimate D2E/DX2                !
 ! D34   D(3,4,5,6)             53.3038         estimate D2E/DX2                !
 ! D35   D(3,4,5,10)           170.1355         estimate D2E/DX2                !
 ! D36   D(3,4,5,12)           -71.4294         estimate D2E/DX2                !
 ! D37   D(9,4,5,6)            -66.8645         estimate D2E/DX2                !
 ! D38   D(9,4,5,10)            49.9672         estimate D2E/DX2                !
 ! D39   D(9,4,5,12)           168.4024         estimate D2E/DX2                !
 ! D40   D(13,4,5,6)           174.4178         estimate D2E/DX2                !
 ! D41   D(13,4,5,10)          -68.7505         estimate D2E/DX2                !
 ! D42   D(13,4,5,12)           49.6846         estimate D2E/DX2                !
 ! D43   D(3,4,13,22)           86.4741         estimate D2E/DX2                !
 ! D44   D(5,4,13,22)          -34.8968         estimate D2E/DX2                !
 ! D45   D(9,4,13,22)         -155.2479         estimate D2E/DX2                !
 ! D46   D(4,5,6,1)            -52.255          estimate D2E/DX2                !
 ! D47   D(4,5,6,11)            67.9616         estimate D2E/DX2                !
 ! D48   D(4,5,6,16)          -172.1459         estimate D2E/DX2                !
 ! D49   D(10,5,6,1)          -170.1194         estimate D2E/DX2                !
 ! D50   D(10,5,6,11)          -49.9029         estimate D2E/DX2                !
 ! D51   D(10,5,6,16)           69.9897         estimate D2E/DX2                !
 ! D52   D(12,5,6,1)            66.8982         estimate D2E/DX2                !
 ! D53   D(12,5,6,11)         -172.8853         estimate D2E/DX2                !
 ! D54   D(12,5,6,16)          -52.9928         estimate D2E/DX2                !
 ! D55   D(4,5,12,21)          152.9751         estimate D2E/DX2                !
 ! D56   D(6,5,12,21)           31.8278         estimate D2E/DX2                !
 ! D57   D(10,5,12,21)         -89.5199         estimate D2E/DX2                !
 ! D58   D(1,6,16,17)           58.1852         estimate D2E/DX2                !
 ! D59   D(1,6,16,18)          176.3008         estimate D2E/DX2                !
 ! D60   D(1,6,16,19)          -65.826          estimate D2E/DX2                !
 ! D61   D(5,6,16,17)         -177.9987         estimate D2E/DX2                !
 ! D62   D(5,6,16,18)          -59.883          estimate D2E/DX2                !
 ! D63   D(5,6,16,19)           57.9902         estimate D2E/DX2                !
 ! D64   D(11,6,16,17)         -58.1606         estimate D2E/DX2                !
 ! D65   D(11,6,16,18)          59.9551         estimate D2E/DX2                !
 ! D66   D(11,6,16,19)         177.8283         estimate D2E/DX2                !
 ! D67   D(3,14,81,78)         -62.562          estimate D2E/DX2                !
 ! D68   D(3,14,81,82)          55.06           estimate D2E/DX2                !
 ! D69   D(3,14,81,83)         170.7203         estimate D2E/DX2                !
 ! D70   D(23,14,81,78)         63.4145         estimate D2E/DX2                !
 ! D71   D(23,14,81,82)       -178.9634         estimate D2E/DX2                !
 ! D72   D(23,14,81,83)        -63.3031         estimate D2E/DX2                !
 ! D73   D(2,15,27,26)        -147.5528         estimate D2E/DX2                !
 ! D74   D(2,15,27,28)          92.0331         estimate D2E/DX2                !
 ! D75   D(2,15,27,32)         -28.9873         estimate D2E/DX2                !
 ! D76   D(6,16,19,20)          71.549          estimate D2E/DX2                !
 ! D77   D(17,16,19,20)        -51.7946         estimate D2E/DX2                !
 ! D78   D(18,16,19,20)       -168.7077         estimate D2E/DX2                !
 ! D79   D(29,24,25,26)        -48.7646         estimate D2E/DX2                !
 ! D80   D(29,24,25,30)         72.6677         estimate D2E/DX2                !
 ! D81   D(29,24,25,37)       -175.071          estimate D2E/DX2                !
 ! D82   D(63,24,25,26)        122.4083         estimate D2E/DX2                !
 ! D83   D(63,24,25,30)       -116.1594         estimate D2E/DX2                !
 ! D84   D(63,24,25,37)         -3.8981         estimate D2E/DX2                !
 ! D85   D(25,24,29,28)         54.9502         estimate D2E/DX2                !
 ! D86   D(25,24,29,34)        -65.3984         estimate D2E/DX2                !
 ! D87   D(25,24,29,38)        177.6707         estimate D2E/DX2                !
 ! D88   D(63,24,29,28)       -115.1125         estimate D2E/DX2                !
 ! D89   D(63,24,29,34)        124.5389         estimate D2E/DX2                !
 ! D90   D(63,24,29,38)          7.6081         estimate D2E/DX2                !
 ! D91   D(25,24,63,62)       -116.9368         estimate D2E/DX2                !
 ! D92   D(29,24,63,62)         53.3393         estimate D2E/DX2                !
 ! D93   D(24,25,26,27)         44.9064         estimate D2E/DX2                !
 ! D94   D(24,25,26,31)        -70.7764         estimate D2E/DX2                !
 ! D95   D(24,25,26,36)        167.6104         estimate D2E/DX2                !
 ! D96   D(30,25,26,27)        -76.9117         estimate D2E/DX2                !
 ! D97   D(30,25,26,31)        167.4055         estimate D2E/DX2                !
 ! D98   D(30,25,26,36)         45.7923         estimate D2E/DX2                !
 ! D99   D(37,25,26,27)        166.0951         estimate D2E/DX2                !
 ! D100  D(37,25,26,31)         50.4122         estimate D2E/DX2                !
 ! D101  D(37,25,26,36)        -71.201          estimate D2E/DX2                !
 ! D102  D(24,25,37,49)         84.4814         estimate D2E/DX2                !
 ! D103  D(26,25,37,49)        -40.5403         estimate D2E/DX2                !
 ! D104  D(30,25,37,49)       -159.8862         estimate D2E/DX2                !
 ! D105  D(25,26,27,15)       -170.4876         estimate D2E/DX2                !
 ! D106  D(25,26,27,28)        -49.821          estimate D2E/DX2                !
 ! D107  D(25,26,27,32)         71.3117         estimate D2E/DX2                !
 ! D108  D(31,26,27,15)        -51.9579         estimate D2E/DX2                !
 ! D109  D(31,26,27,28)         68.7087         estimate D2E/DX2                !
 ! D110  D(31,26,27,32)       -170.1586         estimate D2E/DX2                !
 ! D111  D(36,26,27,15)         66.6465         estimate D2E/DX2                !
 ! D112  D(36,26,27,28)       -172.6868         estimate D2E/DX2                !
 ! D113  D(36,26,27,32)        -51.5542         estimate D2E/DX2                !
 ! D114  D(25,26,36,44)         70.3157         estimate D2E/DX2                !
 ! D115  D(27,26,36,44)       -165.4167         estimate D2E/DX2                !
 ! D116  D(31,26,36,44)        -50.5758         estimate D2E/DX2                !
 ! D117  D(15,27,28,29)        173.002          estimate D2E/DX2                !
 ! D118  D(15,27,28,33)        -68.6125         estimate D2E/DX2                !
 ! D119  D(15,27,28,35)         51.3818         estimate D2E/DX2                !
 ! D120  D(26,27,28,29)         55.6624         estimate D2E/DX2                !
 ! D121  D(26,27,28,33)        174.0479         estimate D2E/DX2                !
 ! D122  D(26,27,28,35)        -65.9578         estimate D2E/DX2                !
 ! D123  D(32,27,28,29)        -65.8853         estimate D2E/DX2                !
 ! D124  D(32,27,28,33)         52.5002         estimate D2E/DX2                !
 ! D125  D(32,27,28,35)        172.4945         estimate D2E/DX2                !
 ! D126  D(27,28,29,24)        -56.7314         estimate D2E/DX2                !
 ! D127  D(27,28,29,34)         64.5515         estimate D2E/DX2                !
 ! D128  D(27,28,29,38)       -174.9584         estimate D2E/DX2                !
 ! D129  D(33,28,29,24)       -175.7527         estimate D2E/DX2                !
 ! D130  D(33,28,29,34)        -54.4698         estimate D2E/DX2                !
 ! D131  D(33,28,29,38)         66.0203         estimate D2E/DX2                !
 ! D132  D(35,28,29,24)         64.3779         estimate D2E/DX2                !
 ! D133  D(35,28,29,34)       -174.3392         estimate D2E/DX2                !
 ! D134  D(35,28,29,38)        -53.849          estimate D2E/DX2                !
 ! D135  D(27,28,35,43)        149.2577         estimate D2E/DX2                !
 ! D136  D(27,28,35,82)        -41.5534         estimate D2E/DX2                !
 ! D137  D(29,28,35,43)         28.0356         estimate D2E/DX2                !
 ! D138  D(29,28,35,82)       -162.7755         estimate D2E/DX2                !
 ! D139  D(33,28,35,43)        -90.9805         estimate D2E/DX2                !
 ! D140  D(33,28,35,82)         78.2085         estimate D2E/DX2                !
 ! D141  D(24,29,38,39)         60.0936         estimate D2E/DX2                !
 ! D142  D(24,29,38,40)        178.3991         estimate D2E/DX2                !
 ! D143  D(24,29,38,41)        -62.7652         estimate D2E/DX2                !
 ! D144  D(28,29,38,39)       -178.8946         estimate D2E/DX2                !
 ! D145  D(28,29,38,40)        -60.5891         estimate D2E/DX2                !
 ! D146  D(28,29,38,41)         58.2466         estimate D2E/DX2                !
 ! D147  D(34,29,38,39)        -58.1693         estimate D2E/DX2                !
 ! D148  D(34,29,38,40)         60.1361         estimate D2E/DX2                !
 ! D149  D(34,29,38,41)        178.9718         estimate D2E/DX2                !
 ! D150  D(28,35,81,78)         93.4642         estimate D2E/DX2                !
 ! D151  D(28,35,81,83)       -146.7474         estimate D2E/DX2                !
 ! D152  D(28,35,81,84)        -25.3638         estimate D2E/DX2                !
 ! D153  D(43,35,81,78)        -93.6219         estimate D2E/DX2                !
 ! D154  D(43,35,81,83)         26.1665         estimate D2E/DX2                !
 ! D155  D(43,35,81,84)        147.5501         estimate D2E/DX2                !
 ! D156  D(26,36,56,48)          2.1689         estimate D2E/DX2                !
 ! D157  D(26,36,56,64)       -108.4524         estimate D2E/DX2                !
 ! D158  D(25,37,49,48)        123.9114         estimate D2E/DX2                !
 ! D159  D(25,37,49,50)       -114.7177         estimate D2E/DX2                !
 ! D160  D(25,37,49,55)          5.135          estimate D2E/DX2                !
 ! D161  D(29,38,41,42)         80.1377         estimate D2E/DX2                !
 ! D162  D(39,38,41,42)        -42.1267         estimate D2E/DX2                !
 ! D163  D(40,38,41,42)       -159.6835         estimate D2E/DX2                !
 ! D164  D(38,41,42,62)        -51.9176         estimate D2E/DX2                !
 ! D165  D(41,42,62,59)        -83.4337         estimate D2E/DX2                !
 ! D166  D(41,42,62,63)         22.148          estimate D2E/DX2                !
 ! D167  D(50,45,46,47)         58.6529         estimate D2E/DX2                !
 ! D168  D(50,45,46,51)        176.3838         estimate D2E/DX2                !
 ! D169  D(50,45,46,58)        -62.9237         estimate D2E/DX2                !
 ! D170  D(46,45,50,49)        -25.5924         estimate D2E/DX2                !
 ! D171  D(46,45,50,54)       -143.206          estimate D2E/DX2                !
 ! D172  D(46,45,50,59)        100.5383         estimate D2E/DX2                !
 ! D173  D(45,46,47,48)        -22.2662         estimate D2E/DX2                !
 ! D174  D(45,46,47,52)       -139.0816         estimate D2E/DX2                !
 ! D175  D(45,46,47,57)        101.5173         estimate D2E/DX2                !
 ! D176  D(51,46,47,48)       -137.1453         estimate D2E/DX2                !
 ! D177  D(51,46,47,52)        106.0394         estimate D2E/DX2                !
 ! D178  D(51,46,47,57)        -13.3617         estimate D2E/DX2                !
 ! D179  D(58,46,47,48)        102.8731         estimate D2E/DX2                !
 ! D180  D(58,46,47,52)        -13.9422         estimate D2E/DX2                !
 ! D181  D(58,46,47,57)       -133.3433         estimate D2E/DX2                !
 ! D182  D(45,46,58,66)        -72.1223         estimate D2E/DX2                !
 ! D183  D(47,46,58,66)        162.5714         estimate D2E/DX2                !
 ! D184  D(51,46,58,66)         44.2636         estimate D2E/DX2                !
 ! D185  D(46,47,48,49)        -37.5932         estimate D2E/DX2                !
 ! D186  D(46,47,48,53)         82.0491         estimate D2E/DX2                !
 ! D187  D(46,47,48,56)       -159.1744         estimate D2E/DX2                !
 ! D188  D(52,47,48,49)         79.1953         estimate D2E/DX2                !
 ! D189  D(52,47,48,53)       -161.1624         estimate D2E/DX2                !
 ! D190  D(52,47,48,56)        -42.3859         estimate D2E/DX2                !
 ! D191  D(57,47,48,49)       -157.8616         estimate D2E/DX2                !
 ! D192  D(57,47,48,53)        -38.2193         estimate D2E/DX2                !
 ! D193  D(57,47,48,56)         80.5573         estimate D2E/DX2                !
 ! D194  D(46,47,57,65)        176.5282         estimate D2E/DX2                !
 ! D195  D(48,47,57,65)        -61.6047         estimate D2E/DX2                !
 ! D196  D(52,47,57,65)         59.4014         estimate D2E/DX2                !
 ! D197  D(47,48,49,37)       -166.2063         estimate D2E/DX2                !
 ! D198  D(47,48,49,50)         69.9129         estimate D2E/DX2                !
 ! D199  D(47,48,49,55)        -46.3297         estimate D2E/DX2                !
 ! D200  D(53,48,49,37)         74.6483         estimate D2E/DX2                !
 ! D201  D(53,48,49,50)        -49.2325         estimate D2E/DX2                !
 ! D202  D(53,48,49,55)       -165.4751         estimate D2E/DX2                !
 ! D203  D(56,48,49,37)        -47.4904         estimate D2E/DX2                !
 ! D204  D(56,48,49,50)       -171.3712         estimate D2E/DX2                !
 ! D205  D(56,48,49,55)         72.3862         estimate D2E/DX2                !
 ! D206  D(47,48,56,44)        101.9573         estimate D2E/DX2                !
 ! D207  D(47,48,56,64)       -152.2164         estimate D2E/DX2                !
 ! D208  D(49,48,56,44)        -16.8973         estimate D2E/DX2                !
 ! D209  D(49,48,56,64)         88.929          estimate D2E/DX2                !
 ! D210  D(53,48,56,44)       -139.38           estimate D2E/DX2                !
 ! D211  D(53,48,56,64)        -33.5537         estimate D2E/DX2                !
 ! D212  D(37,49,50,45)       -158.5011         estimate D2E/DX2                !
 ! D213  D(37,49,50,54)        -43.1424         estimate D2E/DX2                !
 ! D214  D(37,49,50,59)         78.7742         estimate D2E/DX2                !
 ! D215  D(48,49,50,45)        -37.3653         estimate D2E/DX2                !
 ! D216  D(48,49,50,54)         77.9934         estimate D2E/DX2                !
 ! D217  D(48,49,50,59)       -160.09           estimate D2E/DX2                !
 ! D218  D(55,49,50,45)         79.8154         estimate D2E/DX2                !
 ! D219  D(55,49,50,54)       -164.8259         estimate D2E/DX2                !
 ! D220  D(55,49,50,59)        -42.9093         estimate D2E/DX2                !
 ! D221  D(45,50,59,60)        -81.5392         estimate D2E/DX2                !
 ! D222  D(45,50,59,61)         36.0364         estimate D2E/DX2                !
 ! D223  D(45,50,59,62)        153.7702         estimate D2E/DX2                !
 ! D224  D(49,50,59,60)         41.8255         estimate D2E/DX2                !
 ! D225  D(49,50,59,61)        159.401          estimate D2E/DX2                !
 ! D226  D(49,50,59,62)        -82.8651         estimate D2E/DX2                !
 ! D227  D(54,50,59,60)        164.1028         estimate D2E/DX2                !
 ! D228  D(54,50,59,61)        -78.3216         estimate D2E/DX2                !
 ! D229  D(54,50,59,62)         39.4122         estimate D2E/DX2                !
 ! D230  D(46,58,66,67)        -71.72           estimate D2E/DX2                !
 ! D231  D(46,58,66,68)         46.3147         estimate D2E/DX2                !
 ! D232  D(46,58,66,69)        166.5245         estimate D2E/DX2                !
 ! D233  D(50,59,62,42)        139.8417         estimate D2E/DX2                !
 ! D234  D(50,59,62,63)         50.8373         estimate D2E/DX2                !
 ! D235  D(60,59,62,42)         15.9614         estimate D2E/DX2                !
 ! D236  D(60,59,62,63)        -73.0429         estimate D2E/DX2                !
 ! D237  D(61,59,62,42)       -101.6865         estimate D2E/DX2                !
 ! D238  D(61,59,62,63)        169.3092         estimate D2E/DX2                !
 ! D239  D(42,62,63,24)        -35.0517         estimate D2E/DX2                !
 ! D240  D(59,62,63,24)         71.8011         estimate D2E/DX2                !
 ! D241  D(58,66,69,70)        -54.3809         estimate D2E/DX2                !
 ! D242  D(58,66,69,71)       -167.324          estimate D2E/DX2                !
 ! D243  D(58,66,69,72)         72.1167         estimate D2E/DX2                !
 ! D244  D(67,66,69,70)       -174.7955         estimate D2E/DX2                !
 ! D245  D(67,66,69,71)         72.2614         estimate D2E/DX2                !
 ! D246  D(67,66,69,72)        -48.2979         estimate D2E/DX2                !
 ! D247  D(68,66,69,70)         65.781          estimate D2E/DX2                !
 ! D248  D(68,66,69,71)        -47.1621         estimate D2E/DX2                !
 ! D249  D(68,66,69,72)       -167.7214         estimate D2E/DX2                !
 ! D250  D(66,69,72,73)         62.1229         estimate D2E/DX2                !
 ! D251  D(66,69,72,74)        174.472          estimate D2E/DX2                !
 ! D252  D(66,69,72,75)        -60.4407         estimate D2E/DX2                !
 ! D253  D(70,69,72,73)       -172.8361         estimate D2E/DX2                !
 ! D254  D(70,69,72,74)        -60.487          estimate D2E/DX2                !
 ! D255  D(70,69,72,75)         64.6003         estimate D2E/DX2                !
 ! D256  D(71,69,72,73)        -58.1694         estimate D2E/DX2                !
 ! D257  D(71,69,72,74)         54.1797         estimate D2E/DX2                !
 ! D258  D(71,69,72,75)        179.267          estimate D2E/DX2                !
 ! D259  D(69,72,75,76)         69.0317         estimate D2E/DX2                !
 ! D260  D(69,72,75,77)       -175.2076         estimate D2E/DX2                !
 ! D261  D(69,72,75,78)        -50.404          estimate D2E/DX2                !
 ! D262  D(73,72,75,76)        -54.3949         estimate D2E/DX2                !
 ! D263  D(73,72,75,77)         61.3657         estimate D2E/DX2                !
 ! D264  D(73,72,75,78)       -173.8306         estimate D2E/DX2                !
 ! D265  D(74,72,75,76)       -167.1076         estimate D2E/DX2                !
 ! D266  D(74,72,75,77)        -51.347          estimate D2E/DX2                !
 ! D267  D(74,72,75,78)         73.4567         estimate D2E/DX2                !
 ! D268  D(72,75,78,79)        179.1273         estimate D2E/DX2                !
 ! D269  D(72,75,78,80)         59.6544         estimate D2E/DX2                !
 ! D270  D(72,75,78,81)        -60.2094         estimate D2E/DX2                !
 ! D271  D(76,75,78,79)         57.6631         estimate D2E/DX2                !
 ! D272  D(76,75,78,80)        -61.8099         estimate D2E/DX2                !
 ! D273  D(76,75,78,81)        178.3264         estimate D2E/DX2                !
 ! D274  D(77,75,78,79)        -56.6089         estimate D2E/DX2                !
 ! D275  D(77,75,78,80)       -176.0819         estimate D2E/DX2                !
 ! D276  D(77,75,78,81)         64.0544         estimate D2E/DX2                !
 ! D277  D(75,78,81,82)        137.7897         estimate D2E/DX2                !
 ! D278  D(75,78,81,83)         17.6724         estimate D2E/DX2                !
 ! D279  D(75,78,81,84)       -105.0238         estimate D2E/DX2                !
 ! D280  D(79,78,81,82)        -98.9767         estimate D2E/DX2                !
 ! D281  D(79,78,81,83)        140.906          estimate D2E/DX2                !
 ! D282  D(79,78,81,84)         18.2099         estimate D2E/DX2                !
 ! D283  D(80,78,81,82)         16.4698         estimate D2E/DX2                !
 ! D284  D(80,78,81,83)       -103.6475         estimate D2E/DX2                !
 ! D285  D(80,78,81,84)        133.6563         estimate D2E/DX2                !
 --------------------------------------------------------------------------------
 Trust Radius=3.00D-01 FncErr=1.00D-07 GrdErr=1.00D-06
 Number of steps in this run=    504 maximum allowed number of steps=    504.
 GradGradGradGradGradGradGradGradGradGradGradGradGradGradGradGradGradGrad

 Leave Link  103 at Wed Apr  6 15:56:03 2016, MaxMem= 10737418240 cpu:         0.9
 (Enter /share/apps//g09/l202.exe)
 Stoichiometry    C23H44NO16(1+)
 Framework group  C1[X(C23H44NO16)]
 Deg. of freedom   246
 Full point group                 C1      NOp   1
 Largest Abelian subgroup         C1      NOp   1
 Largest concise Abelian subgroup C1      NOp   1
                         Standard orientation:                         
 ---------------------------------------------------------------------
 Center     Atomic      Atomic             Coordinates (Angstroms)
 Number     Number       Type             X           Y           Z
 ---------------------------------------------------------------------
      1          8           0       -4.090637   -1.081364   -0.066934
      2          6           0       -3.305272   -0.421894   -1.036716
      3          6           0       -3.858813    0.985037   -1.273546
      4          6           0       -3.896677    1.796436    0.024263
      5          6           0       -4.731536    1.046414    1.065574
      6          6           0       -4.199207   -0.388055    1.213940
      7          1           0       -3.398049   -1.045013   -1.943704
      8          1           0       -4.890285    0.855500   -1.639533
      9          1           0       -2.871816    1.936305    0.403443
     10          1           0       -4.608374    1.544391    2.048528
     11          1           0       -3.197537   -0.334262    1.676973
     12          8           0       -6.085721    1.148731    0.627589
     13          8           0       -4.412363    3.097870   -0.260174
     14          8           0       -3.100165    1.698973   -2.276147
     15          8           0       -1.937133   -0.284875   -0.652035
     16          6           0       -5.077205   -1.278020    2.086813
     17          1           0       -4.616591   -2.275027    2.176313
     18          1           0       -5.145806   -0.843825    3.094085
     19          8           0       -6.428999   -1.383171    1.606416
     20          1           0       -6.410341   -1.927527    0.797710
     21          1           0       -6.567288    0.364939    0.979267
     22          1           0       -5.387895    3.018254   -0.201529
     23          1           0       -3.481384    2.602902   -2.249384
     24          8           0        1.270615   -2.913025   -0.203822
     25          6           0        0.759303   -2.323875    1.001979
     26          6           0       -0.232491   -1.168932    0.731082
     27          6           0       -1.245832   -1.513920   -0.358536
     28          6           0       -0.540612   -2.067150   -1.605655
     29          6           0        0.325710   -3.275343   -1.221649
     30          1           0        0.250371   -3.097927    1.604751
     31          1           0        0.316566   -0.302973    0.333930
     32          1           0       -1.965972   -2.261736    0.016821
     33          1           0       -1.302162   -2.406938   -2.332572
     34          1           0       -0.335625   -4.088656   -0.861693
     35          8           0        0.267903   -1.036112   -2.202058
     36          8           0       -0.912511   -0.821821    1.925704
     37          8           0        1.893232   -1.967040    1.761836
     38          6           0        1.162491   -3.813878   -2.390629
     39          1           0        1.741944   -4.687113   -2.053963
     40          1           0        0.494493   -4.139151   -3.201074
     41          8           0        2.036788   -2.810384   -2.936405
     42          1           0        2.834252   -2.753675   -2.340260
     43          1           0        1.045297   -1.509179   -2.631343
     44          1           0       -0.250373   -0.385521    2.512657
     45          8           0        4.706628    0.378758    1.165554
     46          6           0        3.961233    1.583371    1.291347
     47          6           0        2.931655    1.550771    2.445514
     48          6           0        2.581632    0.106977    2.798667
     49          6           0        2.530922   -0.701123    1.495477
     50          6           0        3.959794   -0.845881    0.936432
     51          1           0        4.725446    2.342869    1.522053
     52          1           0        2.007261    2.037102    2.079394
     53          1           0        3.357775   -0.301930    3.466265
     54          1           0        4.492788   -1.628349    1.502604
     55          1           0        1.952706   -0.132759    0.755777
     56          8           0        1.311439    0.117028    3.488383
     57          8           0        3.490356    2.274741    3.531911
     58          8           0        3.239605    1.920034    0.110916
     59          6           0        4.029269   -1.193644   -0.562090
     60          1           0        3.275688   -0.598071   -1.112269
     61          1           0        5.026578   -0.910253   -0.924125
     62          8           0        3.879445   -2.591210   -0.842636
     63          1           0        3.069776   -2.887745   -0.369793
     64          1           0        1.299670   -0.657794    4.078530
     65          1           0        2.827276    2.307791    4.244546
     66          6           0        4.063188    2.382626   -0.981996
     67          1           0        4.441530    3.394241   -0.744289
     68          1           0        4.929961    1.713065   -1.099858
     69          6           0        3.242120    2.388949   -2.266317
     70          1           0        2.812936    1.381218   -2.405207
     71          1           0        3.950836    2.520122   -3.099032
     72          6           0        2.160062    3.476560   -2.405940
     73          1           0        2.642408    4.466709   -2.390456
     74          1           0        1.737016    3.398176   -3.424355
     75          6           0        1.025555    3.502854   -1.362713
     76          1           0        1.429794    3.809729   -0.387088
     77          1           0        0.292112    4.275483   -1.646738
     78          6           0        0.320554    2.173904   -1.120526
     79          1           0       -0.460917    2.270097   -0.356775
     80          1           0        1.046062    1.430625   -0.771590
     81          7           0       -0.342780    1.601127   -2.349439
     82          1           0       -0.161941    0.558434   -2.392357
     83          1           0        0.021226    2.033389   -3.205929
     84          1           0       -1.392877    1.716008   -2.316092
 ---------------------------------------------------------------------
 Rotational constants (GHZ):      0.1228931      0.0628196      0.0593784
 Leave Link  202 at Wed Apr  6 15:56:03 2016, MaxMem= 10737418240 cpu:         3.7
 (Enter /share/apps//g09/l301.exe)
 Standard basis: 6-311+G(d,p) (5D, 7F)
 Ernie: Thresh=  0.10000D-02 Tol=  0.10000D-05 Strict=F.
 There are  1184 symmetry adapted cartesian basis functions of A   symmetry.
 There are  1144 symmetry adapted basis functions of A   symmetry.
  1144 basis functions,  1792 primitive gaussians,  1184 cartesian basis functions
   158 alpha electrons      158 beta electrons
       nuclear repulsion energy      5907.9670480962 Hartrees.
 IExCor= 1009 DFT=T Ex+Corr=PBE1PBE ExCW=0 ScaHFX=  0.250000
 ScaDFX=  0.750000  0.750000  1.000000  1.000000 ScalE2=  1.000000  1.000000
 IRadAn=      0 IRanWt=     -1 IRanGd=            0 ICorTp=0 IEmpDi=131
 NAtoms=   84 NActive=   84 NUniq=   84 SFac= 1.00D+00 NAtFMM=   60 NAOKFM=T Big=T
 Integral buffers will be    131072 words long.
 Raffenetti 2 integral format.
 Two-electron integral symmetry is turned on.
 R6Disp:  Grimme-D3 Dispersion energy=       -0.0861538907 Hartrees.
 Nuclear repulsion after empirical dispersion term =     5907.8808942055 Hartrees.
 Leave Link  301 at Wed Apr  6 15:56:03 2016, MaxMem= 10737418240 cpu:         1.3
 (Enter /share/apps//g09/l302.exe)
 NPDir=0 NMtPBC=     1 NCelOv=     1 NCel=       1 NClECP=     1 NCelD=      1
         NCelK=      1 NCelE2=     1 NClLst=     1 CellRange=     0.0.
 One-electron integrals computed using PRISM.
 NBasis=  1144 RedAO= T EigKep=  1.15D-06  NBF=  1144
 NBsUse=  1143 1.00D-06 EigRej=  8.00D-07 NBFU=  1143
 Precomputing XC quadrature grid using
 IXCGrd= 4 IRadAn=           0 IRanWt=          -1 IRanGd=           0 AccXCQ= 0.00D+00.
 Generated NRdTot=       0 NPtTot=           0 NUsed=           0 NTot=          32
 NSgBfM=  1092  1092  1097  1103  1103 MxSgAt=    84 MxSgA2=    84.
 Leave Link  302 at Wed Apr  6 15:56:06 2016, MaxMem= 10737418240 cpu:        47.9
 (Enter /share/apps//g09/l303.exe)
 DipDrv:  MaxL=1.
 Leave Link  303 at Wed Apr  6 15:56:08 2016, MaxMem= 10737418240 cpu:        24.7
 (Enter /share/apps//g09/l401.exe)
 ExpMin= 4.38D-02 ExpMax= 8.59D+03 ExpMxC= 1.30D+03 IAcc=2 IRadAn=         4 AccDes= 0.00D+00
 Harris functional with IExCor= 1009 and IRadAn=       4 diagonalized for initial guess.
 HarFok:  IExCor= 1009 AccDes= 0.00D+00 IRadAn=         4 IDoV= 1 UseB2=F ITyADJ=14
 ICtDFT=  3500011 ScaDFX=  1.000000  1.000000  1.000000  1.000000
 FoFCou: FMM=F IPFlag=           0 FMFlag=      100000 FMFlg1=        2001
         NFxFlg=           0 DoJE=T BraDBF=F KetDBF=T FulRan=T
         wScrn=  0.000000 ICntrl=     500 IOpCl=  0 I1Cent=   200000004 NGrid=           0
         NMat0=    1 NMatS0=      1 NMatT0=    0 NMatD0=    1 NMtDS0=    0 NMtDT0=    0
 Petite list used in FoFCou.
 Harris En= -2159.70056873453    
 JPrj=0 DoOrth=F DoCkMO=F.
 Leave Link  401 at Wed Apr  6 15:56:14 2016, MaxMem= 10737418240 cpu:       116.9
 (Enter /share/apps//g09/l502.exe)
 Closed shell SCF:
 Using DIIS extrapolation, IDIIS=  1040.
 Integral symmetry usage will be decided dynamically.
 IVT=     4256630 IEndB=     4256630 NGot= 10737418240 MDV= 10734581291
 LenX= 10734581291 LenY= 10733178251
 Requested convergence on RMS density matrix=1.00D-08 within 128 cycles.
 Requested convergence on MAX density matrix=1.00D-06.
 Requested convergence on             energy=1.00D-06.
 No special actions if energy rises.
 Fock matrices will be formed incrementally for  20 cycles.

 Cycle   1  Pass 1  IDiag  1:
 FoFJK:  IHMeth= 1 ICntrl=       0 DoSepK=F KAlg= 0 I1Cent=   0 FoldK=F
 IRaf= 790000000 NMat=   1 IRICut=       1 DoRegI=T DoRafI=F ISym2E= 0.
 FoFCou: FMM=T IPFlag=           0 FMFlag=      100000 FMFlg1=        2001
         NFxFlg=           0 DoJE=F BraDBF=F KetDBF=F FulRan=T
         wScrn=  0.000000 ICntrl=       0 IOpCl=  0 I1Cent=           0 NGrid=           0
         NMat0=    1 NMatS0=      1 NMatT0=    0 NMatD0=    1 NMtDS0=    0 NMtDT0=    0
 Symmetry not used in FoFCou.
 FMM levels:  10  Number of levels for PrismC:   9
 E= -2158.69551736977    
 DIIS: error= 1.24D-02 at cycle   1 NSaved=   1.
 NSaved= 1 IEnMin= 1 EnMin= -2158.69551736977     IErMin= 1 ErrMin= 1.24D-02
 ErrMax= 1.24D-02  0.00D+00 EMaxC= 1.00D-01 BMatC= 1.01D+00 BMatP= 1.01D+00
 IDIUse=3 WtCom= 8.76D-01 WtEn= 1.24D-01
 Coeff-Com:  0.100D+01
 Coeff-En:   0.100D+01
 Coeff:      0.100D+01
 Gap=     0.318 Goal=   None    Shift=    0.000
 GapD=    0.318 DampG=1.000 DampE=0.500 DampFc=0.5000 IDamp=-1.
 Damping current iteration by 5.00D-01
 RMSDP=1.09D-02 MaxDP=1.91D+00              OVMax= 1.37D-01

 Cycle   2  Pass 1  IDiag  1:
 RMSU=  5.44D-03    CP:  9.96D-01
 E= -2158.97704178957     Delta-E=       -0.281524419805 Rises=F Damp=T
 DIIS: error= 3.19D-03 at cycle   2 NSaved=   2.
 NSaved= 2 IEnMin= 2 EnMin= -2158.97704178957     IErMin= 2 ErrMin= 3.19D-03
 ErrMax= 3.19D-03  0.00D+00 EMaxC= 1.00D-01 BMatC= 7.86D-02 BMatP= 1.01D+00
 IDIUse=3 WtCom= 9.68D-01 WtEn= 3.19D-02
 Coeff-Com:  0.518D-01 0.948D+00
 Coeff-En:   0.143D+00 0.857D+00
 Coeff:      0.547D-01 0.945D+00
 Gap=     0.290 Goal=   None    Shift=    0.000
 RMSDP=4.26D-03 MaxDP=1.43D+00 DE=-2.82D-01 OVMax= 8.35D-02

 Cycle   3  Pass 1  IDiag  1:
 RMSU=  2.89D-03    CP:  9.23D-01  8.93D-01
 E= -2159.33501708370     Delta-E=       -0.357975294128 Rises=F Damp=F
 DIIS: error= 3.02D-03 at cycle   3 NSaved=   3.
 NSaved= 3 IEnMin= 3 EnMin= -2159.33501708370     IErMin= 3 ErrMin= 3.02D-03
 ErrMax= 3.02D-03  0.00D+00 EMaxC= 1.00D-01 BMatC= 4.35D-02 BMatP= 7.86D-02
 IDIUse=3 WtCom= 9.70D-01 WtEn= 3.02D-02
 Coeff-Com: -0.708D-01 0.411D+00 0.660D+00
 Coeff-En:   0.000D+00 0.000D+00 0.100D+01
 Coeff:     -0.687D-01 0.398D+00 0.671D+00
 Gap=     0.277 Goal=   None    Shift=    0.000
 RMSDP=1.28D-03 MaxDP=3.61D-01 DE=-3.58D-01 OVMax= 1.61D-02

 Cycle   4  Pass 1  IDiag  1:
 RMSU=  1.14D-03    CP:  9.28D-01  9.33D-01  8.30D-01
 E= -2159.36229693588     Delta-E=       -0.027279852179 Rises=F Damp=F
 DIIS: error= 9.03D-04 at cycle   4 NSaved=   4.
 NSaved= 4 IEnMin= 4 EnMin= -2159.36229693588     IErMin= 4 ErrMin= 9.03D-04
 ErrMax= 9.03D-04  0.00D+00 EMaxC= 1.00D-01 BMatC= 5.62D-03 BMatP= 4.35D-02
 IDIUse=3 WtCom= 9.91D-01 WtEn= 9.03D-03
 Coeff-Com: -0.369D-01 0.127D+00 0.340D+00 0.570D+00
 Coeff-En:   0.000D+00 0.000D+00 0.689D-01 0.931D+00
 Coeff:     -0.365D-01 0.126D+00 0.338D+00 0.573D+00
 Gap=     0.269 Goal=   None    Shift=    0.000
 RMSDP=9.57D-04 MaxDP=2.96D-01 DE=-2.73D-02 OVMax= 5.71D-03

 Cycle   5  Pass 1  IDiag  1:
 RMSU=  3.90D-04    CP:  9.09D-01  9.27D-01  8.14D-01  7.02D-01
 E= -2159.36708596603     Delta-E=       -0.004789030150 Rises=F Damp=F
 DIIS: error= 2.44D-04 at cycle   5 NSaved=   5.
 NSaved= 5 IEnMin= 5 EnMin= -2159.36708596603     IErMin= 5 ErrMin= 2.44D-04
 ErrMax= 2.44D-04  0.00D+00 EMaxC= 1.00D-01 BMatC= 2.64D-04 BMatP= 5.62D-03
 IDIUse=3 WtCom= 9.98D-01 WtEn= 2.44D-03
 Coeff-Com: -0.113D-01 0.256D-01 0.994D-01 0.250D+00 0.636D+00
 Coeff-En:   0.000D+00 0.000D+00 0.000D+00 0.000D+00 0.100D+01
 Coeff:     -0.113D-01 0.255D-01 0.992D-01 0.249D+00 0.637D+00
 Gap=     0.268 Goal=   None    Shift=    0.000
 RMSDP=2.08D-04 MaxDP=4.93D-02 DE=-4.79D-03 OVMax= 1.51D-03

 Cycle   6  Pass 1  IDiag  1:
 RMSU=  8.44D-05    CP:  9.12D-01  9.37D-01  8.44D-01  7.08D-01  7.42D-01
 E= -2159.36728043972     Delta-E=       -0.000194473691 Rises=F Damp=F
 DIIS: error= 8.08D-05 at cycle   6 NSaved=   6.
 NSaved= 6 IEnMin= 6 EnMin= -2159.36728043972     IErMin= 6 ErrMin= 8.08D-05
 ErrMax= 8.08D-05  0.00D+00 EMaxC= 1.00D-01 BMatC= 2.46D-05 BMatP= 2.64D-04
 IDIUse=1 WtCom= 1.00D+00 WtEn= 0.00D+00
 Coeff-Com: -0.418D-02 0.749D-02 0.363D-01 0.105D+00 0.335D+00 0.520D+00
 Coeff:     -0.418D-02 0.749D-02 0.363D-01 0.105D+00 0.335D+00 0.520D+00
 Gap=     0.268 Goal=   None    Shift=    0.000
 RMSDP=4.64D-05 MaxDP=9.27D-03 DE=-1.94D-04 OVMax= 4.18D-04

 Cycle   7  Pass 1  IDiag  1:
 RMSU=  2.23D-05    CP:  9.13D-01  9.35D-01  8.42D-01  7.16D-01  7.36D-01
                    CP:  6.06D-01
 E= -2159.36729845871     Delta-E=       -0.000018018986 Rises=F Damp=F
 DIIS: error= 2.39D-05 at cycle   7 NSaved=   7.
 NSaved= 7 IEnMin= 7 EnMin= -2159.36729845871     IErMin= 7 ErrMin= 2.39D-05
 ErrMax= 2.39D-05  0.00D+00 EMaxC= 1.00D-01 BMatC= 1.71D-06 BMatP= 2.46D-05
 IDIUse=1 WtCom= 1.00D+00 WtEn= 0.00D+00
 Coeff-Com: -0.111D-02 0.157D-02 0.997D-02 0.325D-01 0.115D+00 0.261D+00
 Coeff-Com:  0.581D+00
[...]
 00001490,0.00001158,-0.00000091,0.00004423,-0.00000609,0.00001557,0.00
 000501,-0.00003785,0.00004684,0.00003614,-0.00000876,0.00002211,-0.000
 02348,0.00005129,0.00086232,0.00009400,0.00064878,0.00008825,-0.000109
 52,0.00000019,-0.00007131,-0.00016602,0.00002924,0.00002602,-0.0000210
 1,-0.00005383,-0.00000368,-0.00000464,0.00001732,0.00000194,-0.0000075
 0,-0.00001167,-0.00008634,-0.00005392,0.00023838,0.00004554,0.00009009
 ,-0.00003697,0.00015952,0.00005474,-0.00040431,-0.00000541,0.00008933,
 -0.00002309,-0.00012591,-0.00003150,-0.00009068,0.00009550,-0.00013232
 ,0.00013999,0.00001473,0.00006704,-0.00004208,0.00003398,0.00002033,0.
 00000123,0.00003502,0.00009115,-0.00001310,0.00008662,0.00005206,0.000
 03140,0.00000315,-0.00001817,-0.00000658,0.00000658,0.00000571,0.00001
 168,0.00000232,-0.00001007,0.00000096,-0.00001323,-0.00000519,0.000000
 28,0.00000976,0.00001923,-0.00001288,-0.00005319,-0.00007649,0.0000191
 2,-0.00003973,-0.00004039,-0.00000389,-0.00041946,0.00004767,0.0000268
 7,0.00003126,0.00005060,0.00004033,0.00003964,0.00002353,-0.00000825,-
 0.00000486,-0.00002156,0.00003097,-0.00008728,-0.00011835,-0.00002150,
 0.00005171,0.00006625,-0.00005312,-0.00000574,0.00002050,0.00000200,0.
 00000399,0.00001454,0.00000539,0.00046563,-0.00020129,-0.00034096,-0.0
 0002496,-0.00004967,0.00003304,-0.00008632,0.00011493,-0.00003348,-0.0
 0015753,0.00060288,0.00051241,0.00001956,-0.00013326,-0.00019901,-0.00
 007334,-0.00011461,0.00003037,0.00299698,-0.00166079,0.00081318,-0.000
 32331,0.00100680,-0.00053663,-0.00224149,0.00075278,-0.00021437,0.0012
 9740,-0.00243416,-0.00054321,-0.00068855,-0.00022765,0.00000879,0.0001
 2858,0.00024994,0.00004152,-0.00154800,0.00505332,0.00142165,0.0006505
 2,-0.00007588,-0.00108598,-0.00023017,-0.00026719,0.00020953,-0.408212
 11,0.06641440,-0.01181582,-0.01107278,0.00178159,0.00092413,0.43226660
 ,-0.00012698,-0.00012756,0.00006173,0.00015563,0.00050903,-0.00022769,
 -0.00003365,-0.00002091,-0.00017042,0.00006353,0.00001551,0.00000508,-
 0.00000526,-0.00000016,-0.00002280,0.00001812,-0.00001118,-0.00002952,
 -0.00002045,-0.00006087,-0.00001332,-0.00003449,-0.00000089,0.00001797
 ,-0.00001284,-0.00002746,0.00000486,0.00001119,-0.00000196,0.00000279,
 0.00000668,-0.00000198,-0.00000329,0.00001188,-0.00001778,0.00001264,0
 .00001597,-0.00002637,0.00001167,0.00025095,-0.00109513,0.00122939,-0.
 00078566,-0.00017180,-0.00005492,0.00000629,0.00001389,-0.00000454,0.0
 0000303,0.00000128,0.00000308,-0.00000177,-0.00000100,-0.00000056,-0.0
 0000193,-0.00001862,0.00001226,-0.00000139,0.00000945,-0.00000303,-0.0
 0000696,0.00000527,-0.00000659,-0.00001341,0.00001311,0.00000062,-0.00
 025818,-0.00004359,0.00010429,-0.00000100,-0.00010133,0.00000997,0.000
 02229,0.00012175,-0.00000893,-0.00001025,-0.00003503,-0.00002200,0.000
 01664,-0.00011839,0.00025783,-0.00001496,0.00000113,0.00004432,-0.0000
 0015,0.00004265,-0.00001936,-0.00000457,-0.00001189,0.00000903,-0.0000
 4536,-0.00002773,-0.00008331,-0.00004043,0.00001490,-0.00007758,-0.000
 05602,-0.00001691,-0.00001432,-0.00000607,-0.00000361,0.00000157,0.000
 41167,-0.00034291,-0.00076797,0.00000212,-0.00000676,0.00004901,-0.000
 07434,-0.00010762,0.00000103,0.00001073,0.00004168,0.00000422,0.000003
 89,-0.00000131,0.00000027,-0.00000967,-0.00001259,-0.00000643,0.000000
 68,-0.00010246,-0.00002738,0.00001926,0.00010168,-0.00000172,-0.000197
 12,0.00013063,-0.00009968,-0.00002218,0.00005371,-0.00004320,-0.000186
 79,0.00000326,-0.00018918,0.00024801,-0.00030182,0.00027922,0.00002733
 ,0.00005699,-0.00009821,0.00006667,0.00002931,-0.00000994,0.00001992,0
 .00008472,-0.00000446,0.00012701,0.00006077,0.00004446,-0.00000492,-0.
 00000907,-0.00000850,0.00002904,0.00001769,0.00002312,-0.00000113,-0.0
 0000786,0.00000170,-0.00002687,-0.00000004,-0.00000228,0.00002992,0.00
 000809,-0.00002859,-0.00008576,-0.00005141,0.00003092,-0.00007438,-0.0
 0000749,0.00001206,-0.00056415,0.00021933,-0.00014104,0.00007605,0.000
 02832,0.00015050,0.00002836,0.00004640,-0.00002834,-0.00000956,-0.0000
 0502,0.00003067,-0.00010806,-0.00014120,-0.00010453,0.00004696,0.00004
 478,-0.00002492,0.00000393,0.00000180,0.00000573,0.00001221,0.00000515
 ,0.00000355,0.00056146,-0.00019180,-0.00016931,-0.00008440,-0.00000254
 ,0.00002133,-0.00010168,0.00010614,-0.00005530,-0.00012516,0.00013261,
 0.00052480,0.00003308,0.00009977,0.00017241,0.00006160,0.00010055,-0.0
 0008039,0.00063045,-0.00113075,0.00077429,-0.00017805,0.00094369,-0.00
 029518,-0.00218337,0.00069285,-0.00008822,0.00084125,0.00170140,-0.000
 81742,0.00025094,0.00068173,0.00028507,-0.00030056,-0.00025047,-0.0005
 3101,0.03542751,-0.00652588,0.00029259,0.00060786,-0.00559413,0.000804
 93,0.00076337,-0.00155488,-0.00024690,0.06813355,-0.06889032,0.0037190
 9,-0.01159862,0.00249800,0.00336547,-0.07420614,0.07234246,-0.00005726
 ,-0.00002955,-0.00002585,-0.00007357,0.00009576,-0.00001109,0.00005084
 ,-0.00008580,0.00007043,-0.00002422,-0.00005410,0.00011338,-0.00000759
 ,0.00001605,0.00000522,0.00000020,-0.00001726,0.00001477,0.00000097,-0
 .00001550,-0.00000243,0.00001698,0.00001243,0.00000423,-0.00002793,0.0
 0002149,0.00002110,-0.00000527,0.00000103,0.00000243,-0.00000227,-0.00
 000219,0.00000529,-0.00001148,0.00000455,-0.00002422,-0.00006852,0.000
 01479,-0.00008740,-0.00033195,0.00129301,-0.00162694,-0.00034455,-0.00
 017069,0.00017157,0.00000426,-0.00000646,0.00000399,-0.00000504,-0.000
 00203,-0.00000508,0.00000059,-0.00000062,0.00000228,-0.00001117,0.0000
 0626,-0.00001594,0.00000567,0.00000158,0.00000698,0.00001216,0.0000059
 3,0.00000858,0.00001597,0.00000116,-0.00000172,0.00053061,0.00026310,-
 0.00012447,0.00007192,-0.00005431,-0.00005365,-0.00008183,0.00004993,0
 .00008304,0.00003411,0.00002737,-0.00001081,0.00022607,0.00001497,0.00
 019846,-0.00026809,-0.00015425,0.00010100,0.00004125,0.00004752,-0.000
 01770,0.00000871,0.00000024,-0.00001079,0.00003408,-0.00004683,0.00001
 121,-0.00000836,-0.00001267,-0.00001408,-0.00000359,0.00002582,0.00000
 605,0.00001665,-0.00000734,0.00000809,0.00137240,-0.00039267,-0.002324
 06,0.00000843,-0.00000083,-0.00002409,0.00002063,-0.00001262,-0.000028
 13,-0.00011688,-0.00003671,0.00001944,0.00002804,-0.00000114,0.0000034
 9,-0.00000294,0.00000122,-0.00000887,0.00019473,0.00004028,-0.00004768
 ,-0.00003698,0.00003532,-0.00004779,-0.00074230,-0.00011863,-0.0003642
 2,-0.00000948,-0.00000454,-0.00000025,0.00001576,-0.00003732,-0.000046
 82,-0.00000805,0.00004928,0.00001016,-0.00000645,0.00001205,0.00004000
 ,-0.00002130,0.00001228,0.00000608,-0.00000903,-0.00001439,0.00000533,
 -0.00001716,0.00003296,0.00005066,-0.00000527,0.00000100,0.00000116,0.
 00001229,0.00000813,-0.00000139,-0.00000042,0.00000040,-0.00000050,0.0
 0001573,-0.00001187,-0.00000777,-0.00000213,-0.00000764,0.00001395,0.0
 0003693,-0.00000703,-0.00002320,0.00001197,-0.00003596,-0.00003393,0.0
 0014515,-0.00005934,-0.00009831,-0.00003730,0.00003972,-0.00009534,-0.
 00001111,-0.00001102,0.00004192,0.00000489,0.00000265,-0.00000316,0.00
 006669,-0.00003409,0.00003707,-0.00003810,0.00000500,0.00000610,-0.000
 00822,0.00000502,0.00000378,0.00000214,0.00000478,0.00001238,-0.000353
 21,-0.00001993,-0.00025739,0.00007781,-0.00014391,0.00003492,-0.000011
 16,0.00004860,-0.00002097,0.00040888,0.00054642,0.00027617,-0.00032515
 ,-0.00002512,-0.00053516,-0.00000584,-0.00003012,-0.00009089,-0.000579
 64,-0.00014179,0.00015721,0.00006091,-0.00012088,-0.00015781,-0.000117
 61,0.00004323,0.00072614,0.00024298,-0.00043325,0.00162134,-0.00001339
 ,0.00019627,-0.00028841,0.00020223,-0.00015412,-0.00074306,0.00549900,
 -0.00100993,-0.00235170,0.00032915,-0.00212273,-0.00006048,-0.00052771
 ,0.00078863,-0.00010766,-0.01288343,0.00421275,-0.05710678,-0.03187208
 ,0.00972671,0.00669010,0.01352763,-0.00169512,0.05026107,0.00148289,-0
 .00038371,0.00079183,-0.00187858,-0.00063750,-0.00177268,-0.00813891,-
 0.00087668,0.00007174,0.00004760,0.00049218,0.00091183,-0.00042532,-0.
 00028957,-0.00034663,-0.00032243,0.00057551,-0.00000907,-0.00000835,0.
 00002498,-0.00000926,0.00138166,0.00021505,0.00009466,-0.00023584,0.00
 032390,0.00009341,0.00029643,-0.00004978,-0.00006670,0.00003133,0.0000
 2522,-0.00011228,0.00077980,0.00012043,-0.00014162,0.00079247,-0.00057
 485,-0.00095507,-0.00177116,0.00333477,-0.00767924,0.00023259,-0.00137
 380,0.00332478,-0.00021242,-0.00010366,-0.00004513,0.00004583,0.000049
 41,0.00006559,0.00003193,0.00001668,-0.00004170,0.00034491,0.00010399,
 0.00015274,-0.00018611,-0.00009794,-0.00006476,-0.00028444,-0.00011028
 ,-0.00008301,-0.00021257,0.00000950,0.00031346,0.00381843,0.00305933,0
 .00079597,-0.00021153,-0.00017277,0.00018670,0.00018481,0.00014626,-0.
 00042779,0.00061387,0.00017315,0.00016894,0.00003614,0.00090110,-0.002
 43102,0.00194342,0.00041684,-0.00032212,-0.00056414,0.00009102,0.00004
 137,-0.00006312,-0.00001732,-0.00003483,0.00003152,-0.00003097,-0.0000
 0452,0.00014968,-0.00000774,0.00041071,-0.00017958,-0.00022167,-0.0001
 2372,-0.00011315,0.00004263,-0.00017320,-0.00330456,-0.00124045,-0.002
 37992,-0.00035757,-0.00030259,0.00032853,-0.00039541,-0.00046615,0.000
 08298,0.00041292,0.00007835,0.00012303,-0.00007221,0.00000984,0.000024
 95,-0.00000051,-0.00002495,0.00000260,-0.00028548,-0.00017479,-0.00031
 950,0.00002718,0.00006212,0.00003222,-0.00009697,-0.00000759,0.0003763
 3,0.00011802,0.00025299,-0.00002658,-0.00028001,0.00002845,-0.00038488
 ,0.00060064,-0.00057678,0.00053782,0.00010006,-0.00020021,0.00003394,0
 .00027883,0.00006125,-0.00013534,0.00032225,0.00006099,0.00028842,0.00
 016204,0.00008386,0.00002494,-0.00003802,0.00007003,-0.00004140,0.0000
 7574,0.00000238,-0.00007157,-0.00004731,0.00000619,0.00001166,-0.00003
 140,0.00001770,-0.00002448,0.00011513,0.00002955,0.00003801,-0.0003477
 3,-0.00019963,0.00013254,-0.00016744,0.00019127,-0.00000317,-0.0003244
 9,0.00091106,-0.00049770,0.00017537,-0.00000634,0.00034074,-0.00001505
 ,0.00007730,-0.00006085,-0.00002776,0.00000833,0.00001118,-0.00024248,
 -0.00016511,-0.00019954,0.00015763,0.00008273,-0.00004963,0.00005514,0
 .00004229,-0.00002098,0.00005842,-0.00001922,0.00000003,-0.00002638,-0
 .00014539,0.00007203,-0.00000763,0.00003550,0.00003346,0.00000254,0.00
 003614,-0.00005142,-0.00003422,-0.00006372,-0.00006059,-0.00005351,0.0
 0003408,0.00019239,0.00007107,0.00008485,-0.00005318,-0.00039641,-0.00
 015070,0.00003021,0.00013015,0.00005693,-0.00003250,-0.00011415,-0.000
 08874,-0.00002428,-0.00122651,0.00052955,-0.00000481,0.00038722,0.0003
 0598,0.00007963,0.00019223,-0.00031169,-0.00019777,0.00437856,0.000431
 76,-0.01044631,0.00043200,0.00216305,0.00042837,-0.00050174,0.00379562
 ,0.00039197,-0.12063907,-0.06212798,0.08954476,0.01103379,0.01032662,-
 0.00466050,-0.01365890,-0.01743238,0.02573962,0.12596832,0.00086111,-0
 .00083194,0.00101396,-0.00096615,0.00166063,-0.00271328,-0.00748592,0.
 00143125,-0.00362361,0.00084103,0.00182390,0.00011394,-0.00008623,-0.0
 0052811,-0.00042628,-0.00025278,0.00054188,-0.00011586,-0.00008693,-0.
 00031246,-0.00003107,0.00177697,0.00004637,0.00020243,0.00016026,-0.00
 038461,-0.00002964,0.00035612,-0.00003954,-0.00005199,0.00007956,0.000
 00389,-0.00007558,0.00050111,-0.00014505,-0.00004334,0.00080466,-0.000
 92080,-0.00044874,0.00538062,-0.00605464,-0.00103821,-0.00054418,-0.00
 195373,0.00191848,-0.00010786,-0.00004898,-0.00006096,0.00004303,0.000
 03982,0.00005911,0.00002444,0.00001123,-0.00002993,0.00022611,-0.00000
 224,0.00016674,-0.00014444,-0.00004605,-0.00006012,-0.00023844,-0.0000
 9433,-0.00005785,-0.00018626,0.00002704,0.00028152,0.00308027,0.002692
 78,0.00056524,-0.00013907,-0.00014171,0.00007189,0.00007244,0.00000891
 ,-0.00014077,0.00055204,0.00009556,0.00013031,-0.00013997,0.00005616,-
 0.00093278,0.00149366,0.00061574,-0.00034428,-0.00039383,-0.00002132,0
 .00002500,-0.00004462,-0.00000367,-0.00005095,-0.00006005,-0.00013732,
 0.00008175,-0.00002536,0.00004167,0.00000367,-0.00021032,-0.00023070,-
 0.00014814,-0.00009760,0.00004486,-0.00014150,-0.00279512,-0.00129558,
 -0.00214475,-0.00038545,-0.00014498,0.00016322,-0.00021867,-0.00023095
 ,0.00002080,0.00029512,0.00014298,0.00010620,-0.00004882,0.00000214,-0
 .00000114,-0.00000545,-0.00002711,0.00000254,-0.00020015,-0.00016520,-
 0.00037712,0.00001714,0.00003567,0.00005415,-0.00008907,0.,0.00046812,
 0.00011518,0.00009313,0.00002802,-0.00019073,0.00003808,-0.00027332,0.
 00031395,-0.00043069,0.00038376,0.00007331,-0.00018180,0.00002749,0.00
 018903,0.00002931,-0.00007054,0.00019078,0.00004602,0.00016388,0.00011
 118,0.00004804,0.00001439,-0.00000459,0.00001914,-0.00001790,0.0000435
 9,0.00001163,-0.00005137,-0.00003052,0.00000353,-0.00000165,-0.0000291
 1,0.00001608,-0.00001533,0.00003475,0.00001458,0.00000563,-0.00025250,
 -0.00007719,0.00007704,-0.00013160,0.00019188,0.00000032,-0.00043850,0
 .00043019,-0.00026984,0.00013885,-0.00000892,0.00028757,-0.00000135,0.
 00006042,-0.00006733,-0.00001820,0.00000591,0.00001281,-0.00018035,-0.
 00010387,-0.00018341,0.00010085,0.00003645,-0.00000955,0.00005821,0.00
 001162,-0.00001758,0.00004944,-0.00003446,0.00000189,0.00031722,-0.000
 17143,0.00005392,-0.00005957,0.00005398,0.00002578,-0.00004120,0.00004
 629,-0.00004507,-0.00005585,-0.00011814,-0.00000927,0.00006556,-0.0000
 1152,0.00026115,0.00005146,0.00009377,-0.00005639,0.00052447,-0.000077
 35,0.00029406,0.00008834,0.00027238,-0.00011543,-0.00030435,0.00031766
 ,-0.00013815,0.00023778,-0.00077203,0.00001113,0.00006134,0.00012532,-
 0.00026525,-0.00022407,-0.00005678,-0.00039804,-0.01107462,-0.01955826
 ,0.02155749,-0.00027193,0.00210846,0.00047327,0.00033201,-0.00325919,-
 0.00128264,-0.06397862,-0.12985486,0.10178642,0.01049930,0.00935260,-0
 .00405431,0.00342413,0.00619900,-0.01037339,0.05865393,0.13952955,-0.0
 0019756,0.00075220,-0.00173933,-0.00117117,-0.00236069,0.00460336,0.00
 913518,-0.00345186,0.00407671,-0.00027995,-0.00080625,-0.00051532,0.00
 042633,0.00032743,0.00057128,0.00013266,-0.00033653,0.00050033,0.00003
 729,0.00009772,-0.00027355,-0.00272132,-0.00011190,-0.00038856,0.00013
 752,-0.00000647,0.00015986,-0.00037092,0.00005518,0.00002471,-0.000093
 64,-0.00003146,0.00010725,-0.00090564,0.00001196,-0.00003671,-0.001061
 40,0.00058197,0.00046092,-0.01268019,-0.00407836,-0.00448775,0.0023586
 6,0.00164909,-0.00226859,0.00014508,-0.00002733,0.00000811,-0.00009303
 ,-0.00005095,-0.00008867,0.00001401,-0.00000966,0.00003609,-0.00027784
 ,0.00000882,-0.00026441,0.00014035,0.00005585,0.00009592,0.00033590,0.
 00013452,0.00017083,0.00023299,-0.00001332,-0.00037124,0.00059020,0.00
 158338,-0.00371539,0.00021190,0.00000850,-0.00003129,-0.00012488,0.000
 07796,0.00008570,-0.00070295,0.00004935,0.00002985,-0.00006073,0.00015
 269,0.00013389,-0.00159545,-0.00053636,-0.00035212,0.00018719,0.000031
 69,-0.00009669,0.00005336,-0.00000251,0.00006131,0.00005935,0.00015530
 ,-0.00008536,0.00010835,-0.00005529,0.00016835,0.00009810,0.00016069,0
 .00006142,0.00008496,-0.00003525,0.00011485,0.00045095,-0.00008163,0.0
 0192821,0.00050828,-0.00001568,-0.00035271,0.00022539,0.00010439,0.000
 02664,-0.00028444,-0.00015027,-0.00011297,0.00004247,-0.00000941,0.000
 01853,0.00000454,0.00001641,-0.00001841,0.00016058,0.00011872,0.000532
 72,0.00000463,0.00002643,-0.00007116,0.00050948,0.00001367,-0.00059187
 ,-0.00010382,-0.00005114,0.00002904,0.00019007,-0.00008724,0.00028387,
 -0.00046818,0.00052946,-0.00041645,-0.00007013,0.00024507,0.00000371,-
 0.00024277,-0.00002323,0.00010864,-0.00020389,0.00003693,-0.00020035,-
 0.00008984,-0.00003420,-0.00001452,0.00001812,-0.00005658,0.00003285,-
 0.00006218,-0.00000157,0.00007046,0.00004035,-0.00001298,-0.00000693,0
 .00002418,-0.00001817,0.00002161,-0.00005324,-0.00002011,-0.00002021,0
 .00029861,0.00004343,-0.00012636,0.00014164,-0.00025704,-0.00005135,0.
 00029627,-0.00075545,0.00036397,-0.00012659,0.00004261,-0.00027740,0.0
 0001815,-0.00006720,0.00006539,0.00001598,-0.00001335,-0.00000752,0.00
 015603,0.00003983,0.00018963,-0.00007970,0.00000192,-0.00001907,-0.000
 07448,0.00001068,0.00002945,-0.00004839,0.00003847,0.00002700,-0.00004
 290,0.00014271,-0.00006192,0.00002428,-0.00005226,-0.00003016,0.000011
 33,-0.00003274,0.00005264,0.00019096,0.00012111,-0.00008483,-0.0000226
 5,-0.00001046,-0.00026426,-0.00006326,-0.00006657,0.00002226,-0.000305
 34,0.00028371,-0.00046977,-0.00007196,-0.00028107,0.00011538,0.0003505
 4,-0.00030950,0.00017928,0.00145940,-0.00156305,0.00116893,-0.00053329
 ,-0.00043471,-0.00058424,-0.00033326,0.00013426,-0.00040633,-0.0075759
 4,0.00174410,0.00750506,0.00064140,-0.00147147,0.00076532,0.00039456,-
 0.00187399,0.00016225,0.09337449,0.10093573,-0.20310982,0.01422557,0.0
 1531084,-0.02406945,-0.00333990,-0.00605817,0.00605143,-0.09173480,-0.
 10011141,0.21485801\\0.00000553,-0.00000464,-0.00000084,-0.00000966,0.
 00000362,-0.00000821,0.00001459,-0.00000092,0.00000051,-0.00000062,0.0
 0000171,0.00001739,-0.00000581,-0.00001204,0.00001217,0.00000931,-0.00
 000161,-0.00001358,0.00000285,-0.00000377,-0.00000037,-0.00000111,-0.0
 0000352,-0.00000159,0.00000018,0.00000144,-0.00000329,0.00000257,0.000
 00307,0.00000127,-0.00000179,-0.00000045,0.00000006,0.00002158,-0.0000
 0107,-0.00000062,0.00000201,0.00000194,-0.00001245,0.00000742,0.000014
 40,0.00000181,0.00000174,0.00000567,-0.00000474,-0.00000293,-0.0000158
 3,0.00000987,0.00000112,-0.00000231,-0.00000366,0.00000045,0.00000084,
 -0.00000029,0.00000044,0.00000829,-0.00000141,0.00000316,-0.00000814,-
 0.00000454,-0.00000542,0.00000040,-0.00000328,-0.00000151,-0.00000520,
 0.00000038,-0.00000393,-0.00000733,0.00000331,0.00000689,-0.00001901,0
 .00000142,0.00000387,0.00002111,-0.00001404,0.00001023,0.00000615,0.00
 000753,0.00000253,-0.00000997,0.00001698,0.00000259,-0.00000361,0.0000
 0832,-0.00000369,0.00001322,-0.00000859,-0.00000557,-0.00000168,0.0000
 0241,0.00000450,0.00000634,-0.00000065,-0.00000098,-0.00000373,-0.0000
 0246,0.00000081,-0.00000272,-0.00000292,-0.00000154,-0.00000216,0.0000
 0136,0.00000876,0.00000047,0.00001223,-0.00001095,-0.00000999,-0.00000
 139,0.00000474,-0.00000823,0.00000116,0.00000048,0.00000377,0.00000580
 ,-0.00000034,0.00000014,-0.00000362,0.00000230,-0.00000117,-0.00000093
 ,0.00000438,-0.00001659,-0.00000861,0.00000167,0.00001530,0.00001216,0
 .00000205,0.00000258,-0.00000338,-0.00000478,0.00000110,-0.00000049,-0
 .00000413,-0.00000324,-0.00000038,0.00000776,-0.00000328,-0.00001102,-
 0.00000860,0.00001574,0.00001229,-0.00001515,0.00000627,-0.00000239,-0
 .00000845,-0.00001040,-0.00000004,0.00000124,0.00000437,0.00000275,-0.
 00000269,0.00000600,0.00000155,-0.00000131,-0.00000489,0.00000304,-0.0
 0000383,0.00000234,-0.00000171,-0.00000337,0.00000354,-0.00000199,0.00
 000214,-0.00000737,0.00000789,0.00002389,-0.00000463,0.00000290,0.0000
 1233,-0.00001203,-0.00000546,-0.00000468,0.00000126,0.00000039,-0.0000
 0963,-0.00000527,-0.00000576,0.00000236,0.00000071,0.00000484,0.000001
 56,0.00000487,-0.00000097,0.00001682,-0.00001304,0.00001024,-0.0000272
 2,0.00003259,-0.00001176,-0.00000738,-0.00000558,-0.00000234,-0.000010
 15,-0.00000034,0.00000089,-0.00001017,0.00000561,0.00000160,0.00000072
 ,0.00000492,0.00000138,0.00000046,0.00000229,-0.00000314,-0.00000547,0
 .00000278,-0.00000116,-0.00000190,-0.00000172,-0.00000128,0.00000064,0
 .00000486,-0.00000037,-0.00000027,-0.00000028,0.00000127,-0.00000017,0
 .00000486,0.00000097,-0.00000058,0.00000105,-0.00000120,0.00000190,0.0
 0000359,0.00000135,-0.00000319,0.00000263,0.00000008,0.00000191,0.0000
 0002,0.00000027,0.00000017,-0.00001427,-0.00000325,-0.00000189,0.00000
 137,0.00000335,-0.00000140,0.00000495,-0.00000311,-0.00000182,0.000022
 53,0.00000332,-0.00000747,-0.00000496,-0.00001769,0.00000437,-0.000002
 14,-0.00000089,-0.00000541,-0.00001161,0.00000533\\\@


 Mondays are the potholes in the road of life.
                                -- Tom Wilson
 Job cpu time:      18 days  1 hours 11 minutes  5.0 seconds.
 File lengths (MBytes):  RWF=  17360 Int=      0 D2E=      0 Chk=     98 Scr=      1
 Normal termination of Gaussian 09 at Fri Apr  8 11:32:15 2016.
