 Entering Gaussian System, Link 0=g09
 Initial command:
 /share/apps//g09/l1.exe "/scratch/Gau-29436.inp" -scrdir="/scratch/"
 Entering Link 1 = /share/apps//g09/l1.exe PID=     29437.
  
 Copyright (c) 1988,1990,1992,1993,1995,1998,2003,2009,2013,
            Gaussian, Inc.  All Rights Reserved.
  
 This is part of the Gaussian(R) 09 program.  It is based on
 the Gaussian(R) 03 system (copyright 2003, Gaussian, Inc.),
 the Gaussian(R) 98 system (copyright 1998, Gaussian, Inc.),
 the Gaussian(R) 94 system (copyright 1995, Gaussian, Inc.),
 the Gaussian 92(TM) system (copyright 1992, Gaussian, Inc.),
 the Gaussian 90(TM) system (copyright 1990, Gaussian, Inc.),
 the Gaussian 88(TM) system (copyright 1988, Gaussian, Inc.),
 the Gaussian 86(TM) system (copyright 1986, Carnegie Mellon
 University), and the Gaussian 82(TM) system (copyright 1983,
 Carnegie Mellon University). Gaussian is a federally registered
 trademark of Gaussian, Inc.
  
 This software contains proprietary and confidential information,
 including trade secrets, belonging to Gaussian, Inc.
  
 This software is provided under written license and may be
 used, copied, transmitted, or stored only in accord with that
 written license.
  
 The following legend is applicable only to US Government
 contracts under FAR:
  
                    RESTRICTED RIGHTS LEGEND
  
 Use, reproduction and disclosure by the US Government is
 subject to restrictions as set forth in subparagraphs (a)
 and (c) of the Commercial Computer Software - Restricted
 Rights clause in FAR 52.227-19.
  
 Gaussian, Inc.
 340 Quinnipiac St., Bldg. 40, Wallingford CT 06492
  
  
 ---------------------------------------------------------------
 Warning -- This program may not be used in any manner that
 competes with the business of Gaussian, Inc. or will provide
 assistance to any competitor of Gaussian, Inc.  The licensee
 of this program is prohibited from giving any competitor of
 Gaussian, Inc. access to this program.  By using this program,
 the user acknowledges that Gaussian, Inc. is engaged in the
 business of creating and licensing software in the field of
 computational chemistry and represents and warrants to the
 licensee that it is not a competitor of Gaussian, Inc. and that
 it will not use this program in any manner prohibited above.
 ---------------------------------------------------------------
  

 Cite this work as:
 Gaussian 09, Revision D.01,
 M. J. Frisch, G. W. Trucks, H. B. Schlegel, G. E. Scuseria, 
 M. A. Robb, J. R. Cheeseman, G. Scalmani, V. Barone, B. Mennucci, 
 G. A. Petersson, H. Nakatsuji, M. Caricato, X. Li, H. P. Hratchian, 
 A. F. Izmaylov, J. Bloino, G. Zheng, J. L. Sonnenberg, M. Hada, 
 M. Ehara, K. Toyota, R. Fukuda, J. Hasegawa, M. Ishida, T. Nakajima, 
 Y. Honda, O. Kitao, H. Nakai, T. Vreven, J. A. Montgomery, Jr., 
 J. E. Peralta, F. Ogliaro, M. Bearpark, J. J. Heyd, E. Brothers, 
 K. N. Kudin, V. N. Staroverov, T. Keith, R. Kobayashi, J. Normand, 
 K. Raghavachari, A. Rendell, J. C. Burant, S. S. Iyengar, J. Tomasi, 
 M. Cossi, N. Rega, J. M. Millam, M. Klene, J. E. Knox, J. B. Cross, 
 V. Bakken, C. Adamo, J. Jaramillo, R. Gomperts, R. E. Stratmann, 
 O. Yazyev, A. J. Austin, R. Cammi, C. Pomelli, J. W. Ochterski, 
 R. L. Martin, K. Morokuma, V. G. Zakrzewski, G. A. Voth, 
 P. Salvador, J. J. Dannenberg, S. Dapprich, A. D. Daniels, 
 O. Farkas, J. B. Foresman, J. V. Ortiz, J. Cioslowski, 
 and D. J. Fox, Gaussian, Inc., Wallingford CT, 2013.
 
 ******************************************
 Gaussian 09:  EM64L-G09RevD.01 24-Apr-2013
                 6-Apr-2016 
 ******************************************
 %nproc=20
 Will use up to   20 processors via shared memory.
 %mem=80GB
 %chk=Tri_A131_of.chk
 ----------------------------------------------------------------------
 #P PBE1PBE/6-311+G(d,p) opt=ModRedundant freq optcyc=999 EmpiricalDisp
 ersion=GD3
 ----------------------------------------------------------------------
 1/6=999,14=-1,18=120,19=15,26=3,38=1/1,3;
 2/9=110,12=2,17=6,18=5,40=1/2;
 3/5=4,6=6,7=111,11=2,16=1,25=1,30=1,71=1,74=-13,124=31/1,2,3;
 4//1;
 5/5=2,38=5/2;
 6/7=2,8=2,9=2,10=2,28=1/1;
 7//1,2,3,16;
 1/6=999,14=-1,18=20,19=15,26=3/3(2);
 2/9=110/2;
 99//99;
 2/9=110/2;
 3/5=4,6=6,7=111,11=2,16=1,25=1,30=1,71=1,74=-13,124=31/1,2,3;
 4/5=5,16=3,69=1/1;
 5/5=2,38=5/2;
 7//1,2,3,16;
 1/6=999,14=-1,18=20,19=15,26=3/3(-5);
 2/9=110/2;
 6/7=2,8=2,9=2,10=2,19=2,28=1/1;
 99/9=1/99;
 Leave Link    1 at Wed Apr  6 19:57:02 2016, MaxMem= 10737418240 cpu:         1.6
 (Enter /share/apps//g09/l101.exe)
 -------
 disacch
 -------
 Symbolic Z-matrix:
 Charge =  1 Multiplicity = 1
 O                     0.16876  -4.45817   10.42231 
 C                     0.0309   -4.93358   9.09874 
 C                    -0.88303  -6.1622    9.06165 
 C                    -2.25149  -5.86462   9.68185 
 C                    -2.05767  -5.34866   11.11074 
 C                    -1.07955  -4.15931   11.10301 
 H                     1.05275  -5.19333   8.77954 
 H                    -0.38411  -6.93493   9.67044 
 H                    -2.77544  -5.10748   9.07624 
 H                    -3.02871  -4.97285   11.49201 
 H                    -1.58443  -3.31732   10.59046 
 O                    -1.6254   -6.47123   11.87523 
 O                    -3.0545   -7.04265   9.62716 
 O                    -1.04716  -6.64929   7.71591 
 O                    -0.52541  -3.9662    8.21027 
 C                    -0.68792  -3.68035   12.49949 
 H                    -0.01899  -2.80836   12.41556 
 H                    -1.59075  -3.36635   13.04203 
 O                    -0.08325  -4.7107    13.29599 
 H                     0.8078   -4.87684   12.93665 
 H                    -1.11711  -6.12669   12.64429 
 H                    -2.8214   -7.56738   10.42143 
 H                    -1.78142  -7.29473   7.78612 
 O                     1.5356   -0.97927   6.12153 
 C                     0.1234   -0.83893   6.27267 
 C                    -0.48927  -2.14703   6.78136 
 C                     0.22471  -2.75217   7.97786 
 C                     1.70063  -2.95216   7.61494 
 C                     2.28171  -1.5886    7.18062 
 H                    -0.12768   0.00511   6.94037 
 H                    -0.35702  -2.871     5.96788 
 H                     0.16479  -2.10245   8.87038 
 H                     2.26419  -3.27644   8.50958 
 H                     2.30872  -0.92827   8.07131 
 O                     1.82339  -3.94903   6.58675 
 O                    -1.89251  -1.95573   7.00716 
 O                    -0.39104  -0.47087   5.01767 
 C                     3.70462  -1.72021   6.62284 
 H                     4.07648  -0.72376   6.33983 
 H                     4.37301  -2.13312   7.39226 
 O                     3.74546  -2.61189   5.49897 
 H                     3.37801  -2.13075   4.70489 
 H                     2.60042  -3.64179   6.01476 
 H                    -2.16316  -2.67669   7.60869 
 O                     0.5772   -1.64755   1.625 
 C                    -0.31027  -2.73951   1.52798 
 C                    -1.6994   -2.40156   2.07265 
 C                    -1.63122  -1.9708    3.55689 
 C                    -0.24016  -1.44093   3.94994 
 C                     0.45229  -0.75093   2.76183 
 H                    -0.37224  -2.96645   0.45174 
 H                    -2.32827  -3.30546   2.01233 
 H                    -2.33733  -1.13339   3.68565 
 H                    -0.13722   0.13152   2.45693 
 H                     0.40801  -2.27182   4.26673 
 O                    -2.05857  -3.07508   4.38522 
 O                    -2.1943   -1.35729   1.23601 
 O                     0.21954  -3.86978   2.23507 
 C                     1.88707  -0.31643   3.05656 
 H                     2.25553   0.28587   2.21094 
 H                     1.9269    0.28454   3.97146 
 O                     2.7471   -1.45144   3.25132 
 H                     2.57112  -2.04957   2.49762 
 H                    -2.32941  -2.68381   5.24822 
 H                    -3.14696  -1.25133   1.40213 
 C                     0.45239  -5.04009   1.42445 
 H                     0.77927  -4.73249   0.41668 
 H                     1.30677  -5.55669   1.88523 
 C                    -0.76551  -5.96187   1.31893 
 H                    -0.43714  -6.87869   0.7997 
 H                    -1.50929  -5.49537   0.65213 
 C                    -1.47578  -6.33394   2.63217 
 H                    -1.88526  -5.42301   3.09836 
 H                    -2.35797  -6.93399   2.36283 
 C                    -0.67064  -7.14928   3.66116 
 H                    -1.37403  -7.64274   4.35267 
 H                    -0.13775  -7.96944   3.15288 
 C                     0.3649   -6.39445   4.49405 
 H                     1.12674  -5.90707   3.87622 
 H                     0.8788   -7.07892   5.18182 
 N                    -0.23961  -5.32009   5.34765 
 H                    -0.77572  -5.73042   6.14546 
 H                    -0.84537  -4.66666   4.80855 
 H                     0.52987  -4.75436   5.7984 
 
 The following ModRedundant input section has been read:
 B      56      83 B                                                           
 B      35      84 B                                                           
 B      14      82 B                                                           
 B      36      64 B                                                           
 B      42      62 B                                                           
 
 NAtoms=     84 NQM=       84 NQMF=       0 NMMI=      0 NMMIF=      0
                NMic=       0 NMicF=      0.
                    Isotopes and Nuclear Properties:
 (Nuclear quadrupole moments (NQMom) in fm**2, nuclear magnetic moments (NMagM)
  in nuclear magnetons)

  Atom         1           2           3           4           5           6           7           8           9          10
 IAtWgt=          16          12          12          12          12          12           1           1           1           1
 AtmWgt=  15.9949146  12.0000000  12.0000000  12.0000000  12.0000000  12.0000000   1.0078250   1.0078250   1.0078250   1.0078250
 NucSpn=           0           0           0           0           0           0           1           1           1           1
 AtZEff=   0.0000000   0.0000000   0.0000000   0.0000000   0.0000000   0.0000000   0.0000000   0.0000000   0.0000000   0.0000000
 NQMom=    0.0000000   0.0000000   0.0000000   0.0000000   0.0000000   0.0000000   0.0000000   0.0000000   0.0000000   0.0000000
 NMagM=    0.0000000   0.0000000   0.0000000   0.0000000   0.0000000   0.0000000   2.7928460   2.7928460   2.7928460   2.7928460
 AtZNuc=   8.0000000   6.0000000   6.0000000   6.0000000   6.0000000   6.0000000   1.0000000   1.0000000   1.0000000   1.0000000

  Atom        11          12          13          14          15          16          17          18          19          20
 IAtWgt=           1          16          16          16          16          12           1           1          16           1
 AtmWgt=   1.0078250  15.9949146  15.9949146  15.9949146  15.9949146  12.0000000   1.0078250   1.0078250  15.9949146   1.0078250
 NucSpn=           1           0           0           0           0           0           1           1           0           1
 AtZEff=   0.0000000   0.0000000   0.0000000   0.0000000   0.0000000   0.0000000   0.0000000   0.0000000   0.0000000   0.0000000
 NQMom=    0.0000000   0.0000000   0.0000000   0.0000000   0.0000000   0.0000000   0.0000000   0.0000000   0.0000000   0.0000000
 NMagM=    2.7928460   0.0000000   0.0000000   0.0000000   0.0000000   0.0000000   2.7928460   2.7928460   0.0000000   2.7928460
 AtZNuc=   1.0000000   8.0000000   8.0000000   8.0000000   8.0000000   6.0000000   1.0000000   1.0000000   8.0000000   1.0000000

  Atom        21          22          23          24          25          26          27          28          29          30
 IAtWgt=           1           1           1          16          12          12          12          12          12           1
 AtmWgt=   1.0078250   1.0078250   1.0078250  15.9949146  12.0000000  12.0000000  12.0000000  12.0000000  12.0000000   1.0078250
 NucSpn=           1           1           1           0           0           0           0           0           0           1
 AtZEff=   0.0000000   0.0000000   0.0000000   0.0000000   0.0000000   0.0000000   0.0000000   0.0000000   0.0000000   0.0000000
 NQMom=    0.0000000   0.0000000   0.0000000   0.0000000   0.0000000   0.0000000   0.0000000   0.0000000   0.0000000   0.0000000
 NMagM=    2.7928460   2.7928460   2.7928460   0.0000000   0.0000000   0.0000000   0.0000000   0.0000000   0.0000000   2.7928460
 AtZNuc=   1.0000000   1.0000000   1.0000000   8.0000000   6.0000000   6.0000000   6.0000000   6.0000000   6.0000000   1.0000000

  Atom        31          32          33          34          35          36          37          38          39          40
 IAtWgt=           1           1           1           1          16          16          16          12           1           1
 AtmWgt=   1.0078250   1.0078250   1.0078250   1.0078250  15.9949146  15.9949146  15.9949146  12.0000000   1.0078250   1.0078250
 NucSpn=           1           1           1           1           0           0           0           0           1           1
 AtZEff=   0.0000000   0.0000000   0.0000000   0.0000000   0.0000000   0.0000000   0.0000000   0.0000000   0.0000000   0.0000000
 NQMom=    0.0000000   0.0000000   0.0000000   0.0000000   0.0000000   0.0000000   0.0000000   0.0000000   0.0000000   0.0000000
 NMagM=    2.7928460   2.7928460   2.7928460   2.7928460   0.0000000   0.0000000   0.0000000   0.0000000   2.7928460   2.7928460
 AtZNuc=   1.0000000   1.0000000   1.0000000   1.0000000   8.0000000   8.0000000   8.0000000   6.0000000   1.0000000   1.0000000

  Atom        41          42          43          44          45          46          47          48          49          50
 IAtWgt=          16           1           1           1          16          12          12          12          12          12
 AtmWgt=  15.9949146   1.0078250   1.0078250   1.0078250  15.9949146  12.0000000  12.0000000  12.0000000  12.0000000  12.0000000
 NucSpn=           0           1           1           1           0           0           0           0           0           0
 AtZEff=   0.0000000   0.0000000   0.0000000   0.0000000   0.0000000   0.0000000   0.0000000   0.0000000   0.0000000   0.0000000
 NQMom=    0.0000000   0.0000000   0.0000000   0.0000000   0.0000000   0.0000000   0.0000000   0.0000000   0.0000000   0.0000000
 NMagM=    0.0000000   2.7928460   2.7928460   2.7928460   0.0000000   0.0000000   0.0000000   0.0000000   0.0000000   0.0000000
 AtZNuc=   8.0000000   1.0000000   1.0000000   1.0000000   8.0000000   6.0000000   6.0000000   6.0000000   6.0000000   6.0000000

  Atom        51          52          53          54          55          56          57          58          59          60
 IAtWgt=           1           1           1           1           1          16          16          16          12           1
 AtmWgt=   1.0078250   1.0078250   1.0078250   1.0078250   1.0078250  15.9949146  15.9949146  15.9949146  12.0000000   1.0078250
 NucSpn=           1           1           1           1           1           0           0           0           0           1
 AtZEff=   0.0000000   0.0000000   0.0000000   0.0000000   0.0000000   0.0000000   0.0000000   0.0000000   0.0000000   0.0000000
 NQMom=    0.0000000   0.0000000   0.0000000   0.0000000   0.0000000   0.0000000   0.0000000   0.0000000   0.0000000   0.0000000
 NMagM=    2.7928460   2.7928460   2.7928460   2.7928460   2.7928460   0.0000000   0.0000000   0.0000000   0.0000000   2.7928460
 AtZNuc=   1.0000000   1.0000000   1.0000000   1.0000000   1.0000000   8.0000000   8.0000000   8.0000000   6.0000000   1.0000000

  Atom        61          62          63          64          65          66          67          68          69          70
 IAtWgt=           1          16           1           1           1          12           1           1          12           1
 AtmWgt=   1.0078250  15.9949146   1.0078250   1.0078250   1.0078250  12.0000000   1.0078250   1.0078250  12.0000000   1.0078250
 NucSpn=           1           0           1           1           1           0           1           1           0           1
 AtZEff=   0.0000000   0.0000000   0.0000000   0.0000000   0.0000000   0.0000000   0.0000000   0.0000000   0.0000000   0.0000000
 NQMom=    0.0000000   0.0000000   0.0000000   0.0000000   0.0000000   0.0000000   0.0000000   0.0000000   0.0000000   0.0000000
 NMagM=    2.7928460   0.0000000   2.7928460   2.7928460   2.7928460   0.0000000   2.7928460   2.7928460   0.0000000   2.7928460
 AtZNuc=   1.0000000   8.0000000   1.0000000   1.0000000   1.0000000   6.0000000   1.0000000   1.0000000   6.0000000   1.0000000

  Atom        71          72          73          74          75          76          77          78          79          80
 IAtWgt=           1          12           1           1          12           1           1          12           1           1
 AtmWgt=   1.0078250  12.0000000   1.0078250   1.0078250  12.0000000   1.0078250   1.0078250  12.0000000   1.0078250   1.0078250
 NucSpn=           1           0           1           1           0           1           1           0           1           1
 AtZEff=   0.0000000   0.0000000   0.0000000   0.0000000   0.0000000   0.0000000   0.0000000   0.0000000   0.0000000   0.0000000
 NQMom=    0.0000000   0.0000000   0.0000000   0.0000000   0.0000000   0.0000000   0.0000000   0.0000000   0.0000000   0.0000000
 NMagM=    2.7928460   0.0000000   2.7928460   2.7928460   0.0000000   2.7928460   2.7928460   0.0000000   2.7928460   2.7928460
 AtZNuc=   1.0000000   6.0000000   1.0000000   1.0000000   6.0000000   1.0000000   1.0000000   6.0000000   1.0000000   1.0000000

  Atom        81          82          83          84
 IAtWgt=          14           1           1           1
 AtmWgt=  14.0030740   1.0078250   1.0078250   1.0078250
 NucSpn=           2           1           1           1
 AtZEff=   0.0000000   0.0000000   0.0000000   0.0000000
 NQMom=    2.0440000   0.0000000   0.0000000   0.0000000
 NMagM=    0.4037610   2.7928460   2.7928460   2.7928460
 AtZNuc=   7.0000000   1.0000000   1.0000000   1.0000000
 Leave Link  101 at Wed Apr  6 19:57:03 2016, MaxMem= 10737418240 cpu:         5.1
 (Enter /share/apps//g09/l103.exe)

 GradGradGradGradGradGradGradGradGradGradGradGradGradGradGradGradGradGrad
 Berny optimization.
 Initialization pass.
                           ----------------------------
                           !    Initial Parameters    !
                           ! (Angstroms and Degrees)  !
 --------------------------                            --------------------------
 ! Name  Definition              Value          Derivative Info.                !
 --------------------------------------------------------------------------------
 ! R1    R(1,2)                  1.4131         estimate D2E/DX2                !
 ! R2    R(1,6)                  1.4529         estimate D2E/DX2                !
 ! R3    R(2,3)                  1.5317         estimate D2E/DX2                !
 ! R4    R(2,7)                  1.1016         estimate D2E/DX2                !
 ! R5    R(2,15)                 1.4264         estimate D2E/DX2                !
 ! R6    R(3,4)                  1.5316         estimate D2E/DX2                !
 ! R7    R(3,8)                  1.103          estimate D2E/DX2                !
 ! R8    R(3,14)                 1.4406         estimate D2E/DX2                !
 ! R9    R(4,5)                  1.5315         estimate D2E/DX2                !
 ! R10   R(4,9)                  1.1021         estimate D2E/DX2                !
 ! R11   R(4,13)                 1.4267         estimate D2E/DX2                !
 ! R12   R(5,6)                  1.5399         estimate D2E/DX2                !
 ! R13   R(5,10)                 1.1088         estimate D2E/DX2                !
 ! R14   R(5,12)                 1.4253         estimate D2E/DX2                !
 ! R15   R(6,11)                 1.1075         estimate D2E/DX2                !
 ! R16   R(6,16)                 1.5274         estimate D2E/DX2                !
 ! R17   R(12,21)                0.9841         estimate D2E/DX2                !
 ! R18   R(13,22)                0.9801         estimate D2E/DX2                !
 ! R19   R(14,23)                0.9801         estimate D2E/DX2                !
 ! R20   R(14,82)                1.8397         estimate D2E/DX2                !
 ! R21   R(15,27)                1.4459         estimate D2E/DX2                !
 ! R22   R(16,17)                1.1022         estimate D2E/DX2                !
 ! R23   R(16,18)                1.0991         estimate D2E/DX2                !
 ! R24   R(16,19)                1.4358         estimate D2E/DX2                !
 ! R25   R(19,20)                0.975          estimate D2E/DX2                !
 ! R26   R(24,25)                1.4272         estimate D2E/DX2                !
 ! R27   R(24,29)                1.4317         estimate D2E/DX2                !
 ! R28   R(25,26)                1.5314         estimate D2E/DX2                !
 ! R29   R(25,30)                1.1051         estimate D2E/DX2                !
 ! R30   R(25,37)                1.4054         estimate D2E/DX2                !
 ! R31   R(26,27)                1.5191         estimate D2E/DX2                !
 ! R32   R(26,31)                1.097          estimate D2E/DX2                !
 ! R33   R(26,36)                1.4341         estimate D2E/DX2                !
 ! R34   R(27,28)                1.533          estimate D2E/DX2                !
 ! R35   R(27,32)                1.1056         estimate D2E/DX2                !
 ! R36   R(28,29)                1.5445         estimate D2E/DX2                !
 ! R37   R(28,33)                1.106          estimate D2E/DX2                !
 ! R38   R(28,35)                1.4374         estimate D2E/DX2                !
 ! R39   R(29,34)                1.1091         estimate D2E/DX2                !
 ! R40   R(29,38)                1.534          estimate D2E/DX2                !
 ! R41   R(35,43)                1.0126         estimate D2E/DX2                !
 ! R42   R(35,84)                1.7156         estimate D2E/DX2                !
 ! R43   R(36,44)                0.9772         estimate D2E/DX2                !
 ! R44   R(36,64)                1.9532         estimate D2E/DX2                !
 ! R45   R(37,49)                1.4505         estimate D2E/DX2                !
 ! R46   R(38,39)                1.1006         estimate D2E/DX2                !
 ! R47   R(38,40)                1.0997         estimate D2E/DX2                !
 ! R48   R(38,41)                1.4352         estimate D2E/DX2                !
 ! R49   R(41,42)                0.9985         estimate D2E/DX2                !
 ! R50   R(42,62)                1.7241         estimate D2E/DX2                !
 ! R51   R(45,46)                1.4105         estimate D2E/DX2                !
 ! R52   R(45,50)                1.4532         estimate D2E/DX2                !
 ! R53   R(46,47)                1.5299         estimate D2E/DX2                !
 ! R54   R(46,51)                1.1017         estimate D2E/DX2                !
 ! R55   R(46,58)                1.4346         estimate D2E/DX2                !
 ! R56   R(47,48)                1.547          estimate D2E/DX2                !
 ! R57   R(47,52)                1.1028         estimate D2E/DX2                !
 ! R58   R(47,57)                1.4267         estimate D2E/DX2                !
 ! R59   R(48,49)                1.5396         estimate D2E/DX2                !
 ! R60   R(48,53)                1.1029         estimate D2E/DX2                !
 ! R61   R(48,56)                1.4451         estimate D2E/DX2                !
 ! R62   R(49,50)                1.5386         estimate D2E/DX2                !
 ! R63   R(49,55)                1.1004         estimate D2E/DX2                !
 ! R64   R(50,54)                1.1042         estimate D2E/DX2                !
 ! R65   R(50,59)                1.5278         estimate D2E/DX2                !
 ! R66   R(56,64)                0.9855         estimate D2E/DX2                !
 ! R67   R(56,83)                2.0455         estimate D2E/DX2                !
 ! R68   R(57,65)                0.9728         estimate D2E/DX2                !
 ! R69   R(58,66)                1.4425         estimate D2E/DX2                !
 ! R70   R(59,60)                1.1016         estimate D2E/DX2                !
 ! R71   R(59,61)                1.0954         estimate D2E/DX2                !
 ! R72   R(59,62)                1.4373         estimate D2E/DX2                !
 ! R73   R(62,63)                0.9782         estimate D2E/DX2                !
 ! R74   R(66,67)                1.1032         estimate D2E/DX2                !
 ! R75   R(66,68)                1.0996         estimate D2E/DX2                !
 ! R76   R(66,69)                1.531          estimate D2E/DX2                !
 ! R77   R(69,70)                1.1036         estimate D2E/DX2                !
 ! R78   R(69,71)                1.1025         estimate D2E/DX2                !
 ! R79   R(69,72)                1.5387         estimate D2E/DX2                !
 ! R80   R(72,73)                1.1022         estimate D2E/DX2                !
 ! R81   R(72,74)                1.1004         estimate D2E/DX2                !
 ! R82   R(72,75)                1.5401         estimate D2E/DX2                !
 ! R83   R(75,76)                1.1029         estimate D2E/DX2                !
 ! R84   R(75,77)                1.1023         estimate D2E/DX2                !
 ! R85   R(75,78)                1.5283         estimate D2E/DX2                !
 ! R86   R(78,79)                1.0953         estimate D2E/DX2                !
 ! R87   R(78,80)                1.098          estimate D2E/DX2                !
 ! R88   R(78,81)                1.4994         estimate D2E/DX2                !
 ! R89   R(81,82)                1.0451         estimate D2E/DX2                !
 ! R90   R(81,83)                1.0414         estimate D2E/DX2                !
 ! R91   R(81,84)                1.0561         estimate D2E/DX2                !
 ! A1    A(2,1,6)              115.1005         estimate D2E/DX2                !
 ! A2    A(1,2,3)              110.5331         estimate D2E/DX2                !
 ! A3    A(1,2,7)              105.0839         estimate D2E/DX2                !
 ! A4    A(1,2,15)             113.1592         estimate D2E/DX2                !
 ! A5    A(3,2,7)              110.9358         estimate D2E/DX2                !
 ! A6    A(3,2,15)             107.2295         estimate D2E/DX2                !
 ! A7    A(7,2,15)             109.9498         estimate D2E/DX2                !
 ! A8    A(2,3,4)              111.5589         estimate D2E/DX2                !
 ! A9    A(2,3,8)              106.1814         estimate D2E/DX2                !
 ! A10   A(2,3,14)             111.212          estimate D2E/DX2                !
 ! A11   A(4,3,8)              108.4667         estimate D2E/DX2                !
 ! A12   A(4,3,14)             110.0093         estimate D2E/DX2                !
 ! A13   A(8,3,14)             109.2845         estimate D2E/DX2                !
 ! A14   A(3,4,5)              109.2797         estimate D2E/DX2                !
 ! A15   A(3,4,9)              109.6176         estimate D2E/DX2                !
 ! A16   A(3,4,13)             109.0824         estimate D2E/DX2                !
 ! A17   A(5,4,9)              109.9632         estimate D2E/DX2                !
 ! A18   A(5,4,13)             112.6539         estimate D2E/DX2                !
 ! A19   A(9,4,13)             106.1773         estimate D2E/DX2                !
 ! A20   A(4,5,6)              109.6275         estimate D2E/DX2                !
 ! A21   A(4,5,10)             108.9148         estimate D2E/DX2                !
 ! A22   A(4,5,12)             105.8711         estimate D2E/DX2                !
 ! A23   A(6,5,10)             107.2297         estimate D2E/DX2                !
 ! A24   A(6,5,12)             114.731          estimate D2E/DX2                !
 ! A25   A(10,5,12)            110.3713         estimate D2E/DX2                !
 ! A26   A(1,6,5)              112.9056         estimate D2E/DX2                !
 ! A27   A(1,6,11)             109.3438         estimate D2E/DX2                !
 ! A28   A(1,6,16)             105.8165         estimate D2E/DX2                !
 ! A29   A(5,6,11)             107.4545         estimate D2E/DX2                !
 ! A30   A(5,6,16)             113.6073         estimate D2E/DX2                !
 ! A31   A(11,6,16)            107.5547         estimate D2E/DX2                !
 ! A32   A(5,12,21)            107.4611         estimate D2E/DX2                !
 ! A33   A(4,13,22)            106.0897         estimate D2E/DX2                !
 ! A34   A(3,14,23)            103.9514         estimate D2E/DX2                !
 ! A35   A(3,14,82)            127.7183         estimate D2E/DX2                !
 ! A36   A(23,14,82)           120.0401         estimate D2E/DX2                !
 ! A37   A(2,15,27)            117.8542         estimate D2E/DX2                !
 ! A38   A(6,16,17)            109.5161         estimate D2E/DX2                !
 ! A39   A(6,16,18)            109.2857         estimate D2E/DX2                !
 ! A40   A(6,16,19)            112.9629         estimate D2E/DX2                !
 ! A41   A(17,16,18)           108.0646         estimate D2E/DX2                !
 ! A42   A(17,16,19)           110.7546         estimate D2E/DX2                !
 ! A43   A(18,16,19)           106.0873         estimate D2E/DX2                !
 ! A44   A(16,19,20)           107.6189         estimate D2E/DX2                !
 ! A45   A(25,24,29)           118.6326         estimate D2E/DX2                !
 ! A46   A(24,25,26)           110.3069         estimate D2E/DX2                !
 ! A47   A(24,25,30)           111.34           estimate D2E/DX2                !
 ! A48   A(24,25,37)           107.0609         estimate D2E/DX2                !
 ! A49   A(26,25,30)           111.1491         estimate D2E/DX2                !
 ! A50   A(26,25,37)           111.955          estimate D2E/DX2                !
 ! A51   A(30,25,37)           104.8535         estimate D2E/DX2                !
 ! A52   A(25,26,27)           114.448          estimate D2E/DX2                !
 ! A53   A(25,26,31)           105.6149         estimate D2E/DX2                !
 ! A54   A(25,26,36)           109.2575         estimate D2E/DX2                !
 ! A55   A(27,26,31)           105.3387         estimate D2E/DX2                !
 ! A56   A(27,26,36)           112.8934         estimate D2E/DX2                !
 ! A57   A(31,26,36)           108.8297         estimate D2E/DX2                !
 ! A58   A(15,27,26)           102.5476         estimate D2E/DX2                !
 ! A59   A(15,27,28)           115.3408         estimate D2E/DX2                !
 ! A60   A(15,27,32)           109.6064         estimate D2E/DX2                !
 ! A61   A(26,27,28)           108.5429         estimate D2E/DX2                !
 ! A62   A(26,27,32)           112.1034         estimate D2E/DX2                !
 ! A63   A(28,27,32)           108.6607         estimate D2E/DX2                !
 ! A64   A(27,28,29)           108.277          estimate D2E/DX2                !
 ! A65   A(27,28,33)           109.7152         estimate D2E/DX2                !
 ! A66   A(27,28,35)           110.0021         estimate D2E/DX2                !
 ! A67   A(29,28,33)           107.1346         estimate D2E/DX2                !
 ! A68   A(29,28,35)           112.2717         estimate D2E/DX2                !
 ! A69   A(33,28,35)           109.3767         estimate D2E/DX2                !
 ! A70   A(24,29,28)           112.8113         estimate D2E/DX2                !
 ! A71   A(24,29,34)           110.6943         estimate D2E/DX2                !
 ! A72   A(24,29,38)           104.5332         estimate D2E/DX2                !
 ! A73   A(28,29,34)           107.9962         estimate D2E/DX2                !
 ! A74   A(28,29,38)           112.054          estimate D2E/DX2                !
 ! A75   A(34,29,38)           108.6933         estimate D2E/DX2                !
 ! A76   A(28,35,43)           105.0214         estimate D2E/DX2                !
 ! A77   A(28,35,84)           126.1484         estimate D2E/DX2                !
 ! A78   A(43,35,84)           117.4799         estimate D2E/DX2                !
 ! A79   A(26,36,44)           105.6355         estimate D2E/DX2                !
 ! A80   A(26,36,64)            91.5676         estimate D2E/DX2                !
 ! A81   A(44,36,64)           102.5553         estimate D2E/DX2                !
 ! A82   A(25,37,49)           116.3676         estimate D2E/DX2                !
 ! A83   A(29,38,39)           109.2222         estimate D2E/DX2                !
 ! A84   A(29,38,40)           109.9745         estimate D2E/DX2                !
 ! A85   A(29,38,41)           111.3727         estimate D2E/DX2                !
 ! A86   A(39,38,40)           108.3317         estimate D2E/DX2                !
 ! A87   A(39,38,41)           110.5806         estimate D2E/DX2                !
 ! A88   A(40,38,41)           107.2968         estimate D2E/DX2                !
 ! A89   A(38,41,42)           108.2337         estimate D2E/DX2                !
 ! A90   A(46,45,50)           118.5148         estimate D2E/DX2                !
 ! A91   A(45,46,47)           112.0744         estimate D2E/DX2                !
 ! A92   A(45,46,51)           105.1933         estimate D2E/DX2                !
 ! A93   A(45,46,58)           110.1007         estimate D2E/DX2                !
 ! A94   A(47,46,51)           110.0132         estimate D2E/DX2                !
 ! A95   A(47,46,58)           109.5047         estimate D2E/DX2                !
 ! A96   A(51,46,58)           109.8756         estimate D2E/DX2                !
 ! A97   A(46,47,48)           111.2889         estimate D2E/DX2                !
 ! A98   A(46,47,52)           108.4969         estimate D2E/DX2                !
 ! A99   A(46,47,57)           105.5385         estimate D2E/DX2                !
 ! A100  A(48,47,52)           107.8089         estimate D2E/DX2                !
 ! A101  A(48,47,57)           111.9696         estimate D2E/DX2                !
 ! A102  A(52,47,57)           111.7192         estimate D2E/DX2                !
 ! A103  A(47,48,49)           112.3706         estimate D2E/DX2                !
 ! A104  A(47,48,53)           107.1703         estimate D2E/DX2                !
 ! A105  A(47,48,56)           108.9138         estimate D2E/DX2                !
 ! A106  A(49,48,53)           106.6989         estimate D2E/DX2                !
 ! A107  A(49,48,56)           112.5734         estimate D2E/DX2                !
 ! A108  A(53,48,56)           108.9027         estimate D2E/DX2                !
 ! A109  A(37,49,48)           108.9124         estimate D2E/DX2                !
 ! A110  A(37,49,50)           108.3812         estimate D2E/DX2                !
 ! A111  A(37,49,55)           110.7534         estimate D2E/DX2                !
 ! A112  A(48,49,50)           111.3367         estimate D2E/DX2                !
 ! A113  A(48,49,55)           110.2329         estimate D2E/DX2                !
 ! A114  A(50,49,55)           107.2081         estimate D2E/DX2                !
 ! A115  A(45,50,49)           111.4736         estimate D2E/DX2                !
 ! A116  A(45,50,54)           108.8422         estimate D2E/DX2                !
 ! A117  A(45,50,59)           104.2204         estimate D2E/DX2                !
 ! A118  A(49,50,54)           109.3516         estimate D2E/DX2                !
 ! A119  A(49,50,59)           113.6548         estimate D2E/DX2                !
 ! A120  A(54,50,59)           109.1087         estimate D2E/DX2                !
 ! A121  A(48,56,64)           106.2506         estimate D2E/DX2                !
 ! A122  A(48,56,83)           122.5353         estimate D2E/DX2                !
 ! A123  A(64,56,83)           106.899          estimate D2E/DX2                !
 ! A124  A(47,57,65)           108.6199         estimate D2E/DX2                !
 ! A125  A(46,58,66)           114.9489         estimate D2E/DX2                !
 ! A126  A(50,59,60)           108.754          estimate D2E/DX2                !
 ! A127  A(50,59,61)           110.5674         estimate D2E/DX2                !
 ! A128  A(50,59,62)           111.3144         estimate D2E/DX2                !
 ! A129  A(60,59,61)           109.2091         estimate D2E/DX2                !
 ! A130  A(60,59,62)           109.6106         estimate D2E/DX2                !
 ! A131  A(61,59,62)           107.357          estimate D2E/DX2                !
 ! A132  A(42,62,59)           130.1179         estimate D2E/DX2                !
 ! A133  A(42,62,63)           118.3295         estimate D2E/DX2                !
 ! A134  A(59,62,63)           105.713          estimate D2E/DX2                !
 ! A135  A(36,64,56)           151.0615         estimate D2E/DX2                !
 ! A136  A(58,66,67)           109.5693         estimate D2E/DX2                !
 ! A137  A(58,66,68)           105.7288         estimate D2E/DX2                !
 ! A138  A(58,66,69)           113.5011         estimate D2E/DX2                !
 ! A139  A(67,66,68)           106.4727         estimate D2E/DX2                !
 ! A140  A(67,66,69)           109.9139         estimate D2E/DX2                !
 ! A141  A(68,66,69)           111.352          estimate D2E/DX2                !
 ! A142  A(66,69,70)           107.2113         estimate D2E/DX2                !
 ! A143  A(66,69,71)           108.8802         estimate D2E/DX2                !
 ! A144  A(66,69,72)           116.9981         estimate D2E/DX2                !
 ! A145  A(70,69,71)           105.5271         estimate D2E/DX2                !
 ! A146  A(70,69,72)           109.7558         estimate D2E/DX2                !
 ! A147  A(71,69,72)           107.8847         estimate D2E/DX2                !
 ! A148  A(69,72,73)           109.4294         estimate D2E/DX2                !
 ! A149  A(69,72,74)           107.0396         estimate D2E/DX2                !
 ! A150  A(69,72,75)           117.1899         estimate D2E/DX2                !
 ! A151  A(73,72,74)           104.8545         estimate D2E/DX2                !
 ! A152  A(73,72,75)           110.4367         estimate D2E/DX2                !
 ! A153  A(74,72,75)           107.0958         estimate D2E/DX2                !
 ! A154  A(72,75,76)           108.806          estimate D2E/DX2                !
 ! A155  A(72,75,77)           109.7897         estimate D2E/DX2                !
 ! A156  A(72,75,78)           117.1848         estimate D2E/DX2                !
 ! A157  A(76,75,77)           105.3391         estimate D2E/DX2                !
 ! A158  A(76,75,78)           108.1438         estimate D2E/DX2                !
 ! A159  A(77,75,78)           106.9309         estimate D2E/DX2                !
 ! A160  A(75,78,79)           112.56           estimate D2E/DX2                !
 ! A161  A(75,78,80)           110.5237         estimate D2E/DX2                !
 ! A162  A(75,78,81)           113.0136         estimate D2E/DX2                !
 ! A163  A(79,78,80)           107.7686         estimate D2E/DX2                !
 ! A164  A(79,78,81)           106.422          estimate D2E/DX2                !
 ! A165  A(80,78,81)           106.1861         estimate D2E/DX2                !
 ! A166  A(78,81,82)           111.104          estimate D2E/DX2                !
 ! A167  A(78,81,83)           112.9159         estimate D2E/DX2                !
 ! A168  A(78,81,84)           109.454          estimate D2E/DX2                !
 ! A169  A(82,81,83)           110.0678         estimate D2E/DX2                !
 ! A170  A(82,81,84)           104.9666         estimate D2E/DX2                !
 ! A171  A(83,81,84)           107.9775         estimate D2E/DX2                !
 ! A172  A(14,82,81)           157.4356         estimate D2E/DX2                !
 ! A173  A(56,83,81)           160.1054         estimate D2E/DX2                !
 ! A174  L(41,42,62,9,-1)      179.7043         estimate D2E/DX2                !
 ! A175  L(35,84,81,2,-1)      178.0741         estimate D2E/DX2                !
 ! A176  L(41,42,62,9,-2)      186.0531         estimate D2E/DX2                !
 ! A177  L(35,84,81,2,-2)      184.238          estimate D2E/DX2                !
 ! D1    D(6,1,2,3)            -55.1084         estimate D2E/DX2                !
 ! D2    D(6,1,2,7)           -174.8523         estimate D2E/DX2                !
 ! D3    D(6,1,2,15)            65.172          estimate D2E/DX2                !
 ! D4    D(2,1,6,5)             54.6841         estimate D2E/DX2                !
 ! D5    D(2,1,6,11)           -64.8827         estimate D2E/DX2                !
 ! D6    D(2,1,6,16)           179.5425         estimate D2E/DX2                !
 ! D7    D(1,2,3,4)             56.0535         estimate D2E/DX2                !
 ! D8    D(1,2,3,8)            -61.9339         estimate D2E/DX2                !
 ! D9    D(1,2,3,14)           179.283          estimate D2E/DX2                !
 ! D10   D(7,2,3,4)            172.2098         estimate D2E/DX2                !
 ! D11   D(7,2,3,8)             54.2224         estimate D2E/DX2                !
 ! D12   D(7,2,3,14)           -64.5607         estimate D2E/DX2                !
 ! D13   D(15,2,3,4)           -67.7159         estimate D2E/DX2                !
 ! D14   D(15,2,3,8)           174.2967         estimate D2E/DX2                !
 ! D15   D(15,2,3,14)           55.5136         estimate D2E/DX2                !
 ! D16   D(1,2,15,27)           63.2174         estimate D2E/DX2                !
 ! D17   D(3,2,15,27)         -174.6373         estimate D2E/DX2                !
 ! D18   D(7,2,15,27)          -53.9362         estimate D2E/DX2                !
 ! D19   D(2,3,4,5)            -56.0977         estimate D2E/DX2                !
 ! D20   D(2,3,4,9)             64.4774         estimate D2E/DX2                !
 ! D21   D(2,3,4,13)          -179.6558         estimate D2E/DX2                !
 ! D22   D(8,3,4,5)             60.5082         estimate D2E/DX2                !
 ! D23   D(8,3,4,9)           -178.9166         estimate D2E/DX2                !
 ! D24   D(8,3,4,13)           -63.0498         estimate D2E/DX2                !
 ! D25   D(14,3,4,5)           179.9912         estimate D2E/DX2                !
 ! D26   D(14,3,4,9)           -59.4336         estimate D2E/DX2                !
 ! D27   D(14,3,4,13)           56.4332         estimate D2E/DX2                !
 ! D28   D(2,3,14,23)         -168.3906         estimate D2E/DX2                !
 ! D29   D(2,3,14,82)          -20.8016         estimate D2E/DX2                !
 ! D30   D(4,3,14,23)          -44.2783         estimate D2E/DX2                !
 ! D31   D(4,3,14,82)          103.3107         estimate D2E/DX2                !
 ! D32   D(8,3,14,23)           74.7051         estimate D2E/DX2                !
 ! D33   D(8,3,14,82)         -137.7059         estimate D2E/DX2                !
 ! D34   D(3,4,5,6)             53.3754         estimate D2E/DX2                !
 ! D35   D(3,4,5,10)           170.4165         estimate D2E/DX2                !
 ! D36   D(3,4,5,12)           -70.8994         estimate D2E/DX2                !
 ! D37   D(9,4,5,6)            -66.9884         estimate D2E/DX2                !
 ! D38   D(9,4,5,10)            50.0528         estimate D2E/DX2                !
 ! D39   D(9,4,5,12)           168.7368         estimate D2E/DX2                !
 ! D40   D(13,4,5,6)           174.7949         estimate D2E/DX2                !
 ! D41   D(13,4,5,10)          -68.164          estimate D2E/DX2                !
 ! D42   D(13,4,5,12)           50.5201         estimate D2E/DX2                !
 ! D43   D(3,4,13,22)           85.0109         estimate D2E/DX2                !
 ! D44   D(5,4,13,22)          -36.5207         estimate D2E/DX2                !
 ! D45   D(9,4,13,22)         -156.9376         estimate D2E/DX2                !
 ! D46   D(4,5,6,1)            -52.4797         estimate D2E/DX2                !
 ! D47   D(4,5,6,11)            68.1709         estimate D2E/DX2                !
 ! D48   D(4,5,6,16)          -172.9823         estimate D2E/DX2                !
 ! D49   D(10,5,6,1)          -170.5741         estimate D2E/DX2                !
 ! D50   D(10,5,6,11)          -49.9235         estimate D2E/DX2                !
 ! D51   D(10,5,6,16)           68.9233         estimate D2E/DX2                !
 ! D52   D(12,5,6,1)            66.4625         estimate D2E/DX2                !
 ! D53   D(12,5,6,11)         -172.8869         estimate D2E/DX2                !
 ! D54   D(12,5,6,16)          -54.0401         estimate D2E/DX2                !
 ! D55   D(4,5,12,21)          154.8176         estimate D2E/DX2                !
 ! D56   D(6,5,12,21)           33.791          estimate D2E/DX2                !
 ! D57   D(10,5,12,21)         -87.4679         estimate D2E/DX2                !
 ! D58   D(1,6,16,17)           57.6368         estimate D2E/DX2                !
 ! D59   D(1,6,16,18)          175.8382         estimate D2E/DX2                !
 ! D60   D(1,6,16,19)          -66.3152         estimate D2E/DX2                !
 ! D61   D(5,6,16,17)         -177.9413         estimate D2E/DX2                !
 ! D62   D(5,6,16,18)          -59.7399         estimate D2E/DX2                !
 ! D63   D(5,6,16,19)           58.1066         estimate D2E/DX2                !
 ! D64   D(11,6,16,17)         -59.1519         estimate D2E/DX2                !
 ! D65   D(11,6,16,18)          59.0495         estimate D2E/DX2                !
 ! D66   D(11,6,16,19)         176.896          estimate D2E/DX2                !
 ! D67   D(3,14,82,81)          81.8508         estimate D2E/DX2                !
 ! D68   D(23,14,82,81)       -135.083          estimate D2E/DX2                !
 ! D69   D(2,15,27,26)         167.5005         estimate D2E/DX2                !
 ! D70   D(2,15,27,28)          49.7331         estimate D2E/DX2                !
 ! D71   D(2,15,27,32)         -73.2579         estimate D2E/DX2                !
 ! D72   D(6,16,19,20)          71.796          estimate D2E/DX2                !
 ! D73   D(17,16,19,20)        -51.4729         estimate D2E/DX2                !
 ! D74   D(18,16,19,20)       -168.5001         estimate D2E/DX2                !
 ! D75   D(29,24,25,26)        -46.4561         estimate D2E/DX2                !
 ! D76   D(29,24,25,30)         77.4337         estimate D2E/DX2                !
 ! D77   D(29,24,25,37)       -168.5003         estimate D2E/DX2                !
 ! D78   D(25,24,29,28)         51.7381         estimate D2E/DX2                !
 ! D79   D(25,24,29,34)        -69.4043         estimate D2E/DX2                !
 ! D80   D(25,24,29,38)        173.7326         estimate D2E/DX2                !
 ! D81   D(24,25,26,27)         48.6117         estimate D2E/DX2                !
 ! D82   D(24,25,26,31)        -66.7783         estimate D2E/DX2                !
 ! D83   D(24,25,26,36)        176.3092         estimate D2E/DX2                !
 ! D84   D(30,25,26,27)        -75.3885         estimate D2E/DX2                !
 ! D85   D(30,25,26,31)        169.2215         estimate D2E/DX2                !
 ! D86   D(30,25,26,36)         52.309          estimate D2E/DX2                !
 ! D87   D(37,25,26,27)        167.7201         estimate D2E/DX2                !
 ! D88   D(37,25,26,31)         52.3302         estimate D2E/DX2                !
 ! D89   D(37,25,26,36)        -64.5823         estimate D2E/DX2                !
 ! D90   D(24,25,37,49)         63.8902         estimate D2E/DX2                !
 ! D91   D(26,25,37,49)        -57.1155         estimate D2E/DX2                !
 ! D92   D(30,25,37,49)       -177.7371         estimate D2E/DX2                !
 ! D93   D(25,26,27,15)       -178.3795         estimate D2E/DX2                !
 ! D94   D(25,26,27,28)        -55.8905         estimate D2E/DX2                !
 ! D95   D(25,26,27,32)         64.1413         estimate D2E/DX2                !
 ! D96   D(31,26,27,15)        -62.829          estimate D2E/DX2                !
 ! D97   D(31,26,27,28)         59.66           estimate D2E/DX2                !
 ! D98   D(31,26,27,32)        179.6918         estimate D2E/DX2                !
 ! D99   D(36,26,27,15)         55.7992         estimate D2E/DX2                !
 ! D100  D(36,26,27,28)        178.2882         estimate D2E/DX2                !
 ! D101  D(36,26,27,32)        -61.68           estimate D2E/DX2                !
 ! D102  D(25,26,36,44)       -160.4311         estimate D2E/DX2                !
 ! D103  D(25,26,36,64)         96.067          estimate D2E/DX2                !
 ! D104  D(27,26,36,44)        -31.8653         estimate D2E/DX2                !
 ! D105  D(27,26,36,64)       -135.3673         estimate D2E/DX2                !
 ! D106  D(31,26,36,44)         84.7103         estimate D2E/DX2                !
 ! D107  D(31,26,36,64)        -18.7916         estimate D2E/DX2                !
 ! D108  D(15,27,28,29)        170.9166         estimate D2E/DX2                !
 ! D109  D(15,27,28,33)        -72.4716         estimate D2E/DX2                !
 ! D110  D(15,27,28,35)         47.8933         estimate D2E/DX2                !
 ! D111  D(26,27,28,29)         56.5615         estimate D2E/DX2                !
 ! D112  D(26,27,28,33)        173.1733         estimate D2E/DX2                !
 ! D113  D(26,27,28,35)        -66.4618         estimate D2E/DX2                !
 ! D114  D(32,27,28,29)        -65.5918         estimate D2E/DX2                !
 ! D115  D(32,27,28,33)         51.0201         estimate D2E/DX2                !
 ! D116  D(32,27,28,35)        171.385          estimate D2E/DX2                !
 ! D117  D(27,28,29,24)        -54.865          estimate D2E/DX2                !
 ! D118  D(27,28,29,34)         67.7993         estimate D2E/DX2                !
 ! D119  D(27,28,29,38)       -172.5181         estimate D2E/DX2                !
 ! D120  D(33,28,29,24)       -173.1327         estimate D2E/DX2                !
 ! D121  D(33,28,29,34)        -50.4685         estimate D2E/DX2                !
 ! D122  D(33,28,29,38)         69.2142         estimate D2E/DX2                !
 ! D123  D(35,28,29,24)         66.7718         estimate D2E/DX2                !
 ! D124  D(35,28,29,34)       -170.564          estimate D2E/DX2                !
 ! D125  D(35,28,29,38)        -50.8814         estimate D2E/DX2                !
 ! D126  D(27,28,35,43)        145.0942         estimate D2E/DX2                !
 ! D127  D(27,28,35,84)          3.1238         estimate D2E/DX2                !
 ! D128  D(29,28,35,43)         24.4484         estimate D2E/DX2                !
 ! D129  D(29,28,35,84)       -117.5221         estimate D2E/DX2                !
 ! D130  D(33,28,35,43)        -94.3366         estimate D2E/DX2                !
 ! D131  D(33,28,35,84)        123.6929         estimate D2E/DX2                !
 ! D132  D(24,29,38,39)         58.167          estimate D2E/DX2                !
 ! D133  D(24,29,38,40)        176.9267         estimate D2E/DX2                !
 ! D134  D(24,29,38,41)        -64.26           estimate D2E/DX2                !
 ! D135  D(28,29,38,39)       -179.3428         estimate D2E/DX2                !
 ! D136  D(28,29,38,40)        -60.5831         estimate D2E/DX2                !
 ! D137  D(28,29,38,41)         58.2302         estimate D2E/DX2                !
 ! D138  D(34,29,38,39)        -60.0691         estimate D2E/DX2                !
 ! D139  D(34,29,38,40)         58.6906         estimate D2E/DX2                !
 ! D140  D(34,29,38,41)        177.5039         estimate D2E/DX2                !
 ! D141  D(28,35,81,78)       -171.7908         estimate D2E/DX2                !
 ! D142  D(28,35,81,82)        -53.8833         estimate D2E/DX2                !
 ! D143  D(28,35,81,83)         64.089          estimate D2E/DX2                !
 ! D144  D(43,35,81,78)         48.3205         estimate D2E/DX2                !
 ! D145  D(43,35,81,82)        166.2281         estimate D2E/DX2                !
 ! D146  D(43,35,81,83)        -75.7997         estimate D2E/DX2                !
 ! D147  D(26,36,64,56)          0.1674         estimate D2E/DX2                !
 ! D148  D(44,36,64,56)       -106.2312         estimate D2E/DX2                !
 ! D149  D(25,37,49,48)        112.5195         estimate D2E/DX2                !
 ! D150  D(25,37,49,50)       -126.2061         estimate D2E/DX2                !
 ! D151  D(25,37,49,55)         -8.8643         estimate D2E/DX2                !
 ! D152  D(29,38,41,42)         76.4285         estimate D2E/DX2                !
 ! D153  D(39,38,41,42)        -45.2126         estimate D2E/DX2                !
 ! D154  D(40,38,41,42)       -163.169          estimate D2E/DX2                !
 ! D155  D(38,41,62,59)        -19.6694         estimate D2E/DX2                !
 ! D156  D(38,41,62,63)       -167.7792         estimate D2E/DX2                !
 ! D157  D(50,45,46,47)         34.3541         estimate D2E/DX2                !
 ! D158  D(50,45,46,51)        153.8798         estimate D2E/DX2                !
 ! D159  D(50,45,46,58)        -87.7917         estimate D2E/DX2                !
 ! D160  D(46,45,50,49)         23.1211         estimate D2E/DX2                !
 ! D161  D(46,45,50,54)        -97.575          estimate D2E/DX2                !
 ! D162  D(46,45,50,59)        146.1097         estimate D2E/DX2                !
 ! D163  D(45,46,47,48)        -58.9202         estimate D2E/DX2                !
 ! D164  D(45,46,47,52)       -177.3757         estimate D2E/DX2                !
 ! D165  D(45,46,47,57)         62.7541         estimate D2E/DX2                !
 ! D166  D(51,46,47,48)       -175.5799         estimate D2E/DX2                !
 ! D167  D(51,46,47,52)         65.9645         estimate D2E/DX2                !
 ! D168  D(51,46,47,57)        -53.9057         estimate D2E/DX2                !
 ! D169  D(58,46,47,48)         63.5648         estimate D2E/DX2                !
 ! D170  D(58,46,47,52)        -54.8907         estimate D2E/DX2                !
 ! D171  D(58,46,47,57)       -174.7609         estimate D2E/DX2                !
 ! D172  D(45,46,58,66)       -119.5719         estimate D2E/DX2                !
 ! D173  D(47,46,58,66)        116.7741         estimate D2E/DX2                !
 ! D174  D(51,46,58,66)         -4.1645         estimate D2E/DX2                !
 ! D175  D(46,47,48,49)         23.2492         estimate D2E/DX2                !
 ! D176  D(46,47,48,53)        140.1463         estimate D2E/DX2                !
 ! D177  D(46,47,48,56)       -102.1889         estimate D2E/DX2                !
 ! D178  D(52,47,48,49)        142.1175         estimate D2E/DX2                !
 ! D179  D(52,47,48,53)       -100.9854         estimate D2E/DX2                !
 ! D180  D(52,47,48,56)         16.6794         estimate D2E/DX2                !
 ! D181  D(57,47,48,49)        -94.6041         estimate D2E/DX2                !
 ! D182  D(57,47,48,53)         22.2931         estimate D2E/DX2                !
 ! D183  D(57,47,48,56)        139.9579         estimate D2E/DX2                !
 ! D184  D(46,47,57,65)        166.6901         estimate D2E/DX2                !
 ! D185  D(48,47,57,65)        -72.0769         estimate D2E/DX2                !
 ! D186  D(52,47,57,65)         48.9664         estimate D2E/DX2                !
 ! D187  D(47,48,49,37)        150.9221         estimate D2E/DX2                !
 ! D188  D(47,48,49,50)         31.4701         estimate D2E/DX2                !
 ! D189  D(47,48,49,55)        -87.3771         estimate D2E/DX2                !
 ! D190  D(53,48,49,37)         33.7438         estimate D2E/DX2                !
 ! D191  D(53,48,49,50)        -85.7083         estimate D2E/DX2                !
 ! D192  D(53,48,49,55)        155.4445         estimate D2E/DX2                !
 ! D193  D(56,48,49,37)        -85.6625         estimate D2E/DX2                !
 ! D194  D(56,48,49,50)        154.8855         estimate D2E/DX2                !
 ! D195  D(56,48,49,55)         36.0383         estimate D2E/DX2                !
 ! D196  D(47,48,56,64)       -159.0033         estimate D2E/DX2                !
 ! D197  D(47,48,56,83)         77.9654         estimate D2E/DX2                !
 ! D198  D(49,48,56,64)         75.6767         estimate D2E/DX2                !
 ! D199  D(49,48,56,83)        -47.3546         estimate D2E/DX2                !
 ! D200  D(53,48,56,64)        -42.4403         estimate D2E/DX2                !
 ! D201  D(53,48,56,83)       -165.4716         estimate D2E/DX2                !
 ! D202  D(37,49,50,45)       -177.1219         estimate D2E/DX2                !
 ! D203  D(37,49,50,54)        -56.7246         estimate D2E/DX2                !
 ! D204  D(37,49,50,59)         65.4587         estimate D2E/DX2                !
 ! D205  D(48,49,50,45)        -57.3544         estimate D2E/DX2                !
 ! D206  D(48,49,50,54)         63.0428         estimate D2E/DX2                !
 ! D207  D(48,49,50,59)       -174.7738         estimate D2E/DX2                !
 ! D208  D(55,49,50,45)         63.2869         estimate D2E/DX2                !
 ! D209  D(55,49,50,54)       -176.3158         estimate D2E/DX2                !
 ! D210  D(55,49,50,59)        -54.1325         estimate D2E/DX2                !
 ! D211  D(45,50,59,60)         66.1681         estimate D2E/DX2                !
 ! D212  D(45,50,59,61)       -173.9297         estimate D2E/DX2                !
 ! D213  D(45,50,59,62)        -54.6921         estimate D2E/DX2                !
 ! D214  D(49,50,59,60)       -172.2788         estimate D2E/DX2                !
 ! D215  D(49,50,59,61)        -52.3766         estimate D2E/DX2                !
 ! D216  D(49,50,59,62)         66.861          estimate D2E/DX2                !
 ! D217  D(54,50,59,60)        -49.9612         estimate D2E/DX2                !
 ! D218  D(54,50,59,61)         69.941          estimate D2E/DX2                !
 ! D219  D(54,50,59,62)       -170.8214         estimate D2E/DX2                !
 ! D220  D(48,56,64,36)        -80.1214         estimate D2E/DX2                !
 ! D221  D(83,56,64,36)         52.2581         estimate D2E/DX2                !
 ! D222  D(48,56,83,81)        110.074          estimate D2E/DX2                !
 ! D223  D(64,56,83,81)        -12.6587         estimate D2E/DX2                !
 ! D224  D(46,58,66,67)         34.7712         estimate D2E/DX2                !
 ! D225  D(46,58,66,68)        149.1497         estimate D2E/DX2                !
 ! D226  D(46,58,66,69)        -88.5108         estimate D2E/DX2                !
 ! D227  D(50,59,62,42)       -102.9811         estimate D2E/DX2                !
 ! D228  D(50,59,62,63)         48.8653         estimate D2E/DX2                !
 ! D229  D(60,59,62,42)        136.6624         estimate D2E/DX2                !
 ! D230  D(60,59,62,63)        -71.4912         estimate D2E/DX2                !
 ! D231  D(61,59,62,42)         18.1531         estimate D2E/DX2                !
 ! D232  D(61,59,62,63)        169.9995         estimate D2E/DX2                !
 ! D233  D(58,66,69,70)       -172.4389         estimate D2E/DX2                !
 ! D234  D(58,66,69,71)         73.8506         estimate D2E/DX2                !
 ! D235  D(58,66,69,72)        -48.731          estimate D2E/DX2                !
 ! D236  D(67,66,69,70)         64.4682         estimate D2E/DX2                !
 ! D237  D(67,66,69,71)        -49.2423         estimate D2E/DX2                !
 ! D238  D(67,66,69,72)       -171.8239         estimate D2E/DX2                !
 ! D239  D(68,66,69,70)        -53.2705         estimate D2E/DX2                !
 ! D240  D(68,66,69,71)       -166.981          estimate D2E/DX2                !
 ! D241  D(68,66,69,72)         70.4374         estimate D2E/DX2                !
 ! D242  D(66,69,72,73)         62.9434         estimate D2E/DX2                !
 ! D243  D(66,69,72,74)        176.0495         estimate D2E/DX2                !
 ! D244  D(66,69,72,75)        -63.7446         estimate D2E/DX2                !
 ! D245  D(70,69,72,73)       -174.656          estimate D2E/DX2                !
 ! D246  D(70,69,72,74)        -61.5498         estimate D2E/DX2                !
 ! D247  D(70,69,72,75)         58.6561         estimate D2E/DX2                !
 ! D248  D(71,69,72,73)        -60.1508         estimate D2E/DX2                !
 ! D249  D(71,69,72,74)         52.9553         estimate D2E/DX2                !
 ! D250  D(71,69,72,75)        173.1612         estimate D2E/DX2                !
 ! D251  D(69,72,75,76)       -159.8346         estimate D2E/DX2                !
 ! D252  D(69,72,75,77)        -45.0301         estimate D2E/DX2                !
 ! D253  D(69,72,75,78)         77.16           estimate D2E/DX2                !
 ! D254  D(73,72,75,76)         73.9722         estimate D2E/DX2                !
 ! D255  D(73,72,75,77)       -171.2234         estimate D2E/DX2                !
 ! D256  D(73,72,75,78)        -49.0332         estimate D2E/DX2                !
 ! D257  D(74,72,75,76)        -39.6584         estimate D2E/DX2                !
 ! D258  D(74,72,75,77)         75.1461         estimate D2E/DX2                !
 ! D259  D(74,72,75,78)       -162.6638         estimate D2E/DX2                !
 ! D260  D(72,75,78,79)        -58.9171         estimate D2E/DX2                !
 ! D261  D(72,75,78,80)       -179.4732         estimate D2E/DX2                !
 ! D262  D(72,75,78,81)         61.6847         estimate D2E/DX2                !
 ! D263  D(76,75,78,79)        177.7391         estimate D2E/DX2                !
 ! D264  D(76,75,78,80)         57.183          estimate D2E/DX2                !
 ! D265  D(76,75,78,81)        -61.6591         estimate D2E/DX2                !
 ! D266  D(77,75,78,79)         64.7386         estimate D2E/DX2                !
 ! D267  D(77,75,78,80)        -55.8175         estimate D2E/DX2                !
 ! D268  D(77,75,78,81)       -174.6596         estimate D2E/DX2                !
 ! D269  D(75,78,81,82)         71.938          estimate D2E/DX2                !
 ! D270  D(75,78,81,83)        -52.289          estimate D2E/DX2                !
 ! D271  D(75,78,81,84)       -172.6004         estimate D2E/DX2                !
 ! D272  D(79,78,81,82)       -164.0241         estimate D2E/DX2                !
 ! D273  D(79,78,81,83)         71.749          estimate D2E/DX2                !
 ! D274  D(79,78,81,84)        -48.5624         estimate D2E/DX2                !
 ! D275  D(80,78,81,82)        -49.3892         estimate D2E/DX2                !
 ! D276  D(80,78,81,83)       -173.6161         estimate D2E/DX2                !
 ! D277  D(80,78,81,84)         66.0725         estimate D2E/DX2                !
 ! D278  D(78,81,82,14)         66.1202         estimate D2E/DX2                !
 ! D279  D(83,81,82,14)       -168.0526         estimate D2E/DX2                !
 ! D280  D(84,81,82,14)        -52.0898         estimate D2E/DX2                !
 ! D281  D(78,81,83,56)       -175.9572         estimate D2E/DX2                !
 ! D282  D(82,81,83,56)         59.2498         estimate D2E/DX2                !
 ! D283  D(84,81,83,56)        -54.8043         estimate D2E/DX2                !
 --------------------------------------------------------------------------------
 Trust Radius=3.00D-01 FncErr=1.00D-07 GrdErr=1.00D-06
 Number of steps in this run=    504 maximum allowed number of steps=    504.
 GradGradGradGradGradGradGradGradGradGradGradGradGradGradGradGradGradGrad

 Leave Link  103 at Wed Apr  6 19:57:03 2016, MaxMem= 10737418240 cpu:         0.4
 (Enter /share/apps//g09/l202.exe)
 Stoichiometry    C23H44NO16(1+)
 Framework group  C1[X(C23H44NO16)]
 Deg. of freedom   246
 Full point group                 C1      NOp   1
 Largest Abelian subgroup         C1      NOp   1
 Largest concise Abelian subgroup C1      NOp   1
                         Standard orientation:                         
 ---------------------------------------------------------------------
 Center     Atomic      Atomic             Coordinates (Angstroms)
 Number     Number       Type             X           Y           Z
 ---------------------------------------------------------------------
      1          8           0       -4.285407   -0.815989   -0.464887
      2          6           0       -3.185512    0.044903   -0.679259
      3          6           0       -3.620464    1.509536   -0.570550
      4          6           0       -4.288429    1.799748    0.776849
      5          6           0       -5.469575    0.844563    0.971850
      6          6           0       -4.995764   -0.608742    0.785469
      7          1           0       -2.834216   -0.186868   -1.697301
      8          1           0       -4.362963    1.669866   -1.370330
      9          1           0       -3.556547    1.663923    1.589529
     10          1           0       -5.839664    0.938411    2.012881
     11          1           0       -4.325053   -0.850746    1.632900
     12          8           0       -6.470077    1.268485    0.049489
     13          8           0       -4.678407    3.171525    0.818272
     14          8           0       -2.506148    2.400378   -0.770327
     15          8           0       -2.127832   -0.152368    0.257268
     16          6           0       -6.132896   -1.628457    0.792196
     17          1           0       -5.717140   -2.644291    0.691667
     18          1           0       -6.665721   -1.571693    1.751844
     19          8           0       -7.115841   -1.378098   -0.224071
     20          1           0       -6.715043   -1.602790   -1.084056
     21          1           0       -7.037100    0.489228   -0.149916
     22          1           0       -5.556765    3.217375    0.385921
     23          1           0       -2.850663    3.275397   -0.494080
     24          8           0        0.976941   -2.950338    0.004105
     25          6           0        0.702674   -2.366624    1.277252
     26          6           0       -0.236557   -1.167200    1.120786
     27          6           0       -1.461431   -1.435503    0.263305
     28          6           0       -0.995936   -1.939534   -1.107575
     29          6           0       -0.114897   -3.189431   -0.890523
     30          1           0        0.285283   -3.110958    1.979405
     31          1           0        0.339732   -0.410148    0.574769
     32          1           0       -2.125583   -2.196357    0.713106
     33          1           0       -1.870729   -2.257271   -1.705003
     34          1           0       -0.763634   -4.003786   -0.508345
     35          8           0       -0.296844   -0.894551   -1.804193
     36          8           0       -0.565671   -0.651789    2.417975
     37          8           0        1.938075   -1.997194    1.836223
     38          6           0        0.548965   -3.659111   -2.191215
     39          1           0        1.153768   -4.555474   -1.986193
     40          1           0       -0.220173   -3.922755   -2.931597
     41          8           0        1.359576   -2.624610   -2.767899
     42          1           0        2.208668   -2.565420   -2.245770
     43          1           0        0.430077   -1.368027   -2.326450
     44          1           0       -1.379830   -0.125904    2.293626
     45          8           0        4.930514   -0.518002    0.196232
     46          6           0        4.595553    0.843162    0.352520
     47          6           0        4.008513    1.135773    1.734663
     48          6           0        2.734681    0.296835    1.992942
     49          6           0        2.685929   -0.975908    1.128045
     50          6           0        4.098819   -1.516283    0.847103
     51          1           0        5.542647    1.390432    0.221592
     52          1           0        3.725148    2.200732    1.776112
     53          1           0        2.771210   -0.035444    3.043980
     54          1           0        4.574070   -1.810501    1.799350
     55          1           0        2.221600   -0.757038    0.154724
     56          8           0        1.574332    1.138001    1.807949
     57          8           0        5.046961    0.829218    2.663663
     58          8           0        3.659124    1.239806   -0.659389
     59          6           0        4.120797   -2.705866   -0.111364
     60          1           0        5.143745   -3.113189   -0.146944
     61          1           0        3.433315   -3.487484    0.229569
     62          8           0        3.709177   -2.319476   -1.433144
     63          1           0        4.228001   -1.518758   -1.648698
     64          1           0        0.837013    0.701811    2.295098
     65          1           0        4.804376    1.194077    3.532233
     66          6           0        4.114563    2.296580   -1.529305
     67          1           0        5.200182    2.194949   -1.697151
     68          1           0        3.630552    2.113408   -2.499532
     69          6           0        3.797157    3.699213   -1.003979
     70          1           0        4.061857    4.414363   -1.801775
     71          1           0        4.475428    3.928082   -0.165515
     72          6           0        2.356270    3.958228   -0.530403
     73          1           0        2.130292    3.306862    0.329514
     74          1           0        2.329108    4.980707   -0.124617
     75          6           0        1.239992    3.860635   -1.586930
     76          1           0        0.354260    4.405690   -1.219724
     77          1           0        1.547433    4.388387   -2.504503
     78          6           0        0.796445    2.459607   -2.006696
     79          1           0        1.617622    1.865725   -2.422180
     80          1           0        0.006630    2.517589   -2.767256
     81          7           0        0.226968    1.660689   -0.872791
     82          1           0       -0.714956    2.018945   -0.595814
     83          1           0        0.855506    1.629270   -0.043033
     84          1           0        0.058300    0.668133   -1.191709
 ---------------------------------------------------------------------
 Rotational constants (GHZ):      0.1410428      0.0595028      0.0510039
 Leave Link  202 at Wed Apr  6 19:57:03 2016, MaxMem= 10737418240 cpu:         0.8
 (Enter /share/apps//g09/l301.exe)
 Standard basis: 6-311+G(d,p) (5D, 7F)
 Ernie: Thresh=  0.10000D-02 Tol=  0.10000D-05 Strict=F.
 There are  1184 symmetry adapted cartesian basis functions of A   symmetry.
 There are  1144 symmetry adapted basis functions of A   symmetry.
  1144 basis functions,  1792 primitive gaussians,  1184 cartesian basis functions
   158 alpha electrons      158 beta electrons
       nuclear repulsion energy      5882.4903877052 Hartrees.
 IExCor= 1009 DFT=T Ex+Corr=PBE1PBE ExCW=0 ScaHFX=  0.250000
 ScaDFX=  0.750000  0.750000  1.000000  1.000000 ScalE2=  1.000000  1.000000
 IRadAn=      0 IRanWt=     -1 IRanGd=            0 ICorTp=0 IEmpDi=131
 NAtoms=   84 NActive=   84 NUniq=   84 SFac= 1.00D+00 NAtFMM=   60 NAOKFM=T Big=T
 Integral buffers will be    131072 words long.
 Raffenetti 2 integral format.
 Two-electron integral symmetry is turned on.
 R6Disp:  Grimme-D3 Dispersion energy=       -0.0854074233 Hartrees.
 Nuclear repulsion after empirical dispersion term =     5882.4049802819 Hartrees.
 Leave Link  301 at Wed Apr  6 19:57:03 2016, MaxMem= 10737418240 cpu:         2.0
 (Enter /share/apps//g09/l302.exe)
 NPDir=0 NMtPBC=     1 NCelOv=     1 NCel=       1 NClECP=     1 NCelD=      1
         NCelK=      1 NCelE2=     1 NClLst=     1 CellRange=     0.0.
 One-electron integrals computed using PRISM.
 NBasis=  1144 RedAO= T EigKep=  1.02D-06  NBF=  1144
 NBsUse=  1143 1.00D-06 EigRej=  7.71D-07 NBFU=  1143
 Precomputing XC quadrature grid using
 IXCGrd= 4 IRadAn=           0 IRanWt=          -1 IRanGd=           0 AccXCQ= 0.00D+00.
 Generated NRdTot=       0 NPtTot=           0 NUsed=           0 NTot=          32
 NSgBfM=  1102  1102  1114  1116  1117 MxSgAt=    84 MxSgA2=    84.
 Leave Link  302 at Wed Apr  6 19:57:07 2016, MaxMem= 10737418240 cpu:        53.3
 (Enter /share/apps//g09/l303.exe)
 DipDrv:  MaxL=1.
 Leave Link  303 at Wed Apr  6 19:57:08 2016, MaxMem= 10737418240 cpu:        22.9
 (Enter /share/apps//g09/l401.exe)
 ExpMin= 4.38D-02 ExpMax= 8.59D+03 ExpMxC= 1.30D+03 IAcc=2 IRadAn=         4 AccDes= 0.00D+00
 Harris functional with IExCor= 1009 and IRadAn=       4 diagonalized for initial guess.
 HarFok:  IExCor= 1009 AccDes= 0.00D+00 IRadAn=         4 IDoV= 1 UseB2=F ITyADJ=14
 ICtDFT=  3500011 ScaDFX=  1.000000  1.000000  1.000000  1.000000
 FoFCou: FMM=F IPFlag=           0 FMFlag=      100000 FMFlg1=        2001
         NFxFlg=           0 DoJE=T BraDBF=F KetDBF=T FulRan=T
         wScrn=  0.000000 ICntrl=     500 IOpCl=  0 I1Cent=   200000004 NGrid=           0
         NMat0=    1 NMatS0=      1 NMatT0=    0 NMatD0=    1 NMtDS0=    0 NMtDT0=    0
 Petite list used in FoFCou.
 Harris En= -2159.70281205325    
 JPrj=0 DoOrth=F DoCkMO=F.
 Leave Link  401 at Wed Apr  6 19:57:21 2016, MaxMem= 10737418240 cpu:       220.2
 (Enter /share/apps//g09/l502.exe)
 Closed shell SCF:
 Using DIIS extrapolation, IDIIS=  1040.
 Integral symmetry usage will be decided dynamically.
 IVT=     4256630 IEndB=     4256630 NGot= 10737418240 MDV= 10734581291
 LenX= 10734581291 LenY= 10733178251
 Requested convergence on RMS density matrix=1.00D-08 within 128 cycles.
 Requested convergence on MAX density matrix=1.00D-06.
 Requested convergence on             energy=1.00D-06.
 No special actions if energy rises.
 Fock matrices will be formed incrementally for  20 cycles.

 Cycle   1  Pass 1  IDiag  1:
 FoFJK:  IHMeth= 1 ICntrl=       0 DoSepK=F KAlg= 0 I1Cent=   0 FoldK=F
 IRaf= 770000000 NMat=   1 IRICut=       1 DoRegI=T DoRafI=F ISym2E= 0.
 FoFCou: FMM=T IPFlag=           0 FMFlag=      100000 FMFlg1=        2001
         NFxFlg=           0 DoJE=F BraDBF=F KetDBF=F FulRan=T
         wScrn=  0.000000 ICntrl=       0 IOpCl=  0 I1Cent=           0 NGrid=           0
         NMat0=    1 NMatS0=      1 NMatT0=    0 NMatD0=    1 NMtDS0=    0 NMtDT0=    0
 Symmetry not used in FoFCou.
 FMM levels:  10  Number of levels for PrismC:   9
 E= -2158.70336663719    
 DIIS: error= 1.25D-02 at cycle   1 NSaved=   1.
 NSaved= 1 IEnMin= 1 EnMin= -2158.70336663719     IErMin= 1 ErrMin= 1.25D-02
 ErrMax= 1.25D-02  0.00D+00 EMaxC= 1.00D-01 BMatC= 1.01D+00 BMatP= 1.01D+00
 IDIUse=3 WtCom= 8.75D-01 WtEn= 1.25D-01
 Coeff-Com:  0.100D+01
 Coeff-En:   0.100D+01
 Coeff:      0.100D+01
 Gap=     0.269 Goal=   None    Shift=    0.000
 GapD=    0.269 DampG=1.000 DampE=0.500 DampFc=0.5000 IDamp=-1.
 Damping current iteration by 5.00D-01
 RMSDP=1.46D-02 MaxDP=4.25D+00              OVMax= 1.37D-01

 Cycle   2  Pass 1  IDiag  1:
 RMSU=  7.27D-03    CP:  1.00D+00
 E= -2158.98374770372     Delta-E=       -0.280381066528 Rises=F Damp=T
 DIIS: error= 3.78D-03 at cycle   2 NSaved=   2.
 NSaved= 2 IEnMin= 2 EnMin= -2158.98374770372     IErMin= 2 ErrMin= 3.78D-03
 ErrMax= 3.78D-03  0.00D+00 EMaxC= 1.00D-01 BMatC= 7.90D-02 BMatP= 1.01D+00
 IDIUse=3 WtCom= 9.62D-01 WtEn= 3.78D-02
 Coeff-Com:  0.526D-01 0.947D+00
 Coeff-En:   0.145D+00 0.855D+00
 Coeff:      0.561D-01 0.944D+00
 Gap=     0.305 Goal=   None    Shift=    0.000
 RMSDP=4.97D-03 MaxDP=1.65D+00 DE=-2.80D-01 OVMax= 8.60D-02

 Cycle   3  Pass 1  IDiag  1:
 RMSU=  2.91D-03    CP:  9.50D-01  6.76D-01
 E= -2159.34197333252     Delta-E=       -0.358225628798 Rises=F Damp=F
 DIIS: error= 3.69D-03 at cycle   3 NSaved=   3.
 NSaved= 3 IEnMin= 3 EnMin= -2159.34197333252     IErMin= 3 ErrMin= 3.69D-03
 ErrMax= 3.69D-03  0.00D+00 EMaxC= 1.00D-01 BMatC= 4.38D-02 BMatP= 7.90D-02
 IDIUse=3 WtCom= 9.63D-01 WtEn= 3.69D-02
 Coeff-Com: -0.705D-01 0.411D+00 0.660D+00
 Coeff-En:   0.000D+00 0.000D+00 0.100D+01
 Coeff:     -0.679D-01 0.396D+00 0.672D+00
 Gap=     0.280 Goal=   None    Shift=    0.000
 RMSDP=1.28D-03 MaxDP=2.78D-01 DE=-3.58D-01 OVMax= 1.77D-02

 Cycle   4  Pass 1  IDiag  1:
 RMSU=  8.95D-04    CP:  9.47D-01  7.80D-01  8.36D-01
 E= -2159.36954032711     Delta-E=       -0.027566994591 Rises=F Damp=F
 DIIS: error= 1.05D-03 at cycle   4 NSaved=   4.
 NSaved= 4 IEnMin= 4 EnMin= -2159.36954032711     IErMin= 4 ErrMin= 1.05D-03
 ErrMax= 1.05D-03  0.00D+00 EMaxC= 1.00D-01 BMatC= 5.70D-03 BMatP= 4.38D-02
 IDIUse=3 WtCom= 9.89D-01 WtEn= 1.05D-02
 Coeff-Com: -0.359D-01 0.125D+00 0.341D+00 0.570D+00
 Coeff-En:   0.000D+00 0.000D+00 0.710D-01 0.929D+00
 Coeff:     -0.356D-01 0.124D+00 0.338D+00 0.574D+00
 Gap=     0.276 Goal=   None    Shift=    0.000
 RMSDP=1.15D-03 MaxDP=3.63D-01 DE=-2.76D-02 OVMax= 5.76D-03

 Cycle   5  Pass 1  IDiag  1:
 RMSU=  4.13D-04    CP:  9.30D-01  7.61D-01  8.51D-01  5.89D-01
 E= -2159.37435881816     Delta-E=       -0.004818491048 Rises=F Damp=F
 DIIS: error= 3.33D-04 at cycle   5 NSaved=   5.
 NSaved= 5 IEnMin= 5 EnMin= -2159.37435881816     IErMin= 5 ErrMin= 3.33D-04
 ErrMax= 3.33D-04  0.00D+00 EMaxC= 1.00D-01 BMatC= 2.71D-04 BMatP= 5.70D-03
 IDIUse=3 WtCom= 9.97D-01 WtEn= 3.33D-03
 Coeff-Com: -0.110D-01 0.247D-01 0.997D-01 0.252D+00 0.635D+00
 Coeff-En:   0.000D+00 0.000D+00 0.000D+00 0.000D+00 0.100D+01
 Coeff:     -0.110D-01 0.246D-01 0.994D-01 0.251D+00 0.636D+00
 Gap=     0.275 Goal=   None    Shift=    0.000
 RMSDP=2.51D-04 MaxDP=7.46D-02 DE=-4.82D-03 OVMax= 1.52D-03

 Cycle   6  Pass 1  IDiag  1:
 RMSU=  9.17D-05    CP:  9.34D-01  7.63D-01  8.62D-01  6.16D-01  6.96D-01
 E= -2159.37456637846     Delta-E=       -0.000207560301 Rises=F Damp=F
 DIIS: error= 5.83D-05 at cycle   6 NSaved=   6.
 NSaved= 6 IEnMin= 6 EnMin= -2159.37456637846     IErMin= 6 ErrMin= 5.83D-05
 ErrMax= 5.83D-05  0.00D+00 EMaxC= 1.00D-01 BMatC= 1.86D-05 BMatP= 2.71D-04
 IDIUse=1 WtCom= 1.00D+00 WtEn= 0.00D+00
 Coeff-Com: -0.368D-02 0.643D-02 0.334D-01 0.978D-01 0.311D+00 0.555D+00
 Coeff:     -0.368D-02 0.643D-02 0.334D-01 0.978D-01 0.311D+00 0.555D+00
 Gap=     0.275 Goal=   None    Shift=    0.000
 RMSDP=3.62D-05 MaxDP=7.09D-03 DE=-2.08D-04 OVMax= 3.62D-04

 Cycle   7  Pass 1  IDiag  1:
 RMSU=  1.77D-05    CP:  9.34D-01  7.63D-01  8.62D-01  6.29D-01  7.11D-01
                    CP:  7.24D-01
 E= -2159.37458062929     Delta-E=       -0.000014250838 Rises=F Damp=F
 DIIS: error= 1.31D-05 at cycle   7 NSaved=   7.
 NSaved= 7 IEnMin= 7 EnMin= -2159.37458062929     IErMin= 7 ErrMin= 1.31D-05
 ErrMax= 1.31D-05  0.00D+00 EMaxC= 1.00D-01 BMatC= 1.20D-06 BMatP= 1.86D-05
 IDIUse=1 WtCom= 1.00D+00 WtEn= 0.00D+00
 Coeff-Com: -0.941D-03 0.129D-02 0.895D-02 0.293D-01 0.103D+00 0.261D+00
 Coeff-Com:  0.598D+00
 Coeff:     -0.941D-03 0.129D-02 0.895D-02 0.293D-01 0.103D+00 0.261D+00
 Coeff:      0.598D+00
 Gap=     0.275 Goal=   None    Shift=    0.000
 RMSDP=8.11D-06 MaxDP=2.09D-03 DE=-1.43D-05 OVMax= 9.62D-05

 Cycle   8  Pass 1  IDiag  1:
[...]
 0,0.00003253,0.00008515,-0.00003042,0.00010670,0.00012232,-0.00000501,
 0.00005133,-0.00002213,0.00047141,0.00024025,0.00070025,-0.00158844,-0
 .00024250,-0.00074245,-0.00058877,0.00021093,-0.00064775,-0.00002701,-
 0.00007702,-0.00014143,0.00001831,0.00003371,0.00000946,-0.00002608,0.
 00000029,0.00000874,0.00015811,0.00028548,-0.00004825,0.00002375,-0.00
 014307,0.00017188,-0.00043771,-0.00027557,0.00008303,0.00014604,0.0000
 4374,0.00038818,-0.00023667,0.00034632,0.00003275,0.00104913,-0.001472
 88,0.00016896,-0.00003446,0.00001367,-0.00059403,0.00422727,0.00162670
 ,-0.00364555,0.00107690,-0.00078241,0.00112159,-0.00040206,-0.00008605
 ,-0.00042890,-0.00021092,0.00019034,-0.00009079,-0.00005512,-0.0000611
 5,-0.00021578,-0.00062336,-0.00111685,0.00094648,0.00006306,0.00011422
 ,-0.00008930,-0.00060118,-0.00028877,-0.00012782,-0.00395792,-0.004883
 30,0.00316695,-0.00011771,-0.00013482,0.00077687,-0.00077371,0.0011159
 0,-0.00144877,0.00018366,-0.00025488,0.00026802,-0.00010309,0.00001313
 ,-0.00003037,0.00001317,0.00000770,0.00000773,-0.00021387,0.00031140,-
 0.00015834,0.00002512,-0.00010359,0.00008049,-0.00040053,0.00070416,0.
 00207378,-0.00012932,0.00007896,-0.00018680,0.00027604,0.00042262,0.00
 037383,-0.00007984,-0.00006644,-0.00016972,-0.00023365,0.00008093,0.00
 004943,-0.00004174,0.00061960,0.00009741,-0.00017378,-0.00006291,0.000
 22887,-0.00004302,-0.00000963,-0.00009919,0.00104955,-0.00160034,-0.00
 009151,-0.00033171,0.00011459,-0.00123991,-0.00019916,0.00025482,0.000
 18250,0.00130540,-0.00123385,-0.00011869,-0.00005927,-0.00006989,0.000
 04006,-0.00054609,-0.00008562,-0.00032241,-0.00726036,0.00881764,-0.00
 278674,-0.00044083,-0.00008813,-0.00016358,-0.00002324,-0.00006594,0.0
 0109916,-0.16431362,0.11076241,-0.09520916,0.01827437,-0.01310079,0.00
 693091,0.16868848,0.00011043,-0.00036211,-0.00019374,-0.00023671,0.000
 58783,0.00024325,0.00013041,0.00044293,0.00095606,-0.00012888,0.000083
 38,-0.00005438,0.00008686,0.00005802,0.00003661,-0.00015628,0.00015796
 ,-0.00000909,0.00016225,-0.00002604,0.00013937,-0.00004972,-0.00007831
 ,-0.00014138,0.00001555,0.00001626,0.00002555,0.00001891,-0.00001587,-
 0.00005559,0.00004077,-0.00002462,0.00000146,-0.00000568,-0.00008347,-
 0.00010811,0.00011316,-0.00010799,-0.00017829,0.00002351,0.00013813,-0
 .00132976,0.00025775,-0.00129644,-0.00005022,0.00001668,0.00003307,0.0
 0000537,-0.00002518,-0.00001353,-0.00000871,0.00000330,0.00000579,-0.0
 0001403,-0.00000952,-0.00008246,-0.00002242,0.00001247,0.00002695,0.00
 003101,0.00002859,0.00003324,0.00004671,-0.00003213,-0.00000854,0.0000
 6375,-0.00010725,-0.00010489,0.00013193,0.00110780,-0.00028589,0.00057
 655,-0.00119106,0.00014535,-0.00069126,0.00010487,-0.00080792,-0.00087
 280,-0.00002887,0.00128977,-0.00014778,-0.00084250,0.00052575,0.001098
 02,-0.00034908,0.00029977,-0.00090022,0.00011119,0.00010090,0.00003988
 ,-0.00140112,-0.00101151,-0.00164318,0.00008437,-0.00020720,0.00014433
 ,0.00012205,-0.00018969,-0.00017239,-0.00000086,-0.00014708,0.00012777
 ,-0.00167290,-0.00291518,-0.00148346,0.00034417,0.00041250,0.00154415,
 0.00046538,0.00039042,0.00095092,0.00001017,0.00009535,0.00020658,-0.0
 0003771,-0.00003860,-0.00001781,0.00006417,-0.00001113,0.00000057,-0.0
 0016008,-0.00050008,0.00023226,-0.00023427,0.00019045,-0.00034552,0.00
 039170,0.00032066,-0.00054359,-0.00001751,0.00026933,-0.00044023,0.000
 16014,-0.00053269,-0.00032376,-0.00066855,0.00114360,0.00009624,0.0004
 5414,0.00036373,0.00104857,-0.00294936,-0.00399683,0.00423955,0.000256
 63,-0.00075971,-0.00098610,-0.00007046,0.00045710,0.00084599,0.0001846
 6,-0.00006104,-0.00013534,-0.00010339,0.00005832,0.00009709,0.00038348
 ,0.00110826,-0.00091935,0.00006608,-0.00000138,-0.00010199,-0.00087728
 ,-0.00017770,0.00001735,-0.00326979,0.00466837,-0.00196528,-0.00008724
 ,0.00002617,-0.00109706,0.00082844,-0.00224317,-0.00063503,-0.00035300
 ,0.00022299,-0.00031138,0.00017950,0.00000330,0.00001152,-0.00005369,-
 0.00003359,0.00000444,0.00055378,-0.00029717,0.00013388,-0.00017779,0.
 00010165,0.00003066,0.00089617,-0.00032527,-0.00286916,0.00021010,-0.0
 0000812,0.00030654,-0.00004632,0.00160600,0.00033310,-0.00001121,-0.00
 029333,-0.00006004,0.00023914,-0.00018589,-0.00008760,0.00012647,0.000
 29068,-0.00021463,-0.00017659,-0.00014258,0.00015304,0.00001735,-0.000
 06057,0.00025702,0.00002260,-0.00057772,-0.00063653,-0.00127283,0.0016
 5703,-0.00071207,-0.00002743,0.00024676,0.00044025,-0.00046396,-0.0005
 8097,0.00075377,-0.00012116,-0.00036035,0.00002322,0.00023875,0.000520
 92,0.00048823,0.01396431,-0.01630966,0.00939178,-0.00055078,0.00105952
 ,0.00033971,0.00116351,-0.00111747,-0.00267470,0.10951791,-0.17916079,
 0.10560189,0.00700015,-0.00819258,0.00618939,-0.11477895,0.18500642,-0
 .00000300,0.00000433,0.00045819,-0.00021606,0.00048351,-0.00050935,0.0
 0005245,0.00002162,-0.00015078,0.00005576,0.00015191,-0.00010153,-0.00
 000822,0.00000294,-0.00007011,0.00014473,-0.00002025,-0.00010433,0.000
 03440,-0.00004631,0.00003155,-0.00000449,-0.00001957,0.00002970,0.0000
 5660,-0.00003469,-0.00001552,-0.00001351,-0.00000274,0.00001891,-0.000
 00480,-0.00000941,-0.00001114,0.00000210,-0.00004005,0.00012133,-0.000
 10403,-0.00011515,0.00008362,0.00060485,0.00024844,-0.00017085,0.00033
 254,-0.00010343,0.00064960,-0.00003867,-0.00000069,-0.00006437,0.00000
 671,-0.00000437,-0.00000563,-0.00000250,-0.00000446,0.00001351,0.00004
 237,-0.00000203,0.00008627,-0.00002442,-0.00000362,-0.00004488,-0.0000
 0505,0.00000011,-0.00004410,0.00002566,0.00002143,-0.00003271,0.000067
 99,0.00013858,-0.00023062,-0.00007206,0.00025021,-0.00033429,0.0000003
 1,-0.00035766,0.00154262,0.00081606,-0.00046252,-0.00147447,-0.0002787
 7,-0.00028864,-0.00011609,-0.00000890,-0.00018414,-0.00024347,0.000040
 91,-0.00021469,0.00014421,0.00007109,0.00019858,-0.00017836,-0.0006586
 8,-0.00138237,0.00039486,0.00004958,0.00002999,0.00014172,0.00002714,0
 .00004878,0.00006037,-0.00000490,0.00002983,-0.00003059,0.00055918,0.0
 0030902,0.00035678,-0.00064695,0.00032083,-0.00025156,-0.00012830,-0.0
 0024900,-0.00113062,-0.00008980,0.00004361,0.00003542,0.00003350,0.000
 01686,-0.00000977,-0.00002047,-0.00000704,-0.00001264,0.00014308,0.000
 19975,-0.00030108,0.00010875,-0.00012216,0.00034002,-0.00031836,-0.000
 30073,0.00028014,0.00011838,-0.00024514,-0.00026394,-0.00045325,-0.000
 87781,-0.00032493,-0.00001164,0.00204936,-0.00053553,-0.00020232,0.000
 52179,-0.00031720,0.00000800,0.00142544,-0.00117415,0.00004927,0.00038
 357,0.00069124,-0.00010248,0.00025075,0.00023643,0.00005574,-0.0001647
 9,0.00016204,-0.00017599,-0.00009096,-0.00018277,-0.00009162,-0.000275
 43,0.00019119,0.00003064,-0.00004094,-0.00003999,0.00019741,0.00012176
 ,0.00017921,0.00114204,-0.00052314,-0.00585672,0.00017410,-0.00044316,
 0.00018561,-0.00083294,-0.00110605,0.00214892,0.00014809,-0.00007943,0
 .00006707,-0.00003559,0.00000934,-0.00001389,-0.00003562,-0.00002784,0
 .00000497,-0.00025976,0.00006148,-0.00021481,0.00017833,0.00005949,0.0
 0006860,0.00170855,-0.00235797,0.00256365,-0.00007351,0.00004744,-0.00
 002499,0.00071908,-0.00125223,-0.00060182,-0.00012843,0.00016179,0.000
 20392,-0.00017900,0.00015337,0.00001868,-0.00018037,0.00045666,-0.0002
 8190,-0.00008777,0.00005893,0.00026197,-0.00000072,-0.00000629,-0.0000
 7572,0.00171826,-0.00180612,-0.00076397,-0.00253115,0.00046461,-0.0009
 4297,-0.00033214,0.00091727,0.00050537,0.00018161,-0.00082040,0.000879
 29,-0.00006951,0.00014868,-0.00012492,-0.00022304,0.00032981,-0.000188
 52,0.01355631,-0.01261249,0.01870055,0.00044616,0.00011047,0.00027197,
 0.00228576,-0.00422349,-0.00336355,-0.09413680,0.10520226,-0.15240997,
 -0.01784658,0.01217972,-0.01083859,0.10091709,-0.10544239,0.16043292,-
 0.00077730,-0.00024897,-0.00017446,0.00157523,-0.00039472,0.00055045,0
 .00023533,0.00086568,0.00160978,0.00004549,-0.00008533,-0.00013401,0.0
 0015141,0.00010778,0.00006109,0.00021737,0.00004989,-0.00014582,-0.000
 13995,0.00040921,-0.00036877,-0.00005597,-0.00004768,-0.00025945,-0.00
 003344,0.00005181,0.00004554,-0.00002463,-0.00003887,-0.00004470,0.000
 00952,0.00002777,0.00002097,-0.00013297,-0.00011660,-0.00015762,-0.000
 08339,-0.00021311,-0.00023717,0.00023506,0.00052745,-0.00221033,-0.001
 46106,-0.00154885,-0.00162664,0.00000114,0.00008865,0.00001859,-0.0000
 2462,-0.00005358,-0.00004160,-0.00000971,0.00000156,0.00002327,-0.0000
 7930,-0.00011537,-0.00001073,0.00006175,0.00004610,-0.00002266,0.00010
 442,0.00008044,0.00004248,-0.00000436,0.00001139,0.00007955,-0.0001930
 4,-0.00003040,-0.00008191,-0.00213255,0.00112256,-0.00092869,0.0027782
 1,-0.00073023,-0.00009213,-0.00025990,0.00032084,0.00229480,0.00229179
 ,0.00223069,0.00009039,0.00701219,-0.00556415,-0.00746202,-0.00001360,
 -0.00030649,0.00320538,-0.00027294,-0.00018428,0.00012928,0.00062794,0
 .00158439,-0.00072026,-0.00077287,-0.00008825,-0.00010313,-0.00007587,
 0.00158380,0.00180981,0.00016680,0.00101900,-0.00034486,-0.00382184,0.
 00852120,0.00827682,-0.00072543,-0.00049169,-0.00092001,-0.00071623,-0
 .00016661,-0.00102658,-0.00053505,-0.00087251,-0.00074843,0.00007724,0
 .00021508,0.00002805,-0.00015310,-0.00002704,0.00004459,0.00204320,0.0
 0245104,-0.00127449,0.00033139,-0.00052792,0.00133515,-0.00486439,-0.0
 0179222,0.00365000,0.00007864,0.00025052,0.00036207,-0.00055927,-0.000
 73193,-0.00037404,0.00034192,0.00126250,-0.00016196,-0.00009928,0.0001
 2129,-0.00007344,0.00056187,0.00099011,-0.00072105,0.00003977,0.000341
 83,0.00048776,0.00005825,0.00021981,0.00020092,-0.00000309,-0.00006306
 ,0.00000284,-0.00011499,-0.00004951,-0.00007705,-0.00007749,-0.0002056
 3,0.00013398,-0.00002037,-0.00003801,-0.00003102,0.00049891,0.00005255
 ,0.00015183,0.00057257,-0.00174080,0.00068634,0.00006304,-0.00029376,0
 .00014455,-0.00021704,-0.00105932,0.00031779,0.00041977,-0.00042326,0.
 00012816,-0.00008831,0.00007794,-0.00006388,-0.00001460,-0.00005388,0.
 00004233,-0.00057074,0.00054085,-0.00070860,0.00017044,0.00008451,0.00
 020073,-0.00018534,0.00038995,0.00040189,-0.00002207,0.00005710,0.0000
 0096,0.00005833,0.00042708,0.00014264,0.00000551,-0.00012441,0.0000987
 8,0.00020042,0.00002400,-0.00007243,0.00011020,0.00000950,-0.00018388,
 -0.00006732,-0.00000516,-0.00001121,-0.00001961,-0.00010028,0.00015036
 ,-0.00024328,0.00023132,-0.00046436,-0.00013606,-0.00001176,-0.0001159
 9,0.00008480,-0.00003339,0.00017697,-0.00386377,0.00375771,0.00295291,
 -0.00011370,-0.00028998,-0.00029483,0.00119672,0.00110280,0.00122600,0
 .01994180,0.00628814,0.00606017,0.00008704,0.00047753,0.00113655,-0.00
 001118,0.00086416,0.00000073,-0.20954256,-0.10636068,-0.08753965,-0.01
 463503,-0.01015170,-0.00467100,-0.01366775,-0.00754273,-0.00626842,0.2
 1918086,-0.00019590,-0.00059508,0.00025722,-0.00019955,0.00142213,-0.0
 0037070,0.00026473,0.00083500,0.00172444,-0.00002944,0.00007716,-0.000
 15934,0.00016260,0.00013676,0.00002602,0.00011866,0.00014751,-0.000217
 08,0.00028981,0.00021571,0.00016610,-0.00011359,-0.00012959,-0.0001963
 2,0.00004052,0.00002614,0.00004834,-0.00001085,-0.00004209,-0.00005910
 ,0.00005321,-0.00002197,-0.00001095,-0.00008653,-0.00017974,-0.0001129
 4,-0.00001074,-0.00026765,-0.00023896,0.00055468,0.00034877,-0.0019273
 4,-0.00050706,-0.00224469,0.00046157,-0.00000169,0.00007634,-0.0000406
 4,-0.00003335,-0.00004979,-0.00003891,-0.00000597,0.00000178,0.0000117
 6,-0.00002142,-0.00014893,0.00004782,0.00002471,0.00005543,-0.00002019
 ,0.00008427,0.00008304,0.00003539,-0.00001722,0.00001128,0.00007894,-0
 .00014895,-0.00012579,-0.00015373,-0.00053523,0.00091575,-0.00031112,0
 .00087645,-0.00082830,0.00118306,0.00150897,-0.00171102,-0.00185369,0.
 00094430,0.00102667,-0.00157020,0.00146750,-0.00518068,-0.00425883,-0.
 00021827,-0.00061965,0.00061693,0.00000376,0.00023105,-0.00009824,0.00
 215845,-0.00173682,0.00126393,-0.00046062,-0.00014448,0.00026456,0.000
 06663,0.00104446,0.00125761,0.00002073,0.00036193,-0.00006628,0.005609
 73,0.00122379,0.00209836,-0.00206926,0.00029956,0.00025181,-0.00041389
 ,0.00004940,-0.00110922,-0.00039392,-0.00046217,-0.00031731,0.00005567
 ,0.00011323,-0.00001290,-0.00007563,-0.00002972,0.00002457,0.00139791,
 0.00142222,-0.00098778,0.00007968,-0.00023890,0.00083515,-0.00280640,-
 0.00089573,0.00357294,0.00019452,0.00032607,0.00002745,-0.00042784,-0.
 00077911,-0.00048903,0.00027027,0.00132944,-0.00011413,-0.00005749,0.0
 0014794,0.00008482,0.00070555,0.00057383,-0.00052560,0.00046735,-0.000
 13188,0.00064069,-0.00022670,0.00037392,0.00038543,0.00001498,-0.00007
 518,-0.00002251,-0.00012355,-0.00005017,-0.00010612,-0.00014010,-0.000
 21594,0.00014118,0.00006146,0.00001124,-0.00011086,-0.00002408,0.00001
 917,0.00029957,-0.00010771,-0.00220272,0.00011471,0.00002930,-0.000255
 17,-0.00001279,-0.00006110,-0.00129856,0.00019867,0.00014872,-0.000230
 77,0.00008395,-0.00001788,0.00004472,-0.00005780,-0.00004620,-0.000072
 33,0.00004226,-0.00016419,0.00025076,-0.00050381,0.00004982,0.00013322
 ,0.00015431,0.00028685,0.00029837,0.00071936,0.00000988,0.00004998,0.0
 0004234,-0.00011936,0.00062186,0.00015762,0.00001943,-0.00015248,0.000
 05921,0.00020926,-0.00006927,-0.00006288,0.00001734,0.00015721,-0.0001
 6143,-0.00010831,-0.00004545,0.00010428,0.00001851,-0.00004183,0.00011
 070,0.00040808,-0.00003285,0.00000032,-0.00041035,0.00048264,-0.000138
 16,0.00004602,0.00006671,0.00024718,0.00260051,-0.00221124,-0.00121850
 ,0.00029120,0.00008415,0.00019111,-0.00062615,-0.00009758,-0.00039047,
 -0.01384384,-0.01517332,-0.01208128,-0.00044510,0.00176444,0.00071031,
 -0.00040620,-0.00027148,0.00066802,-0.10546746,-0.13776979,-0.05898025
 ,-0.01178252,-0.00881452,-0.00390761,0.01729298,0.01957249,0.00873745,
 0.10403664,0.14921117,-0.00065653,-0.00008759,0.00119649,0.00072318,0.
 00126197,-0.00267554,0.00038167,0.00120688,0.00079697,0.00020871,0.000
 02221,-0.00022118,0.00008575,0.00016395,-0.00005314,0.00056126,0.00004
 695,-0.00028915,-0.00029499,0.00011374,-0.00031022,-0.00011884,-0.0001
 5685,-0.00026783,0.00003841,0.00003228,0.00004696,-0.00004148,-0.00004
 520,-0.00000419,-0.00000458,-0.00001516,-0.00002286,-0.00009349,-0.000
 18283,0.00003870,-0.00028863,-0.00033394,-0.00005878,-0.00098916,-0.00
 051641,-0.00294813,-0.00125230,0.00012366,0.00195413,-0.00013519,0.000
 03694,-0.00009438,-0.00000766,-0.00003818,-0.00003698,-0.00000108,0.00
 000326,0.00005461,0.00003436,-0.00009116,0.00015310,-0.00001782,0.0000
 2427,-0.00009163,0.00006530,0.00007054,-0.00003610,0.00001834,0.000043
 65,0.00001851,-0.00003250,-0.00010773,0.00049726,-0.00106437,0.0006355
 6,-0.00080683,0.00108700,-0.00065451,0.00098333,0.00053115,-0.00007087
 ,0.00061327,0.00048258,-0.00216283,-0.00099709,0.00090532,-0.00267070,
 -0.00542801,0.00020788,-0.00046720,0.00180420,-0.00007400,0.00000695,-
 0.00005358,0.00026390,0.00023930,0.00106791,-0.00032752,0.00026811,0.0
 0006251,0.00001129,0.00034041,0.00052961,0.00009606,0.00051766,-0.0002
 0177,0.00537921,0.00249078,-0.00660669,-0.00072014,-0.00007624,-0.0007
 6126,-0.00026506,-0.00029623,-0.00141878,-0.00044611,-0.00035993,-0.00
 024057,0.00009722,0.00009772,-0.00003297,-0.00009733,-0.00002059,-0.00
 000181,0.00159849,0.00168785,-0.00162687,0.00044411,-0.00013619,0.0010
 2132,-0.00092428,0.00067846,0.00648169,0.00032381,-0.00002953,0.000315
 44,-0.00033516,-0.00069710,-0.00029424,0.00002557,0.00144202,-0.000205
 58,-0.00017622,0.00009087,-0.00004924,0.00020959,0.00038110,-0.0003786
 3,-0.00036002,0.00091195,0.00053053,0.00007978,0.00015562,0.00019739,0
 .00003776,-0.00011343,0.00005986,-0.00006547,-0.00003525,-0.00004031,0
 .00002616,-0.00012056,0.00009856,-0.00001762,-0.00006937,0.00002671,0.
 00031897,0.00022691,0.00011890,0.00050305,-0.00108956,0.00003923,0.000
 15012,-0.00025850,0.00009204,0.00030045,-0.00087328,0.00083769,0.00016
 297,-0.00007429,0.00006620,-0.00003520,0.00001030,-0.00002499,-0.00001
 724,-0.00006623,0.00003053,-0.00040991,-0.00001415,-0.00042009,0.00017
 466,0.00021546,-0.00001823,0.00003565,0.00029469,0.00064334,-0.0000272
 4,0.00003626,-0.00000460,-0.00014821,-0.00008014,-0.00011989,0.0000521
 7,-0.00005363,0.00014709,0.00018972,-0.00006851,-0.00009868,0.00002372
 ,-0.00003514,-0.00008728,-0.00003130,0.00003585,0.00001043,0.00003151,
 -0.00003699,0.00006813,0.00023027,-0.00001142,0.00011343,-0.00007385,0
 .00011987,0.00000432,0.00006753,-0.00000569,0.00012732,0.00179939,-0.0
 0154659,-0.00118176,0.00000164,-0.00020343,0.00014721,-0.00055877,-0.0
 0027300,0.00004197,-0.01094038,-0.01254750,-0.01075810,-0.00050330,0.0
 0057169,-0.00008493,-0.00011315,0.00096938,0.00087385,-0.08677630,-0.0
 5931299,-0.11051591,0.02116992,0.01447294,0.01781036,-0.01313926,-0.00
 880896,-0.00838271,0.08244605,0.06486756,0.11823040\\-0.00000459,0.000
 00186,-0.00001219,0.00000395,-0.00002081,0.00000880,-0.00000567,0.0000
 0562,0.00000790,0.00001505,0.00000757,-0.00000525,-0.00001014,0.000010
 73,-0.00001365,-0.00001130,-0.00000722,0.00001377,-0.00000903,-0.00000
 172,-0.00000096,-0.00000502,-0.00000078,-0.00000697,0.00000050,-0.0000
 0481,-0.00000089,0.00000470,-0.00000256,0.00000111,0.00000128,-0.00000
 517,-0.00000045,0.00000552,0.00000081,0.00000820,-0.00000913,-0.000011
 32,0.00000541,0.00000081,-0.00001385,0.00000539,-0.00000350,0.00000383
 ,0.00000577,-0.00000910,0.00000709,-0.00001330,-0.00000295,-0.00000980
 ,0.00000164,0.00000170,-0.00000634,-0.00000147,0.00001082,-0.00001168,
 0.00000293,-0.00001251,-0.00000483,0.00000280,-0.00001000,-0.00001061,
 -0.00000710,-0.00000786,-0.00000090,-0.00001040,-0.00000040,0.00000445
 ,-0.00000563,-0.00000611,-0.00000724,-0.00000412,-0.00000021,-0.000009
 58,0.00002248,0.00000628,0.00001071,-0.00000310,0.00000938,0.00000527,
 -0.00001107,-0.00000488,0.00000810,0.00000828,0.00001216,-0.00000921,0
 .00001735,0.00000901,-0.00000413,-0.00000067,0.00000108,0.00000539,0.0
 0000364,-0.00000039,-0.00000445,-0.00000074,0.00000112,-0.00000194,-0.
 00000447,0.00000024,-0.00000547,-0.00000129,-0.00000801,-0.00000610,0.
 00001320,-0.00000487,-0.00001409,-0.00000358,-0.00000460,0.00000866,0.
 00000031,-0.00000275,0.00000425,0.00001401,0.00000001,-0.00000831,0.00
 000313,0.00000012,-0.00000356,0.00000069,0.00000005,-0.00000358,0.0000
 0225,-0.00000273,0.00001019,-0.00001322,0.00000237,-0.00000163,-0.0000
 0879,0.00000222,0.00000763,0.00000119,0.00000723,0.00000971,-0.0000071
 7,-0.00001385,-0.00000252,0.00000462,0.00001688,-0.00000704,0.00000564
 ,0.00000569,0.00001820,-0.00001276,0.00000379,-0.00000054,-0.00002220,
 0.00000125,0.00000564,0.00001924,0.00000542,0.00000296,0.00000683,0.00
 000104,0.00001056,-0.00000224,0.00000622,-0.00000406,0.00000350,0.0000
 0644,-0.00000273,0.00000166,-0.00000519,0.00000717,-0.00000184,-0.0000
 0884,0.00000527,0.00001175,-0.00001260,0.00001255,0.00000434,-0.000001
 71,0.00000642,-0.00000276,0.00000092,0.00001851,0.00000171,0.00000554,
 -0.00000050,0.00000677,0.00000109,-0.00000425,-0.00000168,0.00001615,-
 0.00003482,0.00001546,-0.00000335,0.00000963,-0.00000023,0.00000609,-0
 .00001036,-0.00000114,0.00001284,0.00000404,-0.00000428,0.00001008,-0.
 00000712,-0.00001119,-0.00000028,0.00000157,0.00000489,-0.00000362,0.0
 0000595,-0.00000355,-0.00000220,0.00000646,0.00000340,-0.00000133,0.00
 000480,-0.00000179,0.00000399,0.00000399,-0.00000030,-0.00000156,0.000
 00032,-0.00000534,0.00000066,-0.00000081,-0.00000308,0.00000111,0.0000
 0453,-0.00000246,-0.00000157,0.00000512,-0.00000060,0.00000057,0.00000
 367,-0.00000404,-0.00000583,0.00000292,-0.00000393,-0.00000332,-0.0000
 0160,0.00000086,-0.00000332,-0.00000221,0.00000253,-0.00000285,0.00000
 185,-0.00000444,0.00000145,-0.00000698,0.00000071,-0.00000684,0.000020
 43,-0.00002182,0.00000942,-0.00000133,0.00000500,0.00000177,0.00000411
 ,-0.00000098\\\@


 The chemist is a guest at the physicist's table and
 frequently dines well.
                   -- Richard Bersohn
 Job cpu time:      17 days 20 hours 28 minutes 26.2 seconds.
 File lengths (MBytes):  RWF=  17330 Int=      0 D2E=      0 Chk=     98 Scr=      1
 Normal termination of Gaussian 09 at Fri Apr  8 17:13:42 2016.
