 Entering Gaussian System, Link 0=g09
 Initial command:
 /share/apps//g09/l1.exe "/scratch/Gau-20763.inp" -scrdir="/scratch/"
 Entering Link 1 = /share/apps//g09/l1.exe PID=     20765.
  
 Copyright (c) 1988,1990,1992,1993,1995,1998,2003,2009,2013,
            Gaussian, Inc.  All Rights Reserved.
  
 This is part of the Gaussian(R) 09 program.  It is based on
 the Gaussian(R) 03 system (copyright 2003, Gaussian, Inc.),
 the Gaussian(R) 98 system (copyright 1998, Gaussian, Inc.),
 the Gaussian(R) 94 system (copyright 1995, Gaussian, Inc.),
 the Gaussian 92(TM) system (copyright 1992, Gaussian, Inc.),
 the Gaussian 90(TM) system (copyright 1990, Gaussian, Inc.),
 the Gaussian 88(TM) system (copyright 1988, Gaussian, Inc.),
 the Gaussian 86(TM) system (copyright 1986, Carnegie Mellon
 University), and the Gaussian 82(TM) system (copyright 1983,
 Carnegie Mellon University). Gaussian is a federally registered
 trademark of Gaussian, Inc.
  
 This software contains proprietary and confidential information,
 including trade secrets, belonging to Gaussian, Inc.
  
 This software is provided under written license and may be
 used, copied, transmitted, or stored only in accord with that
 written license.
  
 The following legend is applicable only to US Government
 contracts under FAR:
  
                    RESTRICTED RIGHTS LEGEND
  
 Use, reproduction and disclosure by the US Government is
 subject to restrictions as set forth in subparagraphs (a)
 and (c) of the Commercial Computer Software - Restricted
 Rights clause in FAR 52.227-19.
  
 Gaussian, Inc.
 340 Quinnipiac St., Bldg. 40, Wallingford CT 06492
  
  
 ---------------------------------------------------------------
 Warning -- This program may not be used in any manner that
 competes with the business of Gaussian, Inc. or will provide
 assistance to any competitor of Gaussian, Inc.  The licensee
 of this program is prohibited from giving any competitor of
 Gaussian, Inc. access to this program.  By using this program,
 the user acknowledges that Gaussian, Inc. is engaged in the
 business of creating and licensing software in the field of
 computational chemistry and represents and warrants to the
 licensee that it is not a competitor of Gaussian, Inc. and that
 it will not use this program in any manner prohibited above.
 ---------------------------------------------------------------
  

 Cite this work as:
 Gaussian 09, Revision D.01,
 M. J. Frisch, G. W. Trucks, H. B. Schlegel, G. E. Scuseria, 
 M. A. Robb, J. R. Cheeseman, G. Scalmani, V. Barone, B. Mennucci, 
 G. A. Petersson, H. Nakatsuji, M. Caricato, X. Li, H. P. Hratchian, 
 A. F. Izmaylov, J. Bloino, G. Zheng, J. L. Sonnenberg, M. Hada, 
 M. Ehara, K. Toyota, R. Fukuda, J. Hasegawa, M. Ishida, T. Nakajima, 
 Y. Honda, O. Kitao, H. Nakai, T. Vreven, J. A. Montgomery, Jr., 
 J. E. Peralta, F. Ogliaro, M. Bearpark, J. J. Heyd, E. Brothers, 
 K. N. Kudin, V. N. Staroverov, T. Keith, R. Kobayashi, J. Normand, 
 K. Raghavachari, A. Rendell, J. C. Burant, S. S. Iyengar, J. Tomasi, 
 M. Cossi, N. Rega, J. M. Millam, M. Klene, J. E. Knox, J. B. Cross, 
 V. Bakken, C. Adamo, J. Jaramillo, R. Gomperts, R. E. Stratmann, 
 O. Yazyev, A. J. Austin, R. Cammi, C. Pomelli, J. W. Ochterski, 
 R. L. Martin, K. Morokuma, V. G. Zakrzewski, G. A. Voth, 
 P. Salvador, J. J. Dannenberg, S. Dapprich, A. D. Daniels, 
 O. Farkas, J. B. Foresman, J. V. Ortiz, J. Cioslowski, 
 and D. J. Fox, Gaussian, Inc., Wallingford CT, 2013.
 
 ******************************************
 Gaussian 09:  EM64L-G09RevD.01 24-Apr-2013
                 1-May-2016 
 ******************************************
 %nproc=20
 Will use up to   20 processors via shared memory.
 %mem=80GB
 %chk=Tri_A131_of.chk
 ----------------------------------------------------------------------
 #P PBE1PBE/6-311+G(d,p) opt=ModRedundant freq optcyc=999 EmpiricalDisp
 ersion=GD3
 ----------------------------------------------------------------------
 1/6=999,14=-1,18=120,19=15,26=3,38=1/1,3;
 2/9=110,12=2,17=6,18=5,40=1/2;
 3/5=4,6=6,7=111,11=2,16=1,25=1,30=1,71=1,74=-13,124=31/1,2,3;
 4//1;
 5/5=2,38=5/2;
 6/7=2,8=2,9=2,10=2,28=1/1;
 7//1,2,3,16;
 1/6=999,14=-1,18=20,19=15,26=3/3(2);
 2/9=110/2;
 99//99;
 2/9=110/2;
 3/5=4,6=6,7=111,11=2,16=1,25=1,30=1,71=1,74=-13,124=31/1,2,3;
 4/5=5,16=3,69=1/1;
 5/5=2,38=5/2;
 7//1,2,3,16;
 1/6=999,14=-1,18=20,19=15,26=3/3(-5);
 2/9=110/2;
 6/7=2,8=2,9=2,10=2,19=2,28=1/1;
 99/9=1/99;
 Leave Link    1 at Sun May  1 16:14:49 2016, MaxMem= 10737418240 cpu:         2.0
 (Enter /share/apps//g09/l101.exe)
 -----
 trich
 -----
 Symbolic Z-matrix:
 Charge =  1 Multiplicity = 1
 O                    -0.44101  -0.40802   7.49634 
 C                    -1.12124  -0.90915   6.36638 
 C                    -0.20535  -1.04483   5.14037 
 C                     1.01466  -1.90339   5.49415 
 C                     1.71631  -1.36317   6.74412 
 C                     0.71242  -1.18655   7.8929 
 H                    -1.9206   -0.18011   6.17077 
 H                     0.14491  -0.02966   4.88564 
 H                     0.69624  -2.94462   5.65398 
 H                     2.47015  -2.10764   7.07299 
 H                     0.3826   -2.19029   8.22032 
 O                     2.37459  -0.16497   6.32945 
 O                     1.9584   -1.94837   4.40683 
 O                    -0.9056   -1.60729   4.0248 
 O                    -1.68345  -2.20546   6.59287 
 C                     1.30172  -0.47115   9.10479 
 H                     0.54721  -0.42553   9.9063 
 H                     2.16896  -1.03291   9.47944 
 O                     1.78546   0.8472    8.78957 
 H                     1.00491   1.40636   8.61726 
 H                     2.41908   0.43183   7.11338 
 H                     2.4715   -1.11475   4.45692 
 H                    -1.86316  -1.61208   4.25652 
 O                    -3.38379  -4.55563   5.90797 
 C                    -3.16643  -4.78817   7.32074 
 C                    -3.0685   -3.4355    8.10853 
 C                    -2.98343  -2.20392   7.19152 
 C                    -4.09775  -2.20623   6.10463 
 C                    -4.48947  -3.65071   5.71988 
 H                    -4.04732  -5.32759   7.71296 
 H                    -2.16197  -3.46104   8.73041 
 H                    -3.0935   -1.31536   7.83139 
 H                    -4.98432  -1.71163   6.53347 
 H                    -5.31355  -3.96665   6.38807 
 O                    -3.62519  -1.4387    4.98412 
 O                    -4.24699  -3.25242   8.90488 
 O                    -2.11141  -5.69099   7.47622 
 C                    -4.92448  -3.80671   4.25594 
 H                    -4.03473  -3.78146   3.6103 
 H                    -5.41406  -4.781     4.10964 
 O                    -5.75946  -2.72314   3.82308 
 H                    -6.67659  -2.88992   4.10123 
 H                    -4.39039  -1.37616   4.3741 
 H                    -4.13061  -3.72775   9.74462 
 O                     0.99403  -5.86906   5.51265 
 C                     1.97508  -6.13406   6.54001 
 C                     1.65025  -5.25639   7.75215 
 C                     0.18585  -5.42582   8.19959 
 C                    -0.79511  -5.29363   7.03496 
 C                    -0.33489  -6.23592   5.90151 
 H                     1.91577  -7.21912   6.79817 
 H                     1.80703  -4.21557   7.43152 
 H                     0.05464  -6.44272   8.62584 
 H                    -0.35078  -7.27862   6.28312 
 H                    -0.8076   -4.25367   6.67518 
 O                    -0.12202  -4.44739   9.19515 
 O                     2.52193  -5.43175   8.86885 
 O                     3.2179   -5.78942   6.04854 
 C                    -1.19842  -6.21233   4.64715 
 H                    -0.73992  -6.8686    3.89446 
 H                    -2.20025  -6.5979    4.88392 
 O                    -1.30048  -4.90842   4.05515 
 H                    -1.9229   -4.40329   4.62518 
 H                     0.57837  -4.5264    9.87083 
 H                     2.63709  -6.38542   9.03858 
 C                     3.72915  -6.68066   5.02258 
 H                     4.46854  -7.35246   5.48879 
 H                     2.90527  -7.29391   4.62568 
 C                     4.38468  -5.85709   3.92015 
 H                     4.81184  -6.56231   3.18715 
 H                     5.23573  -5.31053   4.35476 
 C                     3.45814  -4.84797   3.22433 
 H                     3.06956  -4.1609    3.99058 
 H                     4.06887  -4.23593   2.53971 
 C                     2.30424  -5.48295   2.43519 
 H                     2.70587  -6.17933   1.68072 
 H                     1.66837  -6.0804    3.1066 
 C                     1.42544  -4.48566   1.6829 
 H                     0.68442  -5.00762   1.06268 
 H                     2.02573  -3.84121   1.02447 
 N                     0.66363  -3.58457   2.61186 
 H                     0.06342  -2.91674   2.11254 
 H                     1.28968  -2.9865    3.20822 
 H                     0.01161  -4.11806   3.25029 
 
 The following ModRedundant input section has been read:
 B      45      84 B                                                           
 B      58      84 B                                                           
 B      56      84 B                                                           
 B      41      82 B                                                           
 B      62      82 B                                                           
 B      35      82 B                                                           
 B      13      83 B                                                           
 B      19      83 B                                                           
 B      14      83 B                                                           
 
 NAtoms=     84 NQM=       84 NQMF=       0 NMMI=      0 NMMIF=      0
                NMic=       0 NMicF=      0.
                    Isotopes and Nuclear Properties:
 (Nuclear quadrupole moments (NQMom) in fm**2, nuclear magnetic moments (NMagM)
  in nuclear magnetons)

  Atom         1           2           3           4           5           6           7           8           9          10
 IAtWgt=          16          12          12          12          12          12           1           1           1           1
 AtmWgt=  15.9949146  12.0000000  12.0000000  12.0000000  12.0000000  12.0000000   1.0078250   1.0078250   1.0078250   1.0078250
 NucSpn=           0           0           0           0           0           0           1           1           1           1
 AtZEff=   0.0000000   0.0000000   0.0000000   0.0000000   0.0000000   0.0000000   0.0000000   0.0000000   0.0000000   0.0000000
 NQMom=    0.0000000   0.0000000   0.0000000   0.0000000   0.0000000   0.0000000   0.0000000   0.0000000   0.0000000   0.0000000
 NMagM=    0.0000000   0.0000000   0.0000000   0.0000000   0.0000000   0.0000000   2.7928460   2.7928460   2.7928460   2.7928460
 AtZNuc=   8.0000000   6.0000000   6.0000000   6.0000000   6.0000000   6.0000000   1.0000000   1.0000000   1.0000000   1.0000000

  Atom        11          12          13          14          15          16          17          18          19          20
 IAtWgt=           1          16          16          16          16          12           1           1          16           1
 AtmWgt=   1.0078250  15.9949146  15.9949146  15.9949146  15.9949146  12.0000000   1.0078250   1.0078250  15.9949146   1.0078250
 NucSpn=           1           0           0           0           0           0           1           1           0           1
 AtZEff=   0.0000000   0.0000000   0.0000000   0.0000000   0.0000000   0.0000000   0.0000000   0.0000000   0.0000000   0.0000000
 NQMom=    0.0000000   0.0000000   0.0000000   0.0000000   0.0000000   0.0000000   0.0000000   0.0000000   0.0000000   0.0000000
 NMagM=    2.7928460   0.0000000   0.0000000   0.0000000   0.0000000   0.0000000   2.7928460   2.7928460   0.0000000   2.7928460
 AtZNuc=   1.0000000   8.0000000   8.0000000   8.0000000   8.0000000   6.0000000   1.0000000   1.0000000   8.0000000   1.0000000

  Atom        21          22          23          24          25          26          27          28          29          30
 IAtWgt=           1           1           1          16          12          12          12          12          12           1
 AtmWgt=   1.0078250   1.0078250   1.0078250  15.9949146  12.0000000  12.0000000  12.0000000  12.0000000  12.0000000   1.0078250
 NucSpn=           1           1           1           0           0           0           0           0           0           1
 AtZEff=   0.0000000   0.0000000   0.0000000   0.0000000   0.0000000   0.0000000   0.0000000   0.0000000   0.0000000   0.0000000
 NQMom=    0.0000000   0.0000000   0.0000000   0.0000000   0.0000000   0.0000000   0.0000000   0.0000000   0.0000000   0.0000000
 NMagM=    2.7928460   2.7928460   2.7928460   0.0000000   0.0000000   0.0000000   0.0000000   0.0000000   0.0000000   2.7928460
 AtZNuc=   1.0000000   1.0000000   1.0000000   8.0000000   6.0000000   6.0000000   6.0000000   6.0000000   6.0000000   1.0000000

  Atom        31          32          33          34          35          36          37          38          39          40
 IAtWgt=           1           1           1           1          16          16          16          12           1           1
 AtmWgt=   1.0078250   1.0078250   1.0078250   1.0078250  15.9949146  15.9949146  15.9949146  12.0000000   1.0078250   1.0078250
 NucSpn=           1           1           1           1           0           0           0           0           1           1
 AtZEff=   0.0000000   0.0000000   0.0000000   0.0000000   0.0000000   0.0000000   0.0000000   0.0000000   0.0000000   0.0000000
 NQMom=    0.0000000   0.0000000   0.0000000   0.0000000   0.0000000   0.0000000   0.0000000   0.0000000   0.0000000   0.0000000
 NMagM=    2.7928460   2.7928460   2.7928460   2.7928460   0.0000000   0.0000000   0.0000000   0.0000000   2.7928460   2.7928460
 AtZNuc=   1.0000000   1.0000000   1.0000000   1.0000000   8.0000000   8.0000000   8.0000000   6.0000000   1.0000000   1.0000000

  Atom        41          42          43          44          45          46          47          48          49          50
 IAtWgt=          16           1           1           1          16          12          12          12          12          12
 AtmWgt=  15.9949146   1.0078250   1.0078250   1.0078250  15.9949146  12.0000000  12.0000000  12.0000000  12.0000000  12.0000000
 NucSpn=           0           1           1           1           0           0           0           0           0           0
 AtZEff=   0.0000000   0.0000000   0.0000000   0.0000000   0.0000000   0.0000000   0.0000000   0.0000000   0.0000000   0.0000000
 NQMom=    0.0000000   0.0000000   0.0000000   0.0000000   0.0000000   0.0000000   0.0000000   0.0000000   0.0000000   0.0000000
 NMagM=    0.0000000   2.7928460   2.7928460   2.7928460   0.0000000   0.0000000   0.0000000   0.0000000   0.0000000   0.0000000
 AtZNuc=   8.0000000   1.0000000   1.0000000   1.0000000   8.0000000   6.0000000   6.0000000   6.0000000   6.0000000   6.0000000

  Atom        51          52          53          54          55          56          57          58          59          60
 IAtWgt=           1           1           1           1           1          16          16          16          12           1
 AtmWgt=   1.0078250   1.0078250   1.0078250   1.0078250   1.0078250  15.9949146  15.9949146  15.9949146  12.0000000   1.0078250
 NucSpn=           1           1           1           1           1           0           0           0           0           1
 AtZEff=   0.0000000   0.0000000   0.0000000   0.0000000   0.0000000   0.0000000   0.0000000   0.0000000   0.0000000   0.0000000
 NQMom=    0.0000000   0.0000000   0.0000000   0.0000000   0.0000000   0.0000000   0.0000000   0.0000000   0.0000000   0.0000000
 NMagM=    2.7928460   2.7928460   2.7928460   2.7928460   2.7928460   0.0000000   0.0000000   0.0000000   0.0000000   2.7928460
 AtZNuc=   1.0000000   1.0000000   1.0000000   1.0000000   1.0000000   8.0000000   8.0000000   8.0000000   6.0000000   1.0000000

  Atom        61          62          63          64          65          66          67          68          69          70
 IAtWgt=           1          16           1           1           1          12           1           1          12           1
 AtmWgt=   1.0078250  15.9949146   1.0078250   1.0078250   1.0078250  12.0000000   1.0078250   1.0078250  12.0000000   1.0078250
 NucSpn=           1           0           1           1           1           0           1           1           0           1
 AtZEff=   0.0000000   0.0000000   0.0000000   0.0000000   0.0000000   0.0000000   0.0000000   0.0000000   0.0000000   0.0000000
 NQMom=    0.0000000   0.0000000   0.0000000   0.0000000   0.0000000   0.0000000   0.0000000   0.0000000   0.0000000   0.0000000
 NMagM=    2.7928460   0.0000000   2.7928460   2.7928460   2.7928460   0.0000000   2.7928460   2.7928460   0.0000000   2.7928460
 AtZNuc=   1.0000000   8.0000000   1.0000000   1.0000000   1.0000000   6.0000000   1.0000000   1.0000000   6.0000000   1.0000000

  Atom        71          72          73          74          75          76          77          78          79          80
 IAtWgt=           1          12           1           1          12           1           1          12           1           1
 AtmWgt=   1.0078250  12.0000000   1.0078250   1.0078250  12.0000000   1.0078250   1.0078250  12.0000000   1.0078250   1.0078250
 NucSpn=           1           0           1           1           0           1           1           0           1           1
 AtZEff=   0.0000000   0.0000000   0.0000000   0.0000000   0.0000000   0.0000000   0.0000000   0.0000000   0.0000000   0.0000000
 NQMom=    0.0000000   0.0000000   0.0000000   0.0000000   0.0000000   0.0000000   0.0000000   0.0000000   0.0000000   0.0000000
 NMagM=    2.7928460   0.0000000   2.7928460   2.7928460   0.0000000   2.7928460   2.7928460   0.0000000   2.7928460   2.7928460
 AtZNuc=   1.0000000   6.0000000   1.0000000   1.0000000   6.0000000   1.0000000   1.0000000   6.0000000   1.0000000   1.0000000

  Atom        81          82          83          84
 IAtWgt=          14           1           1           1
 AtmWgt=  14.0030740   1.0078250   1.0078250   1.0078250
 NucSpn=           2           1           1           1
 AtZEff=   0.0000000   0.0000000   0.0000000   0.0000000
 NQMom=    2.0440000   0.0000000   0.0000000   0.0000000
 NMagM=    0.4037610   2.7928460   2.7928460   2.7928460
 AtZNuc=   7.0000000   1.0000000   1.0000000   1.0000000
 Leave Link  101 at Sun May  1 16:14:49 2016, MaxMem= 10737418240 cpu:         6.1
 (Enter /share/apps//g09/l103.exe)

 GradGradGradGradGradGradGradGradGradGradGradGradGradGradGradGradGradGrad
 Berny optimization.
 Initialization pass.
                           ----------------------------
                           !    Initial Parameters    !
                           ! (Angstroms and Degrees)  !
 --------------------------                            --------------------------
 ! Name  Definition              Value          Derivative Info.                !
 --------------------------------------------------------------------------------
 ! R1    R(1,2)                  1.4109         estimate D2E/DX2                !
 ! R2    R(1,6)                  1.447          estimate D2E/DX2                !
 ! R3    R(2,3)                  1.5363         estimate D2E/DX2                !
 ! R4    R(2,7)                  1.0994         estimate D2E/DX2                !
 ! R5    R(2,15)                 1.431          estimate D2E/DX2                !
 ! R6    R(3,4)                  1.5332         estimate D2E/DX2                !
 ! R7    R(3,8)                  1.1037         estimate D2E/DX2                !
 ! R8    R(3,14)                 1.4322         estimate D2E/DX2                !
 ! R9    R(4,5)                  1.5319         estimate D2E/DX2                !
 ! R10   R(4,9)                  1.1005         estimate D2E/DX2                !
 ! R11   R(4,13)                 1.4405         estimate D2E/DX2                !
 ! R12   R(5,6)                  1.5358         estimate D2E/DX2                !
 ! R13   R(5,10)                 1.1094         estimate D2E/DX2                !
 ! R14   R(5,12)                 1.4286         estimate D2E/DX2                !
 ! R15   R(6,11)                 1.1061         estimate D2E/DX2                !
 ! R16   R(6,16)                 1.5257         estimate D2E/DX2                !
 ! R17   R(12,21)                0.9863         estimate D2E/DX2                !
 ! R18   R(13,22)                0.9802         estimate D2E/DX2                !
 ! R19   R(13,83)                1.7209         estimate D2E/DX2                !
 ! R20   R(14,23)                0.9852         estimate D2E/DX2                !
 ! R21   R(14,83)                2.7181         estimate D2E/DX2                !
 ! R22   R(15,27)                1.4312         estimate D2E/DX2                !
 ! R23   R(16,17)                1.1017         estimate D2E/DX2                !
 ! R24   R(16,18)                1.0991         estimate D2E/DX2                !
 ! R25   R(16,19)                1.4392         estimate D2E/DX2                !
 ! R26   R(19,20)                0.9755         estimate D2E/DX2                !
 ! R27   R(19,83)                6.7893         estimate D2E/DX2                !
 ! R28   R(24,25)                1.4482         estimate D2E/DX2                !
 ! R29   R(24,29)                1.4411         estimate D2E/DX2                !
 ! R30   R(25,26)                1.5684         estimate D2E/DX2                !
 ! R31   R(25,30)                1.1049         estimate D2E/DX2                !
 ! R32   R(25,37)                1.3973         estimate D2E/DX2                !
 ! R33   R(26,27)                1.5378         estimate D2E/DX2                !
 ! R34   R(26,31)                1.0996         estimate D2E/DX2                !
 ! R35   R(26,36)                1.4341         estimate D2E/DX2                !
 ! R36   R(27,28)                1.5566         estimate D2E/DX2                !
 ! R37   R(27,32)                1.1005         estimate D2E/DX2                !
 ! R38   R(28,29)                1.5453         estimate D2E/DX2                !
 ! R39   R(28,33)                1.1021         estimate D2E/DX2                !
 ! R40   R(28,35)                1.438          estimate D2E/DX2                !
 ! R41   R(29,34)                1.107          estimate D2E/DX2                !
 ! R42   R(29,38)                1.5352         estimate D2E/DX2                !
 ! R43   R(35,43)                0.9806         estimate D2E/DX2                !
 ! R44   R(35,82)                4.9027         estimate D2E/DX2                !
 ! R45   R(36,44)                0.9719         estimate D2E/DX2                !
 ! R46   R(37,49)                1.444          estimate D2E/DX2                !
 ! R47   R(38,39)                1.0996         estimate D2E/DX2                !
 ! R48   R(38,40)                1.1002         estimate D2E/DX2                !
 ! R49   R(38,41)                1.4348         estimate D2E/DX2                !
 ! R50   R(41,42)                0.9728         estimate D2E/DX2                !
 ! R51   R(41,82)                6.072          estimate D2E/DX2                !
 ! R52   R(45,46)                1.445          estimate D2E/DX2                !
 ! R53   R(45,50)                1.4324         estimate D2E/DX2                !
 ! R54   R(45,84)                3.0248         estimate D2E/DX2                !
 ! R55   R(46,47)                1.5314         estimate D2E/DX2                !
 ! R56   R(46,51)                1.1169         estimate D2E/DX2                !
 ! R57   R(46,58)                1.3802         estimate D2E/DX2                !
 ! R58   R(47,48)                1.5406         estimate D2E/DX2                !
 ! R59   R(47,52)                1.1003         estimate D2E/DX2                !
 ! R60   R(47,57)                1.4274         estimate D2E/DX2                !
 ! R61   R(48,49)                1.5284         estimate D2E/DX2                !
 ! R62   R(48,53)                1.1104         estimate D2E/DX2                !
 ! R63   R(48,56)                1.4294         estimate D2E/DX2                !
 ! R64   R(49,50)                1.5442         estimate D2E/DX2                !
 ! R65   R(49,55)                1.1005         estimate D2E/DX2                !
 ! R66   R(50,54)                1.1105         estimate D2E/DX2                !
 ! R67   R(50,59)                1.523          estimate D2E/DX2                !
 ! R68   R(56,64)                0.9764         estimate D2E/DX2                !
 ! R69   R(56,84)                5.9555         estimate D2E/DX2                !
 ! R70   R(57,65)                0.9755         estimate D2E/DX2                !
 ! R71   R(58,66)                1.452          estimate D2E/DX2                !
 ! R72   R(58,84)                4.5721         estimate D2E/DX2                !
 ! R73   R(59,60)                1.0988         estimate D2E/DX2                !
 ! R74   R(59,61)                1.0993         estimate D2E/DX2                !
 ! R75   R(59,62)                1.4356         estimate D2E/DX2                !
 ! R76   R(62,63)                0.9836         estimate D2E/DX2                !
 ! R77   R(62,82)                3.0985         estimate D2E/DX2                !
 ! R78   R(66,67)                1.1024         estimate D2E/DX2                !
 ! R79   R(66,68)                1.1011         estimate D2E/DX2                !
 ! R80   R(66,69)                1.5243         estimate D2E/DX2                !
 ! R81   R(69,70)                1.1032         estimate D2E/DX2                !
 ! R82   R(69,71)                1.1009         estimate D2E/DX2                !
 ! R83   R(69,72)                1.5365         estimate D2E/DX2                !
 ! R84   R(72,73)                1.1001         estimate D2E/DX2                !
 ! R85   R(72,74)                1.1029         estimate D2E/DX2                !
 ! R86   R(72,75)                1.5354         estimate D2E/DX2                !
 ! R87   R(75,76)                1.1025         estimate D2E/DX2                !
 ! R88   R(75,77)                1.1009         estimate D2E/DX2                !
 ! R89   R(75,78)                1.5274         estimate D2E/DX2                !
 ! R90   R(78,79)                1.0983         estimate D2E/DX2                !
 ! R91   R(78,80)                1.0996         estimate D2E/DX2                !
 ! R92   R(78,81)                1.5018         estimate D2E/DX2                !
 ! R93   R(81,82)                1.0274         estimate D2E/DX2                !
 ! R94   R(81,83)                1.0513         estimate D2E/DX2                !
 ! R95   R(81,84)                1.057          estimate D2E/DX2                !
 ! A1    A(2,1,6)              114.3745         estimate D2E/DX2                !
 ! A2    A(1,2,3)              112.5229         estimate D2E/DX2                !
 ! A3    A(1,2,7)              104.922          estimate D2E/DX2                !
 ! A4    A(1,2,15)             112.6069         estimate D2E/DX2                !
 ! A5    A(3,2,7)              110.4886         estimate D2E/DX2                !
 ! A6    A(3,2,15)             106.2909         estimate D2E/DX2                !
 ! A7    A(7,2,15)             110.0721         estimate D2E/DX2                !
 ! A8    A(2,3,4)              109.8579         estimate D2E/DX2                !
 ! A9    A(2,3,8)              106.9859         estimate D2E/DX2                !
 ! A10   A(2,3,14)             111.3944         estimate D2E/DX2                !
 ! A11   A(4,3,8)              108.4088         estimate D2E/DX2                !
 ! A12   A(4,3,14)             110.4183         estimate D2E/DX2                !
 ! A13   A(8,3,14)             109.6708         estimate D2E/DX2                !
 ! A14   A(3,4,5)              110.8105         estimate D2E/DX2                !
 ! A15   A(3,4,9)              109.4568         estimate D2E/DX2                !
 ! A16   A(3,4,13)             111.3855         estimate D2E/DX2                !
 ! A17   A(5,4,9)              110.3458         estimate D2E/DX2                !
 ! A18   A(5,4,13)             109.0783         estimate D2E/DX2                !
 ! A19   A(9,4,13)             105.6435         estimate D2E/DX2                !
 ! A20   A(4,5,6)              110.5798         estimate D2E/DX2                !
 ! A21   A(4,5,10)             108.4508         estimate D2E/DX2                !
 ! A22   A(4,5,12)             105.6634         estimate D2E/DX2                !
 ! A23   A(6,5,10)             107.4342         estimate D2E/DX2                !
 ! A24   A(6,5,12)             114.9516         estimate D2E/DX2                !
 ! A25   A(10,5,12)            109.6199         estimate D2E/DX2                !
 ! A26   A(1,6,5)              112.2053         estimate D2E/DX2                !
 ! A27   A(1,6,11)             109.3706         estimate D2E/DX2                !
 ! A28   A(1,6,16)             105.8604         estimate D2E/DX2                !
 ! A29   A(5,6,11)             108.1777         estimate D2E/DX2                !
 ! A30   A(5,6,16)             113.3034         estimate D2E/DX2                !
 ! A31   A(11,6,16)            107.7912         estimate D2E/DX2                !
 ! A32   A(5,12,21)            107.3129         estimate D2E/DX2                !
 ! A33   A(4,13,22)            106.1312         estimate D2E/DX2                !
 ! A34   A(4,13,83)            106.8575         estimate D2E/DX2                !
 ! A35   A(22,13,83)           138.7699         estimate D2E/DX2                !
 ! A36   A(3,14,23)            107.0927         estimate D2E/DX2                !
 ! A37   A(3,14,83)             92.2002         estimate D2E/DX2                !
 ! A38   A(23,14,83)           148.5577         estimate D2E/DX2                !
 ! A39   A(2,15,27)            114.9662         estimate D2E/DX2                !
 ! A40   A(6,16,17)            109.4369         estimate D2E/DX2                !
 ! A41   A(6,16,18)            109.6252         estimate D2E/DX2                !
 ! A42   A(6,16,19)            112.6665         estimate D2E/DX2                !
 ! A43   A(17,16,18)           108.2734         estimate D2E/DX2                !
 ! A44   A(17,16,19)           110.5846         estimate D2E/DX2                !
 ! A45   A(18,16,19)           106.1187         estimate D2E/DX2                !
 ! A46   A(16,19,20)           107.1458         estimate D2E/DX2                !
 ! A47   A(16,19,83)            68.7934         estimate D2E/DX2                !
 ! A48   A(20,19,83)            96.8938         estimate D2E/DX2                !
 ! A49   A(25,24,29)           110.0788         estimate D2E/DX2                !
 ! A50   A(24,25,26)           111.1547         estimate D2E/DX2                !
 ! A51   A(24,25,30)           107.7603         estimate D2E/DX2                !
 ! A52   A(24,25,37)           109.0041         estimate D2E/DX2                !
 ! A53   A(26,25,30)           107.0096         estimate D2E/DX2                !
 ! A54   A(26,25,37)           117.0148         estimate D2E/DX2                !
 ! A55   A(30,25,37)           104.3021         estimate D2E/DX2                !
 ! A56   A(25,26,27)           113.2431         estimate D2E/DX2                !
 ! A57   A(25,26,31)           108.3912         estimate D2E/DX2                !
 ! A58   A(25,26,36)           109.7379         estimate D2E/DX2                !
 ! A59   A(27,26,31)           108.0728         estimate D2E/DX2                !
 ! A60   A(27,26,36)           105.9233         estimate D2E/DX2                !
 ! A61   A(31,26,36)           111.4934         estimate D2E/DX2                !
 ! A62   A(15,27,26)           107.386          estimate D2E/DX2                !
 ! A63   A(15,27,28)           110.9874         estimate D2E/DX2                !
 ! A64   A(15,27,32)           109.568          estimate D2E/DX2                !
 ! A65   A(26,27,28)           112.0597         estimate D2E/DX2                !
 ! A66   A(26,27,32)           107.1204         estimate D2E/DX2                !
 ! A67   A(28,27,32)           109.608          estimate D2E/DX2                !
 ! A68   A(27,28,29)           110.8975         estimate D2E/DX2                !
 ! A69   A(27,28,33)           107.669          estimate D2E/DX2                !
 ! A70   A(27,28,35)           107.9405         estimate D2E/DX2                !
 ! A71   A(29,28,33)           108.2082         estimate D2E/DX2                !
 ! A72   A(29,28,35)           112.8428         estimate D2E/DX2                !
 ! A73   A(33,28,35)           109.1489         estimate D2E/DX2                !
 ! A74   A(24,29,28)           111.0987         estimate D2E/DX2                !
 ! A75   A(24,29,34)           108.2502         estimate D2E/DX2                !
 ! A76   A(24,29,38)           106.1447         estimate D2E/DX2                !
 ! A77   A(28,29,34)           107.7704         estimate D2E/DX2                !
 ! A78   A(28,29,38)           113.8439         estimate D2E/DX2                !
 ! A79   A(34,29,38)           109.6129         estimate D2E/DX2                !
 ! A80   A(28,35,43)           105.2088         estimate D2E/DX2                !
 ! A81   A(28,35,82)           122.8686         estimate D2E/DX2                !
 ! A82   A(43,35,82)           104.0023         estimate D2E/DX2                !
 ! A83   A(26,36,44)           108.5993         estimate D2E/DX2                !
 ! A84   A(25,37,49)           118.4551         estimate D2E/DX2                !
 ! A85   A(29,38,39)           109.1655         estimate D2E/DX2                !
 ! A86   A(29,38,40)           110.0541         estimate D2E/DX2                !
 ! A87   A(29,38,41)           112.0769         estimate D2E/DX2                !
 ! A88   A(39,38,40)           107.598          estimate D2E/DX2                !
 ! A89   A(39,38,41)           106.0457         estimate D2E/DX2                !
 ! A90   A(40,38,41)           111.6979         estimate D2E/DX2                !
 ! A91   A(38,41,42)           109.4457         estimate D2E/DX2                !
 ! A92   A(38,41,82)            60.1878         estimate D2E/DX2                !
 ! A93   A(46,45,50)           112.9471         estimate D2E/DX2                !
 ! A94   A(46,45,84)           149.1383         estimate D2E/DX2                !
 ! A95   A(50,45,84)            92.8649         estimate D2E/DX2                !
 ! A96   A(45,46,47)           108.2785         estimate D2E/DX2                !
 ! A97   A(45,46,51)           107.8442         estimate D2E/DX2                !
 ! A98   A(45,46,58)           108.2028         estimate D2E/DX2                !
 ! A99   A(47,46,51)           111.2575         estimate D2E/DX2                !
 ! A100  A(47,46,58)           109.2536         estimate D2E/DX2                !
 ! A101  A(51,46,58)           111.8823         estimate D2E/DX2                !
 ! A102  A(46,47,48)           111.6224         estimate D2E/DX2                !
 ! A103  A(46,47,52)           106.3355         estimate D2E/DX2                !
 ! A104  A(46,47,57)           114.7896         estimate D2E/DX2                !
 ! A105  A(48,47,52)           108.9114         estimate D2E/DX2                !
 ! A106  A(48,47,57)           109.8611         estimate D2E/DX2                !
 ! A107  A(52,47,57)           104.9016         estimate D2E/DX2                !
 ! A108  A(47,48,49)           112.2875         estimate D2E/DX2                !
 ! A109  A(47,48,53)           108.9371         estimate D2E/DX2                !
 ! A110  A(47,48,56)           109.374          estimate D2E/DX2                !
 ! A111  A(49,48,53)           107.2094         estimate D2E/DX2                !
 ! A112  A(49,48,56)           109.4671         estimate D2E/DX2                !
 ! A113  A(53,48,56)           109.5147         estimate D2E/DX2                !
 ! A114  A(37,49,48)           109.1713         estimate D2E/DX2                !
 ! A115  A(37,49,50)           109.1508         estimate D2E/DX2                !
 ! A116  A(37,49,55)           110.462          estimate D2E/DX2                !
 ! A117  A(48,49,50)           108.3758         estimate D2E/DX2                !
 ! A118  A(48,49,55)           109.7623         estimate D2E/DX2                !
 ! A119  A(50,49,55)           109.8811         estimate D2E/DX2                !
 ! A120  A(45,50,49)           108.6317         estimate D2E/DX2                !
 ! A121  A(45,50,54)           110.3072         estimate D2E/DX2                !
 ! A122  A(45,50,59)           107.3653         estimate D2E/DX2                !
 ! A123  A(49,50,54)           108.4504         estimate D2E/DX2                !
 ! A124  A(49,50,59)           115.2204         estimate D2E/DX2                !
 ! A125  A(54,50,59)           106.8256         estimate D2E/DX2                !
 ! A126  A(48,56,64)           105.7886         estimate D2E/DX2                !
 ! A127  A(48,56,84)            48.5308         estimate D2E/DX2                !
 ! A128  A(64,56,84)           132.7785         estimate D2E/DX2                !
 ! A129  A(47,57,65)           109.1664         estimate D2E/DX2                !
 ! A130  A(46,58,66)           114.5443         estimate D2E/DX2                !
 ! A131  A(46,58,84)            71.2004         estimate D2E/DX2                !
 ! A132  A(66,58,84)            92.2265         estimate D2E/DX2                !
 ! A133  A(50,59,60)           108.5613         estimate D2E/DX2                !
 ! A134  A(50,59,61)           109.5055         estimate D2E/DX2                !
 ! A135  A(50,59,62)           113.2029         estimate D2E/DX2                !
 ! A136  A(60,59,61)           108.5619         estimate D2E/DX2                !
 ! A137  A(60,59,62)           106.8364         estimate D2E/DX2                !
 ! A138  A(61,59,62)           110.0352         estimate D2E/DX2                !
 ! A139  A(59,62,63)           105.8092         estimate D2E/DX2                !
 ! A140  A(59,62,82)           144.198          estimate D2E/DX2                !
 ! A141  A(63,62,82)           108.1662         estimate D2E/DX2                !
 ! A142  A(58,66,67)           108.1424         estimate D2E/DX2                !
 ! A143  A(58,66,68)           109.457          estimate D2E/DX2                !
 ! A144  A(58,66,69)           109.3191         estimate D2E/DX2                !
 ! A145  A(67,66,68)           108.3537         estimate D2E/DX2                !
 ! A146  A(67,66,69)           110.284          estimate D2E/DX2                !
 ! A147  A(68,66,69)           111.224          estimate D2E/DX2                !
 ! A148  A(66,69,70)           107.5585         estimate D2E/DX2                !
 ! A149  A(66,69,71)           108.3725         estimate D2E/DX2                !
 ! A150  A(66,69,72)           115.0269         estimate D2E/DX2                !
 ! A151  A(70,69,71)           106.2809         estimate D2E/DX2                !
 ! A152  A(70,69,72)           110.6352         estimate D2E/DX2                !
 ! A153  A(71,69,72)           108.5954         estimate D2E/DX2                !
 ! A154  A(69,72,73)           107.9236         estimate D2E/DX2                !
 ! A155  A(69,72,74)           108.1591         estimate D2E/DX2                !
 ! A156  A(69,72,75)           114.4765         estimate D2E/DX2                !
 ! A157  A(73,72,74)           106.3432         estimate D2E/DX2                !
 ! A158  A(73,72,75)           110.5379         estimate D2E/DX2                !
 ! A159  A(74,72,75)           109.0646         estimate D2E/DX2                !
 ! A160  A(72,75,76)           109.8263         estimate D2E/DX2                !
 ! A161  A(72,75,77)           110.1848         estimate D2E/DX2                !
 ! A162  A(72,75,78)           114.5526         estimate D2E/DX2                !
 ! A163  A(76,75,77)           106.5572         estimate D2E/DX2                !
 ! A164  A(76,75,78)           106.5573         estimate D2E/DX2                !
 ! A165  A(77,75,78)           108.8081         estimate D2E/DX2                !
 ! A166  A(75,78,79)           110.8573         estimate D2E/DX2                !
 ! A167  A(75,78,80)           111.3149         estimate D2E/DX2                !
 ! A168  A(75,78,81)           112.2706         estimate D2E/DX2                !
 ! A169  A(79,78,80)           107.9815         estimate D2E/DX2                !
 ! A170  A(79,78,81)           106.9909         estimate D2E/DX2                !
 ! A171  A(80,78,81)           107.1973         estimate D2E/DX2                !
 ! A172  A(78,81,82)           112.6899         estimate D2E/DX2                !
 ! A173  A(78,81,83)           112.9638         estimate D2E/DX2                !
 ! A174  A(78,81,84)           112.5621         estimate D2E/DX2                !
 ! A175  A(82,81,83)           104.7019         estimate D2E/DX2                !
 ! A176  A(82,81,84)           105.1438         estimate D2E/DX2                !
 ! A177  A(83,81,84)           108.1693         estimate D2E/DX2                !
 ! A178  A(35,82,41)            26.349          estimate D2E/DX2                !
 ! A179  A(35,82,62)            59.6949         estimate D2E/DX2                !
 ! A180  A(35,82,81)           110.5384         estimate D2E/DX2                !
 ! A181  A(41,82,62)            54.673          estimate D2E/DX2                !
 ! A182  A(41,82,81)           116.3621         estimate D2E/DX2                !
 ! A183  A(62,82,81)            62.2661         estimate D2E/DX2                !
 ! A184  A(13,83,14)            78.3756         estimate D2E/DX2                !
 ! A185  A(13,83,19)            19.6812         estimate D2E/DX2                !
 ! A186  A(14,83,19)            61.6726         estimate D2E/DX2                !
 ! A187  A(14,83,81)            88.7465         estimate D2E/DX2                !
 ! A188  A(19,83,81)           146.2053         estimate D2E/DX2                !
 ! A189  A(45,84,56)            39.5268         estimate D2E/DX2                !
 ! A190  A(45,84,58)            26.2154         estimate D2E/DX2                !
 ! A191  A(45,84,81)           122.9263         estimate D2E/DX2                !
 ! A192  A(56,84,58)            52.0177         estimate D2E/DX2                !
 ! A193  A(56,84,81)           130.1396         estimate D2E/DX2                !
 ! A194  A(58,84,81)            96.9832         estimate D2E/DX2                !
 ! A195  L(42,41,82,38,-1)     169.6335         estimate D2E/DX2                !
 ! A196  L(13,83,81,14,-1)     167.1221         estimate D2E/DX2                !
 ! A197  L(42,41,82,38,-2)     173.9959         estimate D2E/DX2                !
 ! A198  L(13,83,81,14,-2)     185.9044         estimate D2E/DX2                !
 ! D1    D(6,1,2,3)            -56.6868         estimate D2E/DX2                !
 ! D2    D(6,1,2,7)           -176.8627         estimate D2E/DX2                !
 ! D3    D(6,1,2,15)            63.4208         estimate D2E/DX2                !
 ! D4    D(2,1,6,5)             55.2465         estimate D2E/DX2                !
 ! D5    D(2,1,6,11)           -64.7991         estimate D2E/DX2                !
 ! D6    D(2,1,6,16)           179.3144         estimate D2E/DX2                !
 ! D7    D(1,2,3,4)             54.8923         estimate D2E/DX2                !
 ! D8    D(1,2,3,8)            -62.5849         estimate D2E/DX2                !
 ! D9    D(1,2,3,14)           177.5676         estimate D2E/DX2                !
 ! D10   D(7,2,3,4)            171.7991         estimate D2E/DX2                !
 ! D11   D(7,2,3,8)             54.3219         estimate D2E/DX2                !
 ! D12   D(7,2,3,14)           -65.5256         estimate D2E/DX2                !
 ! D13   D(15,2,3,4)           -68.8009         estimate D2E/DX2                !
 ! D14   D(15,2,3,8)           173.722          estimate D2E/DX2                !
 ! D15   D(15,2,3,14)           53.8744         estimate D2E/DX2                !
 ! D16   D(1,2,15,27)           85.9087         estimate D2E/DX2                !
 ! D17   D(3,2,15,27)         -150.4506         estimate D2E/DX2                !
 ! D18   D(7,2,15,27)          -30.7789         estimate D2E/DX2                !
 ! D19   D(2,3,4,5)            -52.9326         estimate D2E/DX2                !
 ! D20   D(2,3,4,9)             68.9883         estimate D2E/DX2                !
 ! D21   D(2,3,4,13)          -174.5582         estimate D2E/DX2                !
 ! D22   D(8,3,4,5)             63.6547         estimate D2E/DX2                !
 ! D23   D(8,3,4,9)           -174.4243         estimate D2E/DX2                !
 ! D24   D(8,3,4,13)           -57.9709         estimate D2E/DX2                !
 ! D25   D(14,3,4,5)          -176.1829         estimate D2E/DX2                !
 ! D26   D(14,3,4,9)           -54.262          estimate D2E/DX2                !
 ! D27   D(14,3,4,13)           62.1915         estimate D2E/DX2                !
 ! D28   D(2,3,14,23)           10.9051         estimate D2E/DX2                !
 ! D29   D(2,3,14,83)         -143.9269         estimate D2E/DX2                !
 ! D30   D(4,3,14,23)          133.258          estimate D2E/DX2                !
 ! D31   D(4,3,14,83)          -21.574          estimate D2E/DX2                !
 ! D32   D(8,3,14,23)         -107.3408         estimate D2E/DX2                !
 ! D33   D(8,3,14,83)           97.8273         estimate D2E/DX2                !
 ! D34   D(3,4,5,6)             52.1619         estimate D2E/DX2                !
 ! D35   D(3,4,5,10)           169.7201         estimate D2E/DX2                !
 ! D36   D(3,4,5,12)           -72.8167         estimate D2E/DX2                !
 ! D37   D(9,4,5,6)            -69.2371         estimate D2E/DX2                !
 ! D38   D(9,4,5,10)            48.3212         estimate D2E/DX2                !
 ! D39   D(9,4,5,12)           165.7844         estimate D2E/DX2                !
 ! D40   D(13,4,5,6)           175.1329         estimate D2E/DX2                !
 ! D41   D(13,4,5,10)          -67.3089         estimate D2E/DX2                !
 ! D42   D(13,4,5,12)           50.1543         estimate D2E/DX2                !
 ! D43   D(3,4,13,22)           80.3965         estimate D2E/DX2                !
 ! D44   D(3,4,13,83)          -74.519          estimate D2E/DX2                !
 ! D45   D(5,4,13,22)          -42.2302         estimate D2E/DX2                !
 ! D46   D(5,4,13,83)          162.8542         estimate D2E/DX2                !
 ! D47   D(9,4,13,22)         -160.8433         estimate D2E/DX2                !
 ! D48   D(9,4,13,83)           44.2411         estimate D2E/DX2                !
 ! D49   D(4,5,6,1)            -52.1491         estimate D2E/DX2                !
 ! D50   D(4,5,6,11)            68.588          estimate D2E/DX2                !
 ! D51   D(4,5,6,16)          -171.9663         estimate D2E/DX2                !
 ! D52   D(10,5,6,1)          -170.3298         estimate D2E/DX2                !
 ! D53   D(10,5,6,11)          -49.5927         estimate D2E/DX2                !
 ! D54   D(10,5,6,16)           69.853          estimate D2E/DX2                !
 ! D55   D(12,5,6,1)            67.3743         estimate D2E/DX2                !
 ! D56   D(12,5,6,11)         -171.8887         estimate D2E/DX2                !
 ! D57   D(12,5,6,16)          -52.4429         estimate D2E/DX2                !
 ! D58   D(4,5,12,21)          150.785          estimate D2E/DX2                !
 ! D59   D(6,5,12,21)           28.5689         estimate D2E/DX2                !
 ! D60   D(10,5,12,21)         -92.5411         estimate D2E/DX2                !
 ! D61   D(1,6,16,17)           59.5469         estimate D2E/DX2                !
 ! D62   D(1,6,16,18)          178.1564         estimate D2E/DX2                !
 ! D63   D(1,6,16,19)          -63.9173         estimate D2E/DX2                !
 ! D64   D(5,6,16,17)         -177.0752         estimate D2E/DX2                !
 ! D65   D(5,6,16,18)          -58.4657         estimate D2E/DX2                !
 ! D66   D(5,6,16,19)           59.4606         estimate D2E/DX2                !
 ! D67   D(11,6,16,17)         -57.4082         estimate D2E/DX2                !
 ! D68   D(11,6,16,18)          61.2013         estimate D2E/DX2                !
 ! D69   D(11,6,16,19)         179.1276         estimate D2E/DX2                !
 ! D70   D(4,13,83,14)          40.4516         estimate D2E/DX2                !
 ! D71   D(4,13,83,19)          10.1415         estimate D2E/DX2                !
 ! D72   D(22,13,83,14)       -101.3841         estimate D2E/DX2                !
 ! D73   D(22,13,83,19)       -131.6942         estimate D2E/DX2                !
 ! D74   D(3,14,83,13)         -10.7239         estimate D2E/DX2                !
 ! D75   D(3,14,83,19)           0.4094         estimate D2E/DX2                !
 ! D76   D(3,14,83,81)         163.3717         estimate D2E/DX2                !
 ! D77   D(23,14,83,13)       -139.5314         estimate D2E/DX2                !
 ! D78   D(23,14,83,19)       -128.3981         estimate D2E/DX2                !
 ! D79   D(23,14,83,81)         34.5642         estimate D2E/DX2                !
 ! D80   D(2,15,27,26)        -145.7903         estimate D2E/DX2                !
 ! D81   D(2,15,27,28)          91.4151         estimate D2E/DX2                !
 ! D82   D(2,15,27,32)         -29.7707         estimate D2E/DX2                !
 ! D83   D(6,16,19,20)          70.5095         estimate D2E/DX2                !
 ! D84   D(6,16,19,83)         -20.3516         estimate D2E/DX2                !
 ! D85   D(17,16,19,20)        -52.3145         estimate D2E/DX2                !
 ! D86   D(17,16,19,83)       -143.1756         estimate D2E/DX2                !
 ! D87   D(18,16,19,20)       -169.5196         estimate D2E/DX2                !
 ! D88   D(18,16,19,83)         99.6193         estimate D2E/DX2                !
 ! D89   D(16,19,83,13)       -127.246          estimate D2E/DX2                !
 ! D90   D(16,19,83,14)         86.919          estimate D2E/DX2                !
 ! D91   D(16,19,83,81)         55.1399         estimate D2E/DX2                !
 ! D92   D(20,19,83,13)        126.9939         estimate D2E/DX2                !
 ! D93   D(20,19,83,14)        -18.8411         estimate D2E/DX2                !
 ! D94   D(20,19,83,81)        -50.6201         estimate D2E/DX2                !
 ! D95   D(29,24,25,26)        -50.9365         estimate D2E/DX2                !
 ! D96   D(29,24,25,30)         66.02           estimate D2E/DX2                !
 ! D97   D(29,24,25,37)        178.643          estimate D2E/DX2                !
 ! D98   D(25,24,29,28)         73.1208         estimate D2E/DX2                !
 ! D99   D(25,24,29,34)        -45.0235         estimate D2E/DX2                !
 ! D100  D(25,24,29,38)       -162.631          estimate D2E/DX2                !
 ! D101  D(24,25,26,27)         -9.7938         estimate D2E/DX2                !
 ! D102  D(24,25,26,31)       -129.7013         estimate D2E/DX2                !
 ! D103  D(24,25,26,36)        108.3263         estimate D2E/DX2                !
 ! D104  D(30,25,26,27)       -127.208          estimate D2E/DX2                !
 ! D105  D(30,25,26,31)        112.8846         estimate D2E/DX2                !
 ! D106  D(30,25,26,36)         -9.0878         estimate D2E/DX2                !
 ! D107  D(37,25,26,27)        116.3082         estimate D2E/DX2                !
 ! D108  D(37,25,26,31)         -3.5993         estimate D2E/DX2                !
 ! D109  D(37,25,26,36)       -125.5717         estimate D2E/DX2                !
 ! D110  D(24,25,37,49)         64.2893         estimate D2E/DX2                !
 ! D111  D(26,25,37,49)        -62.8701         estimate D2E/DX2                !
 ! D112  D(30,25,37,49)        179.1707         estimate D2E/DX2                !
 ! D113  D(25,26,27,15)        -71.9129         estimate D2E/DX2                !
 ! D114  D(25,26,27,28)         50.217          estimate D2E/DX2                !
 ! D115  D(25,26,27,32)        170.4623         estimate D2E/DX2                !
 ! D116  D(31,26,27,15)         48.1762         estimate D2E/DX2                !
 ! D117  D(31,26,27,28)        170.3061         estimate D2E/DX2                !
 ! D118  D(31,26,27,32)        -69.4485         estimate D2E/DX2                !
 ! D119  D(36,26,27,15)        167.7726         estimate D2E/DX2                !
 ! D120  D(36,26,27,28)        -70.0976         estimate D2E/DX2                !
 ! D121  D(36,26,27,32)         50.1478         estimate D2E/DX2                !
 ! D122  D(25,26,36,44)         84.3354         estimate D2E/DX2                !
 ! D123  D(27,26,36,44)       -153.0925         estimate D2E/DX2                !
 ! D124  D(31,26,36,44)        -35.7662         estimate D2E/DX2                !
 ! D125  D(15,27,28,29)         89.8254         estimate D2E/DX2                !
 ! D126  D(15,27,28,33)       -151.9677         estimate D2E/DX2                !
 ! D127  D(15,27,28,35)        -34.2577         estimate D2E/DX2                !
 ! D128  D(26,27,28,29)        -30.2258         estimate D2E/DX2                !
 ! D129  D(26,27,28,33)         87.9811         estimate D2E/DX2                !
 ! D130  D(26,27,28,35)       -154.3089         estimate D2E/DX2                !
 ! D131  D(32,27,28,29)       -149.0123         estimate D2E/DX2                !
 ! D132  D(32,27,28,33)        -30.8055         estimate D2E/DX2                !
 ! D133  D(32,27,28,35)         86.9045         estimate D2E/DX2                !
 ! D134  D(27,28,29,24)        -28.2406         estimate D2E/DX2                !
 ! D135  D(27,28,29,34)         90.1936         estimate D2E/DX2                !
 ! D136  D(27,28,29,38)       -148.0019         estimate D2E/DX2                !
 ! D137  D(33,28,29,24)       -146.1198         estimate D2E/DX2                !
 ! D138  D(33,28,29,34)        -27.6855         estimate D2E/DX2                !
 ! D139  D(33,28,29,38)         94.1189         estimate D2E/DX2                !
 ! D140  D(35,28,29,24)         92.9986         estimate D2E/DX2                !
 ! D141  D(35,28,29,34)       -148.5672         estimate D2E/DX2                !
 ! D142  D(35,28,29,38)        -26.7627         estimate D2E/DX2                !
 ! D143  D(27,28,35,43)       -173.4615         estimate D2E/DX2                !
 ! D144  D(27,28,35,82)         68.2315         estimate D2E/DX2                !
 ! D145  D(29,28,35,43)         63.6354         estimate D2E/DX2                !
 ! D146  D(29,28,35,82)        -54.6716         estimate D2E/DX2                !
 ! D147  D(33,28,35,43)        -56.7088         estimate D2E/DX2                !
 ! D148  D(33,28,35,82)       -175.0157         estimate D2E/DX2                !
 ! D149  D(24,29,38,39)        -46.8047         estimate D2E/DX2                !
 ! D150  D(24,29,38,40)         71.0745         estimate D2E/DX2                !
 ! D151  D(24,29,38,41)       -163.9818         estimate D2E/DX2                !
 ! D152  D(28,29,38,39)         75.7203         estimate D2E/DX2                !
 ! D153  D(28,29,38,40)       -166.4005         estimate D2E/DX2                !
 ! D154  D(28,29,38,41)        -41.4568         estimate D2E/DX2                !
 ! D155  D(34,29,38,39)       -163.5009         estimate D2E/DX2                !
 ! D156  D(34,29,38,40)        -45.6216         estimate D2E/DX2                !
 ! D157  D(34,29,38,41)         79.3221         estimate D2E/DX2                !
 ! D158  D(28,35,82,41)         85.1854         estimate D2E/DX2                !
 ! D159  D(28,35,82,62)         14.3924         estimate D2E/DX2                !
 ! D160  D(28,35,82,81)        -22.9917         estimate D2E/DX2                !
 ! D161  D(43,35,82,41)        -33.6983         estimate D2E/DX2                !
 ! D162  D(43,35,82,62)       -104.4913         estimate D2E/DX2                !
 ! D163  D(43,35,82,81)       -141.8755         estimate D2E/DX2                !
 ! D164  D(25,37,49,48)        124.37           estimate D2E/DX2                !
 ! D165  D(25,37,49,50)       -117.3326         estimate D2E/DX2                !
 ! D166  D(25,37,49,55)          3.5856         estimate D2E/DX2                !
 ! D167  D(29,38,41,42)        -82.5555         estimate D2E/DX2                !
 ! D168  D(29,38,41,82)        103.4486         estimate D2E/DX2                !
 ! D169  D(39,38,41,42)        158.4134         estimate D2E/DX2                !
 ! D170  D(39,38,41,82)        -15.5825         estimate D2E/DX2                !
 ! D171  D(40,38,41,42)         41.4756         estimate D2E/DX2                !
 ! D172  D(40,38,41,82)       -132.5203         estimate D2E/DX2                !
 ! D173  D(38,41,82,35)        -96.4558         estimate D2E/DX2                !
 ! D174  D(38,41,82,62)         -4.3094         estimate D2E/DX2                !
 ! D175  D(38,41,82,81)        -13.254          estimate D2E/DX2                !
 ! D176  D(50,45,46,47)        -63.7187         estimate D2E/DX2                !
 ! D177  D(50,45,46,51)         56.7756         estimate D2E/DX2                !
 ! D178  D(50,45,46,58)        177.9752         estimate D2E/DX2                !
 ! D179  D(84,45,46,47)         80.8004         estimate D2E/DX2                !
 ! D180  D(84,45,46,51)       -158.7054         estimate D2E/DX2                !
 ! D181  D(84,45,46,58)        -37.5058         estimate D2E/DX2                !
 ! D182  D(46,45,50,49)         67.6251         estimate D2E/DX2                !
 ! D183  D(46,45,50,54)        -51.1182         estimate D2E/DX2                !
 ! D184  D(46,45,50,59)       -167.165          estimate D2E/DX2                !
 ! D185  D(84,45,50,49)        -95.0305         estimate D2E/DX2                !
 ! D186  D(84,45,50,54)        146.2262         estimate D2E/DX2                !
 ! D187  D(84,45,50,59)         30.1795         estimate D2E/DX2                !
 ! D188  D(46,45,84,56)        -82.5234         estimate D2E/DX2                !
 ! D189  D(46,45,84,58)         23.2809         estimate D2E/DX2                !
 ! D190  D(46,45,84,81)         32.4321         estimate D2E/DX2                !
 ! D191  D(50,45,84,56)         65.1212         estimate D2E/DX2                !
 ! D192  D(50,45,84,58)        170.9255         estimate D2E/DX2                !
 ! D193  D(50,45,84,81)       -179.9232         estimate D2E/DX2                !
 ! D194  D(45,46,47,48)         52.7546         estimate D2E/DX2                !
 ! D195  D(45,46,47,52)        -65.897          estimate D2E/DX2                !
 ! D196  D(45,46,47,57)        178.6012         estimate D2E/DX2                !
 ! D197  D(51,46,47,48)        -65.5898         estimate D2E/DX2                !
 ! D198  D(51,46,47,52)        175.7587         estimate D2E/DX2                !
 ! D199  D(51,46,47,57)         60.2568         estimate D2E/DX2                !
 ! D200  D(58,46,47,48)        170.3898         estimate D2E/DX2                !
 ! D201  D(58,46,47,52)         51.7383         estimate D2E/DX2                !
 ! D202  D(58,46,47,57)        -63.7635         estimate D2E/DX2                !
 ! D203  D(45,46,58,66)        -71.0578         estimate D2E/DX2                !
 ! D204  D(45,46,58,84)         12.6072         estimate D2E/DX2                !
 ! D205  D(47,46,58,66)        171.2593         estimate D2E/DX2                !
 ! D206  D(47,46,58,84)       -105.0757         estimate D2E/DX2                !
 ! D207  D(51,46,58,66)         47.6074         estimate D2E/DX2                !
 ! D208  D(51,46,58,84)        131.2724         estimate D2E/DX2                !
 ! D209  D(46,47,48,49)        -49.6284         estimate D2E/DX2                !
 ! D210  D(46,47,48,53)         68.9707         estimate D2E/DX2                !
 ! D211  D(46,47,48,56)       -171.3588         estimate D2E/DX2                !
 ! D212  D(52,47,48,49)         67.476          estimate D2E/DX2                !
 ! D213  D(52,47,48,53)       -173.9249         estimate D2E/DX2                !
 ! D214  D(52,47,48,56)        -54.2544         estimate D2E/DX2                !
 ! D215  D(57,47,48,49)       -178.1443         estimate D2E/DX2                !
 ! D216  D(57,47,48,53)        -59.5453         estimate D2E/DX2                !
 ! D217  D(57,47,48,56)         60.1252         estimate D2E/DX2                !
 ! D218  D(46,47,57,65)        -46.9586         estimate D2E/DX2                !
 ! D219  D(48,47,57,65)         79.7961         estimate D2E/DX2                !
 ! D220  D(52,47,57,65)       -163.2854         estimate D2E/DX2                !
 ! D221  D(47,48,49,37)        170.0895         estimate D2E/DX2                !
 ! D222  D(47,48,49,50)         51.308          estimate D2E/DX2                !
 ! D223  D(47,48,49,55)        -68.6997         estimate D2E/DX2                !
 ! D224  D(53,48,49,37)         50.4778         estimate D2E/DX2                !
 ! D225  D(53,48,49,50)        -68.3038         estimate D2E/DX2                !
 ! D226  D(53,48,49,55)        171.6886         estimate D2E/DX2                !
 ! D227  D(56,48,49,37)        -68.2331         estimate D2E/DX2                !
 ! D228  D(56,48,49,50)        172.9853         estimate D2E/DX2                !
 ! D229  D(56,48,49,55)         52.9777         estimate D2E/DX2                !
 ! D230  D(47,48,56,64)        -51.7316         estimate D2E/DX2                !
 ! D231  D(47,48,56,84)         82.0597         estimate D2E/DX2                !
 ! D232  D(49,48,56,64)       -175.146          estimate D2E/DX2                !
 ! D233  D(49,48,56,84)        -41.3548         estimate D2E/DX2                !
 ! D234  D(53,48,56,64)         67.5828         estimate D2E/DX2                !
 ! D235  D(53,48,56,84)       -158.626          estimate D2E/DX2                !
 ! D236  D(37,49,50,45)       -177.4979         estimate D2E/DX2                !
 ! D237  D(37,49,50,54)        -57.5919         estimate D2E/DX2                !
 ! D238  D(37,49,50,59)         62.0408         estimate D2E/DX2                !
 ! D239  D(48,49,50,45)        -58.7034         estimate D2E/DX2                !
 ! D240  D(48,49,50,54)         61.2027         estimate D2E/DX2                !
 ! D241  D(48,49,50,59)       -179.1647         estimate D2E/DX2                !
 ! D242  D(55,49,50,45)         61.23           estimate D2E/DX2                !
 ! D243  D(55,49,50,54)       -178.8639         estimate D2E/DX2                !
 ! D244  D(55,49,50,59)        -59.2313         estimate D2E/DX2                !
 ! D245  D(45,50,59,60)         55.2971         estimate D2E/DX2                !
 ! D246  D(45,50,59,61)        173.6684         estimate D2E/DX2                !
 ! D247  D(45,50,59,62)        -63.1508         estimate D2E/DX2                !
 ! D248  D(49,50,59,60)        176.4485         estimate D2E/DX2                !
 ! D249  D(49,50,59,61)        -65.1802         estimate D2E/DX2                !
 ! D250  D(49,50,59,62)         58.0006         estimate D2E/DX2                !
 ! D251  D(54,50,59,60)        -63.0269         estimate D2E/DX2                !
 ! D252  D(54,50,59,61)         55.3444         estimate D2E/DX2                !
 ! D253  D(54,50,59,62)        178.5252         estimate D2E/DX2                !
 ! D254  D(48,56,84,45)        -16.9979         estimate D2E/DX2                !
 ! D255  D(48,56,84,58)        -49.6314         estimate D2E/DX2                !
 ! D256  D(48,56,84,81)       -112.461          estimate D2E/DX2                !
 ! D257  D(64,56,84,45)         54.1552         estimate D2E/DX2                !
 ! D258  D(64,56,84,58)         21.5217         estimate D2E/DX2                !
 ! D259  D(64,56,84,81)        -41.3079         estimate D2E/DX2                !
 ! D260  D(46,58,66,67)       -101.4662         estimate D2E/DX2                !
 ! D261  D(46,58,66,68)         16.3853         estimate D2E/DX2                !
 ! D262  D(46,58,66,69)        138.4379         estimate D2E/DX2                !
 ! D263  D(84,58,66,67)       -171.7851         estimate D2E/DX2                !
 ! D264  D(84,58,66,68)        -53.9335         estimate D2E/DX2                !
 ! D265  D(84,58,66,69)         68.119          estimate D2E/DX2                !
 ! D266  D(46,58,84,45)        -12.9579         estimate D2E/DX2                !
 ! D267  D(46,58,84,56)         38.0228         estimate D2E/DX2                !
 ! D268  D(46,58,84,81)        174.7714         estimate D2E/DX2                !
 ! D269  D(66,58,84,45)        102.2499         estimate D2E/DX2                !
 ! D270  D(66,58,84,56)        153.2306         estimate D2E/DX2                !
 ! D271  D(66,58,84,81)        -70.0208         estimate D2E/DX2                !
 ! D272  D(50,59,62,63)        -75.7359         estimate D2E/DX2                !
 ! D273  D(50,59,62,82)         85.4333         estimate D2E/DX2                !
 ! D274  D(60,59,62,63)        164.8209         estimate D2E/DX2                !
 ! D275  D(60,59,62,82)        -34.0098         estimate D2E/DX2                !
 ! D276  D(61,59,62,63)         47.1521         estimate D2E/DX2                !
 ! D277  D(61,59,62,82)       -151.6786         estimate D2E/DX2                !
 ! D278  D(59,62,82,35)       -168.5691         estimate D2E/DX2                !
 ! D279  D(59,62,82,41)        160.5186         estimate D2E/DX2                !
 ! D280  D(59,62,82,81)        -28.537          estimate D2E/DX2                !
 ! D281  D(63,62,82,35)         -7.6472         estimate D2E/DX2                !
 ! D282  D(63,62,82,41)        -38.5595         estimate D2E/DX2                !
 ! D283  D(63,62,82,81)        132.3849         estimate D2E/DX2                !
 ! D284  D(58,66,69,70)        176.8537         estimate D2E/DX2                !
 ! D285  D(58,66,69,71)         62.3387         estimate D2E/DX2                !
 ! D286  D(58,66,69,72)        -59.3893         estimate D2E/DX2                !
 ! D287  D(67,66,69,70)         58.0805         estimate D2E/DX2                !
 ! D288  D(67,66,69,71)        -56.4345         estimate D2E/DX2                !
 ! D289  D(67,66,69,72)       -178.1625         estimate D2E/DX2                !
 ! D290  D(68,66,69,70)        -62.1619         estimate D2E/DX2                !
 ! D291  D(68,66,69,71)       -176.6769         estimate D2E/DX2                !
 ! D292  D(68,66,69,72)         61.5951         estimate D2E/DX2                !
 ! D293  D(66,69,72,73)         58.6591         estimate D2E/DX2                !
 ! D294  D(66,69,72,74)        173.3254         estimate D2E/DX2                !
 ! D295  D(66,69,72,75)        -64.871          estimate D2E/DX2                !
 ! D296  D(70,69,72,73)       -179.2286         estimate D2E/DX2                !
 ! D297  D(70,69,72,74)        -64.5624         estimate D2E/DX2                !
 ! D298  D(70,69,72,75)         57.2413         estimate D2E/DX2                !
 ! D299  D(71,69,72,73)        -62.9482         estimate D2E/DX2                !
 ! D300  D(71,69,72,74)         51.7181         estimate D2E/DX2                !
 ! D301  D(71,69,72,75)        173.5218         estimate D2E/DX2                !
 ! D302  D(69,72,75,76)        -57.0944         estimate D2E/DX2                !
 ! D303  D(69,72,75,77)         59.9895         estimate D2E/DX2                !
 ! D304  D(69,72,75,78)       -176.9458         estimate D2E/DX2                !
 ! D305  D(73,72,75,76)       -179.2104         estimate D2E/DX2                !
 ! D306  D(73,72,75,77)        -62.1265         estimate D2E/DX2                !
 ! D307  D(73,72,75,78)         60.9382         estimate D2E/DX2                !
 ! D308  D(74,72,75,76)         64.2127         estimate D2E/DX2                !
 ! D309  D(74,72,75,77)       -178.7034         estimate D2E/DX2                !
 ! D310  D(74,72,75,78)        -55.6386         estimate D2E/DX2                !
 ! D311  D(72,75,78,79)        174.3958         estimate D2E/DX2                !
 ! D312  D(72,75,78,80)         54.1786         estimate D2E/DX2                !
 ! D313  D(72,75,78,81)        -66.0034         estimate D2E/DX2                !
 ! D314  D(76,75,78,79)         52.7387         estimate D2E/DX2                !
 ! D315  D(76,75,78,80)        -67.4785         estimate D2E/DX2                !
 ! D316  D(76,75,78,81)        172.3396         estimate D2E/DX2                !
 ! D317  D(77,75,78,79)        -61.8011         estimate D2E/DX2                !
 ! D318  D(77,75,78,80)        177.9817         estimate D2E/DX2                !
 ! D319  D(77,75,78,81)         57.7997         estimate D2E/DX2                !
 ! D320  D(75,78,81,82)       -179.4602         estimate D2E/DX2                !
 ! D321  D(75,78,81,83)         62.1207         estimate D2E/DX2                !
 ! D322  D(75,78,81,84)        -60.7526         estimate D2E/DX2                !
 ! D323  D(79,78,81,82)        -57.6278         estimate D2E/DX2                !
 ! D324  D(79,78,81,83)       -176.0468         estimate D2E/DX2                !
 ! D325  D(79,78,81,84)         61.0798         estimate D2E/DX2                !
 ! D326  D(80,78,81,82)         57.9971         estimate D2E/DX2                !
 ! D327  D(80,78,81,83)        -60.4219         estimate D2E/DX2                !
 ! D328  D(80,78,81,84)        176.7047         estimate D2E/DX2                !
 ! D329  D(78,81,82,35)        156.0424         estimate D2E/DX2                !
 ! D330  D(78,81,82,41)        127.9671         estimate D2E/DX2                !
 ! D331  D(78,81,82,62)        119.7274         estimate D2E/DX2                !
 ! D332  D(83,81,82,35)        -80.8036         estimate D2E/DX2                !
 ! D333  D(83,81,82,41)       -108.8788         estimate D2E/DX2                !
 ! D334  D(83,81,82,62)       -117.1185         estimate D2E/DX2                !
 ! D335  D(84,81,82,35)         33.0869         estimate D2E/DX2                !
 ! D336  D(84,81,82,41)          5.0116         estimate D2E/DX2                !
 ! D337  D(84,81,82,62)         -3.2281         estimate D2E/DX2                !
 ! D338  D(78,81,83,14)        170.7357         estimate D2E/DX2                !
 ! D339  D(78,81,83,19)       -161.6388         estimate D2E/DX2                !
 ! D340  D(82,81,83,14)         47.7586         estimate D2E/DX2                !
 ! D341  D(82,81,83,19)         75.3841         estimate D2E/DX2                !
 ! D342  D(84,81,83,14)        -63.9797         estimate D2E/DX2                !
 ! D343  D(84,81,83,19)        -36.3542         estimate D2E/DX2                !
 ! D344  D(78,81,84,45)         70.5586         estimate D2E/DX2                !
 ! D345  D(78,81,84,56)        119.5656         estimate D2E/DX2                !
 ! D346  D(78,81,84,58)         74.6175         estimate D2E/DX2                !
 ! D347  D(82,81,84,45)       -166.4038         estimate D2E/DX2                !
 ! D348  D(82,81,84,56)       -117.3969         estimate D2E/DX2                !
 ! D349  D(82,81,84,58)       -162.345          estimate D2E/DX2                !
 ! D350  D(83,81,84,45)        -54.9631         estimate D2E/DX2                !
 ! D351  D(83,81,84,56)         -5.9562         estimate D2E/DX2                !
 ! D352  D(83,81,84,58)        -50.9043         estimate D2E/DX2                !
 --------------------------------------------------------------------------------
 Trust Radius=3.00D-01 FncErr=1.00D-07 GrdErr=1.00D-06
 Number of steps in this run=    504 maximum allowed number of steps=    504.
 GradGradGradGradGradGradGradGradGradGradGradGradGradGradGradGradGradGrad

 Leave Link  103 at Sun May  1 16:14:50 2016, MaxMem= 10737418240 cpu:         0.7
 (Enter /share/apps//g09/l202.exe)
 Stoichiometry    C23H44NO16(1+)
 Framework group  C1[X(C23H44NO16)]
 Deg. of freedom   246
 Full point group                 C1      NOp   1
 Largest Abelian subgroup         C1      NOp   1
 Largest concise Abelian subgroup C1      NOp   1
                         Standard orientation:                         
 ---------------------------------------------------------------------
 Center     Atomic      Atomic             Coordinates (Angstroms)
 Number     Number       Type             X           Y           Z
 ---------------------------------------------------------------------
      1          8           0       -1.442532    3.034723   -0.888124
      2          6           0       -1.684173    1.730950   -1.370243
      3          6           0       -0.551343    1.217682   -2.272249
      4          6           0        0.787101    1.308244   -1.529904
      5          6           0        1.012059    2.721696   -0.983900
      6          6           0       -0.200240    3.181799   -0.160904
      7          1           0       -2.622738    1.808321   -1.937560
      8          1           0       -0.509412    1.886402   -3.149287
      9          1           0        0.801853    0.574451   -0.709887
     10          1           0        1.887296    2.699734   -0.302618
     11          1           0       -0.241370    2.573923    0.762283
     12          8           0        1.310354    3.531920   -2.122111
     13          8           0        1.888621    0.954100   -2.387906
     14          8           0       -0.794267   -0.126685   -2.702217
     15          8           0       -1.824445    0.772237   -0.317156
     16          6           0       -0.128889    4.649371    0.250059
     17          1           0       -0.999319    4.896856    0.878459
     18          1           0        0.782345    4.823825    0.839346
     19          8           0       -0.050827    5.538374   -0.879098
     20          1           0       -0.921043    5.520887   -1.319584
     21          1           0        1.001502    4.446577   -1.920349
     22          1           0        2.080245    1.749635   -2.927449
     23          1           0       -1.723369   -0.345363   -2.458110
     24          8           0       -2.491883   -1.904961    0.810090
     25          6           0       -2.493858   -1.101747    2.015114
     26          6           0       -3.001321    0.353564    1.724476
     27          6           0       -3.144501    0.658005    0.223893
     28          6           0       -3.958964   -0.440108   -0.520313
     29          6           0       -3.772543   -1.817457    0.155080
     30          1           0       -3.208922   -1.558028    2.723118
     31          1           0       -2.277974    1.064533    2.149301
     32          1           0       -3.663179    1.624751    0.137513
     33          1           0       -5.024719   -0.166850   -0.456793
     34          1           0       -4.562685   -1.927106    0.922581
     35          8           0       -3.552089   -0.435042   -1.899583
     36          8           0       -4.307512    0.532717    2.288657
     37          8           0       -1.254264   -1.227185    2.647567
     38          6           0       -3.834520   -3.000729   -0.820992
     39          1           0       -2.893061   -3.051610   -1.386862
     40          1           0       -3.939403   -3.943848   -0.264342
     41          8           0       -4.875127   -2.841645   -1.795935
     42          1           0       -5.723047   -3.127223   -1.414114
     43          1           0       -4.159270   -1.060136   -2.349201
     44          1           0       -4.210267    0.774229    3.225066
     45          8           0        2.061498   -1.406512    1.064961
     46          6           0        2.851986   -0.578852    1.947152
     47          6           0        2.025423    0.656554    2.315484
     48          6           0        0.639193    0.269038    2.864640
     49          6           0       -0.080672   -0.735226    1.964991
     50          6           0        0.876612   -1.914979    1.688926
     51          1           0        3.101117   -1.183995    2.852279
     52          1           0        1.893172    1.229049    1.385189
     53          1           0        0.766400   -0.211590    3.857518
     54          1           0        1.127642   -2.397788    2.656904
     55          1           0       -0.361343   -0.251350    1.017256
     56          8           0       -0.161896    1.444843    3.002438
     57          8           0        2.667880    1.560266    3.214455
     58          8           0        3.984828   -0.181958    1.265929
     59          6           0        0.318505   -3.005508    0.783981
     60          1           0        1.105476   -3.752413    0.610017
     61          1           0       -0.527958   -3.498706    1.282623
     62          8           0       -0.085432   -2.519153   -0.504955
     63          1           0       -0.938392   -2.051361   -0.359607
     64          1           0        0.377816    2.075230    3.516885
     65          1           0        3.052729    1.055625    3.955255
     66          6           0        4.951352   -1.240512    1.034467
     67          1           0        5.762352   -1.132450    1.773362
     68          1           0        4.468910   -2.218034    1.189654
     69          6           0        5.505418   -1.116990   -0.380133
     70          1           0        6.275551   -1.896952   -0.505212
     71          1           0        6.027338   -0.151459   -0.465281
     72          6           0        4.456462   -1.207323   -1.499282
     73          1           0        3.721355   -0.404571   -1.339893
     74          1           0        4.955831   -0.985121   -2.457168
     75          6           0        3.753577   -2.568356   -1.604023
     76          1           0        4.501464   -3.365241   -1.749342
     77          1           0        3.228811   -2.798242   -0.663895
     78          6           0        2.763757   -2.684069   -2.761470
     79          1           0        2.372118   -3.707120   -2.840278
     80          1           0        3.237707   -2.427242   -3.719909
     81          7           0        1.581608   -1.773416   -2.592597
     82          1           0        0.907065   -1.852536   -3.363507
     83          1           0        1.846814   -0.756277   -2.573455
     84          1           0        1.027507   -1.986091   -1.717911
 ---------------------------------------------------------------------
 Rotational constants (GHZ):      0.1086347      0.0807758      0.0720661
 Leave Link  202 at Sun May  1 16:14:50 2016, MaxMem= 10737418240 cpu:         4.7
 (Enter /share/apps//g09/l301.exe)
 Standard basis: 6-311+G(d,p) (5D, 7F)
 Ernie: Thresh=  0.10000D-02 Tol=  0.10000D-05 Strict=F.
 There are  1184 symmetry adapted cartesian basis functions of A   symmetry.
 There are  1144 symmetry adapted basis functions of A   symmetry.
  1144 basis functions,  1792 primitive gaussians,  1184 cartesian basis functions
   158 alpha electrons      158 beta electrons
       nuclear repulsion energy      6075.0436239799 Hartrees.
 IExCor= 1009 DFT=T Ex+Corr=PBE1PBE ExCW=0 ScaHFX=  0.250000
[...]
 01,-0.00001765,0.00001340,-0.00001008,-0.00001627,0.00001580,0.0000137
 2,-0.00004459,0.00002099,0.00000113,-0.00001215,0.00020829,-0.00003561
 ,-0.00030811,-0.00002842,-0.00005492,-0.00004069,-0.00012554,-0.000045
 95,-0.00010653,-0.00010684,0.00002177,0.00007509,0.00000366,0.00000807
 ,-0.00002335,-0.00000104,-0.00000540,-0.00000987,0.00007694,-0.0000483
 2,-0.00003625,-0.00001620,0.00000867,0.00000812,-0.00002450,0.00003171
 ,0.00002011,0.00000582,0.00001801,0.00002281,-0.00063764,0.00000096,-0
 .00050103,0.00088243,0.00019965,0.00015943,0.00003598,0.00020986,-0.00
 003989,0.00011300,0.00005946,0.00009259,-0.00000919,0.00007738,0.00006
 692,0.00016251,0.00002440,0.00008855,-0.00007888,-0.00004641,-0.000060
 79,0.00001524,-0.00001440,-0.00002456,-0.00003041,-0.00002874,-0.00000
 109,-0.00003412,0.00001074,-0.00004608,0.00004201,0.00005076,0.0000724
 4,-0.00012955,-0.00015622,-0.00007122,-0.00010778,-0.00009661,-0.00004
 229,-0.00039964,-0.00027381,0.00023825,0.00020742,-0.00071170,0.000475
 17,-0.00001375,-0.00000370,-0.00002083,-0.00000053,0.00015775,-0.00008
 929,0.00077555,0.00080966,-0.00046242,-0.00028071,0.00008923,0.0003086
 7,0.00003942,0.00004400,-0.00003305,0.00002449,0.00000068,-0.00000118,
 0.00025485,0.00010375,-0.00002260,-0.00006024,-0.00005934,0.00006239,-
 0.00006151,-0.00009946,0.00002203,-0.00030642,-0.00051136,-0.00090015,
 0.00027294,-0.00031932,0.00017170,-0.00011180,0.00009441,-0.00006807,0
 .00032488,0.00064136,0.00151049,-0.00172201,0.00125073,-0.00180045,-0.
 00037619,0.00004086,0.00024312,0.00098381,0.00013443,0.00069871,-0.000
 41232,-0.00015163,-0.00037480,-0.00017172,-0.00024249,-0.00009070,0.02
 121387,0.00944691,0.01045135,-0.00293708,0.00401664,0.00388876,0.00022
 645,-0.00012784,0.00050540,-0.17867462,-0.09569632,-0.09948522,-0.0142
 2965,-0.01108000,-0.01051061,0.19017480,-0.00055875,-0.00014868,0.0000
 6658,0.00048037,0.00097118,-0.00098411,0.00071838,-0.00018320,0.000972
 20,0.00728311,0.00239812,-0.00643047,-0.00170836,0.00021512,0.00107978
 ,0.00120196,0.00050032,0.00025145,-0.00020129,-0.00003650,0.00026921,0
 .00009407,-0.00034580,-0.00005716,-0.00069396,-0.00026485,0.00086538,0
 .00008001,-0.00010420,-0.00009029,-0.00002112,0.00006457,-0.00000194,-
 0.00007093,0.00050105,0.00101643,0.00010796,0.00114732,0.00522090,-0.0
 0159535,-0.00165095,-0.00114600,-0.00102574,-0.00084971,0.00044078,-0.
 00044046,-0.00004570,-0.00000626,-0.00000440,0.00011759,0.00019627,0.0
 0001685,-0.00000779,-0.00005693,-0.00007527,0.00017389,0.00044780,0.00
 003592,-0.00012786,-0.00011694,-0.00014151,-0.00048388,-0.00029849,-0.
 00121639,-0.00250700,0.00218395,0.00053008,0.00041275,0.00032780,0.000
 20976,-0.00027533,-0.00031376,-0.00011239,0.00030885,0.00023952,-0.000
 01394,0.00012393,-0.00004508,0.00063327,0.00000157,-0.00013035,0.00002
 144,0.00018266,-0.00004785,-0.00007542,0.00024078,-0.00002366,0.000007
 84,-0.00002485,-0.00003672,-0.00000609,0.00003102,-0.00002584,-0.00002
 294,-0.00001814,-0.00001382,-0.00004286,-0.00003227,-0.00000632,0.0000
 2047,-0.00004205,-0.00001803,-0.00036271,-0.00024615,-0.00002210,-0.00
 009174,-0.00017655,0.00004336,0.00024406,-0.00030522,-0.00021022,-0.00
 014321,0.00005686,0.00011596,0.00001165,0.00005989,-0.00000310,-0.0000
 3082,-0.00002766,-0.00001747,0.00003999,-0.00015779,-0.00009245,0.0000
 0464,0.00000370,0.00003024,0.00005193,0.00009610,0.00014006,0.00000401
 ,0.00003717,0.00001789,0.00001868,0.00011084,-0.00098970,0.00022090,0.
 00000002,0.00081287,0.00005844,0.00042350,0.00000366,0.00002016,0.0001
 7189,0.00023242,-0.00019532,0.00026357,0.00012550,-0.00044728,0.000053
 39,0.00024034,-0.00001697,0.00003149,-0.00014539,-0.00003037,0.0000117
 3,-0.00000516,-0.00002312,-0.00008138,0.00001892,0.00003222,0.00002198
 ,-0.00010802,0.00006713,0.00016066,0.00004534,-0.00002301,-0.00044426,
 -0.00023146,0.00001912,-0.00023111,-0.00022167,0.00018376,-0.00013047,
 -0.00067071,0.00019197,-0.00072407,0.00032253,-0.00004923,-0.00006588,
 -0.00005838,0.00003286,0.00017248,-0.00006511,0.00114506,0.00076069,-0
 .00095382,-0.00026120,0.00053409,0.00042256,0.00001598,0.00010496,-0.0
 0002499,-0.00002607,0.00000227,0.00011037,-0.00015277,0.00012583,0.000
 45101,-0.00000346,0.00001239,-0.00013941,-0.00000992,-0.00014531,0.000
 03597,-0.00014396,-0.00010702,0.00053103,-0.00007439,0.00015860,-0.000
 12977,-0.00020183,0.00011599,-0.00015193,0.00055158,-0.00000233,-0.000
 78446,0.00131291,0.00071319,0.00113265,-0.00022694,0.00008077,0.000288
 79,-0.00046335,-0.00119188,0.00022719,-0.00037054,0.00047591,-0.000035
 75,-0.00000875,-0.00030853,0.00002048,-0.00744170,-0.01089787,-0.01060
 048,0.00129211,-0.00006764,-0.00079272,-0.00038535,0.00118148,0.000995
 48,-0.10114398,-0.14435173,-0.08660670,0.01748431,0.01706111,0.0159698
 1,0.09769329,0.14648578,-0.00064638,-0.00006227,-0.00011632,0.00036483
 ,0.00084439,-0.00078689,0.00134166,-0.00011471,0.00189725,0.00529067,-
 0.00154259,-0.00818138,-0.00095825,0.00033577,-0.00004966,0.00109695,0
 .00021077,0.00010316,-0.00021282,-0.00000915,0.00029078,-0.00005294,-0
 .00014566,-0.00008499,-0.00006130,0.00018278,-0.00051270,0.00001710,-0
 .00007208,-0.00005878,-0.00000675,0.00007998,-0.00002518,0.00009482,0.
 00113312,0.00144428,0.00344088,0.00618092,-0.00577728,-0.00103232,-0.0
 0111323,-0.00193865,-0.00102059,-0.00070432,0.00028975,-0.00036638,-0.
 00005797,-0.00006657,-0.00001073,0.00010374,0.00017321,0.00000120,-0.0
 0000882,-0.00006442,-0.00008782,0.00023887,0.00048095,0.00004429,-0.00
 013929,-0.00010417,-0.00008196,-0.00050072,-0.00034820,-0.00181586,-0.
 00122190,0.00540422,0.00026476,0.00028781,-0.00006786,0.00016096,-0.00
 016573,-0.00049944,0.00014797,0.00010206,0.00039935,0.00001198,0.00010
 383,-0.00007165,0.00063284,0.00003335,-0.00009681,0.00000290,0.0001060
 0,0.00006076,-0.00001910,0.00018881,-0.00003201,-0.00001565,-0.0000084
 1,-0.00005085,0.00000677,0.00001492,-0.00003677,-0.00003169,-0.0000111
 4,-0.00000940,-0.00003217,-0.00001813,-0.00002511,0.00002485,-0.000032
 44,-0.00001598,-0.00022555,-0.00017483,-0.00016913,-0.00012573,-0.0001
 4317,0.00004815,-0.00015063,-0.00022610,-0.00011887,-0.00013349,0.0000
 3646,0.00014473,0.00000887,0.00005630,-0.00001457,-0.00002413,-0.00002
 224,-0.00001936,0.00003000,-0.00012007,-0.00011383,0.00000641,0.000002
 85,0.00003339,0.00003927,0.00006627,0.00012984,0.00001430,0.00003229,0
 .00001151,-0.00043545,-0.00055970,-0.00048691,0.00011039,0.00027376,0.
 00027608,0.00004291,0.00049386,-0.00015382,0.00012167,0.00009141,0.000
 10029,-0.00005563,0.00033186,0.00002567,0.00039922,0.00027935,0.000137
 68,0.00000155,-0.00009001,-0.00003064,-0.00003956,-0.00007227,-0.00006
 948,-0.00003795,-0.00007735,0.00003155,-0.00011762,-0.00005511,-0.0000
 6662,0.00011585,0.00008890,0.00004572,-0.00012868,-0.00032236,-0.00009
 207,0.00002959,-0.00023756,-0.00000568,0.00019801,-0.00044278,-0.00035
 088,0.00056166,-0.00110175,0.00042628,-0.00006240,-0.00006979,-0.00001
 237,-0.00001106,0.00030312,-0.00014778,0.00219588,0.00140478,-0.003182
 68,-0.00000094,0.00078109,0.00027508,0.00003760,0.00008209,-0.00006798
 ,-0.00002226,0.00000810,0.00004634,-0.00024911,0.00040182,0.00042466,0
 .00002148,-0.00003025,-0.00010351,-0.00003470,-0.00012882,0.00000983,0
 .00014107,-0.00024493,-0.00035439,0.00011754,-0.00010858,0.00001392,-0
 .00015934,0.00009053,-0.00008962,0.00002771,0.00057361,0.00093897,-0.0
 0105899,0.00067574,0.00000530,0.00029306,-0.00006656,-0.00022858,0.000
 26951,0.00038767,0.00164813,-0.00050587,0.00035984,-0.00041740,-0.0000
 2363,-0.00000976,0.00004278,-0.00800588,-0.01225098,-0.01285138,0.0017
 1560,-0.00059581,-0.00058843,-0.00064741,0.00067950,-0.00017689,-0.098
 38227,-0.08091545,-0.14702495,-0.01348988,-0.00881122,-0.01000832,0.10
 034770,0.08519856,0.15905653,-0.00057089,-0.00021508,-0.00016737,0.000
 79683,0.00099043,-0.00026548,0.00047869,-0.00003230,0.00047214,0.00136
 561,-0.00036573,-0.00150324,-0.00017620,0.00015257,-0.00014409,0.00048
 285,0.00004666,-0.00000839,-0.00007037,-0.00004738,0.00009176,-0.00012
 653,-0.00012495,-0.00013785,0.00038987,0.00000223,-0.00018273,-0.00000
 833,-0.00002003,-0.00004167,0.00001334,0.00004556,0.00000702,-0.000130
 78,0.00021170,0.00043387,0.00017575,0.00137493,0.00175952,-0.00189223,
 -0.00125833,0.00009172,-0.00071700,-0.00094672,0.00005700,-0.00005719,
 0.00009295,0.00000956,-0.00000912,0.00003288,0.00006964,-0.00000556,-0
 .00000610,-0.00002922,-0.00009601,-0.00006468,0.00013631,0.00003478,0.
 00000482,-0.00002081,0.00006328,-0.00010624,-0.00013862,-0.00020765,-0
 .00019618,0.00018162,0.00024543,0.00126704,0.00015563,0.00134244,-0.00
 038931,-0.00172601,0.00030364,-0.00005776,0.00134606,-0.00015253,0.000
 20459,0.00010681,0.00028441,0.00005260,0.00004408,0.00001376,0.0002855
 7,-0.00000137,-0.00066520,0.00072940,-0.00019587,0.00002070,0.00004525
 ,-0.00021420,0.00002995,-0.00003760,-0.00003133,-0.00000680,-0.0000513
 7,-0.00002889,-0.00001133,-0.00009058,-0.00001828,0.00019580,-0.000122
 02,-0.00005668,-0.00015669,-0.00052536,0.00005899,0.00010768,-0.000225
 22,-0.00024125,-0.00038504,-0.00014076,-0.00040607,-0.00068202,0.00024
 275,0.00015786,-0.00004787,0.00019362,-0.00022811,-0.00001486,-0.00003
 537,-0.00004107,0.00054765,-0.00042507,0.00012147,-0.00009402,-0.00002
 361,-0.00004586,-0.00001072,0.00021212,-0.00001753,-0.00002138,0.00004
 974,0.00011291,-0.00252294,-0.00074597,0.00042219,0.00136773,0.0001751
 0,-0.00000088,0.00033182,0.00015925,-0.00007430,0.00048613,0.00013592,
 0.00023085,-0.00025471,0.00015136,0.00031898,0.00258288,0.00150510,-0.
 00016605,-0.00002104,-0.00015533,0.00004842,-0.00000511,-0.00004747,-0
 .00003783,-0.00007559,-0.00004078,-0.00004343,-0.00073743,-0.00004756,
 -0.00039805,0.00011729,0.00023689,0.00026615,-0.00040082,-0.00025858,-
 0.00030705,-0.00041639,-0.00003023,-0.00002229,-0.00118182,-0.00018308
 ,0.00092926,0.00636913,-0.00856007,0.00116886,-0.00029334,0.00075383,0
 .00007563,-0.00018421,0.00254074,-0.00122618,-0.00309592,0.00680190,-0
 .00440104,-0.00177605,0.00362952,0.00134315,0.00011019,0.00002752,-0.0
 0004024,0.00011267,-0.00001969,-0.00004204,0.00035926,-0.00021438,-0.0
 0058389,-0.00000999,-0.00000527,0.00017205,0.00001395,0.00010725,-0.00
 007526,-0.00001782,0.00023654,-0.00019278,0.00000418,-0.00012047,0.000
 07004,0.00011766,-0.00009952,0.00013316,-0.00042698,-0.00018653,0.0001
 2621,-0.00012871,-0.00007496,-0.00037760,0.00012021,-0.00005403,-0.000
 02093,-0.00048981,-0.00064744,-0.00065042,0.00076603,-0.00029073,-0.00
 002959,0.00002426,0.00087274,-0.00013494,-0.00915749,-0.00117885,0.009
 62291,0.00100608,-0.00061911,-0.00127364,0.00067660,0.00055817,-0.0000
 1408,-0.15794188,-0.08606627,0.10146290,0.01710937,0.01239616,-0.01582
 732,-0.01318832,-0.01178308,0.01078855,0.16007482,-0.00020098,-0.00016
 964,0.00051635,0.00087068,0.00069950,-0.00067911,-0.00120219,-0.000758
 98,-0.00123842,0.00027043,-0.00035429,-0.00065044,-0.00004974,0.000045
 83,-0.00034972,0.00012071,0.00021257,-0.00014649,-0.00002614,-0.000067
 85,0.00004376,0.00010322,0.00015579,0.00021496,-0.00013188,0.00035942,
 -0.00046010,0.00010186,0.00000100,0.00007597,0.00000824,0.00003173,0.0
 0000443,0.00008091,0.00017954,0.00040944,0.00048990,0.00071522,0.00054
 153,-0.00106300,0.00248809,0.00169211,-0.00071525,-0.00077284,0.000471
 46,-0.00004606,0.00003359,-0.00002904,-0.00001501,0.00003077,0.0000483
 8,0.00002020,0.00000774,-0.00000931,-0.00003811,-0.00002417,0.00015752
 ,0.00000314,-0.00002716,-0.00005342,0.00002144,-0.00008519,-0.00014199
 ,-0.00015461,-0.00013764,0.00017482,0.00114680,0.00033066,-0.00019316,
 0.00121153,-0.00052014,-0.00123018,-0.00000540,0.00024191,0.00077020,-
 0.00010111,0.00021231,0.00003896,0.00044241,0.00006758,-0.00010995,0.0
 0008672,0.00038220,-0.00028549,-0.00057816,0.00067324,-0.00019779,0.00
 003471,0.00000954,-0.00014574,-0.00000184,-0.00001461,-0.00001542,-0.0
 0004101,-0.00003930,-0.00000509,-0.00005761,-0.00010528,0.00003194,0.0
 0015477,-0.00012406,-0.00001653,-0.00051737,-0.00040752,0.00042639,0.0
 0005564,-0.00023636,-0.00010315,0.00016031,-0.00031482,-0.00035921,-0.
 00034098,0.00016748,0.00001633,-0.00000615,0.00018198,-0.00012982,-0.0
 0006336,-0.00003970,-0.00001030,0.00028049,-0.00033312,0.00008952,-0.0
 0003901,-0.00001779,-0.00001975,0.00008957,0.00013864,0.00002143,-0.00
 001995,0.00004260,0.00006925,-0.00177527,-0.00017142,-0.00116375,0.001
 89112,0.00020639,0.00048857,0.00010360,0.00030297,0.00002690,0.0002510
 4,0.00015423,0.00030527,-0.00037407,0.00028858,0.00026506,0.00057020,0
 .00029729,0.00063474,-0.00012802,-0.00000849,-0.00017258,-0.00002461,-
 0.00002457,-0.00002946,-0.00004614,-0.00005091,-0.00000979,-0.00024491
 ,0.00006013,-0.00030055,0.00007919,0.00025873,0.00011406,-0.00017061,-
 0.00035558,-0.00035382,-0.00025014,-0.00013297,-0.00026614,-0.00093223
 ,-0.00014046,0.00047531,-0.00002013,-0.00564796,0.00240062,-0.00024282
 ,0.00004903,-0.00016246,0.00013922,0.00089981,-0.00053262,0.00521728,-
 0.00768474,-0.00438394,0.00152773,0.00603633,0.00000261,0.00005022,0.0
 0004495,-0.00001008,0.00007076,-0.00001980,0.00006024,0.00039991,-0.00
 013533,-0.00030026,-0.00005761,-0.00000719,0.00006558,-0.00001541,-0.0
 0002890,-0.00003744,0.00001310,0.00009332,-0.00004940,0.00000614,-0.00
 005775,0.00004079,0.00003089,-0.00005321,0.00005469,-0.00010785,-0.000
 31978,0.00054545,-0.00014516,0.00009003,-0.00019569,-0.00031752,-0.000
 13061,-0.00006140,0.00017567,0.00210959,-0.00155151,-0.00021422,-0.000
 29700,0.00033405,-0.00002636,-0.00113185,0.00077830,0.01469897,0.01947
 108,-0.01419276,-0.00023929,0.00020952,-0.00033833,0.00321891,-0.00414
 810,-0.00415704,-0.08065996,-0.13673023,0.08505329,-0.01440732,-0.0130
 5107,0.01340015,-0.00879489,-0.01006744,0.00995920,0.08041181,0.146964
 93,0.00030225,0.00021186,0.00001225,-0.00055922,-0.00080111,0.00017555
 ,0.00049183,-0.00033070,-0.00020954,-0.00189228,-0.00143409,0.00176213
 ,0.00016678,-0.00008221,-0.00045318,-0.00024036,-0.00015415,-0.0000292
 4,0.00003065,0.00006466,-0.00002764,-0.00006985,0.00014710,-0.00000972
 ,-0.00010167,-0.00001363,-0.00079450,-0.00002082,0.00002927,0.00003277
 ,0.00000719,-0.00002204,-0.00003658,0.00024634,0.00024779,-0.00012208,
 0.00004200,-0.00119504,-0.00364961,0.00024049,0.00059051,-0.00118909,0
 .00023471,0.00072208,-0.00002635,0.00001574,-0.00010669,-0.00004068,0.
 00000606,-0.00001627,-0.00003839,-0.00000932,0.00000102,0.00000891,0.0
 0007153,0.00012709,-0.00004760,-0.00001922,-0.00002704,0.00000286,0.00
 000981,0.00006184,0.00001711,0.00013931,0.00012208,-0.00011937,-0.0000
 7329,-0.00054995,0.00018906,-0.00104394,0.00038012,0.00093703,0.000153
 35,-0.00021651,-0.00065540,0.00014578,-0.00013888,-0.00012939,0.000012
 09,0.00000219,-0.00002447,-0.00003756,-0.00022482,0.00012216,0.0006341
 8,-0.00057649,0.00016196,-0.00005290,-0.00001548,0.00012765,-0.0000088
 3,0.00001117,-0.00000360,-0.00002904,0.00004100,0.00002253,0.00001041,
 0.00007226,-0.00000972,-0.00014940,0.00009118,0.00001379,0.00009265,0.
 00035392,-0.00026193,-0.00015326,0.00016668,0.00019082,-0.00029774,0.0
 0016201,0.00043877,0.00032923,-0.00014896,0.00004513,0.00002426,-0.000
 12246,0.00018602,0.00002754,0.00001836,0.00001459,-0.00035289,0.000261
 40,-0.00019008,0.00006482,0.00001912,0.00005218,-0.00001178,-0.0001097
 1,0.00009082,0.00002954,-0.00003285,-0.00008781,0.00202670,-0.00044654
 ,0.00133122,-0.00242705,-0.00023785,-0.00052260,-0.00019635,-0.0000947
 7,-0.00015025,-0.00026357,-0.00019731,-0.00033426,0.00036268,0.0001244
 6,-0.00043096,-0.00019094,0.00016704,-0.00068111,0.00021278,-0.0000458
 4,0.00024281,-0.00002365,-0.00002507,-0.00000069,0.00006203,0.00001193
 ,0.00005027,0.00021599,-0.00014885,0.00033030,0.00000464,-0.00032242,-
 0.00030585,0.00017627,0.00026534,0.00036323,0.00038253,0.00003238,0.00
 030088,0.00133254,-0.00000432,-0.00086340,-0.00306475,0.00612681,-0.00
 216930,0.00024475,-0.00070668,0.00017767,0.00000423,-0.00177369,0.0008
 1586,-0.00416611,-0.00480979,-0.00013960,0.00159391,-0.00220426,-0.001
 79533,-0.00005735,-0.00002424,-0.00002351,-0.00010917,0.00002461,-0.00
 003328,-0.00053068,0.00040008,0.00065495,0.00006243,-0.00002361,-0.000
 14208,-0.00001262,-0.00005370,0.00005521,0.00001998,-0.00024906,0.0000
 6421,0.00003736,0.00006863,-0.00005850,-0.00010056,0.00009793,-0.00011
 687,0.00010232,0.00049089,-0.00016360,0.00006085,-0.00015952,0.0002469
 3,0.00012575,-0.00002610,-0.00014404,-0.00082918,-0.00015410,0.0021775
 4,-0.00058461,0.00043892,-0.00035737,0.00025889,-0.00008913,0.00036029
 ,0.01254171,0.00504212,-0.01409563,-0.00055428,0.00076452,-0.00014675,
 0.00026002,-0.00181909,-0.00039881,0.09561239,0.08514453,-0.16276290,0
 .01005669,0.01100116,-0.01089464,-0.01029026,-0.00820004,0.02155103,-0
 .10076145,-0.08597103,0.17156082\\0.00001070,-0.00000525,0.00000023,-0
 .00000827,-0.00001405,-0.00001004,0.00001883,0.00000411,0.00001759,-0.
 00001392,0.00000656,0.00001671,-0.00000208,-0.00000720,-0.00000402,0.0
 0000959,0.00001325,0.00001222,0.00000146,-0.00000117,0.00000579,-0.000
 00199,-0.00000561,-0.00000276,0.00000021,0.00000124,-0.00000249,-0.000
 00215,0.00000172,-0.00000226,-0.00000162,-0.00000345,0.00000197,-0.000
 00737,0.00000749,0.00003099,-0.00000622,0.00001286,0.00002679,-0.00001
 477,0.00001695,0.00000254,0.00001174,0.00000940,-0.00000571,-0.0000157
 3,-0.00002660,-0.00000764,0.00000219,-0.00000213,0.00000128,-0.0000015
 6,0.00000130,-0.00000049,-0.00000161,0.00001483,0.00000763,0.00000572,
 -0.00001123,0.00000100,0.00000497,-0.00000956,-0.00001022,-0.00000470,
 -0.00000498,-0.00001053,0.00001047,-0.00000909,-0.00000403,0.00001425,
 -0.00000869,0.00000702,-0.00002782,0.00001675,-0.00002379,0.00000980,-
 0.00001178,-0.00000589,-0.00002822,-0.00000548,0.00000446,0.00000840,-
 0.00002045,0.00001373,-0.00000536,0.00002711,-0.00000683,0.00000467,-0
 .00000127,-0.00000462,-0.00000466,0.00000327,-0.00000106,0.00000277,-0
 .00000317,-0.00000147,0.00000239,0.00000227,0.00000198,0.00000127,-0.0
 0000212,-0.00000032,0.00000082,0.00001328,-0.00000033,-0.00000484,-0.0
 0001367,0.00001096,0.00001064,-0.00000945,0.00002286,0.00000484,-0.000
 02391,0.00000856,-0.00000462,0.00000590,0.00000183,-0.00000113,0.00000
 794,-0.00000105,-0.00000782,0.00000371,-0.00000644,0.00000740,0.000004
 45,-0.00000160,0.00000757,-0.00000260,0.00000322,0.00000007,0.00000519
 ,-0.00000652,0.00003961,0.00001850,0.00002146,-0.00002710,-0.00001540,
 0.00000950,-0.00001265,-0.00000604,-0.00001293,0.00001809,-0.00002737,
 -0.00002122,0.00002171,-0.00000932,-0.00001816,-0.00005540,0.00001387,
 0.00000665,0.00000712,0.00000468,-0.00001174,0.00000181,-0.00000159,-0
 .00000684,-0.00000381,0.00000593,-0.00000252,0.00000031,0.00000204,-0.
 00000605,-0.00000177,-0.00000040,0.00000269,0.00000030,0.00001244,0.00
 001276,-0.00000628,-0.00001748,0.00001799,0.00001029,0.00000807,0.0000
 1380,0.00000082,-0.00002057,-0.00000073,0.00000992,0.00000472,0.000004
 26,-0.00000014,0.00000342,-0.00001157,-0.00001096,0.00002325,0.0000095
 8,0.00000997,-0.00000590,0.00000342,-0.00000360,-0.00000439,-0.0000055
 9,0.00000590,0.00001100,-0.00000855,0.00000529,-0.00001013,-0.00002560
 ,-0.00000214,0.00000652,-0.00000409,-0.00000017,0.00000635,0.00000202,
 -0.00000781,-0.00000220,0.00000861,0.00000116,0.00000361,-0.00000344,-
 0.00000116,-0.00000149,-0.00000097,-0.00000104,0.00000365,-0.00000234,
 0.00000399,-0.00000377,-0.00000341,0.00000083,0.00000261,0.00000317,0.
 00000052,0.00000371,0.00000009,0.00000023,0.00000408,0.00000038,0.0000
 0126,0.00000236,-0.00000207,-0.00000501,0.00000860,0.00000177,0.000003
 01,0.00000448,0.00000170,0.00000103,-0.00000017,-0.00000148,-0.0000430
 1,-0.00000415,0.00002206,0.00001174,0.00001520,-0.00000703,0.00003673,
 -0.00002534,-0.00004966,0.00000608,0.00000995,-0.00001511\\\@


 MAN IS THE MEASURE OF ALL THINGS.
  -- PROTAGORAS (5TH CENTURY B.C.)
 Job cpu time:      22 days 12 hours 30 minutes 38.4 seconds.
 File lengths (MBytes):  RWF=  23924 Int=      0 D2E=      0 Chk=     99 Scr=      1
 Normal termination of Gaussian 09 at Tue May  3 17:51:11 2016.
