 Entering Gaussian System, Link 0=g09
 Initial command:
 /share/apps//g09/l1.exe "/scratch/Gau-41975.inp" -scrdir="/scratch/"
 Entering Link 1 = /share/apps//g09/l1.exe PID=     41976.
  
 Copyright (c) 1988,1990,1992,1993,1995,1998,2003,2009,2013,
            Gaussian, Inc.  All Rights Reserved.
  
 This is part of the Gaussian(R) 09 program.  It is based on
 the Gaussian(R) 03 system (copyright 2003, Gaussian, Inc.),
 the Gaussian(R) 98 system (copyright 1998, Gaussian, Inc.),
 the Gaussian(R) 94 system (copyright 1995, Gaussian, Inc.),
 the Gaussian 92(TM) system (copyright 1992, Gaussian, Inc.),
 the Gaussian 90(TM) system (copyright 1990, Gaussian, Inc.),
 the Gaussian 88(TM) system (copyright 1988, Gaussian, Inc.),
 the Gaussian 86(TM) system (copyright 1986, Carnegie Mellon
 University), and the Gaussian 82(TM) system (copyright 1983,
 Carnegie Mellon University). Gaussian is a federally registered
 trademark of Gaussian, Inc.
  
 This software contains proprietary and confidential information,
 including trade secrets, belonging to Gaussian, Inc.
  
 This software is provided under written license and may be
 used, copied, transmitted, or stored only in accord with that
 written license.
  
 The following legend is applicable only to US Government
 contracts under FAR:
  
                    RESTRICTED RIGHTS LEGEND
  
 Use, reproduction and disclosure by the US Government is
 subject to restrictions as set forth in subparagraphs (a)
 and (c) of the Commercial Computer Software - Restricted
 Rights clause in FAR 52.227-19.
  
 Gaussian, Inc.
 340 Quinnipiac St., Bldg. 40, Wallingford CT 06492
  
  
 ---------------------------------------------------------------
 Warning -- This program may not be used in any manner that
 competes with the business of Gaussian, Inc. or will provide
 assistance to any competitor of Gaussian, Inc.  The licensee
 of this program is prohibited from giving any competitor of
 Gaussian, Inc. access to this program.  By using this program,
 the user acknowledges that Gaussian, Inc. is engaged in the
 business of creating and licensing software in the field of
 computational chemistry and represents and warrants to the
 licensee that it is not a competitor of Gaussian, Inc. and that
 it will not use this program in any manner prohibited above.
 ---------------------------------------------------------------
  

 Cite this work as:
 Gaussian 09, Revision D.01,
 M. J. Frisch, G. W. Trucks, H. B. Schlegel, G. E. Scuseria, 
 M. A. Robb, J. R. Cheeseman, G. Scalmani, V. Barone, B. Mennucci, 
 G. A. Petersson, H. Nakatsuji, M. Caricato, X. Li, H. P. Hratchian, 
 A. F. Izmaylov, J. Bloino, G. Zheng, J. L. Sonnenberg, M. Hada, 
 M. Ehara, K. Toyota, R. Fukuda, J. Hasegawa, M. Ishida, T. Nakajima, 
 Y. Honda, O. Kitao, H. Nakai, T. Vreven, J. A. Montgomery, Jr., 
 J. E. Peralta, F. Ogliaro, M. Bearpark, J. J. Heyd, E. Brothers, 
 K. N. Kudin, V. N. Staroverov, T. Keith, R. Kobayashi, J. Normand, 
 K. Raghavachari, A. Rendell, J. C. Burant, S. S. Iyengar, J. Tomasi, 
 M. Cossi, N. Rega, J. M. Millam, M. Klene, J. E. Knox, J. B. Cross, 
 V. Bakken, C. Adamo, J. Jaramillo, R. Gomperts, R. E. Stratmann, 
 O. Yazyev, A. J. Austin, R. Cammi, C. Pomelli, J. W. Ochterski, 
 R. L. Martin, K. Morokuma, V. G. Zakrzewski, G. A. Voth, 
 P. Salvador, J. J. Dannenberg, S. Dapprich, A. D. Daniels, 
 O. Farkas, J. B. Foresman, J. V. Ortiz, J. Cioslowski, 
 and D. J. Fox, Gaussian, Inc., Wallingford CT, 2013.
 
 ******************************************
 Gaussian 09:  EM64L-G09RevD.01 24-Apr-2013
                27-Apr-2016 
 ******************************************
 %nproc=20
 Will use up to   20 processors via shared memory.
 %mem=80GB
 %chk=Tri_A131_of.chk
 ----------------------------------------------------------------------
 #P PBE1PBE/6-311+G(d,p) opt=ModRedundant freq optcyc=999 EmpiricalDisp
 ersion=GD3
 ----------------------------------------------------------------------
 1/6=999,14=-1,18=120,19=15,26=3,38=1/1,3;
 2/9=110,12=2,17=6,18=5,40=1/2;
 3/5=4,6=6,7=111,11=2,16=1,25=1,30=1,71=1,74=-13,124=31/1,2,3;
 4//1;
 5/5=2,38=5/2;
 6/7=2,8=2,9=2,10=2,28=1/1;
 7//1,2,3,16;
 1/6=999,14=-1,18=20,19=15,26=3/3(2);
 2/9=110/2;
 99//99;
 2/9=110/2;
 3/5=4,6=6,7=111,11=2,16=1,25=1,30=1,71=1,74=-13,124=31/1,2,3;
 4/5=5,16=3,69=1/1;
 5/5=2,38=5/2;
 7//1,2,3,16;
 1/6=999,14=-1,18=20,19=15,26=3/3(-5);
 2/9=110/2;
 6/7=2,8=2,9=2,10=2,19=2,28=1/1;
 99/9=1/99;
 Leave Link    1 at Wed Apr 27 08:51:19 2016, MaxMem= 10737418240 cpu:         1.6
 (Enter /share/apps//g09/l101.exe)
 -----
 trich
 -----
 Symbolic Z-matrix:
 Charge =  1 Multiplicity = 1
 O                    -0.60913  -0.30456   7.33445 
 C                    -1.21038  -0.81174   6.16115 
 C                    -0.19613  -1.02541   5.02595 
 C                     0.95744  -1.91897   5.51512 
 C                     1.57714  -1.3414    6.79071 
 C                     0.49117  -1.09434   7.84682 
 H                    -1.96807  -0.06323   5.88312 
 H                     0.21902  -0.03858   4.76907 
 H                     0.58576  -2.93765   5.70094 
 H                     2.2838   -2.0856    7.21213 
 H                     0.12292  -2.08172   8.18277 
 O                     2.29275  -0.17681   6.37736 
 O                     1.97669  -2.05788   4.50899 
 O                    -0.81672  -1.5383    3.8487 
 O                    -1.82618  -2.08854   6.35517 
 C                     1.00029  -0.34784   9.07623 
 H                     0.18402  -0.24868   9.80957 
 H                     1.81422  -0.92006   9.54315 
 O                     1.55213   0.94097   8.75423 
 H                     0.80795   1.51894   8.50202 
 H                     2.30663   0.44527   7.14213 
 H                     2.52046  -1.24418   4.55526 
 H                    -1.59946  -2.07751   4.10499 
 O                    -3.28565  -4.38622   5.914 
 C                    -3.10049  -4.66047   7.31803 
 C                    -2.85384  -3.34541   8.12403 
 C                    -2.97466  -2.10819   7.22359 
 C                    -4.28852  -2.16688   6.43632 
 C                    -4.4074   -3.51578   5.65266 
 H                    -4.02111  -5.13094   7.70998 
 H                    -1.84086  -3.36928   8.54642 
 H                    -2.96933  -1.21567   7.86711 
 H                    -5.09564  -2.12593   7.18318 
 H                    -5.32367  -4.0405    5.98767 
 O                    -4.39134  -1.01971   5.56166 
 O                    -3.83154  -3.20379   9.15959 
 O                    -2.11096  -5.64406   7.45615 
 C                    -4.4961   -3.35901   4.13686 
 H                    -4.44527  -4.35798   3.68084 
 H                    -5.47164  -2.91952   3.87472 
 O                    -3.42698  -2.59014   3.57457 
 H                    -3.62771  -1.66844   3.83916 
 H                    -5.18775  -0.51789   5.796 
 H                    -3.53844  -3.72093   9.92903 
 O                     0.98205  -5.94995   5.4862 
 C                     1.96775  -6.21647   6.50856 
 C                     1.67101  -5.3081    7.70457 
 C                     0.21017  -5.44646   8.17284 
 C                    -0.7795   -5.30214   7.01521 
 C                    -0.35139  -6.27667   5.89605 
 H                     1.88846  -7.29492   6.78817 
 H                     1.83961  -4.27645   7.35931 
 H                     0.06253  -6.45796   8.60612 
 H                    -0.38821  -7.31072   6.29898 
 H                    -0.76067  -4.27161   6.62727 
 O                    -0.05307  -4.45882   9.17276 
 O                     2.55043  -5.4717    8.8174 
 O                     3.21322  -5.90539   6.00294 
 C                    -1.22635  -6.25693   4.6502 
 H                    -0.79722  -6.95094   3.9138 
 H                    -2.2372   -6.60355   4.90798 
 O                    -1.29254  -4.96933   4.02306 
 H                    -1.95699  -4.44932   4.52971 
 H                     0.68883  -4.52285   9.80533 
 H                     2.66208  -6.42327   9.00103 
 C                     3.6986   -6.8174    4.98303 
 H                     4.41279  -7.51293   5.45378 
 H                     2.85621  -7.40252   4.58276 
 C                     4.38559  -6.01477   3.88441 
 H                     4.78813  -6.73102   3.14832 
 H                     5.25462  -5.50001   4.32216 
 C                     3.49315  -4.97169   3.19405 
 H                     3.11781  -4.28481   3.9678 
 H                     4.12484  -4.36881   2.52055 
 C                     2.32848  -5.56576   2.38882 
 H                     2.71836  -6.2506    1.61805 
 H                     1.6789   -6.16789   3.0433 
 C                     1.4709   -4.53098   1.66392 
 H                     0.7269   -5.018     1.01961 
 H                     2.08544  -3.87085   1.03493 
 N                     0.71441  -3.65615   2.62131 
 H                     0.1344   -2.95006   2.14932 
 H                     1.34044  -3.09956   3.25398 
 H                     0.04512  -4.20847   3.22399 
 
 The following ModRedundant input section has been read:
 B      45      84 B                                                           
 B      58      84 B                                                           
 B      56      84 B                                                           
 B      41      82 B                                                           
 B      62      82 B                                                           
 B      35      82 B                                                           
 B      13      83 B                                                           
 B      19      83 B                                                           
 B      14      83 B                                                           
 
 NAtoms=     84 NQM=       84 NQMF=       0 NMMI=      0 NMMIF=      0
                NMic=       0 NMicF=      0.
                    Isotopes and Nuclear Properties:
 (Nuclear quadrupole moments (NQMom) in fm**2, nuclear magnetic moments (NMagM)
  in nuclear magnetons)

  Atom         1           2           3           4           5           6           7           8           9          10
 IAtWgt=          16          12          12          12          12          12           1           1           1           1
 AtmWgt=  15.9949146  12.0000000  12.0000000  12.0000000  12.0000000  12.0000000   1.0078250   1.0078250   1.0078250   1.0078250
 NucSpn=           0           0           0           0           0           0           1           1           1           1
 AtZEff=   0.0000000   0.0000000   0.0000000   0.0000000   0.0000000   0.0000000   0.0000000   0.0000000   0.0000000   0.0000000
 NQMom=    0.0000000   0.0000000   0.0000000   0.0000000   0.0000000   0.0000000   0.0000000   0.0000000   0.0000000   0.0000000
 NMagM=    0.0000000   0.0000000   0.0000000   0.0000000   0.0000000   0.0000000   2.7928460   2.7928460   2.7928460   2.7928460
 AtZNuc=   8.0000000   6.0000000   6.0000000   6.0000000   6.0000000   6.0000000   1.0000000   1.0000000   1.0000000   1.0000000

  Atom        11          12          13          14          15          16          17          18          19          20
 IAtWgt=           1          16          16          16          16          12           1           1          16           1
 AtmWgt=   1.0078250  15.9949146  15.9949146  15.9949146  15.9949146  12.0000000   1.0078250   1.0078250  15.9949146   1.0078250
 NucSpn=           1           0           0           0           0           0           1           1           0           1
 AtZEff=   0.0000000   0.0000000   0.0000000   0.0000000   0.0000000   0.0000000   0.0000000   0.0000000   0.0000000   0.0000000
 NQMom=    0.0000000   0.0000000   0.0000000   0.0000000   0.0000000   0.0000000   0.0000000   0.0000000   0.0000000   0.0000000
 NMagM=    2.7928460   0.0000000   0.0000000   0.0000000   0.0000000   0.0000000   2.7928460   2.7928460   0.0000000   2.7928460
 AtZNuc=   1.0000000   8.0000000   8.0000000   8.0000000   8.0000000   6.0000000   1.0000000   1.0000000   8.0000000   1.0000000

  Atom        21          22          23          24          25          26          27          28          29          30
 IAtWgt=           1           1           1          16          12          12          12          12          12           1
 AtmWgt=   1.0078250   1.0078250   1.0078250  15.9949146  12.0000000  12.0000000  12.0000000  12.0000000  12.0000000   1.0078250
 NucSpn=           1           1           1           0           0           0           0           0           0           1
 AtZEff=   0.0000000   0.0000000   0.0000000   0.0000000   0.0000000   0.0000000   0.0000000   0.0000000   0.0000000   0.0000000
 NQMom=    0.0000000   0.0000000   0.0000000   0.0000000   0.0000000   0.0000000   0.0000000   0.0000000   0.0000000   0.0000000
 NMagM=    2.7928460   2.7928460   2.7928460   0.0000000   0.0000000   0.0000000   0.0000000   0.0000000   0.0000000   2.7928460
 AtZNuc=   1.0000000   1.0000000   1.0000000   8.0000000   6.0000000   6.0000000   6.0000000   6.0000000   6.0000000   1.0000000

  Atom        31          32          33          34          35          36          37          38          39          40
 IAtWgt=           1           1           1           1          16          16          16          12           1           1
 AtmWgt=   1.0078250   1.0078250   1.0078250   1.0078250  15.9949146  15.9949146  15.9949146  12.0000000   1.0078250   1.0078250
 NucSpn=           1           1           1           1           0           0           0           0           1           1
 AtZEff=   0.0000000   0.0000000   0.0000000   0.0000000   0.0000000   0.0000000   0.0000000   0.0000000   0.0000000   0.0000000
 NQMom=    0.0000000   0.0000000   0.0000000   0.0000000   0.0000000   0.0000000   0.0000000   0.0000000   0.0000000   0.0000000
 NMagM=    2.7928460   2.7928460   2.7928460   2.7928460   0.0000000   0.0000000   0.0000000   0.0000000   2.7928460   2.7928460
 AtZNuc=   1.0000000   1.0000000   1.0000000   1.0000000   8.0000000   8.0000000   8.0000000   6.0000000   1.0000000   1.0000000

  Atom        41          42          43          44          45          46          47          48          49          50
 IAtWgt=          16           1           1           1          16          12          12          12          12          12
 AtmWgt=  15.9949146   1.0078250   1.0078250   1.0078250  15.9949146  12.0000000  12.0000000  12.0000000  12.0000000  12.0000000
 NucSpn=           0           1           1           1           0           0           0           0           0           0
 AtZEff=   0.0000000   0.0000000   0.0000000   0.0000000   0.0000000   0.0000000   0.0000000   0.0000000   0.0000000   0.0000000
 NQMom=    0.0000000   0.0000000   0.0000000   0.0000000   0.0000000   0.0000000   0.0000000   0.0000000   0.0000000   0.0000000
 NMagM=    0.0000000   2.7928460   2.7928460   2.7928460   0.0000000   0.0000000   0.0000000   0.0000000   0.0000000   0.0000000
 AtZNuc=   8.0000000   1.0000000   1.0000000   1.0000000   8.0000000   6.0000000   6.0000000   6.0000000   6.0000000   6.0000000

  Atom        51          52          53          54          55          56          57          58          59          60
 IAtWgt=           1           1           1           1           1          16          16          16          12           1
 AtmWgt=   1.0078250   1.0078250   1.0078250   1.0078250   1.0078250  15.9949146  15.9949146  15.9949146  12.0000000   1.0078250
 NucSpn=           1           1           1           1           1           0           0           0           0           1
 AtZEff=   0.0000000   0.0000000   0.0000000   0.0000000   0.0000000   0.0000000   0.0000000   0.0000000   0.0000000   0.0000000
 NQMom=    0.0000000   0.0000000   0.0000000   0.0000000   0.0000000   0.0000000   0.0000000   0.0000000   0.0000000   0.0000000
 NMagM=    2.7928460   2.7928460   2.7928460   2.7928460   2.7928460   0.0000000   0.0000000   0.0000000   0.0000000   2.7928460
 AtZNuc=   1.0000000   1.0000000   1.0000000   1.0000000   1.0000000   8.0000000   8.0000000   8.0000000   6.0000000   1.0000000

  Atom        61          62          63          64          65          66          67          68          69          70
 IAtWgt=           1          16           1           1           1          12           1           1          12           1
 AtmWgt=   1.0078250  15.9949146   1.0078250   1.0078250   1.0078250  12.0000000   1.0078250   1.0078250  12.0000000   1.0078250
 NucSpn=           1           0           1           1           1           0           1           1           0           1
 AtZEff=   0.0000000   0.0000000   0.0000000   0.0000000   0.0000000   0.0000000   0.0000000   0.0000000   0.0000000   0.0000000
 NQMom=    0.0000000   0.0000000   0.0000000   0.0000000   0.0000000   0.0000000   0.0000000   0.0000000   0.0000000   0.0000000
 NMagM=    2.7928460   0.0000000   2.7928460   2.7928460   2.7928460   0.0000000   2.7928460   2.7928460   0.0000000   2.7928460
 AtZNuc=   1.0000000   8.0000000   1.0000000   1.0000000   1.0000000   6.0000000   1.0000000   1.0000000   6.0000000   1.0000000

  Atom        71          72          73          74          75          76          77          78          79          80
 IAtWgt=           1          12           1           1          12           1           1          12           1           1
 AtmWgt=   1.0078250  12.0000000   1.0078250   1.0078250  12.0000000   1.0078250   1.0078250  12.0000000   1.0078250   1.0078250
 NucSpn=           1           0           1           1           0           1           1           0           1           1
 AtZEff=   0.0000000   0.0000000   0.0000000   0.0000000   0.0000000   0.0000000   0.0000000   0.0000000   0.0000000   0.0000000
 NQMom=    0.0000000   0.0000000   0.0000000   0.0000000   0.0000000   0.0000000   0.0000000   0.0000000   0.0000000   0.0000000
 NMagM=    2.7928460   0.0000000   2.7928460   2.7928460   0.0000000   2.7928460   2.7928460   0.0000000   2.7928460   2.7928460
 AtZNuc=   1.0000000   6.0000000   1.0000000   1.0000000   6.0000000   1.0000000   1.0000000   6.0000000   1.0000000   1.0000000

  Atom        81          82          83          84
 IAtWgt=          14           1           1           1
 AtmWgt=  14.0030740   1.0078250   1.0078250   1.0078250
 NucSpn=           2           1           1           1
 AtZEff=   0.0000000   0.0000000   0.0000000   0.0000000
 NQMom=    2.0440000   0.0000000   0.0000000   0.0000000
 NMagM=    0.4037610   2.7928460   2.7928460   2.7928460
 AtZNuc=   7.0000000   1.0000000   1.0000000   1.0000000
 Leave Link  101 at Wed Apr 27 08:51:19 2016, MaxMem= 10737418240 cpu:         5.1
 (Enter /share/apps//g09/l103.exe)

 GradGradGradGradGradGradGradGradGradGradGradGradGradGradGradGradGradGrad
 Berny optimization.
 Initialization pass.
                           ----------------------------
                           !    Initial Parameters    !
                           ! (Angstroms and Degrees)  !
 --------------------------                            --------------------------
 ! Name  Definition              Value          Derivative Info.                !
 --------------------------------------------------------------------------------
 ! R1    R(1,2)                  1.4126         estimate D2E/DX2                !
 ! R2    R(1,6)                  1.4481         estimate D2E/DX2                !
 ! R3    R(2,3)                  1.5372         estimate D2E/DX2                !
 ! R4    R(2,7)                  1.1008         estimate D2E/DX2                !
 ! R5    R(2,15)                 1.4308         estimate D2E/DX2                !
 ! R6    R(3,4)                  1.539          estimate D2E/DX2                !
 ! R7    R(3,8)                  1.101          estimate D2E/DX2                !
 ! R8    R(3,14)                 1.4262         estimate D2E/DX2                !
 ! R9    R(4,5)                  1.5313         estimate D2E/DX2                !
 ! R10   R(4,9)                  1.1002         estimate D2E/DX2                !
 ! R11   R(4,13)                 1.4389         estimate D2E/DX2                !
 ! R12   R(5,6)                  1.5348         estimate D2E/DX2                !
 ! R13   R(5,10)                 1.1094         estimate D2E/DX2                !
 ! R14   R(5,12)                 1.428          estimate D2E/DX2                !
 ! R15   R(6,11)                 1.1061         estimate D2E/DX2                !
 ! R16   R(6,16)                 1.5258         estimate D2E/DX2                !
 ! R17   R(12,21)                0.9859         estimate D2E/DX2                !
 ! R18   R(13,22)                0.9798         estimate D2E/DX2                !
 ! R19   R(13,83)                1.7507         estimate D2E/DX2                !
 ! R20   R(14,23)                0.9844         estimate D2E/DX2                !
 ! R21   R(14,83)                2.7285         estimate D2E/DX2                !
 ! R22   R(15,27)                1.44           estimate D2E/DX2                !
 ! R23   R(16,17)                1.1018         estimate D2E/DX2                !
 ! R24   R(16,18)                1.0991         estimate D2E/DX2                !
 ! R25   R(16,19)                1.4385         estimate D2E/DX2                !
 ! R26   R(19,20)                0.9754         estimate D2E/DX2                !
 ! R27   R(19,83)                6.8281         estimate D2E/DX2                !
 ! R28   R(24,25)                1.4425         estimate D2E/DX2                !
 ! R29   R(24,29)                1.4437         estimate D2E/DX2                !
 ! R30   R(25,26)                1.562          estimate D2E/DX2                !
 ! R31   R(25,30)                1.1057         estimate D2E/DX2                !
 ! R32   R(25,37)                1.402          estimate D2E/DX2                !
 ! R33   R(26,27)                1.535          estimate D2E/DX2                !
 ! R34   R(26,31)                1.0978         estimate D2E/DX2                !
 ! R35   R(26,36)                1.4312         estimate D2E/DX2                !
 ! R36   R(27,28)                1.5328         estimate D2E/DX2                !
 ! R37   R(27,32)                1.1003         estimate D2E/DX2                !
 ! R38   R(28,29)                1.5645         estimate D2E/DX2                !
 ! R39   R(28,33)                1.1004         estimate D2E/DX2                !
 ! R40   R(28,35)                1.4462         estimate D2E/DX2                !
 ! R41   R(29,34)                1.1078         estimate D2E/DX2                !
 ! R42   R(29,38)                1.5265         estimate D2E/DX2                !
 ! R43   R(35,43)                0.9701         estimate D2E/DX2                !
 ! R44   R(35,82)                5.9877         estimate D2E/DX2                !
 ! R45   R(36,44)                0.9723         estimate D2E/DX2                !
 ! R46   R(37,49)                1.4436         estimate D2E/DX2                !
 ! R47   R(38,39)                1.0993         estimate D2E/DX2                !
 ! R48   R(38,40)                1.1016         estimate D2E/DX2                !
 ! R49   R(38,41)                1.4319         estimate D2E/DX2                !
 ! R50   R(41,42)                0.9797         estimate D2E/DX2                !
 ! R51   R(41,82)                3.8528         estimate D2E/DX2                !
 ! R52   R(45,46)                1.4449         estimate D2E/DX2                !
 ! R53   R(45,50)                1.4328         estimate D2E/DX2                !
 ! R54   R(45,84)                3.0047         estimate D2E/DX2                !
 ! R55   R(46,47)                1.5309         estimate D2E/DX2                !
 ! R56   R(46,51)                1.1169         estimate D2E/DX2                !
 ! R57   R(46,58)                1.3797         estimate D2E/DX2                !
 ! R58   R(47,48)                1.5403         estimate D2E/DX2                !
 ! R59   R(47,52)                1.1009         estimate D2E/DX2                !
 ! R60   R(47,57)                1.4278         estimate D2E/DX2                !
 ! R61   R(48,49)                1.5298         estimate D2E/DX2                !
 ! R62   R(48,53)                1.1103         estimate D2E/DX2                !
 ! R63   R(48,56)                1.4299         estimate D2E/DX2                !
 ! R64   R(49,50)                1.5445         estimate D2E/DX2                !
 ! R65   R(49,55)                1.1013         estimate D2E/DX2                !
 ! R66   R(50,54)                1.1104         estimate D2E/DX2                !
 ! R67   R(50,59)                1.5225         estimate D2E/DX2                !
 ! R68   R(56,64)                0.9771         estimate D2E/DX2                !
 ! R69   R(56,84)                5.9548         estimate D2E/DX2                !
 ! R70   R(57,65)                0.9755         estimate D2E/DX2                !
 ! R71   R(58,66)                1.4517         estimate D2E/DX2                !
 ! R72   R(58,84)                4.543          estimate D2E/DX2                !
 ! R73   R(59,60)                1.0991         estimate D2E/DX2                !
 ! R74   R(59,61)                1.0993         estimate D2E/DX2                !
 ! R75   R(59,62)                1.4337         estimate D2E/DX2                !
 ! R76   R(62,63)                0.9842         estimate D2E/DX2                !
 ! R77   R(62,82)                3.1023         estimate D2E/DX2                !
 ! R78   R(66,67)                1.1025         estimate D2E/DX2                !
 ! R79   R(66,68)                1.101          estimate D2E/DX2                !
 ! R80   R(66,69)                1.5242         estimate D2E/DX2                !
 ! R81   R(69,70)                1.1031         estimate D2E/DX2                !
 ! R82   R(69,71)                1.1008         estimate D2E/DX2                !
 ! R83   R(69,72)                1.5366         estimate D2E/DX2                !
 ! R84   R(72,73)                1.1006         estimate D2E/DX2                !
 ! R85   R(72,74)                1.1028         estimate D2E/DX2                !
 ! R86   R(72,75)                1.5355         estimate D2E/DX2                !
 ! R87   R(75,76)                1.1023         estimate D2E/DX2                !
 ! R88   R(75,77)                1.1013         estimate D2E/DX2                !
 ! R89   R(75,78)                1.527          estimate D2E/DX2                !
 ! R90   R(78,79)                1.0981         estimate D2E/DX2                !
 ! R91   R(78,80)                1.0996         estimate D2E/DX2                !
 ! R92   R(78,81)                1.5014         estimate D2E/DX2                !
 ! R93   R(81,82)                1.0285         estimate D2E/DX2                !
 ! R94   R(81,83)                1.0498         estimate D2E/DX2                !
 ! R95   R(81,84)                1.0565         estimate D2E/DX2                !
 ! A1    A(2,1,6)              114.9284         estimate D2E/DX2                !
 ! A2    A(1,2,3)              112.486          estimate D2E/DX2                !
 ! A3    A(1,2,7)              104.9888         estimate D2E/DX2                !
 ! A4    A(1,2,15)             113.0149         estimate D2E/DX2                !
 ! A5    A(3,2,7)              111.2326         estimate D2E/DX2                !
 ! A6    A(3,2,15)             105.0747         estimate D2E/DX2                !
 ! A7    A(7,2,15)             110.1705         estimate D2E/DX2                !
 ! A8    A(2,3,4)              109.9097         estimate D2E/DX2                !
 ! A9    A(2,3,8)              107.2478         estimate D2E/DX2                !
 ! A10   A(2,3,14)             111.867          estimate D2E/DX2                !
 ! A11   A(4,3,8)              108.176          estimate D2E/DX2                !
 ! A12   A(4,3,14)             112.3167         estimate D2E/DX2                !
 ! A13   A(8,3,14)             107.0864         estimate D2E/DX2                !
 ! A14   A(3,4,5)              110.4342         estimate D2E/DX2                !
 ! A15   A(3,4,9)              109.7589         estimate D2E/DX2                !
 ! A16   A(3,4,13)             111.3925         estimate D2E/DX2                !
 ! A17   A(5,4,9)              110.1983         estimate D2E/DX2                !
 ! A18   A(5,4,13)             109.404          estimate D2E/DX2                !
 ! A19   A(9,4,13)             105.5464         estimate D2E/DX2                !
 ! A20   A(4,5,6)              110.339          estimate D2E/DX2                !
 ! A21   A(4,5,10)             108.7354         estimate D2E/DX2                !
 ! A22   A(4,5,12)             105.6216         estimate D2E/DX2                !
 ! A23   A(6,5,10)             107.2946         estimate D2E/DX2                !
 ! A24   A(6,5,12)             114.9904         estimate D2E/DX2                !
 ! A25   A(10,5,12)            109.7439         estimate D2E/DX2                !
 ! A26   A(1,6,5)              112.4541         estimate D2E/DX2                !
 ! A27   A(1,6,11)             109.9601         estimate D2E/DX2                !
 ! A28   A(1,6,16)             105.7717         estimate D2E/DX2                !
 ! A29   A(5,6,11)             107.5098         estimate D2E/DX2                !
 ! A30   A(5,6,16)             113.3973         estimate D2E/DX2                !
 ! A31   A(11,6,16)            107.6451         estimate D2E/DX2                !
 ! A32   A(5,12,21)            107.2831         estimate D2E/DX2                !
 ! A33   A(4,13,22)            106.2565         estimate D2E/DX2                !
 ! A34   A(4,13,83)            107.5333         estimate D2E/DX2                !
 ! A35   A(22,13,83)           136.8624         estimate D2E/DX2                !
 ! A36   A(3,14,23)            109.1508         estimate D2E/DX2                !
 ! A37   A(3,14,83)             92.3885         estimate D2E/DX2                !
 ! A38   A(23,14,83)           111.8361         estimate D2E/DX2                !
 ! A39   A(2,15,27)            115.9274         estimate D2E/DX2                !
 ! A40   A(6,16,17)            109.4594         estimate D2E/DX2                !
 ! A41   A(6,16,18)            109.5545         estimate D2E/DX2                !
 ! A42   A(6,16,19)            112.7058         estimate D2E/DX2                !
 ! A43   A(17,16,18)           108.2251         estimate D2E/DX2                !
 ! A44   A(17,16,19)           110.6446         estimate D2E/DX2                !
 ! A45   A(18,16,19)           106.1091         estimate D2E/DX2                !
 ! A46   A(16,19,20)           107.2221         estimate D2E/DX2                !
 ! A47   A(16,19,83)            68.792          estimate D2E/DX2                !
 ! A48   A(20,19,83)            96.8168         estimate D2E/DX2                !
 ! A49   A(25,24,29)           112.9891         estimate D2E/DX2                !
 ! A50   A(24,25,26)           111.2506         estimate D2E/DX2                !
 ! A51   A(24,25,30)           108.606          estimate D2E/DX2                !
 ! A52   A(24,25,37)           108.6545         estimate D2E/DX2                !
 ! A53   A(26,25,30)           107.8662         estimate D2E/DX2                !
 ! A54   A(26,25,37)           115.3632         estimate D2E/DX2                !
 ! A55   A(30,25,37)           104.7276         estimate D2E/DX2                !
 ! A56   A(25,26,27)           111.3135         estimate D2E/DX2                !
 ! A57   A(25,26,31)           109.0228         estimate D2E/DX2                !
 ! A58   A(25,26,36)           110.4138         estimate D2E/DX2                !
 ! A59   A(27,26,31)           108.4135         estimate D2E/DX2                !
 ! A60   A(27,26,36)           106.9134         estimate D2E/DX2                !
 ! A61   A(31,26,36)           110.7391         estimate D2E/DX2                !
 ! A62   A(15,27,26)           107.5777         estimate D2E/DX2                !
 ! A63   A(15,27,28)           111.9883         estimate D2E/DX2                !
 ! A64   A(15,27,32)           109.7412         estimate D2E/DX2                !
 ! A65   A(26,27,28)           109.7493         estimate D2E/DX2                !
 ! A66   A(26,27,32)           108.0795         estimate D2E/DX2                !
 ! A67   A(28,27,32)           109.6086         estimate D2E/DX2                !
 ! A68   A(27,28,29)           110.8184         estimate D2E/DX2                !
 ! A69   A(27,28,33)           106.1816         estimate D2E/DX2                !
 ! A70   A(27,28,35)           109.9497         estimate D2E/DX2                !
 ! A71   A(29,28,33)           108.4398         estimate D2E/DX2                !
 ! A72   A(29,28,35)           112.0584         estimate D2E/DX2                !
 ! A73   A(33,28,35)           109.1963         estimate D2E/DX2                !
 ! A74   A(24,29,28)           111.7224         estimate D2E/DX2                !
 ! A75   A(24,29,34)           107.5987         estimate D2E/DX2                !
 ! A76   A(24,29,38)           106.668          estimate D2E/DX2                !
 ! A77   A(28,29,34)           108.6485         estimate D2E/DX2                !
 ! A78   A(28,29,38)           114.4097         estimate D2E/DX2                !
 ! A79   A(34,29,38)           107.5113         estimate D2E/DX2                !
 ! A80   A(28,35,43)           108.8205         estimate D2E/DX2                !
 ! A81   A(28,35,82)            92.0175         estimate D2E/DX2                !
 ! A82   A(43,35,82)           157.6659         estimate D2E/DX2                !
 ! A83   A(26,36,44)           108.3025         estimate D2E/DX2                !
 ! A84   A(25,37,49)           117.0448         estimate D2E/DX2                !
 ! A85   A(29,38,39)           108.4159         estimate D2E/DX2                !
 ! A86   A(29,38,40)           109.1917         estimate D2E/DX2                !
 ! A87   A(29,38,41)           113.6847         estimate D2E/DX2                !
 ! A88   A(39,38,40)           107.7445         estimate D2E/DX2                !
 ! A89   A(39,38,41)           106.8895         estimate D2E/DX2                !
 ! A90   A(40,38,41)           110.7034         estimate D2E/DX2                !
 ! A91   A(38,41,42)           104.2488         estimate D2E/DX2                !
 ! A92   A(38,41,82)           141.7452         estimate D2E/DX2                !
 ! A93   A(42,41,82)           112.1591         estimate D2E/DX2                !
 ! A94   A(46,45,50)           112.9811         estimate D2E/DX2                !
 ! A95   A(46,45,84)           148.4655         estimate D2E/DX2                !
 ! A96   A(50,45,84)            93.2865         estimate D2E/DX2                !
 ! A97   A(45,46,47)           108.1252         estimate D2E/DX2                !
 ! A98   A(45,46,51)           107.8662         estimate D2E/DX2                !
 ! A99   A(45,46,58)           108.3559         estimate D2E/DX2                !
 ! A100  A(47,46,51)           111.3204         estimate D2E/DX2                !
 ! A101  A(47,46,58)           109.1167         estimate D2E/DX2                !
 ! A102  A(51,46,58)           111.933          estimate D2E/DX2                !
 ! A103  A(46,47,48)           111.5954         estimate D2E/DX2                !
 ! A104  A(46,47,52)           106.3404         estimate D2E/DX2                !
 ! A105  A(46,47,57)           114.9318         estimate D2E/DX2                !
 ! A106  A(48,47,52)           108.952          estimate D2E/DX2                !
 ! A107  A(48,47,57)           109.6895         estimate D2E/DX2                !
 ! A108  A(52,47,57)           104.9212         estimate D2E/DX2                !
 ! A109  A(47,48,49)           112.0258         estimate D2E/DX2                !
 ! A110  A(47,48,53)           109.0626         estimate D2E/DX2                !
 ! A111  A(47,48,56)           108.9751         estimate D2E/DX2                !
 ! A112  A(49,48,53)           107.1711         estimate D2E/DX2                !
 ! A113  A(49,48,56)           110.1762         estimate D2E/DX2                !
 ! A114  A(53,48,56)           109.3836         estimate D2E/DX2                !
 ! A115  A(37,49,48)           110.0704         estimate D2E/DX2                !
 ! A116  A(37,49,50)           109.1184         estimate D2E/DX2                !
 ! A117  A(37,49,55)           110.181          estimate D2E/DX2                !
 ! A118  A(48,49,50)           108.0277         estimate D2E/DX2                !
 ! A119  A(48,49,55)           110.1068         estimate D2E/DX2                !
 ! A120  A(50,49,55)           109.2952         estimate D2E/DX2                !
 ! A121  A(45,50,49)           108.7455         estimate D2E/DX2                !
 ! A122  A(45,50,54)           110.3053         estimate D2E/DX2                !
 ! A123  A(45,50,59)           107.3261         estimate D2E/DX2                !
 ! A124  A(49,50,54)           108.3882         estimate D2E/DX2                !
 ! A125  A(49,50,59)           115.1797         estimate D2E/DX2                !
 ! A126  A(54,50,59)           106.8549         estimate D2E/DX2                !
 ! A127  A(48,56,64)           105.5267         estimate D2E/DX2                !
 ! A128  A(48,56,84)            47.7331         estimate D2E/DX2                !
 ! A129  A(64,56,84)           129.5678         estimate D2E/DX2                !
 ! A130  A(47,57,65)           109.2067         estimate D2E/DX2                !
 ! A131  A(46,58,66)           114.6848         estimate D2E/DX2                !
 ! A132  A(46,58,84)            71.2693         estimate D2E/DX2                !
 ! A133  A(66,58,84)            92.1816         estimate D2E/DX2                !
 ! A134  A(50,59,60)           108.4017         estimate D2E/DX2                !
 ! A135  A(50,59,61)           109.419          estimate D2E/DX2                !
 ! A136  A(50,59,62)           113.3348         estimate D2E/DX2                !
 ! A137  A(60,59,61)           108.4837         estimate D2E/DX2                !
 ! A138  A(60,59,62)           106.979          estimate D2E/DX2                !
 ! A139  A(61,59,62)           110.0779         estimate D2E/DX2                !
 ! A140  A(59,62,63)           106.2903         estimate D2E/DX2                !
 ! A141  A(59,62,82)           145.8426         estimate D2E/DX2                !
 ! A142  A(63,62,82)           106.1139         estimate D2E/DX2                !
 ! A143  A(58,66,67)           108.2365         estimate D2E/DX2                !
 ! A144  A(58,66,68)           109.479          estimate D2E/DX2                !
 ! A145  A(58,66,69)           109.0423         estimate D2E/DX2                !
 ! A146  A(67,66,68)           108.3973         estimate D2E/DX2                !
 ! A147  A(67,66,69)           110.3658         estimate D2E/DX2                !
 ! A148  A(68,66,69)           111.2642         estimate D2E/DX2                !
 ! A149  A(66,69,70)           107.6696         estimate D2E/DX2                !
 ! A150  A(66,69,71)           108.3871         estimate D2E/DX2                !
 ! A151  A(66,69,72)           114.805          estimate D2E/DX2                !
 ! A152  A(70,69,71)           106.3135         estimate D2E/DX2                !
 ! A153  A(70,69,72)           110.665          estimate D2E/DX2                !
 ! A154  A(71,69,72)           108.6467         estimate D2E/DX2                !
 ! A155  A(69,72,73)           107.8101         estimate D2E/DX2                !
 ! A156  A(69,72,74)           108.2291         estimate D2E/DX2                !
 ! A157  A(69,72,75)           114.4253         estimate D2E/DX2                !
 ! A158  A(73,72,74)           106.4702         estimate D2E/DX2                !
 ! A159  A(73,72,75)           110.576          estimate D2E/DX2                !
 ! A160  A(74,72,75)           109.0091         estimate D2E/DX2                !
 ! A161  A(72,75,76)           109.8021         estimate D2E/DX2                !
 ! A162  A(72,75,77)           110.3203         estimate D2E/DX2                !
 ! A163  A(72,75,78)           114.3778         estimate D2E/DX2                !
 ! A164  A(76,75,77)           106.5276         estimate D2E/DX2                !
 ! A165  A(76,75,78)           106.7209         estimate D2E/DX2                !
 ! A166  A(77,75,78)           108.7458         estimate D2E/DX2                !
 ! A167  A(75,78,79)           111.0083         estimate D2E/DX2                !
 ! A168  A(75,78,80)           111.3775         estimate D2E/DX2                !
 ! A169  A(75,78,81)           112.0314         estimate D2E/DX2                !
 ! A170  A(79,78,80)           108.0162         estimate D2E/DX2                !
 ! A171  A(79,78,81)           106.9292         estimate D2E/DX2                !
 ! A172  A(80,78,81)           107.2508         estimate D2E/DX2                !
 ! A173  A(78,81,82)           113.0507         estimate D2E/DX2                !
 ! A174  A(78,81,83)           113.1272         estimate D2E/DX2                !
 ! A175  A(78,81,84)           112.2302         estimate D2E/DX2                !
 ! A176  A(82,81,83)           104.4121         estimate D2E/DX2                !
 ! A177  A(82,81,84)           105.2742         estimate D2E/DX2                !
 ! A178  A(83,81,84)           108.1298         estimate D2E/DX2                !
 ! A179  A(35,82,41)            20.0165         estimate D2E/DX2                !
 ! A180  A(35,82,62)            61.1828         estimate D2E/DX2                !
 ! A181  A(35,82,81)           112.7092         estimate D2E/DX2                !
 ! A182  A(41,82,62)            54.0002         estimate D2E/DX2                !
 ! A183  A(41,82,81)           114.561          estimate D2E/DX2                !
 ! A184  A(62,82,81)            62.3126         estimate D2E/DX2                !
 ! A185  A(13,83,14)            77.9132         estimate D2E/DX2                !
 ! A186  A(13,83,19)            19.8117         estimate D2E/DX2                !
 ! A187  A(13,83,81)           164.6341         estimate D2E/DX2                !
 ! A188  A(14,83,19)            60.681          estimate D2E/DX2                !
 ! A189  A(14,83,81)            87.895          estimate D2E/DX2                !
 ! A190  A(19,83,81)           144.8572         estimate D2E/DX2                !
 ! A191  A(45,84,56)            39.5248         estimate D2E/DX2                !
 ! A192  A(45,84,58)            26.558          estimate D2E/DX2                !
 ! A193  A(45,84,81)           122.3397         estimate D2E/DX2                !
 ! A194  A(56,84,58)            52.0279         estimate D2E/DX2                !
 ! A195  A(56,84,81)           127.0335         estimate D2E/DX2                !
 ! A196  A(58,84,81)            95.8796         estimate D2E/DX2                !
 ! D1    D(6,1,2,3)            -55.2952         estimate D2E/DX2                !
 ! D2    D(6,1,2,7)           -176.3986         estimate D2E/DX2                !
 ! D3    D(6,1,2,15)            63.498          estimate D2E/DX2                !
 ! D4    D(2,1,6,5)             54.2918         estimate D2E/DX2                !
 ! D5    D(2,1,6,11)           -65.4736         estimate D2E/DX2                !
 ! D6    D(2,1,6,16)           178.5702         estimate D2E/DX2                !
 ! D7    D(1,2,3,4)             54.4718         estimate D2E/DX2                !
 ! D8    D(1,2,3,8)            -62.9047         estimate D2E/DX2                !
 ! D9    D(1,2,3,14)           179.9597         estimate D2E/DX2                !
 ! D10   D(7,2,3,4)            171.9311         estimate D2E/DX2                !
 ! D11   D(7,2,3,8)             54.5547         estimate D2E/DX2                !
 ! D12   D(7,2,3,14)           -62.5809         estimate D2E/DX2                !
 ! D13   D(15,2,3,4)           -68.8754         estimate D2E/DX2                !
 ! D14   D(15,2,3,8)           173.7481         estimate D2E/DX2                !
 ! D15   D(15,2,3,14)           56.6125         estimate D2E/DX2                !
 ! D16   D(1,2,15,27)           66.6945         estimate D2E/DX2                !
 ! D17   D(3,2,15,27)         -170.2975         estimate D2E/DX2                !
 ! D18   D(7,2,15,27)          -50.3961         estimate D2E/DX2                !
 ! D19   D(2,3,4,5)            -53.8711         estimate D2E/DX2                !
 ! D20   D(2,3,4,9)             67.82           estimate D2E/DX2                !
 ! D21   D(2,3,4,13)          -175.6556         estimate D2E/DX2                !
 ! D22   D(8,3,4,5)             62.9257         estimate D2E/DX2                !
 ! D23   D(8,3,4,9)           -175.3832         estimate D2E/DX2                !
 ! D24   D(8,3,4,13)           -58.8588         estimate D2E/DX2                !
 ! D25   D(14,3,4,5)          -179.1018         estimate D2E/DX2                !
 ! D26   D(14,3,4,9)           -57.4107         estimate D2E/DX2                !
 ! D27   D(14,3,4,13)           59.1137         estimate D2E/DX2                !
 ! D28   D(2,3,14,23)          -29.5147         estimate D2E/DX2                !
 ! D29   D(2,3,14,83)         -143.6299         estimate D2E/DX2                !
 ! D30   D(4,3,14,23)           94.6368         estimate D2E/DX2                !
 ! D31   D(4,3,14,83)          -19.4783         estimate D2E/DX2                !
 ! D32   D(8,3,14,23)         -146.7474         estimate D2E/DX2                !
 ! D33   D(8,3,14,83)           99.1375         estimate D2E/DX2                !
 ! D34   D(3,4,5,6)             53.1902         estimate D2E/DX2                !
 ! D35   D(3,4,5,10)           170.6107         estimate D2E/DX2                !
 ! D36   D(3,4,5,12)           -71.6637         estimate D2E/DX2                !
 ! D37   D(9,4,5,6)            -68.2409         estimate D2E/DX2                !
 ! D38   D(9,4,5,10)            49.1796         estimate D2E/DX2                !
 ! D39   D(9,4,5,12)           166.9052         estimate D2E/DX2                !
 ! D40   D(13,4,5,6)           176.1414         estimate D2E/DX2                !
 ! D41   D(13,4,5,10)          -66.4381         estimate D2E/DX2                !
 ! D42   D(13,4,5,12)           51.2874         estimate D2E/DX2                !
 ! D43   D(3,4,13,22)           80.1254         estimate D2E/DX2                !
 ! D44   D(3,4,13,83)          -72.6554         estimate D2E/DX2                !
 ! D45   D(5,4,13,22)          -42.2546         estimate D2E/DX2                !
 ! D46   D(5,4,13,83)          164.9646         estimate D2E/DX2                !
 ! D47   D(9,4,13,22)         -160.8066         estimate D2E/DX2                !
 ! D48   D(9,4,13,83)           46.4126         estimate D2E/DX2                !
 ! D49   D(4,5,6,1)            -52.3531         estimate D2E/DX2                !
 ! D50   D(4,5,6,11)            68.8249         estimate D2E/DX2                !
 ! D51   D(4,5,6,16)          -172.3047         estimate D2E/DX2                !
 ! D52   D(10,5,6,1)          -170.6599         estimate D2E/DX2                !
 ! D53   D(10,5,6,11)          -49.4819         estimate D2E/DX2                !
 ! D54   D(10,5,6,16)           69.3885         estimate D2E/DX2                !
 ! D55   D(12,5,6,1)            66.9632         estimate D2E/DX2                !
 ! D56   D(12,5,6,11)         -171.8588         estimate D2E/DX2                !
 ! D57   D(12,5,6,16)          -52.9883         estimate D2E/DX2                !
 ! D58   D(4,5,12,21)          151.7254         estimate D2E/DX2                !
 ! D59   D(6,5,12,21)           29.8203         estimate D2E/DX2                !
 ! D60   D(10,5,12,21)         -91.2286         estimate D2E/DX2                !
 ! D61   D(1,6,16,17)           59.0201         estimate D2E/DX2                !
 ! D62   D(1,6,16,18)          177.5421         estimate D2E/DX2                !
 ! D63   D(1,6,16,19)          -64.5656         estimate D2E/DX2                !
 ! D64   D(5,6,16,17)         -177.2933         estimate D2E/DX2                !
 ! D65   D(5,6,16,18)          -58.7713         estimate D2E/DX2                !
 ! D66   D(5,6,16,19)           59.1209         estimate D2E/DX2                !
 ! D67   D(11,6,16,17)         -58.5008         estimate D2E/DX2                !
 ! D68   D(11,6,16,18)          60.0212         estimate D2E/DX2                !
 ! D69   D(11,6,16,19)         177.9134         estimate D2E/DX2                !
 ! D70   D(4,13,83,14)          40.9154         estimate D2E/DX2                !
 ! D71   D(4,13,83,19)          12.9332         estimate D2E/DX2                !
 ! D72   D(4,13,83,81)          17.9887         estimate D2E/DX2                !
 ! D73   D(22,13,83,14)        -99.1283         estimate D2E/DX2                !
 ! D74   D(22,13,83,19)       -127.1105         estimate D2E/DX2                !
 ! D75   D(22,13,83,81)       -122.055          estimate D2E/DX2                !
 ! D76   D(3,14,83,13)         -12.1482         estimate D2E/DX2                !
 ! D77   D(3,14,83,19)          -1.6393         estimate D2E/DX2                !
 ! D78   D(3,14,83,81)         161.9229         estimate D2E/DX2                !
 ! D79   D(23,14,83,13)       -123.8906         estimate D2E/DX2                !
 ! D80   D(23,14,83,19)       -113.3817         estimate D2E/DX2                !
 ! D81   D(23,14,83,81)         50.1805         estimate D2E/DX2                !
 ! D82   D(2,15,27,26)        -137.5804         estimate D2E/DX2                !
 ! D83   D(2,15,27,28)         101.744          estimate D2E/DX2                !
 ! D84   D(2,15,27,32)         -20.2225         estimate D2E/DX2                !
 ! D85   D(6,16,19,20)          70.9705         estimate D2E/DX2                !
 ! D86   D(6,16,19,83)         -19.7752         estimate D2E/DX2                !
 ! D87   D(17,16,19,20)        -51.9556         estimate D2E/DX2                !
 ! D88   D(17,16,19,83)       -142.7012         estimate D2E/DX2                !
 ! D89   D(18,16,19,20)       -169.1289         estimate D2E/DX2                !
 ! D90   D(18,16,19,83)        100.1254         estimate D2E/DX2                !
 ! D91   D(16,19,83,13)       -122.9163         estimate D2E/DX2                !
 ! D92   D(16,19,83,14)         88.8327         estimate D2E/DX2                !
 ! D93   D(16,19,83,81)         59.4086         estimate D2E/DX2                !
 ! D94   D(20,19,83,13)        131.2134         estimate D2E/DX2                !
 ! D95   D(20,19,83,14)        -17.0376         estimate D2E/DX2                !
 ! D96   D(20,19,83,81)        -46.4617         estimate D2E/DX2                !
 ! D97   D(29,24,25,26)        -59.6858         estimate D2E/DX2                !
 ! D98   D(29,24,25,30)         58.8856         estimate D2E/DX2                !
 ! D99   D(29,24,25,37)        172.262          estimate D2E/DX2                !
 ! D100  D(25,24,29,28)         56.025          estimate D2E/DX2                !
 ! D101  D(25,24,29,34)        -63.1499         estimate D2E/DX2                !
 ! D102  D(25,24,29,38)       -178.2679         estimate D2E/DX2                !
 ! D103  D(24,25,26,27)          4.0758         estimate D2E/DX2                !
 ! D104  D(24,25,26,31)       -115.4729         estimate D2E/DX2                !
 ! D105  D(24,25,26,36)        122.6578         estimate D2E/DX2                !
 ! D106  D(30,25,26,27)       -114.939          estimate D2E/DX2                !
 ! D107  D(30,25,26,31)        125.5122         estimate D2E/DX2                !
 ! D108  D(30,25,26,36)          3.643          estimate D2E/DX2                !
 ! D109  D(37,25,26,27)        128.4197         estimate D2E/DX2                !
 ! D110  D(37,25,26,31)          8.871          estimate D2E/DX2                !
 ! D111  D(37,25,26,36)       -112.9983         estimate D2E/DX2                !
 ! D112  D(24,25,37,49)         64.0419         estimate D2E/DX2                !
 ! D113  D(26,25,37,49)        -61.6474         estimate D2E/DX2                !
 ! D114  D(30,25,37,49)        179.95           estimate D2E/DX2                !
 ! D115  D(25,26,27,15)        -71.3824         estimate D2E/DX2                !
 ! D116  D(25,26,27,28)         50.6931         estimate D2E/DX2                !
 ! D117  D(25,26,27,32)        170.1844         estimate D2E/DX2                !
 ! D118  D(31,26,27,15)         48.5279         estimate D2E/DX2                !
 ! D119  D(31,26,27,28)        170.6034         estimate D2E/DX2                !
 ! D120  D(31,26,27,32)        -69.9053         estimate D2E/DX2                !
 ! D121  D(36,26,27,15)        167.9558         estimate D2E/DX2                !
 ! D122  D(36,26,27,28)        -69.9687         estimate D2E/DX2                !
 ! D123  D(36,26,27,32)         49.5226         estimate D2E/DX2                !
 ! D124  D(25,26,36,44)         83.458          estimate D2E/DX2                !
 ! D125  D(27,26,36,44)       -155.3083         estimate D2E/DX2                !
 ! D126  D(31,26,36,44)        -37.3929         estimate D2E/DX2                !
 ! D127  D(15,27,28,29)         65.2561         estimate D2E/DX2                !
 ! D128  D(15,27,28,33)       -177.1827         estimate D2E/DX2                !
 ! D129  D(15,27,28,35)        -59.1773         estimate D2E/DX2                !
 ! D130  D(26,27,28,29)        -54.1511         estimate D2E/DX2                !
 ! D131  D(26,27,28,33)         63.4101         estimate D2E/DX2                !
 ! D132  D(26,27,28,35)       -178.5845         estimate D2E/DX2                !
 ! D133  D(32,27,28,29)       -172.7016         estimate D2E/DX2                !
 ! D134  D(32,27,28,33)        -55.1404         estimate D2E/DX2                !
 ! D135  D(32,27,28,35)         62.865          estimate D2E/DX2                !
 ! D136  D(27,28,29,24)          2.6014         estimate D2E/DX2                !
 ! D137  D(27,28,29,34)        121.1528         estimate D2E/DX2                !
 ! D138  D(27,28,29,38)       -118.7216         estimate D2E/DX2                !
 ! D139  D(33,28,29,24)       -113.5704         estimate D2E/DX2                !
 ! D140  D(33,28,29,34)          4.981          estimate D2E/DX2                !
 ! D141  D(33,28,29,38)        125.1066         estimate D2E/DX2                !
 ! D142  D(35,28,29,24)        125.8266         estimate D2E/DX2                !
 ! D143  D(35,28,29,34)       -115.6219         estimate D2E/DX2                !
 ! D144  D(35,28,29,38)          4.5036         estimate D2E/DX2                !
 ! D145  D(27,28,35,43)       -120.3654         estimate D2E/DX2                !
 ! D146  D(27,28,35,82)         67.807          estimate D2E/DX2                !
 ! D147  D(29,28,35,43)        115.9211         estimate D2E/DX2                !
 ! D148  D(29,28,35,82)        -55.9065         estimate D2E/DX2                !
 ! D149  D(33,28,35,43)         -4.2421         estimate D2E/DX2                !
 ! D150  D(33,28,35,82)       -176.0697         estimate D2E/DX2                !
 ! D151  D(24,29,38,39)         48.7465         estimate D2E/DX2                !
 ! D152  D(24,29,38,40)        165.8772         estimate D2E/DX2                !
 ! D153  D(24,29,38,41)        -69.9668         estimate D2E/DX2                !
 ! D154  D(28,29,38,39)        172.8123         estimate D2E/DX2                !
 ! D155  D(28,29,38,40)        -70.057          estimate D2E/DX2                !
 ! D156  D(28,29,38,41)         54.099          estimate D2E/DX2                !
 ! D157  D(34,29,38,39)        -66.4304         estimate D2E/DX2                !
 ! D158  D(34,29,38,40)         50.7003         estimate D2E/DX2                !
 ! D159  D(34,29,38,41)        174.8563         estimate D2E/DX2                !
 ! D160  D(28,35,82,41)         81.4549         estimate D2E/DX2                !
 ! D161  D(28,35,82,62)         18.1829         estimate D2E/DX2                !
 ! D162  D(28,35,82,81)        -18.1948         estimate D2E/DX2                !
 ! D163  D(43,35,82,41)        -77.8081         estimate D2E/DX2                !
 ! D164  D(43,35,82,62)       -141.0801         estimate D2E/DX2                !
 ! D165  D(43,35,82,81)       -177.4579         estimate D2E/DX2                !
 ! D166  D(25,37,49,48)        121.8354         estimate D2E/DX2                !
 ! D167  D(25,37,49,50)       -119.7812         estimate D2E/DX2                !
 ! D168  D(25,37,49,55)          0.2193         estimate D2E/DX2                !
 ! D169  D(29,38,41,42)        -73.0661         estimate D2E/DX2                !
 ! D170  D(29,38,41,82)         88.8468         estimate D2E/DX2                !
 ! D171  D(39,38,41,42)        167.3496         estimate D2E/DX2                !
 ! D172  D(39,38,41,82)        -30.7376         estimate D2E/DX2                !
 ! D173  D(40,38,41,42)         50.2686         estimate D2E/DX2                !
 ! D174  D(40,38,41,82)       -147.8186         estimate D2E/DX2                !
 ! D175  D(38,41,82,35)       -125.413          estimate D2E/DX2                !
 ! D176  D(38,41,82,62)        -20.7151         estimate D2E/DX2                !
 ! D177  D(38,41,82,81)        -36.2412         estimate D2E/DX2                !
 ! D178  D(42,41,82,35)         35.6269         estimate D2E/DX2                !
 ! D179  D(42,41,82,62)        140.3248         estimate D2E/DX2                !
 ! D180  D(42,41,82,81)        124.7986         estimate D2E/DX2                !
 ! D181  D(50,45,46,47)        -63.5269         estimate D2E/DX2                !
 ! D182  D(50,45,46,51)         56.9681         estimate D2E/DX2                !
 ! D183  D(50,45,46,58)        178.3299         estimate D2E/DX2                !
 ! D184  D(84,45,46,47)         80.586          estimate D2E/DX2                !
 ! D185  D(84,45,46,51)       -158.919          estimate D2E/DX2                !
 ! D186  D(84,45,46,58)        -37.5572         estimate D2E/DX2                !
 ! D187  D(46,45,50,49)         67.5662         estimate D2E/DX2                !
 ! D188  D(46,45,50,54)        -51.1694         estimate D2E/DX2                !
 ! D189  D(46,45,50,59)       -167.2279         estimate D2E/DX2                !
 ! D190  D(84,45,50,49)        -94.5499         estimate D2E/DX2                !
 ! D191  D(84,45,50,54)        146.7145         estimate D2E/DX2                !
 ! D192  D(84,45,50,59)         30.656          estimate D2E/DX2                !
 ! D193  D(46,45,84,56)        -82.0758         estimate D2E/DX2                !
 ! D194  D(46,45,84,58)         23.1401         estimate D2E/DX2                !
 ! D195  D(46,45,84,81)         28.5781         estimate D2E/DX2                !
 ! D196  D(50,45,84,56)         65.2028         estimate D2E/DX2                !
 ! D197  D(50,45,84,58)        170.4186         estimate D2E/DX2                !
 ! D198  D(50,45,84,81)        175.8567         estimate D2E/DX2                !
 ! D199  D(45,46,47,48)         53.1615         estimate D2E/DX2                !
 ! D200  D(45,46,47,52)        -65.5272         estimate D2E/DX2                !
 ! D201  D(45,46,47,57)        178.8659         estimate D2E/DX2                !
 ! D202  D(51,46,47,48)        -65.1514         estimate D2E/DX2                !
 ! D203  D(51,46,47,52)        176.1599         estimate D2E/DX2                !
 ! D204  D(51,46,47,57)         60.553          estimate D2E/DX2                !
 ! D205  D(58,46,47,48)        170.8173         estimate D2E/DX2                !
 ! D206  D(58,46,47,52)         52.1286         estimate D2E/DX2                !
 ! D207  D(58,46,47,57)        -63.4783         estimate D2E/DX2                !
 ! D208  D(45,46,58,66)        -70.7274         estimate D2E/DX2                !
 ! D209  D(45,46,58,84)         12.8644         estimate D2E/DX2                !
 ! D210  D(47,46,58,66)        171.7623         estimate D2E/DX2                !
 ! D211  D(47,46,58,84)       -104.6459         estimate D2E/DX2                !
 ! D212  D(51,46,58,66)         48.0932         estimate D2E/DX2                !
 ! D213  D(51,46,58,84)        131.685          estimate D2E/DX2                !
 ! D214  D(46,47,48,49)        -50.5371         estimate D2E/DX2                !
 ! D215  D(46,47,48,53)         67.9356         estimate D2E/DX2                !
 ! D216  D(46,47,48,56)       -172.7147         estimate D2E/DX2                !
 ! D217  D(52,47,48,49)         66.5826         estimate D2E/DX2                !
 ! D218  D(52,47,48,53)       -174.9446         estimate D2E/DX2                !
 ! D219  D(52,47,48,56)        -55.5949         estimate D2E/DX2                !
 ! D220  D(57,47,48,49)       -179.0846         estimate D2E/DX2                !
 ! D221  D(57,47,48,53)        -60.6119         estimate D2E/DX2                !
 ! D222  D(57,47,48,56)         58.7378         estimate D2E/DX2                !
 ! D223  D(46,47,57,65)        -46.2113         estimate D2E/DX2                !
 ! D224  D(48,47,57,65)         80.4744         estimate D2E/DX2                !
 ! D225  D(52,47,57,65)       -162.6318         estimate D2E/DX2                !
 ! D226  D(47,48,49,37)        171.0645         estimate D2E/DX2                !
 ! D227  D(47,48,49,50)         52.0122         estimate D2E/DX2                !
 ! D228  D(47,48,49,55)        -67.2751         estimate D2E/DX2                !
 ! D229  D(53,48,49,37)         51.4767         estimate D2E/DX2                !
 ! D230  D(53,48,49,50)        -67.5756         estimate D2E/DX2                !
 ! D231  D(53,48,49,55)        173.1371         estimate D2E/DX2                !
 ! D232  D(56,48,49,37)        -67.4459         estimate D2E/DX2                !
 ! D233  D(56,48,49,50)        173.5018         estimate D2E/DX2                !
 ! D234  D(56,48,49,55)         54.2144         estimate D2E/DX2                !
 ! D235  D(47,48,56,64)        -48.4384         estimate D2E/DX2                !
 ! D236  D(47,48,56,84)         81.4183         estimate D2E/DX2                !
 ! D237  D(49,48,56,64)       -171.7264         estimate D2E/DX2                !
 ! D238  D(49,48,56,84)        -41.8697         estimate D2E/DX2                !
 ! D239  D(53,48,56,64)         70.7114         estimate D2E/DX2                !
 ! D240  D(53,48,56,84)       -159.4318         estimate D2E/DX2                !
 ! D241  D(37,49,50,45)       -178.6713         estimate D2E/DX2                !
 ! D242  D(37,49,50,54)        -58.7379         estimate D2E/DX2                !
 ! D243  D(37,49,50,59)         60.8605         estimate D2E/DX2                !
 ! D244  D(48,49,50,45)        -59.0164         estimate D2E/DX2                !
 ! D245  D(48,49,50,54)         60.917          estimate D2E/DX2                !
 ! D246  D(48,49,50,59)       -179.4846         estimate D2E/DX2                !
 ! D247  D(55,49,50,45)         60.7837         estimate D2E/DX2                !
 ! D248  D(55,49,50,54)       -179.2829         estimate D2E/DX2                !
 ! D249  D(55,49,50,59)        -59.6845         estimate D2E/DX2                !
 ! D250  D(45,50,59,60)         56.1128         estimate D2E/DX2                !
 ! D251  D(45,50,59,61)        174.2482         estimate D2E/DX2                !
 ! D252  D(45,50,59,62)        -62.4871         estimate D2E/DX2                !
 ! D253  D(49,50,59,60)        177.3547         estimate D2E/DX2                !
 ! D254  D(49,50,59,61)        -64.51           estimate D2E/DX2                !
 ! D255  D(49,50,59,62)         58.7547         estimate D2E/DX2                !
 ! D256  D(54,50,59,60)        -62.204          estimate D2E/DX2                !
 ! D257  D(54,50,59,61)         55.9313         estimate D2E/DX2                !
 ! D258  D(54,50,59,62)        179.196          estimate D2E/DX2                !
 ! D259  D(48,56,84,45)        -17.1432         estimate D2E/DX2                !
 ! D260  D(48,56,84,58)        -50.3241         estimate D2E/DX2                !
 ! D261  D(48,56,84,81)       -115.1048         estimate D2E/DX2                !
 ! D262  D(64,56,84,45)         56.4903         estimate D2E/DX2                !
 ! D263  D(64,56,84,58)         23.3094         estimate D2E/DX2                !
 ! D264  D(64,56,84,81)        -41.4713         estimate D2E/DX2                !
 ! D265  D(46,58,66,67)       -100.3716         estimate D2E/DX2                !
 ! D266  D(46,58,66,68)         17.5985         estimate D2E/DX2                !
 ! D267  D(46,58,66,69)        139.539          estimate D2E/DX2                !
 ! D268  D(84,58,66,67)       -170.7283         estimate D2E/DX2                !
 ! D269  D(84,58,66,68)        -52.7583         estimate D2E/DX2                !
 ! D270  D(84,58,66,69)         69.1822         estimate D2E/DX2                !
 ! D271  D(46,58,84,45)        -13.1374         estimate D2E/DX2                !
 ! D272  D(46,58,84,56)         38.0327         estimate D2E/DX2                !
 ! D273  D(46,58,84,81)        171.4795         estimate D2E/DX2                !
 ! D274  D(66,58,84,45)        102.2276         estimate D2E/DX2                !
 ! D275  D(66,58,84,56)        153.3978         estimate D2E/DX2                !
 ! D276  D(66,58,84,81)        -73.1555         estimate D2E/DX2                !
 ! D277  D(50,59,62,63)        -81.0231         estimate D2E/DX2                !
 ! D278  D(50,59,62,82)         80.0093         estimate D2E/DX2                !
 ! D279  D(60,59,62,63)        159.5586         estimate D2E/DX2                !
 ! D280  D(60,59,62,82)        -39.409          estimate D2E/DX2                !
 ! D281  D(61,59,62,63)         41.8785         estimate D2E/DX2                !
 ! D282  D(61,59,62,82)       -157.0891         estimate D2E/DX2                !
 ! D283  D(59,62,82,35)       -164.4839         estimate D2E/DX2                !
 ! D284  D(59,62,82,41)        173.3133         estimate D2E/DX2                !
 ! D285  D(59,62,82,81)        -22.6451         estimate D2E/DX2                !
 ! D286  D(63,62,82,35)         -3.4338         estimate D2E/DX2                !
 ! D287  D(63,62,82,41)        -25.6366         estimate D2E/DX2                !
 ! D288  D(63,62,82,81)        138.4049         estimate D2E/DX2                !
 ! D289  D(58,66,69,70)        177.2676         estimate D2E/DX2                !
 ! D290  D(58,66,69,71)         62.6506         estimate D2E/DX2                !
 ! D291  D(58,66,69,72)        -59.0046         estimate D2E/DX2                !
 ! D292  D(67,66,69,70)         58.5001         estimate D2E/DX2                !
 ! D293  D(67,66,69,71)        -56.1169         estimate D2E/DX2                !
 ! D294  D(67,66,69,72)       -177.7721         estimate D2E/DX2                !
 ! D295  D(68,66,69,70)        -61.8781         estimate D2E/DX2                !
 ! D296  D(68,66,69,71)       -176.4951         estimate D2E/DX2                !
 ! D297  D(68,66,69,72)         61.8497         estimate D2E/DX2                !
 ! D298  D(66,69,72,73)         57.8328         estimate D2E/DX2                !
 ! D299  D(66,69,72,74)        172.6249         estimate D2E/DX2                !
 ! D300  D(66,69,72,75)        -65.6253         estimate D2E/DX2                !
 ! D301  D(70,69,72,73)        179.9524         estimate D2E/DX2                !
 ! D302  D(70,69,72,74)        -65.2555         estimate D2E/DX2                !
 ! D303  D(70,69,72,75)         56.4943         estimate D2E/DX2                !
 ! D304  D(71,69,72,73)        -63.681          estimate D2E/DX2                !
 ! D305  D(71,69,72,74)         51.1111         estimate D2E/DX2                !
 ! D306  D(71,69,72,75)        172.8609         estimate D2E/DX2                !
 ! D307  D(69,72,75,76)        -58.0681         estimate D2E/DX2                !
 ! D308  D(69,72,75,77)         59.0456         estimate D2E/DX2                !
 ! D309  D(69,72,75,78)       -177.9946         estimate D2E/DX2                !
 ! D310  D(73,72,75,76)        179.9733         estimate D2E/DX2                !
 ! D311  D(73,72,75,77)        -62.913          estimate D2E/DX2                !
 ! D312  D(73,72,75,78)         60.0468         estimate D2E/DX2                !
 ! D313  D(74,72,75,76)         63.2534         estimate D2E/DX2                !
 ! D314  D(74,72,75,77)       -179.6328         estimate D2E/DX2                !
 ! D315  D(74,72,75,78)        -56.673          estimate D2E/DX2                !
 ! D316  D(72,75,78,79)        173.7248         estimate D2E/DX2                !
 ! D317  D(72,75,78,80)         53.3196         estimate D2E/DX2                !
 ! D318  D(72,75,78,81)        -66.8098         estimate D2E/DX2                !
 ! D319  D(76,75,78,79)         52.0912         estimate D2E/DX2                !
 ! D320  D(76,75,78,80)        -68.3141         estimate D2E/DX2                !
 ! D321  D(76,75,78,81)        171.5566         estimate D2E/DX2                !
 ! D322  D(77,75,78,79)        -62.4677         estimate D2E/DX2                !
 ! D323  D(77,75,78,80)        177.1271         estimate D2E/DX2                !
 ! D324  D(77,75,78,81)         56.9977         estimate D2E/DX2                !
 ! D325  D(75,78,81,82)        179.7398         estimate D2E/DX2                !
 ! D326  D(75,78,81,83)         61.3241         estimate D2E/DX2                !
 ! D327  D(75,78,81,84)        -61.3656         estimate D2E/DX2                !
 ! D328  D(79,78,81,82)        -58.428          estimate D2E/DX2                !
 ! D329  D(79,78,81,83)       -176.8437         estimate D2E/DX2                !
 ! D330  D(79,78,81,84)         60.4665         estimate D2E/DX2                !
 ! D331  D(80,78,81,82)         57.2327         estimate D2E/DX2                !
 ! D332  D(80,78,81,83)        -61.183          estimate D2E/DX2                !
 ! D333  D(80,78,81,84)        176.1272         estimate D2E/DX2                !
 ! D334  D(78,81,82,35)        156.9268         estimate D2E/DX2                !
 ! D335  D(78,81,82,41)        135.1484         estimate D2E/DX2                !
 ! D336  D(78,81,82,62)        120.9926         estimate D2E/DX2                !
 ! D337  D(83,81,82,35)        -79.7012         estimate D2E/DX2                !
 ! D338  D(83,81,82,41)       -101.4795         estimate D2E/DX2                !
 ! D339  D(83,81,82,62)       -115.6354         estimate D2E/DX2                !
 ! D340  D(84,81,82,35)         34.0787         estimate D2E/DX2                !
 ! D341  D(84,81,82,41)         12.3003         estimate D2E/DX2                !
 ! D342  D(84,81,82,62)         -1.8555         estimate D2E/DX2                !
 ! D343  D(78,81,83,13)       -173.1878         estimate D2E/DX2                !
 ! D344  D(78,81,83,14)        164.4057         estimate D2E/DX2                !
 ! D345  D(78,81,83,19)       -170.2136         estimate D2E/DX2                !
 ! D346  D(82,81,83,13)         63.4897         estimate D2E/DX2                !
 ! D347  D(82,81,83,14)         41.0832         estimate D2E/DX2                !
 ! D348  D(82,81,83,19)         66.4639         estimate D2E/DX2                !
 ! D349  D(84,81,83,13)        -48.2475         estimate D2E/DX2                !
 ! D350  D(84,81,83,14)        -70.654          estimate D2E/DX2                !
 ! D351  D(84,81,83,19)        -45.2733         estimate D2E/DX2                !
 ! D352  D(78,81,84,45)         73.8826         estimate D2E/DX2                !
 ! D353  D(78,81,84,56)        122.1265         estimate D2E/DX2                !
 ! D354  D(78,81,84,58)         76.3239         estimate D2E/DX2                !
 ! D355  D(82,81,84,45)       -162.7445         estimate D2E/DX2                !
 ! D356  D(82,81,84,56)       -114.5006         estimate D2E/DX2                !
 ! D357  D(82,81,84,58)       -160.3032         estimate D2E/DX2                !
 ! D358  D(83,81,84,45)        -51.589          estimate D2E/DX2                !
 ! D359  D(83,81,84,56)         -3.345          estimate D2E/DX2                !
 ! D360  D(83,81,84,58)        -49.1477         estimate D2E/DX2                !
 --------------------------------------------------------------------------------
 Trust Radius=3.00D-01 FncErr=1.00D-07 GrdErr=1.00D-06
 Number of steps in this run=    504 maximum allowed number of steps=    504.
 GradGradGradGradGradGradGradGradGradGradGradGradGradGradGradGradGradGrad

 Leave Link  103 at Wed Apr 27 08:51:19 2016, MaxMem= 10737418240 cpu:         0.4
 (Enter /share/apps//g09/l202.exe)
 Stoichiometry    C23H44NO16(1+)
 Framework group  C1[X(C23H44NO16)]
 Deg. of freedom   246
 Full point group                 C1      NOp   1
 Largest Abelian subgroup         C1      NOp   1
 Largest concise Abelian subgroup C1      NOp   1
                         Standard orientation:                         
 ---------------------------------------------------------------------
 Center     Atomic      Atomic             Coordinates (Angstroms)
 Number     Number       Type             X           Y           Z
 ---------------------------------------------------------------------
      1          8           0       -2.244532    2.494934   -0.966291
      2          6           0       -2.136206    1.186873   -1.488408
      3          6           0       -0.855848    0.988185   -2.315598
      4          6           0        0.374963    1.378396   -1.478161
      5          6           0        0.216645    2.797074   -0.924054
      6          6           0       -1.114728    2.930629   -0.172158
      7          1           0       -3.036009    1.052231   -2.107996
      8          1           0       -0.915006    1.670431   -3.177695
      9          1           0        0.506785    0.661311   -0.654270
     10          1           0        1.028959    2.986657   -0.192616
     11          1           0       -1.040817    2.319251    0.746615
     12          8           0        0.365476    3.667166   -2.046557
     13          8           0        1.584047    1.300519   -2.254379
     14          8           0       -0.759429   -0.336455   -2.835345
     15          8           0       -2.082223    0.181502   -0.471852
     16          6           0       -1.431566    4.362379    0.249291
     17          1           0       -2.372030    4.376499    0.823090
     18          1           0       -0.628307    4.741637    0.896493
     19          8           0       -1.505003    5.266474   -0.867159
     20          1           0       -2.318983    5.051513   -1.359797
     21          1           0       -0.156483    4.481814   -1.856935
     22          1           0        1.622245    2.122748   -2.785805
     23          1           0       -1.218477   -0.957228   -2.224584
     24          8           0       -2.033462   -2.273098    0.783768
     25          6           0       -2.174916   -1.539096    2.017474
     26          6           0       -2.853909   -0.153101    1.776973
     27          6           0       -3.278782    0.013210    0.311392
     28          6           0       -4.089571   -1.208718   -0.134680
     29          6           0       -3.296123   -2.530345    0.132770
     30          1           0       -2.821573   -2.119550    2.701151
     31          1           0       -2.139295    0.642985    2.023316
     32          1           0       -3.901897    0.917049    0.236960
     33          1           0       -4.998445   -1.216789    0.485644
     34          1           0       -3.895660   -3.173187    0.806880
     35          8           0       -4.463896   -1.071816   -1.524910
     36          8           0       -4.039143   -0.033502    2.570230
     37          8           0       -0.928568   -1.494200    2.658018
     38          6           0       -2.984702   -3.343822   -1.120771
     39          1           0       -2.320873   -4.173896   -0.840080
     40          1           0       -3.918475   -3.778186   -1.511849
     41          8           0       -2.308958   -2.596546   -2.138268
     42          1           0       -3.000276   -2.005817   -2.502891
     43          1           0       -5.431557   -1.086719   -1.591383
     44          1           0       -3.781786    0.256252    3.461964
     45          8           0        2.355702   -1.048034    1.059427
     46          6           0        2.983299   -0.073758    1.922425
     47          6           0        1.936918    0.981837    2.289081
     48          6           0        0.662974    0.339532    2.869584
     49          6           0        0.132347   -0.787008    1.980919
     50          6           0        1.295240   -1.764794    1.703212
     51          1           0        3.355534   -0.608774    2.829466
     52          1           0        1.680562    1.501943    1.353291
     53          1           0        0.900056   -0.106828    3.858126
     54          1           0        1.643394   -2.179373    2.672687
     55          1           0       -0.233416   -0.376212    1.026818
     56          8           0       -0.334776    1.350735    3.032471
     57          8           0        2.400005    2.009240    3.165738
     58          8           0        4.008215    0.529782    1.223207
     59          6           0        0.945846   -2.951458    0.815609
     60          1           0        1.857565   -3.543400    0.652940
     61          1           0        0.205904   -3.584257    1.325966
     62          8           0        0.458452   -2.569389   -0.477477
     63          1           0       -0.492386   -2.344828   -0.358825
     64          1           0        0.113030    2.088682    3.490252
     65          1           0        2.896629    1.603922    3.901098
     66          6           0        5.157706   -0.321942    0.976612
     67          1           0        5.937659   -0.070931    1.714244
     68          1           0        4.871234   -1.375484    1.118689
     69          6           0        5.666321   -0.073410   -0.438548
     70          1           0        6.566893   -0.693550   -0.584412
     71          1           0        5.997345    0.974058   -0.509609
     72          6           0        4.638473   -0.340247   -1.549128
     73          1           0        3.763010    0.298885   -1.358215
     74          1           0        5.069381   -0.002473   -2.506378
     75          6           0        4.214790   -1.810118   -1.682335
     76          1           0        5.100292   -2.438135   -1.873590
     77          1           0        3.774612   -2.168295   -0.738507
     78          6           0        3.230052   -2.081825   -2.817306
     79          1           0        3.050900   -3.158963   -2.933659
     80          1           0        3.605656   -1.694114   -3.775253
     81          7           0        1.895063   -1.440771   -2.570217
     82          1           0        1.220484   -1.610441   -3.327781
     83          1           0        1.947255   -0.394933   -2.496217
     84          1           0        1.430317   -1.809426   -1.695955
 ---------------------------------------------------------------------
 Rotational constants (GHZ):      0.1121887      0.0811512      0.0747417
 Leave Link  202 at Wed Apr 27 08:51:19 2016, MaxMem= 10737418240 cpu:         0.4
 (Enter /share/apps//g09/l301.exe)
[...]
 0000037,-0.00000286,0.00000200,-0.00002916,0.00001818,0.00000837,-0.00
 001156,0.00002544,-0.00000882,-0.00001954,-0.00000377,-0.00000446,-0.0
 0001150,0.00001109,-0.00000308,-0.00002175,-0.00002255,-0.00006441,-0.
 00011121,-0.00002546,-0.00005076,-0.00005348,-0.00012262,-0.00003862,-
 0.00010327,-0.00017981,-0.00013123,0.00016308,-0.00000871,0.00000345,-
 0.00001650,0.00004982,0.00001063,-0.00002197,0.00035095,0.00007800,-0.
 00012940,-0.00010445,0.00006231,0.00007901,0.00001751,0.00002569,0.000
 00553,0.00001616,0.00001927,0.00002245,-0.00064343,0.00009163,-0.00049
 586,0.00093180,0.00018185,0.00013790,0.00003879,0.00019916,-0.00004727
 ,0.00010961,0.00005127,0.00009093,0.00000207,0.00006220,0.00006529,0.0
 0011564,-0.00000380,0.00008338,-0.00008930,-0.00004408,-0.00006163,0.0
 0002379,-0.00001282,-0.00002927,-0.00003326,-0.00002454,-0.00000093,-0
 .00002712,0.00001722,-0.00004657,0.00004443,0.00004375,0.00007365,-0.0
 0013036,-0.00014030,-0.00006693,-0.00011276,-0.00008761,-0.00003634,-0
 .00042067,-0.00026971,0.00027784,0.00018605,-0.00069285,0.00050095,-0.
 00001435,0.00002342,-0.00002514,0.00000420,0.00014577,-0.00008730,0.00
 076355,0.00076691,-0.00032809,-0.00029323,0.00010374,0.00025763,0.0000
 4043,0.00003972,-0.00003451,0.00002493,0.00000090,-0.00000374,0.000249
 01,0.00010219,-0.00003576,-0.00005899,-0.00005696,0.00006200,-0.000063
 97,-0.00009265,0.00001499,-0.00026106,-0.00047139,-0.00098466,0.000266
 02,-0.00034248,0.00017888,-0.00009535,0.00009047,-0.00005641,0.0001822
 1,0.00077420,0.00182650,-0.00115904,0.00074266,-0.00210213,-0.00030823
 ,0.00005789,0.00020022,0.00100688,0.00000208,0.00057945,-0.00038840,-0
 .00015149,-0.00036849,-0.00018048,-0.00015782,-0.00008141,0.02094667,0
 .00865274,0.01177705,-0.00292264,0.00374455,0.00400878,0.00020766,-0.0
 0015653,0.00039926,-0.17830085,-0.08771587,-0.10916698,-0.01372541,-0.
 00974385,-0.01113957,0.18986999,-0.00052092,-0.00012317,0.00007567,0.0
 0052604,0.00082871,-0.00092470,0.00062809,-0.00036960,0.00067442,0.007
 16602,0.00127290,-0.00555924,-0.00165941,0.00026922,0.00078707,0.00107
 981,0.00047133,0.00029552,-0.00020817,-0.00002685,0.00021677,0.0000935
 2,-0.00028219,0.00001052,-0.00069466,-0.00026594,0.00060531,0.00008217
 ,-0.00010073,-0.00006999,-0.00002983,0.00004770,-0.00000505,-0.0000864
 5,0.00054416,0.00087932,-0.00002612,0.00098210,0.00541538,-0.00184840,
 -0.00183586,-0.00104091,-0.00099193,-0.00066312,0.00051944,-0.00040957
 ,-0.00004509,-0.00004050,-0.00001437,0.00011972,0.00017457,0.00002079,
 -0.00001003,-0.00005061,-0.00008983,0.00019674,0.00039678,0.00003594,-
 0.00012930,-0.00010200,-0.00011615,-0.00044981,-0.00026687,-0.00136557
 ,-0.00206799,0.00170289,0.00021109,0.00100100,0.00055206,0.00014812,-0
 .00029336,-0.00028829,-0.00010950,0.00034372,0.00019417,-0.00001856,0.
 00010877,-0.00002674,0.00057689,0.00002025,-0.00028981,0.00001846,0.00
 010439,0.00007549,-0.00006501,0.00021377,-0.00000489,0.00000751,-0.000
 02547,-0.00002889,-0.00001300,0.00005456,-0.00003242,-0.00001117,-0.00
 001273,0.00000986,-0.00004826,-0.00001603,-0.00002790,0.00001364,-0.00
 003286,-0.00000784,-0.00015789,-0.00019093,-0.00009633,-0.00007984,-0.
 00017591,0.00005359,0.00026112,-0.00034570,-0.00020924,-0.00002554,0.0
 0004250,0.00003415,-0.00004777,-0.00004463,-0.00001549,-0.00000049,-0.
 00001282,0.00001372,-0.00019671,-0.00035656,-0.00026017,0.00022925,0.0
 0012706,0.00015410,0.00006605,0.00001237,0.00002591,0.00000873,0.00004
 466,0.00001488,0.00011008,0.00024844,-0.00094197,0.00021698,-0.0000414
 3,0.00086968,0.00005914,0.00039177,-0.00000249,0.00000745,0.00018638,0
 .00024202,-0.00020173,0.00029277,0.00009622,-0.00058738,0.00003515,0.0
 0026772,-0.00001989,0.00004550,-0.00016393,-0.00003616,0.00003675,0.00
 001078,-0.00002024,-0.00007959,0.00001946,0.00005811,0.00002776,-0.000
 11781,0.00008337,0.00010515,0.00006354,-0.00000422,-0.00045207,-0.0002
 3274,0.00002756,-0.00022757,-0.00022804,0.00018057,-0.00007667,-0.0006
 8257,0.00015420,-0.00064070,0.00030891,-0.00005313,-0.00005001,-0.0000
 5877,0.00004178,0.00015107,-0.00005069,0.00108469,0.00059049,-0.000725
 12,-0.00029666,0.00053865,0.00040150,0.00000653,0.00010684,-0.00002161
 ,-0.00002770,0.00000560,0.00011398,-0.00012075,0.00007925,0.00041608,-
 0.00000875,0.00001706,-0.00013543,-0.00000934,-0.00013987,0.00003489,-
 0.00015644,-0.00009333,0.00055587,-0.00007861,0.00017436,-0.00012641,-
 0.00017914,0.00011414,-0.00014076,0.00058706,-0.00019744,-0.00090252,0
 .00116700,0.00126387,0.00152595,-0.00030130,0.00010483,0.00028844,-0.0
 0056565,-0.00099898,0.00001265,-0.00033440,0.00044860,0.00004181,-0.00
 003269,-0.00029987,0.00000588,-0.00692336,-0.00975505,-0.01068277,0.00
 130215,-0.00009043,-0.00082672,-0.00032009,0.00101328,0.00107628,-0.09
 322181,-0.13064331,-0.08785093,0.01823010,0.01637641,0.01829567,0.0899
 4771,0.13197215,-0.00063037,-0.00004946,-0.00023309,0.00033715,0.00075
 794,-0.00072673,0.00127474,0.00000603,0.00216639,0.00608544,-0.0016216
 8,-0.00707753,-0.00109937,0.00036131,-0.00003220,0.00113503,0.00020301
 ,0.00022850,-0.00024135,0.00001237,0.00024802,-0.00001173,-0.00011213,
 -0.00003662,-0.00002127,0.00006543,-0.00029118,0.00000775,-0.00007610,
 -0.00008172,-0.00001636,0.00006571,-0.00002716,0.00000014,0.00113871,0
 .00126816,0.00316278,0.00584851,-0.00463910,-0.00076654,-0.00150690,-0
 .00248765,-0.00096480,-0.00052890,0.00028279,-0.00037701,-0.00006174,-
 0.00007918,-0.00001726,0.00011558,0.00016764,0.00000382,-0.00001385,-0
 .00006424,-0.00011122,0.00027006,0.00043493,0.00004783,-0.00014411,-0.
 00008737,-0.00006956,-0.00049567,-0.00031215,-0.00217267,-0.00068960,0
 .00519521,0.00027847,0.00043028,0.00031807,0.00007745,-0.00018394,-0.0
 0053407,0.00016945,0.00009602,0.00038915,0.00001876,0.00009622,-0.0000
 5101,0.00053187,0.00003609,-0.00024729,0.00003320,0.00005545,0.0001290
 6,0.00000482,0.00015884,0.00000609,-0.00002069,-0.00000601,-0.00004746
 ,0.00000456,0.00002771,-0.00004165,-0.00001189,-0.00000805,0.00000740,
 -0.00004364,-0.00001366,-0.00003093,0.00000909,-0.00002605,-0.00001562
 ,-0.00015358,-0.00012685,-0.00016886,-0.00011554,-0.00014247,0.0000500
 1,-0.00018831,-0.00024403,-0.00010738,-0.00012712,-0.00004149,0.000136
 77,-0.00003938,-0.00003434,-0.00001906,0.00002285,-0.00000193,-0.00000
 628,0.00001704,-0.00022255,-0.00031133,0.00013722,0.00011703,0.0001826
 2,0.00006328,0.00000799,0.00002805,0.00002560,0.00003845,0.00000861,-0
 .00042895,-0.00059099,-0.00053701,0.00005287,0.00030256,0.00027849,0.0
 0004934,0.00053250,-0.00019838,0.00012072,0.00007999,0.00009106,-0.000
 02985,0.00038433,-0.00001575,0.00038446,0.00026919,0.00013505,0.000005
 78,-0.00009141,-0.00003163,-0.00004787,-0.00008380,-0.00006856,-0.0000
 4118,-0.00007835,0.00004026,-0.00011715,-0.00005737,-0.00006507,0.0001
 4286,0.00002647,0.00006928,-0.00012865,-0.00032344,-0.00008203,0.00004
 710,-0.00025553,0.00001631,0.00024095,-0.00046538,-0.00040563,0.000601
 35,-0.00107888,0.00047091,-0.00007110,-0.00004386,-0.00001636,-0.00000
 547,0.00030393,-0.00015765,0.00217042,0.00137525,-0.00306283,-0.000086
 59,0.00076188,0.00028753,0.00003032,0.00008229,-0.00007416,-0.00002872
 ,0.00001258,0.00005109,-0.00024997,0.00041764,0.00047169,0.00002389,-0
 .00003277,-0.00011273,-0.00003899,-0.00012934,0.00000515,0.00011205,-0
 .00023543,-0.00029260,0.00010303,-0.00008780,-0.00000220,-0.00015184,0
 .00009688,-0.00009059,0.00014517,0.00050340,0.00084286,-0.00104622,0.0
 0081110,0.00035896,0.00022807,-0.00008647,-0.00025462,0.00013691,0.000
 25627,0.00164698,-0.00050612,0.00040870,-0.00038180,0.00001475,-0.0000
 0095,0.00005719,-0.00819688,-0.01153396,-0.01419494,0.00182874,-0.0005
 6791,-0.00065946,-0.00064683,0.00072968,-0.00010261,-0.10884796,-0.082
 34845,-0.16625702,-0.01282026,-0.00694774,-0.01013687,0.11104592,0.086
 44825,0.17744167,-0.00052030,-0.00021601,-0.00009472,0.00081458,0.0009
 0974,-0.00028920,0.00016013,-0.00020234,0.00026358,0.00143037,-0.00030
 481,-0.00142992,-0.00014285,0.00013318,-0.00011791,0.00043529,0.000072
 44,0.00001334,-0.00006780,-0.00005225,0.00006951,-0.00006796,-0.000101
 90,-0.00010112,0.00022130,0.00000993,-0.00020045,0.00000631,-0.0000202
 4,-0.00002387,0.00000067,0.00003033,0.00001326,-0.00016156,0.00017094,
 0.00038093,0.00007045,0.00132133,0.00173251,-0.00155043,-0.00038415,0.
 00037397,-0.00072802,-0.00080905,0.00017737,-0.00004825,0.00009318,-0.
 00000457,-0.00001382,0.00003498,0.00006413,0.00000026,-0.00000610,-0.0
 0002392,-0.00010614,-0.00006219,0.00012780,0.00003475,0.00000222,-0.00
 002141,0.00006021,-0.00010871,-0.00011934,-0.00024127,-0.00014076,0.00
 014856,0.00027597,0.00186542,0.00054467,0.00114150,-0.00056457,-0.0018
 0375,0.00030924,-0.00006768,0.00128313,-0.00012319,0.00020000,0.000137
 99,0.00031719,0.00002724,-0.00007278,0.00003765,0.00030977,0.00005693,
 -0.00067969,0.00064617,-0.00024023,0.00001114,0.00004748,-0.00019634,0
 .00003491,-0.00002039,-0.00002294,-0.00000808,-0.00004439,-0.00001723,
 -0.00001951,-0.00006038,-0.00003438,0.00017857,-0.00007180,-0.00002969
 ,-0.00000811,-0.00047309,-0.00006062,0.00007988,-0.00023079,-0.0002787
 8,-0.00040421,-0.00016564,-0.00042691,-0.00039499,0.00008671,0.0001971
 2,-0.00020784,-0.00007501,-0.00012277,0.00011067,-0.00009231,-0.000040
 52,0.00029817,-0.00103661,0.00008951,0.00037369,0.00032479,0.00000688,
 -0.00000615,0.00008949,-0.00001770,0.00000241,0.00004712,0.00011598,-0
 .00248401,-0.00070119,0.00046666,0.00138770,0.00016572,-0.00004031,0.0
 0034125,0.00016556,-0.00008696,0.00049037,0.00012325,0.00021306,-0.000
 23723,0.00022669,0.00031188,0.00264104,0.00142075,-0.00026492,-0.00002
 369,-0.00016175,0.00005878,-0.00000859,-0.00005690,-0.00003959,-0.0000
 7633,-0.00004496,-0.00003386,-0.00074319,-0.00004494,-0.00037351,0.000
 15002,0.00019085,0.00028912,-0.00041849,-0.00025491,-0.00030681,-0.000
 41747,-0.00002490,-0.00001589,-0.00118248,-0.00015696,0.00094846,0.006
 38996,-0.00867691,0.00169763,-0.00029541,0.00081063,0.00006924,-0.0001
 6015,0.00251089,-0.00130914,-0.00265336,0.00639518,-0.00480810,-0.0023
 2672,0.00397587,0.00100807,0.00011552,0.00001891,-0.00004684,0.0001108
 2,-0.00002155,-0.00004308,0.00033993,-0.00022176,-0.00057626,-0.000006
 84,-0.00000631,0.00017499,0.00002763,0.00011707,-0.00007811,-0.0000143
 4,0.00024651,-0.00017269,-0.00000773,-0.00011470,0.00006255,0.00011463
 ,-0.00010739,0.00013535,-0.00043975,-0.00017634,0.00007829,-0.00035699
 ,-0.00012740,-0.00035579,0.00012200,-0.00005110,-0.00001412,-0.0004684
 6,-0.00064358,-0.00073094,0.00079259,-0.00030053,-0.00003122,0.0001661
 9,0.00083300,-0.00027944,-0.00966206,-0.00192294,0.00979548,0.00109286
 ,-0.00056419,-0.00130742,0.00068986,0.00061063,0.00003473,-0.16529629,
 -0.09496823,0.09575632,0.01759681,0.01239025,-0.01412944,-0.01303205,-
 0.01210321,0.00975724,0.16683732,-0.00021068,-0.00013152,0.00048150,0.
 00079514,0.00055122,-0.00053876,-0.00102065,-0.00082564,-0.00126603,0.
 00040157,-0.00028721,-0.00057120,-0.00003101,0.00002072,-0.00029097,0.
 00013278,0.00019920,-0.00012658,-0.00001622,-0.00006309,0.00002499,0.0
 0005978,0.00007257,0.00012190,0.00000173,0.00027628,-0.00031664,0.0000
 9553,0.00000211,0.00008445,-0.00000165,0.00002232,0.00000879,0.0000366
 6,0.00016280,0.00036456,0.00041253,0.00071596,0.00067154,-0.00078043,0
 .00282784,0.00142333,-0.00070620,-0.00061006,0.00055985,-0.00004539,0.
 00003005,-0.00003390,-0.00001582,0.00003098,0.00004294,0.00001972,0.00
 000550,-0.00000495,-0.00004814,-0.00001425,0.00014283,0.00000709,-0.00
 002762,-0.00004776,0.00002181,-0.00008542,-0.00012308,-0.00017105,-0.0
 0009221,0.00015773,0.00198466,-0.00035218,-0.00069373,0.00101899,-0.00
 063457,-0.00119372,0.00002164,0.00023288,0.00066467,-0.00009294,0.0001
 8826,0.00006054,0.00045439,0.00008804,-0.00022291,0.00001207,0.0002406
 8,-0.00002583,-0.00061500,0.00054421,-0.00025012,0.00002680,0.00000994
 ,-0.00012295,-0.00000213,0.00001114,-0.00001738,-0.00003521,-0.0000360
 0,0.00002098,-0.00003373,-0.00004440,-0.00002534,0.00013731,-0.0000769
 9,0.00003391,-0.00006181,-0.00032953,0.00008109,0.00004201,-0.00022160
 ,-0.00011480,0.00014854,-0.00034851,-0.00035708,0.00011801,0.00054374,
 -0.00016250,-0.00016329,-0.00009209,-0.00008370,-0.00005288,-0.0001177
 3,0.00005020,-0.00061416,-0.00089543,0.00030400,0.00034732,0.00010618,
 -0.00001738,0.00000373,0.00002925,0.00000684,-0.00000980,0.00004281,0.
 00006932,-0.00189338,-0.00010784,-0.00108411,0.00190679,0.00016726,0.0
 0045086,0.00010916,0.00029580,0.00002373,0.00023968,0.00014812,0.00028
 469,-0.00034070,0.00034961,0.00025735,0.00047093,0.00031746,0.00060617
 ,-0.00013260,-0.00000829,-0.00017202,-0.00002836,-0.00002421,-0.000023
 28,-0.00004182,-0.00005142,-0.00000249,-0.00023371,0.00005557,-0.00029
 647,0.00008601,0.00017175,0.00014196,-0.00017437,-0.00035203,-0.000336
 19,-0.00024774,-0.00013208,-0.00026348,-0.00091963,-0.00011326,0.00048
 837,-0.00005468,-0.00537821,0.00239247,-0.00022218,-0.00000975,-0.0000
 6536,0.00013157,0.00081501,-0.00054191,0.00564252,-0.00852229,-0.00350
 857,0.00088142,0.00609822,-0.00037672,0.00005135,0.00004209,-0.0000120
 9,0.00006993,-0.00001868,0.00005968,0.00039647,-0.00014444,-0.00029292
 ,-0.00006019,-0.00000737,0.00006512,-0.00001303,-0.00002684,-0.0000381
 2,0.00002205,0.00009814,-0.00005471,0.00000497,-0.00005863,0.00004146,
 0.00003146,-0.00005861,0.00005647,-0.00013260,-0.00035465,0.00057336,-
 0.00008995,0.00005443,-0.00021118,-0.00032275,-0.00012500,-0.00006747,
 0.00032860,0.00218253,-0.00168290,-0.00019205,-0.00031993,0.00032482,-
 0.00016988,-0.00100123,0.00087179,0.01468894,0.01963441,-0.01196119,-0
 .00018410,0.00023790,-0.00030172,0.00320962,-0.00378340,-0.00425381,-0
 .09015226,-0.14717930,0.08313344,-0.01603797,-0.01460577,0.01278616,-0
 .00833876,-0.00946886,0.00767969,0.09013957,0.15951515,0.00025791,0.00
 019466,-0.00005492,-0.00053622,-0.00068446,0.00021505,0.00061775,-0.00
 009389,0.00004123,-0.00188866,-0.00114071,0.00143086,0.00019519,-0.000
 10552,-0.00038324,-0.00020489,-0.00016855,-0.00002385,0.00002495,0.000
 06223,-0.00002528,-0.00007468,0.00012204,-0.00002085,-0.00015884,-0.00
 003987,-0.00079801,-0.00003200,0.00002649,0.00001194,0.00001863,-0.000
 01484,-0.00003188,0.00022498,0.00022806,-0.00010752,0.00022126,-0.0010
 6899,-0.00344680,0.00020228,0.00002650,-0.00138144,0.00026075,0.000619
 92,-0.00012630,0.00001779,-0.00009606,-0.00002727,0.00000743,-0.000018
 08,-0.00003401,-0.00001103,-0.00000103,0.00000499,0.00006741,0.0001136
 3,-0.00005258,-0.00001437,-0.00002336,0.00000838,0.00001302,0.00005482
 ,0.00001891,0.00013898,0.00010668,-0.00002348,0.00010509,-0.00093443,0
 .00045290,-0.00091432,0.00049494,0.00087168,0.00016654,-0.00025219,-0.
 00056225,0.00011196,-0.00013125,-0.00014193,-0.00006437,0.00001310,0.0
 0002863,-0.00000250,-0.00022105,0.00006243,0.00065338,-0.00050444,0.00
 021293,-0.00004848,-0.00001040,0.00010695,-0.00001261,-0.00000495,-0.0
 0000793,-0.00002163,0.00003588,0.00001691,0.00000511,0.00003676,0.0000
 1158,-0.00014048,0.00006122,-0.00001234,-0.00003319,0.00030739,-0.0001
 1317,-0.00011630,0.00016495,0.00020292,-0.00032462,0.00021426,0.000441
 20,-0.00002106,-0.00032106,0.00009450,0.00012246,0.00004264,0.00011167
 ,-0.00000747,0.00009524,-0.00001738,0.00009613,0.00062874,-0.00047356,
 -0.00014927,-0.00009311,0.00008552,0.00002745,-0.00004769,0.00001322,0
 .00001764,-0.00003191,-0.00008588,0.00233548,-0.00057176,0.00137336,-0
 .00246398,-0.00019542,-0.00051493,-0.00018391,-0.00010162,-0.00013038,
 -0.00026220,-0.00020939,-0.00033986,0.00036713,0.00009248,-0.00044631,
 -0.00003515,0.00024347,-0.00067639,0.00022142,-0.00004598,0.00024898,-
 0.00002688,-0.00002637,0.00000649,0.00006172,0.00001510,0.00004905,0.0
 0018776,-0.00015086,0.00032093,0.00000358,-0.00030971,-0.00031108,0.00
 017696,0.00027911,0.00036025,0.00037293,0.00003692,0.00030451,0.001297
 89,-0.00003192,-0.00085490,-0.00265295,0.00571957,-0.00238939,0.000155
 73,-0.00073182,0.00024782,-0.00002781,-0.00159483,0.00077605,-0.004413
 77,-0.00301695,-0.00031506,0.00145998,-0.00289280,-0.00137439,-0.00005
 998,-0.00002378,-0.00001776,-0.00010492,0.00002727,-0.00003911,-0.0004
 9114,0.00039862,0.00062452,0.00005769,-0.00002358,-0.00013408,-0.00001
 754,-0.00004943,0.00005461,-0.00000511,-0.00024111,0.00008398,0.000037
 14,0.00007001,-0.00005864,-0.00009001,0.00010030,-0.00011105,0.0000941
 4,0.00045419,-0.00018946,-0.00005623,-0.00012292,0.00026109,0.00008982
 ,-0.00003129,-0.00014332,-0.00091832,-0.00010697,0.00206584,-0.0005704
 9,0.00043677,-0.00031917,0.00021640,-0.00032345,0.00053264,0.01413918,
 0.00725715,-0.01436719,-0.00054530,0.00078806,-0.00013953,0.00052762,-
 0.00210705,-0.00085590,0.09066375,0.08280144,-0.14630846,0.00956100,0.
 01074376,-0.00919933,-0.01207923,-0.01073801,0.02144540,-0.09581948,-0
 .08345954,0.15398766\\0.00000522,0.00000391,0.00001582,-0.00000599,-0.
 00001474,-0.00001968,-0.00000264,0.00000610,0.00000504,-0.00000224,0.0
 0000565,0.00001935,0.00000152,-0.00000139,-0.00000801,-0.00000842,0.00
 000063,0.00000189,0.00000024,-0.00000035,0.00000369,0.00000015,-0.0000
 0055,0.00000219,-0.00000062,0.00000116,0.00000121,-0.00000225,0.000000
 64,0.00000462,-0.00000111,-0.00000021,0.00000185,0.00000102,-0.0000069
 3,0.00000305,0.00000838,0.00000196,-0.00002296,0.00000664,0.00000749,-
 0.00000015,0.00000194,0.00000269,0.00000094,-0.00000619,-0.00000799,0.
 00000072,-0.00000329,-0.00000143,0.00000185,-0.00000453,-0.00000251,0.
 00000357,-0.00000577,-0.00000071,0.00000040,-0.00000226,0.00000092,0.0
 0001000,-0.00000517,0.00000163,0.00000747,0.00000134,-0.00000082,0.000
 01405,0.00000473,-0.00000564,-0.00000061,-0.00000459,-0.00000012,-0.00
 000525,-0.00000678,0.00000782,0.00000391,-0.00000332,-0.00000272,-0.00
 000740,-0.00000623,-0.00000251,-0.00000067,0.00000129,0.00000467,-0.00
 000656,0.00000266,-0.00000183,-0.00000501,0.00000028,-0.00000232,-0.00
 000733,-0.00000568,-0.00000142,-0.00000255,-0.00000234,-0.00000322,-0.
 00000139,-0.00000072,-0.00000233,-0.00000281,0.00000064,-0.00000149,-0
 .00000674,-0.00000230,0.00000245,-0.00000408,-0.00000315,-0.00000222,-
 0.00000134,0.00000963,-0.00000394,-0.00000772,-0.00000889,-0.00000156,
 -0.00000733,0.00000337,0.00000121,-0.00000525,0.00000455,-0.00000053,-
 0.00000525,0.00001020,0.00000206,0.00000504,0.00000009,-0.00000163,-0.
 00000516,-0.00000137,-0.00000670,0.00000185,-0.00000466,-0.00000401,-0
 .00000509,0.00001361,-0.00000008,-0.00000295,-0.00002166,-0.00000277,0
 .00000445,0.00000219,0.00000122,-0.00000142,-0.00000344,-0.00000879,-0
 .00000618,-0.00001176,-0.00000124,0.00000457,-0.00000897,-0.00000752,0
 .00000434,0.00000150,0.00000221,-0.00000113,-0.00000223,-0.00000300,0.
 00000180,0.00000012,0.00000077,-0.00000105,0.00000330,0.00000370,-0.00
 000403,0.00000176,-0.00000277,-0.00000258,-0.00000161,0.00000307,0.000
 00264,-0.00000390,-0.00000396,0.00000308,0.00000843,0.00000639,-0.0000
 0955,-0.00000135,-0.00000988,-0.00000406,0.00000194,0.00000246,-0.0000
 0252,0.00000154,0.00000148,-0.00000614,0.00001064,0.00001276,0.0000011
 3,-0.00000176,-0.00000518,0.00000097,-0.00000579,-0.00000387,0.0000017
 3,-0.00000152,0.00000030,0.00000065,0.00000501,-0.00000094,0.00000692,
 0.00000094,0.00000140,0.00000177,0.00000282,0.00000188,-0.00000068,0.0
 0000353,0.00000189,0.00000359,0.00000289,0.00000329,0.00000263,0.00000
 140,0.00000212,0.00000350,0.00000290,0.00000291,0.00000335,0.00000166,
 0.00000087,0.00000194,0.00000368,0.00000175,0.00000396,0.00000417,0.00
 000475,0.00000103,0.00000469,0.00000300,0.00000126,0.00000423,0.000002
 49,-0.00000073,0.00000649,0.00000081,0.00000113,0.00000564,0.00000419,
 0.00000031,0.00000457,0.00000391,0.00000287,0.00000547,-0.00001440,-0.
 00000214,0.00000797,0.00000297,-0.00000940,-0.00001825,0.00001498,0.00
 001801,0.00000575,0.00000765,0.00000676\\\@


 MY GROUP MEETINGS AREN'T VERY STRUCTURED.
     -- PROF. M. S. GORDON, OCT. 5, 1984
 Job cpu time:      21 days  7 hours 24 minutes 40.2 seconds.
 File lengths (MBytes):  RWF=  17226 Int=      0 D2E=      0 Chk=     99 Scr=      1
 Normal termination of Gaussian 09 at Fri Apr 29 17:26:14 2016.
