 Entering Gaussian System, Link 0=g09
 Initial command:
 /share/apps//g09/l1.exe "/scratch/Gau-41350.inp" -scrdir="/scratch/"
 Entering Link 1 = /share/apps//g09/l1.exe PID=     41351.
  
 Copyright (c) 1988,1990,1992,1993,1995,1998,2003,2009,2013,
            Gaussian, Inc.  All Rights Reserved.
  
 This is part of the Gaussian(R) 09 program.  It is based on
 the Gaussian(R) 03 system (copyright 2003, Gaussian, Inc.),
 the Gaussian(R) 98 system (copyright 1998, Gaussian, Inc.),
 the Gaussian(R) 94 system (copyright 1995, Gaussian, Inc.),
 the Gaussian 92(TM) system (copyright 1992, Gaussian, Inc.),
 the Gaussian 90(TM) system (copyright 1990, Gaussian, Inc.),
 the Gaussian 88(TM) system (copyright 1988, Gaussian, Inc.),
 the Gaussian 86(TM) system (copyright 1986, Carnegie Mellon
 University), and the Gaussian 82(TM) system (copyright 1983,
 Carnegie Mellon University). Gaussian is a federally registered
 trademark of Gaussian, Inc.
  
 This software contains proprietary and confidential information,
 including trade secrets, belonging to Gaussian, Inc.
  
 This software is provided under written license and may be
 used, copied, transmitted, or stored only in accord with that
 written license.
  
 The following legend is applicable only to US Government
 contracts under FAR:
  
                    RESTRICTED RIGHTS LEGEND
  
 Use, reproduction and disclosure by the US Government is
 subject to restrictions as set forth in subparagraphs (a)
 and (c) of the Commercial Computer Software - Restricted
 Rights clause in FAR 52.227-19.
  
 Gaussian, Inc.
 340 Quinnipiac St., Bldg. 40, Wallingford CT 06492
  
  
 ---------------------------------------------------------------
 Warning -- This program may not be used in any manner that
 competes with the business of Gaussian, Inc. or will provide
 assistance to any competitor of Gaussian, Inc.  The licensee
 of this program is prohibited from giving any competitor of
 Gaussian, Inc. access to this program.  By using this program,
 the user acknowledges that Gaussian, Inc. is engaged in the
 business of creating and licensing software in the field of
 computational chemistry and represents and warrants to the
 licensee that it is not a competitor of Gaussian, Inc. and that
 it will not use this program in any manner prohibited above.
 ---------------------------------------------------------------
  

 Cite this work as:
 Gaussian 09, Revision D.01,
 M. J. Frisch, G. W. Trucks, H. B. Schlegel, G. E. Scuseria, 
 M. A. Robb, J. R. Cheeseman, G. Scalmani, V. Barone, B. Mennucci, 
 G. A. Petersson, H. Nakatsuji, M. Caricato, X. Li, H. P. Hratchian, 
 A. F. Izmaylov, J. Bloino, G. Zheng, J. L. Sonnenberg, M. Hada, 
 M. Ehara, K. Toyota, R. Fukuda, J. Hasegawa, M. Ishida, T. Nakajima, 
 Y. Honda, O. Kitao, H. Nakai, T. Vreven, J. A. Montgomery, Jr., 
 J. E. Peralta, F. Ogliaro, M. Bearpark, J. J. Heyd, E. Brothers, 
 K. N. Kudin, V. N. Staroverov, T. Keith, R. Kobayashi, J. Normand, 
 K. Raghavachari, A. Rendell, J. C. Burant, S. S. Iyengar, J. Tomasi, 
 M. Cossi, N. Rega, J. M. Millam, M. Klene, J. E. Knox, J. B. Cross, 
 V. Bakken, C. Adamo, J. Jaramillo, R. Gomperts, R. E. Stratmann, 
 O. Yazyev, A. J. Austin, R. Cammi, C. Pomelli, J. W. Ochterski, 
 R. L. Martin, K. Morokuma, V. G. Zakrzewski, G. A. Voth, 
 P. Salvador, J. J. Dannenberg, S. Dapprich, A. D. Daniels, 
 O. Farkas, J. B. Foresman, J. V. Ortiz, J. Cioslowski, 
 and D. J. Fox, Gaussian, Inc., Wallingford CT, 2013.
 
 ******************************************
 Gaussian 09:  EM64L-G09RevD.01 24-Apr-2013
                24-Mar-2016 
 ******************************************
 %nproc=20
 Will use up to   20 processors via shared memory.
 %mem=80GB
 %chk=Tri_A154_of.chk
 -------------------------------------------------------------------
 #P PBE1PBE/6-311+G(d,p) opt optcyc=999 freq EmpiricalDispersion=GD3
 -------------------------------------------------------------------
 1/6=999,14=-1,18=20,19=15,26=3,38=1/1,3;
 2/9=110,12=2,17=6,18=5,40=1/2;
 3/5=4,6=6,7=111,11=2,16=1,25=1,30=1,71=1,74=-13,124=31/1,2,3;
 4//1;
 5/5=2,38=5/2;
 6/7=2,8=2,9=2,10=2,28=1/1;
 7//1,2,3,16;
 1/6=999,14=-1,18=20,19=15,26=3/3(2);
 2/9=110/2;
 99//99;
 2/9=110/2;
 3/5=4,6=6,7=111,11=2,16=1,25=1,30=1,71=1,74=-13,124=31/1,2,3;
 4/5=5,16=3,69=1/1;
 5/5=2,38=5/2;
 7//1,2,3,16;
 1/6=999,14=-1,18=20,19=15,26=3/3(-5);
 2/9=110/2;
 6/7=2,8=2,9=2,10=2,19=2,28=1/1;
 99/9=1/99;
 Leave Link    1 at Thu Mar 24 12:50:02 2016, MaxMem= 10737418240 cpu:         2.3
 (Enter /share/apps//g09/l101.exe)
 -------
 disacch
 -------
 Symbolic Z-matrix:
 Charge =  1 Multiplicity = 1
 O                    -1.98995  -0.90469  -2.44654 
 C                    -0.7635   -0.4529   -2.99387 
 C                     0.36964  -1.40423  -2.6449 
 C                     0.02631  -2.83393  -3.01597 
 C                    -1.32296  -3.23175  -2.44574 
 C                    -2.36395  -2.21036  -2.85669 
 C                    -3.74092  -2.4749   -2.2825 
 O                    -4.14089  -3.73085  -2.76094 
 O                    -1.24361  -3.31636  -1.02875 
 O                     0.97314  -3.73589  -2.49495 
 O                     1.54665  -1.06173  -3.3104 
 O                    -0.50294   0.75422  -2.3869 
 C                    -0.5189    1.97031  -3.11614 
 C                     0.83243   2.62573  -2.92542 
 O                     1.83954   1.7935   -3.46103 
 C                     1.0612    2.83511  -1.44565 
 C                    -0.09497   3.57972  -0.77232 
 O                    -1.35703   3.08737  -1.16268 
 C                    -1.56674   2.91598  -2.54298 
 C                    -3.0154    2.49395  -2.72783 
 O                    -3.41195   1.3943   -1.94069 
 O                    -0.03959   3.50508   0.61797 
 C                    -0.05588   2.21264   1.185 
 C                     1.22439   1.97372   1.96705 
 C                     1.18218   0.59232   2.58367 
 C                    -0.04503   0.43465   3.4597 
 O                    -1.20982   0.79836   2.76803 
 C                    -1.24375   2.07229   2.14034 
 C                    -2.58821   2.12256   1.45323 
 O                    -2.74438   1.01032   0.59699 
 O                    -0.16594  -0.91198   3.76207 
 C                    -0.96159  -1.18241   4.91847 
 C                    -1.13761  -2.67646   5.07601 
 C                    -2.21507  -3.35846   4.24026 
 C                    -2.05335  -3.2977    2.72655 
 C                    -2.61064  -2.02195   2.09938 
 N                    -1.70124  -1.44234   1.08073 
 O                     2.37109   0.41824   3.30527 
 O                     2.34862   2.08122   1.12337 
 O                     2.26831   3.5252   -1.28509 
 H                    -0.85532  -0.34902  -4.08549 
 H                     0.49406  -1.34737  -1.55164 
 H                    -0.01949  -2.90686  -4.1112 
 H                    -1.62427  -4.20098  -2.85321 
 H                    -2.44244  -2.25322  -3.9517 
 H                    -4.41212  -1.67136  -2.61023 
 H                    -3.69142  -2.44979  -1.18565 
 H                    -5.05237  -3.89066  -2.51509 
 H                    -0.45024  -3.83423  -0.8461 
 H                     1.84804  -3.44097  -2.76044 
 H                     1.70448  -0.10634  -3.23225 
 H                    -0.70197   1.78245  -4.17825 
 H                     0.83429   3.59063  -3.4453 
 H                     2.6832    2.171    -3.19132 
 H                     1.13768   1.83878  -1.00835 
 H                    -0.01328   4.6474   -1.00167 
 H                    -1.45689   3.87433  -3.07482 
 H                    -3.65242   3.32693  -2.43161 
 H                    -3.19569   2.2999   -3.7908 
 H                    -2.98699   0.58232  -2.25466 
 H                    -0.16859   1.45028   0.409 
 H                     1.29023   2.72131   2.76948 
 H                     1.1168   -0.14083   1.76497 
 H                     0.0718    1.0367    4.37655 
 H                    -1.19946   2.87355   2.8885 
 H                    -3.36581   2.09625   2.22043 
 H                    -2.67283   3.05514   0.89743 
 H                    -2.95584   1.29767  -0.31562 
 H                    -1.92961  -0.66944   4.83196 
 H                    -0.44083  -0.77207   5.79307 
 H                    -1.37242  -2.85471   6.12695 
 H                    -0.1708   -3.155     4.89696 
 H                    -3.19561  -2.95759   4.51032 
 H                    -2.24021  -4.41006   4.53879 
 H                    -2.55547  -4.15365   2.28656 
 H                    -1.00001  -3.40571   2.46972 
 H                    -3.56888  -2.19849   1.61176 
 H                    -2.75244  -1.2389    2.84096 
 H                    -0.80397  -1.28385   1.53661 
 H                    -2.06261  -0.49571   0.79438 
 H                    -1.56673  -2.05896   0.25925 
 H                     2.41094  -0.47964   3.6364 
 H                     3.1101    1.78345   1.63132 
 H                     2.58071   3.31436  -0.39606 
 
 NAtoms=     84 NQM=       84 NQMF=       0 NMMI=      0 NMMIF=      0
                NMic=       0 NMicF=      0.
                    Isotopes and Nuclear Properties:
 (Nuclear quadrupole moments (NQMom) in fm**2, nuclear magnetic moments (NMagM)
  in nuclear magnetons)

  Atom         1           2           3           4           5           6           7           8           9          10
 IAtWgt=          16          12          12          12          12          12          12          16          16          16
 AtmWgt=  15.9949146  12.0000000  12.0000000  12.0000000  12.0000000  12.0000000  12.0000000  15.9949146  15.9949146  15.9949146
 NucSpn=           0           0           0           0           0           0           0           0           0           0
 AtZEff=   0.0000000   0.0000000   0.0000000   0.0000000   0.0000000   0.0000000   0.0000000   0.0000000   0.0000000   0.0000000
 NQMom=    0.0000000   0.0000000   0.0000000   0.0000000   0.0000000   0.0000000   0.0000000   0.0000000   0.0000000   0.0000000
 NMagM=    0.0000000   0.0000000   0.0000000   0.0000000   0.0000000   0.0000000   0.0000000   0.0000000   0.0000000   0.0000000
 AtZNuc=   8.0000000   6.0000000   6.0000000   6.0000000   6.0000000   6.0000000   6.0000000   8.0000000   8.0000000   8.0000000

  Atom        11          12          13          14          15          16          17          18          19          20
 IAtWgt=          16          16          12          12          16          12          12          16          12          12
 AtmWgt=  15.9949146  15.9949146  12.0000000  12.0000000  15.9949146  12.0000000  12.0000000  15.9949146  12.0000000  12.0000000
 NucSpn=           0           0           0           0           0           0           0           0           0           0
 AtZEff=   0.0000000   0.0000000   0.0000000   0.0000000   0.0000000   0.0000000   0.0000000   0.0000000   0.0000000   0.0000000
 NQMom=    0.0000000   0.0000000   0.0000000   0.0000000   0.0000000   0.0000000   0.0000000   0.0000000   0.0000000   0.0000000
 NMagM=    0.0000000   0.0000000   0.0000000   0.0000000   0.0000000   0.0000000   0.0000000   0.0000000   0.0000000   0.0000000
 AtZNuc=   8.0000000   8.0000000   6.0000000   6.0000000   8.0000000   6.0000000   6.0000000   8.0000000   6.0000000   6.0000000

  Atom        21          22          23          24          25          26          27          28          29          30
 IAtWgt=          16          16          12          12          12          12          16          12          12          16
 AtmWgt=  15.9949146  15.9949146  12.0000000  12.0000000  12.0000000  12.0000000  15.9949146  12.0000000  12.0000000  15.9949146
 NucSpn=           0           0           0           0           0           0           0           0           0           0
 AtZEff=   0.0000000   0.0000000   0.0000000   0.0000000   0.0000000   0.0000000   0.0000000   0.0000000   0.0000000   0.0000000
 NQMom=    0.0000000   0.0000000   0.0000000   0.0000000   0.0000000   0.0000000   0.0000000   0.0000000   0.0000000   0.0000000
 NMagM=    0.0000000   0.0000000   0.0000000   0.0000000   0.0000000   0.0000000   0.0000000   0.0000000   0.0000000   0.0000000
 AtZNuc=   8.0000000   8.0000000   6.0000000   6.0000000   6.0000000   6.0000000   8.0000000   6.0000000   6.0000000   8.0000000

  Atom        31          32          33          34          35          36          37          38          39          40
 IAtWgt=          16          12          12          12          12          12          14          16          16          16
 AtmWgt=  15.9949146  12.0000000  12.0000000  12.0000000  12.0000000  12.0000000  14.0030740  15.9949146  15.9949146  15.9949146
 NucSpn=           0           0           0           0           0           0           2           0           0           0
 AtZEff=   0.0000000   0.0000000   0.0000000   0.0000000   0.0000000   0.0000000   0.0000000   0.0000000   0.0000000   0.0000000
 NQMom=    0.0000000   0.0000000   0.0000000   0.0000000   0.0000000   0.0000000   2.0440000   0.0000000   0.0000000   0.0000000
 NMagM=    0.0000000   0.0000000   0.0000000   0.0000000   0.0000000   0.0000000   0.4037610   0.0000000   0.0000000   0.0000000
 AtZNuc=   8.0000000   6.0000000   6.0000000   6.0000000   6.0000000   6.0000000   7.0000000   8.0000000   8.0000000   8.0000000

  Atom        41          42          43          44          45          46          47          48          49          50
 IAtWgt=           1           1           1           1           1           1           1           1           1           1
 AtmWgt=   1.0078250   1.0078250   1.0078250   1.0078250   1.0078250   1.0078250   1.0078250   1.0078250   1.0078250   1.0078250
 NucSpn=           1           1           1           1           1           1           1           1           1           1
 AtZEff=   0.0000000   0.0000000   0.0000000   0.0000000   0.0000000   0.0000000   0.0000000   0.0000000   0.0000000   0.0000000
 NQMom=    0.0000000   0.0000000   0.0000000   0.0000000   0.0000000   0.0000000   0.0000000   0.0000000   0.0000000   0.0000000
 NMagM=    2.7928460   2.7928460   2.7928460   2.7928460   2.7928460   2.7928460   2.7928460   2.7928460   2.7928460   2.7928460
 AtZNuc=   1.0000000   1.0000000   1.0000000   1.0000000   1.0000000   1.0000000   1.0000000   1.0000000   1.0000000   1.0000000

  Atom        51          52          53          54          55          56          57          58          59          60
 IAtWgt=           1           1           1           1           1           1           1           1           1           1
 AtmWgt=   1.0078250   1.0078250   1.0078250   1.0078250   1.0078250   1.0078250   1.0078250   1.0078250   1.0078250   1.0078250
 NucSpn=           1           1           1           1           1           1           1           1           1           1
 AtZEff=   0.0000000   0.0000000   0.0000000   0.0000000   0.0000000   0.0000000   0.0000000   0.0000000   0.0000000   0.0000000
 NQMom=    0.0000000   0.0000000   0.0000000   0.0000000   0.0000000   0.0000000   0.0000000   0.0000000   0.0000000   0.0000000
 NMagM=    2.7928460   2.7928460   2.7928460   2.7928460   2.7928460   2.7928460   2.7928460   2.7928460   2.7928460   2.7928460
 AtZNuc=   1.0000000   1.0000000   1.0000000   1.0000000   1.0000000   1.0000000   1.0000000   1.0000000   1.0000000   1.0000000

  Atom        61          62          63          64          65          66          67          68          69          70
 IAtWgt=           1           1           1           1           1           1           1           1           1           1
 AtmWgt=   1.0078250   1.0078250   1.0078250   1.0078250   1.0078250   1.0078250   1.0078250   1.0078250   1.0078250   1.0078250
 NucSpn=           1           1           1           1           1           1           1           1           1           1
 AtZEff=   0.0000000   0.0000000   0.0000000   0.0000000   0.0000000   0.0000000   0.0000000   0.0000000   0.0000000   0.0000000
 NQMom=    0.0000000   0.0000000   0.0000000   0.0000000   0.0000000   0.0000000   0.0000000   0.0000000   0.0000000   0.0000000
 NMagM=    2.7928460   2.7928460   2.7928460   2.7928460   2.7928460   2.7928460   2.7928460   2.7928460   2.7928460   2.7928460
 AtZNuc=   1.0000000   1.0000000   1.0000000   1.0000000   1.0000000   1.0000000   1.0000000   1.0000000   1.0000000   1.0000000

  Atom        71          72          73          74          75          76          77          78          79          80
 IAtWgt=           1           1           1           1           1           1           1           1           1           1
 AtmWgt=   1.0078250   1.0078250   1.0078250   1.0078250   1.0078250   1.0078250   1.0078250   1.0078250   1.0078250   1.0078250
 NucSpn=           1           1           1           1           1           1           1           1           1           1
 AtZEff=   0.0000000   0.0000000   0.0000000   0.0000000   0.0000000   0.0000000   0.0000000   0.0000000   0.0000000   0.0000000
 NQMom=    0.0000000   0.0000000   0.0000000   0.0000000   0.0000000   0.0000000   0.0000000   0.0000000   0.0000000   0.0000000
 NMagM=    2.7928460   2.7928460   2.7928460   2.7928460   2.7928460   2.7928460   2.7928460   2.7928460   2.7928460   2.7928460
 AtZNuc=   1.0000000   1.0000000   1.0000000   1.0000000   1.0000000   1.0000000   1.0000000   1.0000000   1.0000000   1.0000000

  Atom        81          82          83          84
 IAtWgt=           1           1           1           1
 AtmWgt=   1.0078250   1.0078250   1.0078250   1.0078250
 NucSpn=           1           1           1           1
 AtZEff=   0.0000000   0.0000000   0.0000000   0.0000000
 NQMom=    0.0000000   0.0000000   0.0000000   0.0000000
 NMagM=    2.7928460   2.7928460   2.7928460   2.7928460
 AtZNuc=   1.0000000   1.0000000   1.0000000   1.0000000
 Leave Link  101 at Thu Mar 24 12:50:03 2016, MaxMem= 10737418240 cpu:         3.9
 (Enter /share/apps//g09/l103.exe)

 GradGradGradGradGradGradGradGradGradGradGradGradGradGradGradGradGradGrad
 Berny optimization.
 Initialization pass.
                           ----------------------------
                           !    Initial Parameters    !
                           ! (Angstroms and Degrees)  !
 --------------------------                            --------------------------
 ! Name  Definition              Value          Derivative Info.                !
 --------------------------------------------------------------------------------
 ! R1    R(1,2)                  1.417          estimate D2E/DX2                !
 ! R2    R(1,6)                  1.4188         estimate D2E/DX2                !
 ! R3    R(2,3)                  1.5201         estimate D2E/DX2                !
 ! R4    R(2,12)                 1.376          estimate D2E/DX2                !
 ! R5    R(2,41)                 1.1004         estimate D2E/DX2                !
 ! R6    R(3,4)                  1.5164         estimate D2E/DX2                !
 ! R7    R(3,11)                 1.3948         estimate D2E/DX2                !
 ! R8    R(3,42)                 1.1018         estimate D2E/DX2                !
 ! R9    R(4,5)                  1.5179         estimate D2E/DX2                !
 ! R10   R(4,10)                 1.4077         estimate D2E/DX2                !
 ! R11   R(4,43)                 1.0986         estimate D2E/DX2                !
 ! R12   R(5,6)                  1.5152         estimate D2E/DX2                !
 ! R13   R(5,9)                  1.4217         estimate D2E/DX2                !
 ! R14   R(5,44)                 1.0937         estimate D2E/DX2                !
 ! R15   R(6,7)                  1.5152         estimate D2E/DX2                !
 ! R16   R(6,45)                 1.0987         estimate D2E/DX2                !
 ! R17   R(7,8)                  1.4022         estimate D2E/DX2                !
 ! R18   R(7,46)                 1.0971         estimate D2E/DX2                !
 ! R19   R(7,47)                 1.0983         estimate D2E/DX2                !
 ! R20   R(8,48)                 0.9575         estimate D2E/DX2                !
 ! R21   R(9,49)                 0.9649         estimate D2E/DX2                !
 ! R22   R(10,50)                0.9607         estimate D2E/DX2                !
 ! R23   R(11,51)                0.9715         estimate D2E/DX2                !
 ! R24   R(12,13)                1.4181         estimate D2E/DX2                !
 ! R25   R(13,14)                1.5139         estimate D2E/DX2                !
 ! R26   R(13,19)                1.5234         estimate D2E/DX2                !
 ! R27   R(13,52)                1.094          estimate D2E/DX2                !
 ! R28   R(14,15)                1.412          estimate D2E/DX2                !
 ! R29   R(14,16)                1.5119         estimate D2E/DX2                !
 ! R30   R(14,53)                1.096          estimate D2E/DX2                !
 ! R31   R(15,54)                0.9628         estimate D2E/DX2                !
 ! R32   R(16,17)                1.5312         estimate D2E/DX2                !
 ! R33   R(16,40)                1.3997         estimate D2E/DX2                !
 ! R34   R(16,55)                1.0908         estimate D2E/DX2                !
 ! R35   R(17,18)                1.4098         estimate D2E/DX2                !
 ! R36   R(17,22)                1.3934         estimate D2E/DX2                !
 ! R37   R(17,56)                1.0951         estimate D2E/DX2                !
 ! R38   R(18,19)                1.4066         estimate D2E/DX2                !
 ! R39   R(19,20)                1.5202         estimate D2E/DX2                !
 ! R40   R(19,57)                1.1015         estimate D2E/DX2                !
 ! R41   R(20,21)                1.4093         estimate D2E/DX2                !
 ! R42   R(20,58)                1.0897         estimate D2E/DX2                !
 ! R43   R(20,59)                1.0955         estimate D2E/DX2                !
 ! R44   R(21,60)                0.9688         estimate D2E/DX2                !
 ! R45   R(22,23)                1.4114         estimate D2E/DX2                !
 ! R46   R(23,24)                1.5191         estimate D2E/DX2                !
 ! R47   R(23,28)                1.5308         estimate D2E/DX2                !
 ! R48   R(23,61)                1.0937         estimate D2E/DX2                !
 ! R49   R(24,25)                1.5134         estimate D2E/DX2                !
 ! R50   R(24,39)                1.4097         estimate D2E/DX2                !
 ! R51   R(24,62)                1.0987         estimate D2E/DX2                !
 ! R52   R(25,26)                1.516          estimate D2E/DX2                !
 ! R53   R(25,38)                1.4016         estimate D2E/DX2                !
 ! R54   R(25,63)                1.1009         estimate D2E/DX2                !
 ! R55   R(26,27)                1.4027         estimate D2E/DX2                !
 ! R56   R(26,31)                1.3854         estimate D2E/DX2                !
 ! R57   R(26,64)                1.1031         estimate D2E/DX2                !
 ! R58   R(27,28)                1.4206         estimate D2E/DX2                !
 ! R59   R(28,29)                1.5107         estimate D2E/DX2                !
 ! R60   R(28,65)                1.0971         estimate D2E/DX2                !
 ! R61   R(29,30)                1.4123         estimate D2E/DX2                !
 ! R62   R(29,66)                1.0927         estimate D2E/DX2                !
 ! R63   R(29,67)                1.0889         estimate D2E/DX2                !
 ! R64   R(30,68)                0.9799         estimate D2E/DX2                !
 ! R65   R(31,32)                1.4295         estimate D2E/DX2                !
 ! R66   R(32,33)                1.5126         estimate D2E/DX2                !
 ! R67   R(32,69)                1.0989         estimate D2E/DX2                !
 ! R68   R(32,70)                1.0975         estimate D2E/DX2                !
 ! R69   R(33,34)                1.5246         estimate D2E/DX2                !
 ! R70   R(33,71)                1.0915         estimate D2E/DX2                !
 ! R71   R(33,72)                1.0935         estimate D2E/DX2                !
 ! R72   R(34,35)                1.5235         estimate D2E/DX2                !
 ! R73   R(34,73)                1.0932         estimate D2E/DX2                !
 ! R74   R(34,74)                1.0934         estimate D2E/DX2                !
 ! R75   R(35,36)                1.5269         estimate D2E/DX2                !
 ! R76   R(35,75)                1.0855         estimate D2E/DX2                !
 ! R77   R(35,76)                1.0896         estimate D2E/DX2                !
 ! R78   R(36,37)                1.4834         estimate D2E/DX2                !
 ! R79   R(36,77)                1.0896         estimate D2E/DX2                !
 ! R80   R(36,78)                1.0878         estimate D2E/DX2                !
 ! R81   R(37,79)                1.0188         estimate D2E/DX2                !
 ! R82   R(37,80)                1.0529         estimate D2E/DX2                !
 ! R83   R(37,81)                1.0359         estimate D2E/DX2                !
 ! R84   R(38,82)                0.9578         estimate D2E/DX2                !
 ! R85   R(39,83)                0.9626         estimate D2E/DX2                !
 ! R86   R(40,84)                0.9656         estimate D2E/DX2                !
 ! A1    A(2,1,6)              114.1999         estimate D2E/DX2                !
 ! A2    A(1,2,3)              110.9147         estimate D2E/DX2                !
 ! A3    A(1,2,12)             105.8556         estimate D2E/DX2                !
 ! A4    A(1,2,41)             109.9415         estimate D2E/DX2                !
 ! A5    A(3,2,12)             107.8537         estimate D2E/DX2                !
 ! A6    A(3,2,41)             110.4271         estimate D2E/DX2                !
 ! A7    A(12,2,41)            111.751          estimate D2E/DX2                !
 ! A8    A(2,3,4)              111.4125         estimate D2E/DX2                !
 ! A9    A(2,3,11)             111.4577         estimate D2E/DX2                !
 ! A10   A(2,3,42)             106.2405         estimate D2E/DX2                !
 ! A11   A(4,3,11)             107.8064         estimate D2E/DX2                !
 ! A12   A(4,3,42)             108.4831         estimate D2E/DX2                !
 ! A13   A(11,3,42)            111.4362         estimate D2E/DX2                !
 ! A14   A(3,4,5)              110.8808         estimate D2E/DX2                !
 ! A15   A(3,4,10)             111.1766         estimate D2E/DX2                !
 ! A16   A(3,4,43)             108.4193         estimate D2E/DX2                !
 ! A17   A(5,4,10)             106.9136         estimate D2E/DX2                !
 ! A18   A(5,4,43)             108.6667         estimate D2E/DX2                !
 ! A19   A(10,4,43)            110.7629         estimate D2E/DX2                !
 ! A20   A(4,5,6)              109.3996         estimate D2E/DX2                !
 ! A21   A(4,5,9)              109.9018         estimate D2E/DX2                !
 ! A22   A(4,5,44)             109.7056         estimate D2E/DX2                !
 ! A23   A(6,5,9)              110.4127         estimate D2E/DX2                !
 ! A24   A(6,5,44)             107.882          estimate D2E/DX2                !
 ! A25   A(9,5,44)             109.5087         estimate D2E/DX2                !
 ! A26   A(1,6,5)              111.1526         estimate D2E/DX2                !
 ! A27   A(1,6,7)              106.8993         estimate D2E/DX2                !
 ! A28   A(1,6,45)             110.0516         estimate D2E/DX2                !
 ! A29   A(5,6,7)              113.8221         estimate D2E/DX2                !
 ! A30   A(5,6,45)             107.0441         estimate D2E/DX2                !
 ! A31   A(7,6,45)             107.8164         estimate D2E/DX2                !
 ! A32   A(6,7,8)              106.6365         estimate D2E/DX2                !
 ! A33   A(6,7,46)             108.3558         estimate D2E/DX2                !
 ! A34   A(6,7,47)             109.4829         estimate D2E/DX2                !
 ! A35   A(8,7,46)             112.308          estimate D2E/DX2                !
 ! A36   A(8,7,47)             111.9683         estimate D2E/DX2                !
 ! A37   A(46,7,47)            108.0095         estimate D2E/DX2                !
 ! A38   A(7,8,48)             109.4762         estimate D2E/DX2                !
 ! A39   A(5,9,49)             105.4562         estimate D2E/DX2                !
 ! A40   A(4,10,50)            108.2748         estimate D2E/DX2                !
 ! A41   A(3,11,51)            109.8885         estimate D2E/DX2                !
 ! A42   A(2,12,13)            121.5562         estimate D2E/DX2                !
 ! A43   A(12,13,14)           107.2433         estimate D2E/DX2                !
 ! A44   A(12,13,19)           110.2799         estimate D2E/DX2                !
 ! A45   A(12,13,52)           110.7245         estimate D2E/DX2                !
 ! A46   A(14,13,19)           107.326          estimate D2E/DX2                !
 ! A47   A(14,13,52)           110.243          estimate D2E/DX2                !
 ! A48   A(19,13,52)           110.9011         estimate D2E/DX2                !
 ! A49   A(13,14,15)           109.4928         estimate D2E/DX2                !
 ! A50   A(13,14,16)           108.5607         estimate D2E/DX2                !
 ! A51   A(13,14,53)           108.8374         estimate D2E/DX2                !
 ! A52   A(15,14,16)           110.1794         estimate D2E/DX2                !
 ! A53   A(15,14,53)           109.7393         estimate D2E/DX2                !
 ! A54   A(16,14,53)           110.0028         estimate D2E/DX2                !
 ! A55   A(14,15,54)           106.7161         estimate D2E/DX2                !
 ! A56   A(14,16,17)           112.5498         estimate D2E/DX2                !
 ! A57   A(14,16,40)           108.1221         estimate D2E/DX2                !
 ! A58   A(14,16,55)           106.0515         estimate D2E/DX2                !
 ! A59   A(17,16,40)           111.161          estimate D2E/DX2                !
 ! A60   A(17,16,55)           108.7137         estimate D2E/DX2                !
 ! A61   A(40,16,55)           110.1141         estimate D2E/DX2                !
 ! A62   A(16,17,18)           112.6037         estimate D2E/DX2                !
 ! A63   A(16,17,22)           112.5012         estimate D2E/DX2                !
 ! A64   A(16,17,56)           109.008          estimate D2E/DX2                !
 ! A65   A(18,17,22)           107.0462         estimate D2E/DX2                !
 ! A66   A(18,17,56)           110.4432         estimate D2E/DX2                !
 ! A67   A(22,17,56)           104.9651         estimate D2E/DX2                !
 ! A68   A(17,18,19)           116.5975         estimate D2E/DX2                !
 ! A69   A(13,19,18)           110.0162         estimate D2E/DX2                !
 ! A70   A(13,19,20)           115.9373         estimate D2E/DX2                !
 ! A71   A(13,19,57)           106.8475         estimate D2E/DX2                !
 ! A72   A(18,19,20)           107.1711         estimate D2E/DX2                !
 ! A73   A(18,19,57)           110.6655         estimate D2E/DX2                !
 ! A74   A(20,19,57)           106.1326         estimate D2E/DX2                !
 ! A75   A(19,20,21)           114.6363         estimate D2E/DX2                !
 ! A76   A(19,20,58)           108.169          estimate D2E/DX2                !
 ! A77   A(19,20,59)           108.9052         estimate D2E/DX2                !
 ! A78   A(21,20,58)           106.2689         estimate D2E/DX2                !
 ! A79   A(21,20,59)           110.943          estimate D2E/DX2                !
 ! A80   A(58,20,59)           107.6363         estimate D2E/DX2                !
 ! A81   A(20,21,60)           110.4606         estimate D2E/DX2                !
 ! A82   A(17,22,23)           116.7073         estimate D2E/DX2                !
 ! A83   A(22,23,24)           109.9439         estimate D2E/DX2                !
 ! A84   A(22,23,28)           110.0976         estimate D2E/DX2                !
 ! A85   A(22,23,61)           110.7591         estimate D2E/DX2                !
 ! A86   A(24,23,28)           108.5582         estimate D2E/DX2                !
 ! A87   A(24,23,61)           110.0291         estimate D2E/DX2                !
 ! A88   A(28,23,61)           107.3933         estimate D2E/DX2                !
 ! A89   A(23,24,25)           109.2572         estimate D2E/DX2                !
 ! A90   A(23,24,39)           110.6102         estimate D2E/DX2                !
 ! A91   A(23,24,62)           108.631          estimate D2E/DX2                !
 ! A92   A(25,24,39)           109.6153         estimate D2E/DX2                !
 ! A93   A(25,24,62)           108.9773         estimate D2E/DX2                !
 ! A94   A(39,24,62)           109.72           estimate D2E/DX2                !
 ! A95   A(24,25,26)           110.6682         estimate D2E/DX2                !
 ! A96   A(24,25,38)           107.4264         estimate D2E/DX2                !
 ! A97   A(24,25,63)           107.85           estimate D2E/DX2                !
 ! A98   A(26,25,38)           112.1006         estimate D2E/DX2                !
 ! A99   A(26,25,63)           108.2027         estimate D2E/DX2                !
 ! A100  A(38,25,63)           110.519          estimate D2E/DX2                !
 ! A101  A(25,26,27)           111.1189         estimate D2E/DX2                !
 ! A102  A(25,26,31)           107.3284         estimate D2E/DX2                !
 ! A103  A(25,26,64)           109.7429         estimate D2E/DX2                !
 ! A104  A(27,26,31)           106.6896         estimate D2E/DX2                !
 ! A105  A(27,26,64)           110.8732         estimate D2E/DX2                !
 ! A106  A(31,26,64)           110.9988         estimate D2E/DX2                !
 ! A107  A(26,27,28)           118.0508         estimate D2E/DX2                !
 ! A108  A(23,28,27)           109.8424         estimate D2E/DX2                !
 ! A109  A(23,28,29)           113.8087         estimate D2E/DX2                !
 ! A110  A(23,28,65)           109.1039         estimate D2E/DX2                !
 ! A111  A(27,28,29)           104.5998         estimate D2E/DX2                !
 ! A112  A(27,28,65)           110.6495         estimate D2E/DX2                !
 ! A113  A(29,28,65)           108.7706         estimate D2E/DX2                !
 ! A114  A(28,29,30)           110.3621         estimate D2E/DX2                !
 ! A115  A(28,29,66)           108.2513         estimate D2E/DX2                !
 ! A116  A(28,29,67)           109.2568         estimate D2E/DX2                !
 ! A117  A(30,29,66)           109.1489         estimate D2E/DX2                !
 ! A118  A(30,29,67)           110.8804         estimate D2E/DX2                !
 ! A119  A(66,29,67)           108.8862         estimate D2E/DX2                !
 ! A120  A(29,30,68)           110.9511         estimate D2E/DX2                !
 ! A121  A(26,31,32)           114.1425         estimate D2E/DX2                !
 ! A122  A(31,32,33)           109.6262         estimate D2E/DX2                !
 ! A123  A(31,32,69)           109.7731         estimate D2E/DX2                !
 ! A124  A(31,32,70)           108.0488         estimate D2E/DX2                !
 ! A125  A(33,32,69)           111.5153         estimate D2E/DX2                !
 ! A126  A(33,32,70)           109.9694         estimate D2E/DX2                !
 ! A127  A(69,32,70)           107.8289         estimate D2E/DX2                !
 ! A128  A(32,33,34)           117.8382         estimate D2E/DX2                !
 ! A129  A(32,33,71)           106.6555         estimate D2E/DX2                !
 ! A130  A(32,33,72)           108.1984         estimate D2E/DX2                !
 ! A131  A(34,33,71)           107.6206         estimate D2E/DX2                !
 ! A132  A(34,33,72)           109.8345         estimate D2E/DX2                !
 ! A133  A(71,33,72)           106.0446         estimate D2E/DX2                !
 ! A134  A(33,34,35)           116.8575         estimate D2E/DX2                !
 ! A135  A(33,34,73)           109.5375         estimate D2E/DX2                !
 ! A136  A(33,34,74)           107.265          estimate D2E/DX2                !
 ! A137  A(35,34,73)           109.0278         estimate D2E/DX2                !
 ! A138  A(35,34,74)           108.183          estimate D2E/DX2                !
 ! A139  A(73,34,74)           105.3428         estimate D2E/DX2                !
 ! A140  A(34,35,36)           113.7455         estimate D2E/DX2                !
 ! A141  A(34,35,75)           108.7938         estimate D2E/DX2                !
 ! A142  A(34,35,76)           109.4426         estimate D2E/DX2                !
 ! A143  A(36,35,75)           108.8748         estimate D2E/DX2                !
 ! A144  A(36,35,76)           109.8068         estimate D2E/DX2                !
 ! A145  A(75,35,76)           105.871          estimate D2E/DX2                !
 ! A146  A(35,36,37)           112.6286         estimate D2E/DX2                !
 ! A147  A(35,36,77)           111.6807         estimate D2E/DX2                !
 ! A148  A(35,36,78)           111.655          estimate D2E/DX2                !
 ! A149  A(37,36,77)           107.1657         estimate D2E/DX2                !
 ! A150  A(37,36,78)           105.4734         estimate D2E/DX2                !
 ! A151  A(77,36,78)           107.8845         estimate D2E/DX2                !
 ! A152  A(36,37,79)           107.0622         estimate D2E/DX2                !
 ! A153  A(36,37,80)           109.1244         estimate D2E/DX2                !
 ! A154  A(36,37,81)           113.0516         estimate D2E/DX2                !
 ! A155  A(79,37,80)           106.5038         estimate D2E/DX2                !
 ! A156  A(79,37,81)           109.455          estimate D2E/DX2                !
 ! A157  A(80,37,81)           111.3487         estimate D2E/DX2                !
 ! A158  A(25,38,82)           109.2507         estimate D2E/DX2                !
 ! A159  A(24,39,83)           106.9468         estimate D2E/DX2                !
 ! A160  A(16,40,84)           106.0796         estimate D2E/DX2                !
 ! D1    D(6,1,2,3)            -57.3715         estimate D2E/DX2                !
 ! D2    D(6,1,2,12)          -174.0982         estimate D2E/DX2                !
 ! D3    D(6,1,2,41)            65.0481         estimate D2E/DX2                !
 ! D4    D(2,1,6,5)             60.1903         estimate D2E/DX2                !
 ! D5    D(2,1,6,7)           -175.0473         estimate D2E/DX2                !
 ! D6    D(2,1,6,45)           -58.2202         estimate D2E/DX2                !
 ! D7    D(1,2,3,4)             52.2534         estimate D2E/DX2                !
 ! D8    D(1,2,3,11)           172.7225         estimate D2E/DX2                !
 ! D9    D(1,2,3,42)           -65.7104         estimate D2E/DX2                !
 ! D10   D(12,2,3,4)           167.7447         estimate D2E/DX2                !
 ! D11   D(12,2,3,11)          -71.7862         estimate D2E/DX2                !
 ! D12   D(12,2,3,42)           49.781          estimate D2E/DX2                !
 ! D13   D(41,2,3,4)           -69.8836         estimate D2E/DX2                !
 ! D14   D(41,2,3,11)           50.5855         estimate D2E/DX2                !
 ! D15   D(41,2,3,42)          172.1526         estimate D2E/DX2                !
 ! D16   D(1,2,12,13)         -112.928          estimate D2E/DX2                !
 ! D17   D(3,2,12,13)          128.2981         estimate D2E/DX2                !
 ! D18   D(41,2,12,13)           6.7448         estimate D2E/DX2                !
 ! D19   D(2,3,4,5)            -51.4162         estimate D2E/DX2                !
 ! D20   D(2,3,4,10)          -170.2138         estimate D2E/DX2                !
 ! D21   D(2,3,4,43)            67.7997         estimate D2E/DX2                !
 ! D22   D(11,3,4,5)          -174.0087         estimate D2E/DX2                !
 ! D23   D(11,3,4,10)           67.1938         estimate D2E/DX2                !
 ! D24   D(11,3,4,43)          -54.7927         estimate D2E/DX2                !
 ! D25   D(42,3,4,5)            65.188          estimate D2E/DX2                !
 ! D26   D(42,3,4,10)          -53.6096         estimate D2E/DX2                !
 ! D27   D(42,3,4,43)         -175.5961         estimate D2E/DX2                !
 ! D28   D(2,3,11,51)           46.6898         estimate D2E/DX2                !
 ! D29   D(4,3,11,51)          169.2545         estimate D2E/DX2                !
 ! D30   D(42,3,11,51)         -71.8098         estimate D2E/DX2                !
 ! D31   D(3,4,5,6)             52.8656         estimate D2E/DX2                !
 ! D32   D(3,4,5,9)            -68.5168         estimate D2E/DX2                !
 ! D33   D(3,4,5,44)           171.0244         estimate D2E/DX2                !
 ! D34   D(10,4,5,6)           174.2058         estimate D2E/DX2                !
 ! D35   D(10,4,5,9)            52.8234         estimate D2E/DX2                !
 ! D36   D(10,4,5,44)          -67.6354         estimate D2E/DX2                !
 ! D37   D(43,4,5,6)           -66.2015         estimate D2E/DX2                !
 ! D38   D(43,4,5,9)           172.4161         estimate D2E/DX2                !
 ! D39   D(43,4,5,44)           51.9573         estimate D2E/DX2                !
 ! D40   D(3,4,10,50)          -52.3164         estimate D2E/DX2                !
 ! D41   D(5,4,10,50)         -173.4691         estimate D2E/DX2                !
 ! D42   D(43,4,10,50)          68.2982         estimate D2E/DX2                !
 ! D43   D(4,5,6,1)            -56.4017         estimate D2E/DX2                !
 ! D44   D(4,5,6,7)           -177.1689         estimate D2E/DX2                !
 ! D45   D(4,5,6,45)            63.8066         estimate D2E/DX2                !
 ! D46   D(9,5,6,1)             64.6714         estimate D2E/DX2                !
 ! D47   D(9,5,6,7)            -56.0958         estimate D2E/DX2                !
 ! D48   D(9,5,6,45)          -175.1203         estimate D2E/DX2                !
 ! D49   D(44,5,6,1)          -175.6928         estimate D2E/DX2                !
 ! D50   D(44,5,6,7)            63.5399         estimate D2E/DX2                !
 ! D51   D(44,5,6,45)          -55.4846         estimate D2E/DX2                !
 ! D52   D(4,5,9,49)           -47.7072         estimate D2E/DX2                !
 ! D53   D(6,5,9,49)          -168.481          estimate D2E/DX2                !
 ! D54   D(44,5,9,49)           72.8706         estimate D2E/DX2                !
 ! D55   D(1,6,7,8)            176.3263         estimate D2E/DX2                !
 ! D56   D(1,6,7,46)            55.2251         estimate D2E/DX2                !
 ! D57   D(1,6,7,47)           -62.3506         estimate D2E/DX2                !
 ! D58   D(5,6,7,8)            -60.5534         estimate D2E/DX2                !
 ! D59   D(5,6,7,46)           178.3454         estimate D2E/DX2                !
 ! D60   D(5,6,7,47)            60.7698         estimate D2E/DX2                !
 ! D61   D(45,6,7,8)            58.0301         estimate D2E/DX2                !
 ! D62   D(45,6,7,46)          -63.0711         estimate D2E/DX2                !
 ! D63   D(45,6,7,47)          179.3532         estimate D2E/DX2                !
 ! D64   D(6,7,8,48)          -172.7617         estimate D2E/DX2                !
 ! D65   D(46,7,8,48)          -54.2157         estimate D2E/DX2                !
 ! D66   D(47,7,8,48)           67.5103         estimate D2E/DX2                !
 ! D67   D(2,12,13,14)        -123.5044         estimate D2E/DX2                !
 ! D68   D(2,12,13,19)         119.9366         estimate D2E/DX2                !
 ! D69   D(2,12,13,52)          -3.1874         estimate D2E/DX2                !
 ! D70   D(12,13,14,15)         62.3849         estimate D2E/DX2                !
 ! D71   D(12,13,14,16)        -57.9377         estimate D2E/DX2                !
 ! D72   D(12,13,14,53)       -177.6606         estimate D2E/DX2                !
 ! D73   D(19,13,14,15)       -179.1258         estimate D2E/DX2                !
 ! D74   D(19,13,14,16)         60.5515         estimate D2E/DX2                !
 ! D75   D(19,13,14,53)        -59.1713         estimate D2E/DX2                !
 ! D76   D(52,13,14,15)        -58.2378         estimate D2E/DX2                !
 ! D77   D(52,13,14,16)       -178.5605         estimate D2E/DX2                !
 ! D78   D(52,13,14,53)         61.7167         estimate D2E/DX2                !
 ! D79   D(12,13,19,18)         53.8064         estimate D2E/DX2                !
 ! D80   D(12,13,19,20)        -67.9684         estimate D2E/DX2                !
 ! D81   D(12,13,19,57)        173.9891         estimate D2E/DX2                !
 ! D82   D(14,13,19,18)        -62.7011         estimate D2E/DX2                !
 ! D83   D(14,13,19,20)        175.5241         estimate D2E/DX2                !
 ! D84   D(14,13,19,57)         57.4816         estimate D2E/DX2                !
 ! D85   D(52,13,19,18)        176.8273         estimate D2E/DX2                !
 ! D86   D(52,13,19,20)         55.0525         estimate D2E/DX2                !
 ! D87   D(52,13,19,57)        -62.99           estimate D2E/DX2                !
 ! D88   D(13,14,15,54)       -170.7759         estimate D2E/DX2                !
 ! D89   D(16,14,15,54)        -51.4459         estimate D2E/DX2                !
 ! D90   D(53,14,15,54)         69.8235         estimate D2E/DX2                !
 ! D91   D(13,14,16,17)        -52.7356         estimate D2E/DX2                !
 ! D92   D(13,14,16,40)       -175.9087         estimate D2E/DX2                !
 ! D93   D(13,14,16,55)         66.0127         estimate D2E/DX2                !
 ! D94   D(15,14,16,17)       -172.6312         estimate D2E/DX2                !
 ! D95   D(15,14,16,40)         64.1958         estimate D2E/DX2                !
 ! D96   D(15,14,16,55)        -53.8829         estimate D2E/DX2                !
 ! D97   D(53,14,16,17)         66.2567         estimate D2E/DX2                !
 ! D98   D(53,14,16,40)        -56.9163         estimate D2E/DX2                !
 ! D99   D(53,14,16,55)       -174.995          estimate D2E/DX2                !
 ! D100  D(14,16,17,18)         45.0639         estimate D2E/DX2                !
 ! D101  D(14,16,17,22)        166.139          estimate D2E/DX2                !
 ! D102  D(14,16,17,56)        -77.8638         estimate D2E/DX2                !
 ! D103  D(40,16,17,18)        166.5221         estimate D2E/DX2                !
 ! D104  D(40,16,17,22)        -72.4028         estimate D2E/DX2                !
 ! D105  D(40,16,17,56)         43.5944         estimate D2E/DX2                !
 ! D106  D(55,16,17,18)        -72.1144         estimate D2E/DX2                !
 ! D107  D(55,16,17,22)         48.9607         estimate D2E/DX2                !
 ! D108  D(55,16,17,56)        164.9579         estimate D2E/DX2                !
 ! D109  D(14,16,40,84)       -155.9089         estimate D2E/DX2                !
 ! D110  D(17,16,40,84)         80.0793         estimate D2E/DX2                !
 ! D111  D(55,16,40,84)        -40.4612         estimate D2E/DX2                !
 ! D112  D(16,17,18,19)        -48.1942         estimate D2E/DX2                !
 ! D113  D(22,17,18,19)       -172.3364         estimate D2E/DX2                !
 ! D114  D(56,17,18,19)         73.9265         estimate D2E/DX2                !
 ! D115  D(16,17,22,23)        -58.4434         estimate D2E/DX2                !
 ! D116  D(18,17,22,23)         65.7614         estimate D2E/DX2                !
 ! D117  D(56,17,22,23)       -176.8444         estimate D2E/DX2                !
 ! D118  D(17,18,19,13)         57.7741         estimate D2E/DX2                !
 ! D119  D(17,18,19,20)       -175.3712         estimate D2E/DX2                !
 ! D120  D(17,18,19,57)        -60.0704         estimate D2E/DX2                !
 ! D121  D(13,19,20,21)         71.2303         estimate D2E/DX2                !
 ! D122  D(13,19,20,58)       -170.4182         estimate D2E/DX2                !
 ! D123  D(13,19,20,59)        -53.7097         estimate D2E/DX2                !
 ! D124  D(18,19,20,21)        -52.0456         estimate D2E/DX2                !
 ! D125  D(18,19,20,58)         66.3059         estimate D2E/DX2                !
 ! D126  D(18,19,20,59)       -176.9856         estimate D2E/DX2                !
 ! D127  D(57,19,20,21)       -170.3331         estimate D2E/DX2                !
 ! D128  D(57,19,20,58)        -51.9815         estimate D2E/DX2                !
 ! D129  D(57,19,20,59)         64.7269         estimate D2E/DX2                !
 ! D130  D(19,20,21,60)        -69.9732         estimate D2E/DX2                !
 ! D131  D(58,20,21,60)        170.6078         estimate D2E/DX2                !
 ! D132  D(59,20,21,60)         53.888          estimate D2E/DX2                !
 ! D133  D(17,22,23,24)        118.6229         estimate D2E/DX2                !
 ! D134  D(17,22,23,28)       -121.8196         estimate D2E/DX2                !
 ! D135  D(17,22,23,61)         -3.1926         estimate D2E/DX2                !
 ! D136  D(22,23,24,25)        179.2196         estimate D2E/DX2                !
 ! D137  D(22,23,24,39)        -60.0299         estimate D2E/DX2                !
 ! D138  D(22,23,24,62)         60.4493         estimate D2E/DX2                !
 ! D139  D(28,23,24,25)         58.7278         estimate D2E/DX2                !
 ! D140  D(28,23,24,39)        179.4784         estimate D2E/DX2                !
 ! D141  D(28,23,24,62)        -60.0425         estimate D2E/DX2                !
 ! D142  D(61,23,24,25)        -58.531          estimate D2E/DX2                !
 ! D143  D(61,23,24,39)         62.2195         estimate D2E/DX2                !
 ! D144  D(61,23,24,62)       -177.3014         estimate D2E/DX2                !
 ! D145  D(22,23,28,27)       -176.5497         estimate D2E/DX2                !
 ! D146  D(22,23,28,29)         66.5703         estimate D2E/DX2                !
 ! D147  D(22,23,28,65)        -55.1002         estimate D2E/DX2                !
 ! D148  D(24,23,28,27)        -56.1532         estimate D2E/DX2                !
 ! D149  D(24,23,28,29)       -173.0332         estimate D2E/DX2                !
 ! D150  D(24,23,28,65)         65.2962         estimate D2E/DX2                !
 ! D151  D(61,23,28,27)         62.7782         estimate D2E/DX2                !
 ! D152  D(61,23,28,29)        -54.1019         estimate D2E/DX2                !
 ! D153  D(61,23,28,65)       -175.7724         estimate D2E/DX2                !
 ! D154  D(23,24,25,26)        -56.7125         estimate D2E/DX2                !
 ! D155  D(23,24,25,38)       -179.3871         estimate D2E/DX2                !
 ! D156  D(23,24,25,63)         61.4667         estimate D2E/DX2                !
 ! D157  D(39,24,25,26)       -178.0682         estimate D2E/DX2                !
 ! D158  D(39,24,25,38)         59.2573         estimate D2E/DX2                !
 ! D159  D(39,24,25,63)        -59.8889         estimate D2E/DX2                !
 ! D160  D(62,24,25,26)         61.8421         estimate D2E/DX2                !
 ! D161  D(62,24,25,38)        -60.8325         estimate D2E/DX2                !
 ! D162  D(62,24,25,63)       -179.9787         estimate D2E/DX2                !
 ! D163  D(23,24,39,83)       -171.0348         estimate D2E/DX2                !
 ! D164  D(25,24,39,83)        -50.4976         estimate D2E/DX2                !
 ! D165  D(62,24,39,83)         69.1379         estimate D2E/DX2                !
 ! D166  D(24,25,26,27)         51.6431         estimate D2E/DX2                !
 ! D167  D(24,25,26,31)        167.9395         estimate D2E/DX2                !
 ! D168  D(24,25,26,64)        -71.3428         estimate D2E/DX2                !
 ! D169  D(38,25,26,27)        171.5537         estimate D2E/DX2                !
 ! D170  D(38,25,26,31)        -72.15           estimate D2E/DX2                !
 ! D171  D(38,25,26,64)         48.5678         estimate D2E/DX2                !
 ! D172  D(63,25,26,27)        -66.3209         estimate D2E/DX2                !
 ! D173  D(63,25,26,31)         49.9755         estimate D2E/DX2                !
 ! D174  D(63,25,26,64)        170.6932         estimate D2E/DX2                !
 ! D175  D(24,25,38,82)       -174.52           estimate D2E/DX2                !
 ! D176  D(26,25,38,82)         63.6952         estimate D2E/DX2                !
 ! D177  D(63,25,38,82)        -57.0999         estimate D2E/DX2                !
 ! D178  D(25,26,27,28)        -52.7168         estimate D2E/DX2                !
 ! D179  D(31,26,27,28)       -169.4052         estimate D2E/DX2                !
 ! D180  D(64,26,27,28)         69.6165         estimate D2E/DX2                !
 ! D181  D(25,26,31,32)        159.4845         estimate D2E/DX2                !
 ! D182  D(27,26,31,32)        -81.3339         estimate D2E/DX2                !
 ! D183  D(64,26,31,32)         39.5642         estimate D2E/DX2                !
 ! D184  D(26,27,28,23)         55.3076         estimate D2E/DX2                !
 ! D185  D(26,27,28,29)        177.8197         estimate D2E/DX2                !
 ! D186  D(26,27,28,65)        -65.2112         estimate D2E/DX2                !
 ! D187  D(23,28,29,30)         65.1239         estimate D2E/DX2                !
 ! D188  D(23,28,29,66)       -175.4819         estimate D2E/DX2                !
 ! D189  D(23,28,29,67)        -57.0415         estimate D2E/DX2                !
 ! D190  D(27,28,29,30)        -54.7648         estimate D2E/DX2                !
 ! D191  D(27,28,29,66)         64.6294         estimate D2E/DX2                !
 ! D192  D(27,28,29,67)       -176.9302         estimate D2E/DX2                !
 ! D193  D(65,28,29,30)       -173.0209         estimate D2E/DX2                !
 ! D194  D(65,28,29,66)        -53.6266         estimate D2E/DX2                !
 ! D195  D(65,28,29,67)         64.8138         estimate D2E/DX2                !
 ! D196  D(28,29,30,68)       -124.906          estimate D2E/DX2                !
 ! D197  D(66,29,30,68)        116.2451         estimate D2E/DX2                !
 ! D198  D(67,29,30,68)         -3.7016         estimate D2E/DX2                !
 ! D199  D(26,31,32,33)        174.504          estimate D2E/DX2                !
 ! D200  D(26,31,32,69)         51.6868         estimate D2E/DX2                !
 ! D201  D(26,31,32,70)        -65.6579         estimate D2E/DX2                !
 ! D202  D(31,32,33,34)        -81.5549         estimate D2E/DX2                !
 ! D203  D(31,32,33,71)        157.4269         estimate D2E/DX2                !
 ! D204  D(31,32,33,72)         43.7218         estimate D2E/DX2                !
 ! D205  D(69,32,33,34)         40.2239         estimate D2E/DX2                !
 ! D206  D(69,32,33,71)        -80.7943         estimate D2E/DX2                !
 ! D207  D(69,32,33,72)        165.5006         estimate D2E/DX2                !
 ! D208  D(70,32,33,34)        159.7887         estimate D2E/DX2                !
 ! D209  D(70,32,33,71)         38.7705         estimate D2E/DX2                !
 ! D210  D(70,32,33,72)        -74.9346         estimate D2E/DX2                !
 ! D211  D(32,33,34,35)         62.3424         estimate D2E/DX2                !
 ! D212  D(32,33,34,73)        -62.2317         estimate D2E/DX2                !
 ! D213  D(32,33,34,74)       -176.0787         estimate D2E/DX2                !
 ! D214  D(71,33,34,35)       -177.1393         estimate D2E/DX2                !
 ! D215  D(71,33,34,73)         58.2866         estimate D2E/DX2                !
 ! D216  D(71,33,34,74)        -55.5603         estimate D2E/DX2                !
 ! D217  D(72,33,34,35)        -62.1251         estimate D2E/DX2                !
 ! D218  D(72,33,34,73)        173.3008         estimate D2E/DX2                !
 ! D219  D(72,33,34,74)         59.4539         estimate D2E/DX2                !
 ! D220  D(33,34,35,36)        -84.9013         estimate D2E/DX2                !
 ! D221  D(33,34,35,75)        153.5628         estimate D2E/DX2                !
 ! D222  D(33,34,35,76)         38.3191         estimate D2E/DX2                !
 ! D223  D(73,34,35,36)         39.9303         estimate D2E/DX2                !
 ! D224  D(73,34,35,75)        -81.6056         estimate D2E/DX2                !
 ! D225  D(73,34,35,76)        163.1508         estimate D2E/DX2                !
 ! D226  D(74,34,35,36)        154.0015         estimate D2E/DX2                !
 ! D227  D(74,34,35,75)         32.4657         estimate D2E/DX2                !
 ! D228  D(74,34,35,76)        -82.778          estimate D2E/DX2                !
 ! D229  D(34,35,36,37)        136.0214         estimate D2E/DX2                !
 ! D230  D(34,35,36,77)       -103.3272         estimate D2E/DX2                !
 ! D231  D(34,35,36,78)         17.5647         estimate D2E/DX2                !
 ! D232  D(75,35,36,37)       -102.4878         estimate D2E/DX2                !
 ! D233  D(75,35,36,77)         18.1636         estimate D2E/DX2                !
 ! D234  D(75,35,36,78)        139.0555         estimate D2E/DX2                !
 ! D235  D(76,35,36,37)         12.9999         estimate D2E/DX2                !
 ! D236  D(76,35,36,77)        133.6513         estimate D2E/DX2                !
 ! D237  D(76,35,36,78)       -105.4568         estimate D2E/DX2                !
 ! D238  D(35,36,37,79)        -56.4135         estimate D2E/DX2                !
 ! D239  D(35,36,37,80)       -171.3076         estimate D2E/DX2                !
 ! D240  D(35,36,37,81)         64.1996         estimate D2E/DX2                !
 ! D241  D(77,36,37,79)       -179.6206         estimate D2E/DX2                !
 ! D242  D(77,36,37,80)         65.4852         estimate D2E/DX2                !
 ! D243  D(77,36,37,81)        -59.0075         estimate D2E/DX2                !
 ! D244  D(78,36,37,79)         65.607          estimate D2E/DX2                !
 ! D245  D(78,36,37,80)        -49.2872         estimate D2E/DX2                !
 ! D246  D(78,36,37,81)       -173.7799         estimate D2E/DX2                !
 --------------------------------------------------------------------------------
 Trust Radius=3.00D-01 FncErr=1.00D-07 GrdErr=1.00D-06
 Number of steps in this run=    504 maximum allowed number of steps=    504.
 GradGradGradGradGradGradGradGradGradGradGradGradGradGradGradGradGradGrad

 Leave Link  103 at Thu Mar 24 12:50:03 2016, MaxMem= 10737418240 cpu:         0.5
 (Enter /share/apps//g09/l202.exe)
 Stoichiometry    C23H44NO16(1+)
 Framework group  C1[X(C23H44NO16)]
 Deg. of freedom   246
 Full point group                 C1      NOp   1
 Largest Abelian subgroup         C1      NOp   1
 Largest concise Abelian subgroup C1      NOp   1
                         Standard orientation:                         
 ---------------------------------------------------------------------
 Center     Atomic      Atomic             Coordinates (Angstroms)
 Number     Number       Type             X           Y           Z
 ---------------------------------------------------------------------
      1          8           0       -1.747457    2.081166   -0.584147
      2          6           0       -2.501117    1.365084    0.378707
      3          6           0       -1.949577    1.591104    1.777111
      4          6           0       -1.813094    3.069438    2.086159
      5          6           0       -1.046066    3.783177    0.987888
      6          6           0       -1.685558    3.479386   -0.351716
      7          6           0       -0.955706    4.089991   -1.530782
      8          8           0       -0.972343    5.478788   -1.337762
      9          8           0        0.312423    3.363930    0.995319
     10          8           0       -1.101223    3.275133    3.282992
     11          8           0       -2.775816    1.026698    2.748874
     12          8           0       -2.337048    0.034089    0.070525
     13          6           0       -3.416141   -0.757648   -0.398123
     14          6           0       -3.548328   -1.937418    0.541404
     15          8           0       -3.860515   -1.474304    1.838254
     16          6           0       -2.236545   -2.688986    0.557711
     17          6           0       -1.755026   -3.060277   -0.847575
     18          8           0       -1.870470   -1.991661   -1.759889
     19          6           0       -3.102062   -1.312480   -1.781702
     20          6           0       -3.032335   -0.292708   -2.906912
     21          8           0       -1.905380    0.552437   -2.864798
     22          8           0       -0.423159   -3.469422   -0.864146
     23          6           0        0.529893   -2.546911   -0.381594
     24          6           0        1.249401   -3.127863    0.823637
     25          6           0        2.279867   -2.134981    1.316173
     26          6           0        3.248914   -1.775021    0.207250
     27          8           0        2.565837   -1.377341   -0.951493
     28          6           0        1.565260   -2.243654   -1.467622
     29          6           0        1.000962   -1.506339   -2.659325
     30          8           0        0.563290   -0.218728   -2.278383
     31          8           0        3.977501   -0.677421    0.636078
     32          6           0        5.215283   -0.491305   -0.054364
     33          6           0        5.858852    0.801373    0.395957
     34          6           0        5.370505    2.098727   -0.238798
     35          6           0        3.910454    2.469512   -0.010909
     36          6           0        2.948823    1.818636   -1.002412
     37          7           0        1.732842    1.277834   -0.347027
     38          8           0        2.928239   -2.713618    2.415860
     39          8           0        0.334741   -3.412891    1.857756
     40          8           0       -2.397613   -3.828646    1.354172
     41          1           0       -3.557858    1.667887    0.329067
     42          1           0       -0.945553    1.137545    1.789383
     43          1           0       -2.819660    3.504680    2.151997
     44          1           0       -1.095550    4.864248    1.146201
     45          1           0       -2.699175    3.902547   -0.328035
     46          1           0       -1.474006    3.791119   -2.450366
     47          1           0        0.067534    3.693358   -1.573502
     48          1           0       -0.620821    5.913376   -2.115157
     49          1           0        0.592588    3.416089    1.917150
     50          1           0       -1.512117    2.747172    3.972438
     51          1           0       -3.021924    0.123437    2.489377
     52          1           0       -4.344152   -0.178422   -0.411319
     53          1           0       -4.350190   -2.590638    0.178596
     54          1           0       -3.790673   -2.232625    2.427393
     55          1           0       -1.508317   -2.014834    1.010432
     56          1           0       -2.321832   -3.927991   -1.201156
     57          1           0       -3.921154   -2.001069   -2.043022
     58          1           0       -2.973896   -0.832595   -3.851636
     59          1           0       -3.959370    0.290908   -2.914953
     60          1           0       -1.971521    1.168194   -2.119849
     61          1           0        0.051872   -1.600835   -0.112319
     62          1           0        1.760621   -4.050479    0.516141
     63          1           0        1.748603   -1.219575    1.619228
     64          1           0        3.911233   -2.632026   -0.001563
     65          1           0        2.009570   -3.185419   -1.813150
     66          1           0        1.791413   -1.409447   -3.407488
     67          1           0        0.182078   -2.084573   -3.084591
     68          1           0       -0.374769   -0.080209   -2.525367
     69          1           0        5.040448   -0.497923   -1.139295
     70          1           0        5.869420   -1.339207    0.185763
     71          1           0        6.925554    0.710500    0.183185
     72          1           0        5.772082    0.865100    1.484162
     73          1           0        5.569225    2.077317   -1.313572
     74          1           0        5.993188    2.906928    0.154512
     75          1           0        3.808734    3.548084   -0.079488
     76          1           0        3.624351    2.207379    1.007218
     77          1           0        2.617098    2.524070   -1.763651
     78          1           0        3.406678    0.971698   -1.508653
     79          1           0        2.044985    0.623313    0.368660
     80          1           0        1.184336    0.715335   -1.048047
     81          1           0        1.146467    2.012100    0.089046
     82          1           0        3.527267   -2.073655    2.801913
     83          1           0        0.853276   -3.639890    2.636296
     84          1           0       -1.514007   -4.066489    1.662545
 ---------------------------------------------------------------------
 Rotational constants (GHZ):      0.0991676      0.0890365      0.0645981
 Leave Link  202 at Thu Mar 24 12:50:03 2016, MaxMem= 10737418240 cpu:         0.5
 (Enter /share/apps//g09/l301.exe)
 Standard basis: 6-311+G(d,p) (5D, 7F)
 Ernie: Thresh=  0.10000D-02 Tol=  0.10000D-05 Strict=F.
 There are  1184 symmetry adapted cartesian basis functions of A   symmetry.
 There are  1144 symmetry adapted basis functions of A   symmetry.
  1144 basis functions,  1792 primitive gaussians,  1184 cartesian basis functions
   158 alpha electrons      158 beta electrons
       nuclear repulsion energy      6043.2324154948 Hartrees.
 IExCor= 1009 DFT=T Ex+Corr=PBE1PBE ExCW=0 ScaHFX=  0.250000
 ScaDFX=  0.750000  0.750000  1.000000  1.000000 ScalE2=  1.000000  1.000000
 IRadAn=      0 IRanWt=     -1 IRanGd=            0 ICorTp=0 IEmpDi=131
 NAtoms=   84 NActive=   84 NUniq=   84 SFac= 1.00D+00 NAtFMM=   60 NAOKFM=T Big=T
 Integral buffers will be    131072 words long.
 Raffenetti 2 integral format.
 Two-electron integral symmetry is turned on.
 R6Disp:  Grimme-D3 Dispersion energy=       -0.0868680336 Hartrees.
 Nuclear repulsion after empirical dispersion term =     6043.1455474612 Hartrees.
 Leave Link  301 at Thu Mar 24 12:50:03 2016, MaxMem= 10737418240 cpu:         1.7
 (Enter /share/apps//g09/l302.exe)
 NPDir=0 NMtPBC=     1 NCelOv=     1 NCel=       1 NClECP=     1 NCelD=      1
         NCelK=      1 NCelE2=     1 NClLst=     1 CellRange=     0.0.
 One-electron integrals computed using PRISM.
 NBasis=  1144 RedAO= T EigKep=  1.49D-06  NBF=  1144
 NBsUse=  1144 1.00D-06 EigRej= -1.00D+00 NBFU=  1144
 Precomputing XC quadrature grid using
 IXCGrd= 4 IRadAn=           0 IRanWt=          -1 IRanGd=           0 AccXCQ= 0.00D+00.
 Generated NRdTot=       0 NPtTot=           0 NUsed=           0 NTot=          32
 NSgBfM=  1120  1120  1121  1121  1121 MxSgAt=    84 MxSgA2=    84.
 Leave Link  302 at Thu Mar 24 12:50:07 2016, MaxMem= 10737418240 cpu:        55.2
 (Enter /share/apps//g09/l303.exe)
 DipDrv:  MaxL=1.
 Leave Link  303 at Thu Mar 24 12:50:09 2016, MaxMem= 10737418240 cpu:        26.8
 (Enter /share/apps//g09/l401.exe)
 ExpMin= 4.38D-02 ExpMax= 8.59D+03 ExpMxC= 1.30D+03 IAcc=2 IRadAn=         4 AccDes= 0.00D+00
 Harris functional with IExCor= 1009 and IRadAn=       4 diagonalized for initial guess.
 HarFok:  IExCor= 1009 AccDes= 0.00D+00 IRadAn=         4 IDoV= 1 UseB2=F ITyADJ=14
 ICtDFT=  3500011 ScaDFX=  1.000000  1.000000  1.000000  1.000000
 FoFCou: FMM=F IPFlag=           0 FMFlag=      100000 FMFlg1=        2001
         NFxFlg=           0 DoJE=T BraDBF=F KetDBF=T FulRan=T
         wScrn=  0.000000 ICntrl=     500 IOpCl=  0 I1Cent=   200000004 NGrid=           0
         NMat0=    1 NMatS0=      1 NMatT0=    0 NMatD0=    1 NMtDS0=    0 NMtDT0=    0
 Petite list used in FoFCou.
 Harris En= -2159.74539222316    
 JPrj=0 DoOrth=F DoCkMO=F.
 Leave Link  401 at Thu Mar 24 12:50:16 2016, MaxMem= 10737418240 cpu:       120.6
 (Enter /share/apps//g09/l502.exe)
 Closed shell SCF:
 Using DIIS extrapolation, IDIIS=  1040.
 Integral symmetry usage will be decided dynamically.
 IVT=     4256630 IEndB=     4256630 NGot= 10737418240 MDV= 10734581291
 LenX= 10734581291 LenY= 10733178251
 Requested convergence on RMS density matrix=1.00D-08 within 128 cycles.
 Requested convergence on MAX density matrix=1.00D-06.
 Requested convergence on             energy=1.00D-06.
 No special actions if energy rises.
 Fock matrices will be formed incrementally for  20 cycles.

 Cycle   1  Pass 1  IDiag  1:
 FoFJK:  IHMeth= 1 ICntrl=       0 DoSepK=F KAlg= 0 I1Cent=   0 FoldK=F
 IRaf= 800000000 NMat=   1 IRICut=       1 DoRegI=T DoRafI=F ISym2E= 0.
 FoFCou: FMM=T IPFlag=           0 FMFlag=      100000 FMFlg1=        2001
         NFxFlg=           0 DoJE=F BraDBF=F KetDBF=F FulRan=T
         wScrn=  0.000000 ICntrl=       0 IOpCl=  0 I1Cent=           0 NGrid=           0
         NMat0=    1 NMatS0=      1 NMatT0=    0 NMatD0=    1 NMtDS0=    0 NMtDT0=    0
 Symmetry not used in FoFCou.
 FMM levels:  10  Number of levels for PrismC:   9
 E= -2158.67024838949    
 DIIS: error= 1.85D-02 at cycle   1 NSaved=   1.
 NSaved= 1 IEnMin= 1 EnMin= -2158.67024838949     IErMin= 1 ErrMin= 1.85D-02
 ErrMax= 1.85D-02  0.00D+00 EMaxC= 1.00D-01 BMatC= 1.07D+00 BMatP= 1.07D+00
 IDIUse=3 WtCom= 8.15D-01 WtEn= 1.85D-01
 Coeff-Com:  0.100D+01
 Coeff-En:   0.100D+01
 Coeff:      0.100D+01
 Gap=     0.272 Goal=   None    Shift=    0.000
 GapD=    0.272 DampG=1.000 DampE=0.500 DampFc=0.5000 IDamp=-1.
 Damping current iteration by 5.00D-01
 RMSDP=1.23D-02 MaxDP=2.10D+00              OVMax= 1.46D-01

 Cycle   2  Pass 1  IDiag  1:
 RMSU=  6.01D-03    CP:  1.03D+00
 E= -2158.97359372433     Delta-E=       -0.303345334843 Rises=F Damp=T
 DIIS: error= 4.10D-03 at cycle   2 NSaved=   2.
 NSaved= 2 IEnMin= 2 EnMin= -2158.97359372433     IErMin= 2 ErrMin= 4.10D-03
 ErrMax= 4.10D-03  0.00D+00 EMaxC= 1.00D-01 BMatC= 8.04D-02 BMatP= 1.07D+00
 IDIUse=3 WtCom= 9.59D-01 WtEn= 4.10D-02
 Coeff-Com:  0.529D-01 0.947D+00
 Coeff-En:   0.145D+00 0.855D+00
 Coeff:      0.567D-01 0.943D+00
 Gap=     0.276 Goal=   None    Shift=    0.000
 RMSDP=4.72D-03 MaxDP=1.18D+00 DE=-3.03D-01 OVMax= 9.79D-02

 Cycle   3  Pass 1  IDiag  1:
 RMSU=  2.86D-03    CP:  9.41D-01  9.49D-01
 E= -2159.36387849192     Delta-E=       -0.390284767589 Rises=F Damp=F
 DIIS: error= 4.59D-03 at cycle   3 NSaved=   3.
 NSaved= 3 IEnMin= 3 EnMin= -2159.36387849192     IErMin= 2 ErrMin= 4.10D-03
 ErrMax= 4.59D-03  0.00D+00 EMaxC= 1.00D-01 BMatC= 4.20D-02 BMatP= 8.04D-02
 IDIUse=3 WtCom= 9.54D-01 WtEn= 4.59D-02
 Coeff-Com: -0.661D-01 0.400D+00 0.666D+00
 Coeff-En:   0.000D+00 0.000D+00 0.100D+01
 Coeff:     -0.630D-01 0.381D+00 0.682D+00
 Gap=     0.268 Goal=   None    Shift=    0.000
 RMSDP=1.66D-03 MaxDP=4.85D-01 DE=-3.90D-01 OVMax= 1.65D-02

 Cycle   4  Pass 1  IDiag  1:
 RMSU=  1.19D-03    CP:  9.63D-01  1.05D+00  9.32D-01
 E= -2159.38941215733     Delta-E=       -0.025533665410 Rises=F Damp=F
 DIIS: error= 9.68D-04 at cycle   4 NSaved=   4.
 NSaved= 4 IEnMin= 4 EnMin= -2159.38941215733     IErMin= 4 ErrMin= 9.68D-04
 ErrMax= 9.68D-04  0.00D+00 EMaxC= 1.00D-01 BMatC= 5.95D-03 BMatP= 4.20D-02
 IDIUse=3 WtCom= 9.90D-01 WtEn= 9.68D-03
 Coeff-Com: -0.345D-01 0.119D+00 0.347D+00 0.569D+00
 Coeff-En:   0.000D+00 0.000D+00 0.836D-01 0.916D+00
 Coeff:     -0.341D-01 0.118D+00 0.344D+00 0.572D+00
 Gap=     0.261 Goal=   None    Shift=    0.000
 RMSDP=1.28D-03 MaxDP=4.51D-01 DE=-2.55D-02 OVMax= 5.59D-03

 Cycle   5  Pass 1  IDiag  1:
 RMSU=  3.25D-04    CP:  9.38D-01  1.02D+00  8.96D-01  5.62D-01
 E= -2159.39431745948     Delta-E=       -0.004905302152 Rises=F Damp=F
 DIIS: error= 2.52D-04 at cycle   5 NSaved=   5.
 NSaved= 5 IEnMin= 5 EnMin= -2159.39431745948     IErMin= 5 ErrMin= 2.52D-04
 ErrMax= 2.52D-04  0.00D+00 EMaxC= 1.00D-01 BMatC= 2.54D-04 BMatP= 5.95D-03
 IDIUse=3 WtCom= 9.97D-01 WtEn= 2.52D-03
 Coeff-Com: -0.109D-01 0.254D-01 0.105D+00 0.249D+00 0.632D+00
 Coeff-En:   0.000D+00 0.000D+00 0.000D+00 0.000D+00 0.100D+01
 Coeff:     -0.108D-01 0.253D-01 0.104D+00 0.248D+00 0.633D+00
 Gap=     0.260 Goal=   None    Shift=    0.000
 RMSDP=1.92D-04 MaxDP=5.38D-02 DE=-4.91D-03 OVMax= 1.47D-03

 Cycle   6  Pass 1  IDiag  1:
 RMSU=  8.34D-05    CP:  9.41D-01  1.03D+00  9.12D-01  5.79D-01  7.33D-01
 E= -2159.39450021001     Delta-E=       -0.000182750533 Rises=F Damp=F
 DIIS: error= 1.15D-04 at cycle   6 NSaved=   6.
 NSaved= 6 IEnMin= 6 EnMin= -2159.39450021001     IErMin= 6 ErrMin= 1.15D-04
 ErrMax= 1.15D-04  0.00D+00 EMaxC= 1.00D-01 BMatC= 2.55D-05 BMatP= 2.54D-04
 IDIUse=3 WtCom= 9.99D-01 WtEn= 1.15D-03
 Coeff-Com: -0.379D-02 0.682D-02 0.360D-01 0.996D-01 0.330D+00 0.531D+00
 Coeff-En:   0.000D+00 0.000D+00 0.000D+00 0.000D+00 0.000D+00 0.100D+01
 Coeff:     -0.379D-02 0.681D-02 0.360D-01 0.995D-01 0.330D+00 0.532D+00
 Gap=     0.261 Goal=   None    Shift=    0.000
 RMSDP=3.94D-05 MaxDP=8.61D-03 DE=-1.83D-04 OVMax= 5.11D-04

 Cycle   7  Pass 1  IDiag  1:
 RMSU=  1.89D-05    CP:  9.41D-01  1.03D+00  9.13D-01  5.92D-01  7.45D-01
                    CP:  6.97D-01
 E= -2159.39451821756     Delta-E=       -0.000018007548 Rises=F Damp=F
 DIIS: error= 3.29D-05 at cycle   7 NSaved=   7.
 NSaved= 7 IEnMin= 7 EnMin= -2159.39451821756     IErMin= 7 ErrMin= 3.29D-05
 ErrMax= 3.29D-05  0.00D+00 EMaxC= 1.00D-01 BMatC= 1.81D-06 BMatP= 2.55D-05
 IDIUse=1 WtCom= 1.00D+00 WtEn= 0.00D+00
 Coeff-Com: -0.948D-03 0.129D-02 0.947D-02 0.303D-01 0.115D+00 0.268D+00
 Coeff-Com:  0.577D+00
 Coeff:     -0.948D-03 0.129D-02 0.947D-02 0.303D-01 0.115D+00 0.268D+00
 Coeff:      0.577D+00
 Gap=     0.261 Goal=   None    Shift=    0.000
 RMSDP=8.57D-06 MaxDP=1.87D-03 DE=-1.80D-05 OVMax= 1.34D-04

 Cycle   8  Pass 1  IDiag  1:
 RMSU=  6.88D-06    CP:  9.41D-01  1.03D+00  9.13D-01  5.93D-01  7.52D-01
                    CP:  6.81D-01  8.82D-01
 E= -2159.39451940333     Delta-E=       -0.000001185770 Rises=F Damp=F
 DIIS: error= 5.43D-06 at cycle   8 NSaved=   8.
 NSaved= 8 IEnMin= 8 EnMin= -2159.39451940333     IErMin= 8 ErrMin= 5.43D-06
 ErrMax= 5.43D-06  0.00D+00 EMaxC= 1.00D-01 BMatC= 1.32D-07 BMatP= 1.81D-06
 IDIUse=1 WtCom= 1.00D+00 WtEn= 0.00D+00
 Coeff-Com:  0.112D-04-0.207D-03 0.154D-03 0.223D-02 0.119D-01 0.537D-01
 Coeff-Com:  0.254D+00 0.679D+00
 Coeff:      0.112D-04-0.207D-03 0.154D-03 0.223D-02 0.119D-01 0.537D-01
 Coeff:      0.254D+00 0.679D+00
 Gap=     0.261 Goal=   None    Shift=    0.000
 RMSDP=3.17D-06 MaxDP=5.75D-04 DE=-1.19D-06 OVMax= 3.37D-05

 Cycle   9  Pass 1  IDiag  1:
 RMSU=  2.37D-06    CP:  9.41D-01  1.03D+00  9.13D-01  5.93D-01  7.54D-01
                    CP:  6.92D-01  9.01D-01  9.10D-01
 E= -2159.39451950060     Delta-E=       -0.000000097269 Rises=F Damp=F
 DIIS: error= 1.74D-06 at cycle   9 NSaved=   9.
 NSaved= 9 IEnMin= 9 EnMin= -2159.39451950060     IErMin= 9 ErrMin= 1.74D-06
 ErrMax= 1.74D-06  0.00D+00 EMaxC= 1.00D-01 BMatC= 9.58D-09 BMatP= 1.32D-07
 IDIUse=1 WtCom= 1.00D+00 WtEn= 0.00D+00
 Coeff-Com:  0.622D-04-0.165D-03-0.547D-03-0.932D-03-0.235D-02 0.499D-02
 Coeff-Com:  0.716D-01 0.295D+00 0.633D+00
 Coeff:      0.622D-04-0.165D-03-0.547D-03-0.932D-03-0.235D-02 0.499D-02
 Coeff:      0.716D-01 0.295D+00 0.633D+00
 Gap=     0.261 Goal=   None    Shift=    0.000
 RMSDP=8.25D-07 MaxDP=1.70D-04 DE=-9.73D-08 OVMax= 8.68D-06

 Cycle  10  Pass 1  IDiag  1:
 RMSU=  5.19D-07    CP:  9.41D-01  1.03D+00  9.13D-01  5.93D-01  7.53D-01
                    CP:  6.97D-01  9.08D-01  9.06D-01  8.07D-01
 E= -2159.39451950791     Delta-E=       -0.000000007316 Rises=F Damp=F
 DIIS: error= 8.91D-07 at cycle  10 NSaved=  10.
 NSaved=10 IEnMin=10 EnMin= -2159.39451950791     IErMin=10 ErrMin= 8.91D-07
 ErrMax= 8.91D-07  0.00D+00 EMaxC= 1.00D-01 BMatC= 1.15D-09 BMatP= 9.58D-09
 IDIUse=1 WtCom= 1.00D+00 WtEn= 0.00D+00
 Coeff-Com:  0.263D-04-0.603D-04-0.271D-03-0.583D-03-0.193D-02-0.137D-02
 Coeff-Com:  0.173D-01 0.951D-01 0.321D+00 0.571D+00
 Coeff:      0.263D-04-0.603D-04-0.271D-03-0.583D-03-0.193D-02-0.137D-02
 Coeff:      0.173D-01 0.951D-01 0.321D+00 0.571D+00
 Gap=     0.261 Goal=   None    Shift=    0.000
 RMSDP=3.23D-07 MaxDP=6.30D-05 DE=-7.32D-09 OVMax= 3.20D-06

 Cycle  11  Pass 1  IDiag  1:
 RMSU=  1.39D-07    CP:  9.41D-01  1.03D+00  9.13D-01  5.93D-01  7.53D-01
                    CP:  6.95D-01  9.13D-01  9.20D-01  8.14D-01  6.92D-01
 E= -2159.39451950884     Delta-E=       -0.000000000924 Rises=F Damp=F
 DIIS: error= 2.30D-07 at cycle  11 NSaved=  11.
 NSaved=11 IEnMin=11 EnMin= -2159.39451950884     IErMin=11 ErrMin= 2.30D-07
 ErrMax= 2.30D-07  0.00D+00 EMaxC= 1.00D-01 BMatC= 7.59D-11 BMatP= 1.15D-09
 IDIUse=1 WtCom= 1.00D+00 WtEn= 0.00D+00
 Coeff-Com:  0.653D-05-0.140D-04-0.833D-04-0.190D-03-0.675D-03-0.959D-03
 Coeff-Com:  0.241D-02 0.201D-01 0.976D-01 0.263D+00 0.618D+00
 Coeff:      0.653D-05-0.140D-04-0.833D-04-0.190D-03-0.675D-03-0.959D-03
 Coeff:      0.241D-02 0.201D-01 0.976D-01 0.263D+00 0.618D+00
 Gap=     0.261 Goal=   None    Shift=    0.000
 RMSDP=6.76D-08 MaxDP=2.18D-05 DE=-9.24D-10 OVMax= 7.08D-07

 Cycle  12  Pass 1  IDiag  1:
 RMSU=  3.58D-08    CP:  9.41D-01  1.03D+00  9.13D-01  5.93D-01  7.53D-01
                    CP:  6.95D-01  9.13D-01  9.20D-01  8.25D-01  7.06D-01
                    CP:  8.43D-01
 E= -2159.39451950886     Delta-E=       -0.000000000022 Rises=F Damp=F
 DIIS: error= 3.86D-08 at cycle  12 NSaved=  12.
 NSaved=12 IEnMin=12 EnMin= -2159.39451950886     IErMin=12 ErrMin= 3.86D-08
 ErrMax= 3.86D-08  0.00D+00 EMaxC= 1.00D-01 BMatC= 7.96D-12 BMatP= 7.59D-11
 IDIUse=1 WtCom= 1.00D+00 WtEn= 0.00D+00
 Coeff-Com:  0.262D-06-0.270D-06-0.125D-04-0.310D-04-0.126D-03-0.312D-03
 Coeff-Com: -0.736D-03-0.694D-03 0.122D-01 0.662D-01 0.293D+00 0.631D+00
 Coeff:      0.262D-06-0.270D-06-0.125D-04-0.310D-04-0.126D-03-0.312D-03
 Coeff:     -0.736D-03-0.694D-03 0.122D-01 0.662D-01 0.293D+00 0.631D+00
 Gap=     0.261 Goal=   None    Shift=    0.000
 RMSDP=1.72D-08 MaxDP=2.72D-06 DE=-2.18D-11 OVMax= 2.48D-07

 Cycle  13  Pass 1  IDiag  1:
 RMSU=  1.38D-08    CP:  9.41D-01  1.03D+00  9.13D-01  5.93D-01  7.53D-01
                    CP:  6.95D-01  9.13D-01  9.20D-01  8.28D-01  7.08D-01
                    CP:  8.37D-01  9.08D-01
 E= -2159.39451950890     Delta-E=       -0.000000000040 Rises=F Damp=F
 DIIS: error= 1.23D-08 at cycle  13 NSaved=  13.
 NSaved=13 IEnMin=13 EnMin= -2159.39451950890     IErMin=13 ErrMin= 1.23D-08
 ErrMax= 1.23D-08  0.00D+00 EMaxC= 1.00D-01 BMatC= 6.92D-13 BMatP= 7.96D-12
 IDIUse=1 WtCom= 1.00D+00 WtEn= 0.00D+00
 Coeff-Com: -0.348D-06 0.876D-06 0.423D-07-0.703D-06-0.995D-05-0.700D-04
 Coeff-Com: -0.519D-03-0.178D-02-0.153D-02 0.115D-01 0.909D-01 0.303D+00
 Coeff-Com:  0.598D+00
 Coeff:     -0.348D-06 0.876D-06 0.423D-07-0.703D-06-0.995D-05-0.700D-04
 Coeff:     -0.519D-03-0.178D-02-0.153D-02 0.115D-01 0.909D-01 0.303D+00
 Coeff:      0.598D+00
 Gap=     0.261 Goal=   None    Shift=    0.000
 RMSDP=6.92D-09 MaxDP=1.18D-06 DE=-4.00D-11 OVMax= 7.92D-08

 Cycle  14  Pass 1  IDiag  1:
[...]
 0193,0.00079613,0.00060249,-0.00063071,-0.00019500,0.00000380,0.000376
 98,0.00004951,-0.00002939,-0.00007478,-0.00002627,0.00000761,-0.000008
 07,-0.00001511,-0.00000767,-0.00000381,-0.00001797,-0.00002721,0.00003
 071,0.00002094,0.00004885,0.00003177,-0.00031130,0.00061642,-0.0005064
 5,-0.33679425,0.09060138,-0.18596755,-0.00014407,-0.00045499,0.0015571
 6,0.00000870,0.00000330,0.00001854,-0.00000675,-0.00001915,0.00003841,
 -0.00000058,0.00001106,0.00000449,0.00000159,0.00000554,0.00000688,-0.
 00000029,0.00000182,0.00000930,-0.00000402,0.00000128,0.00000123,-0.00
 000254,-0.00000027,0.00001219,-0.00001071,-0.00000778,-0.00000831,0.00
 001383,-0.00002610,-0.00001559,0.00004224,-0.00002400,-0.00000448,0.00
 005268,-0.00006083,-0.00002675,0.00002046,0.00002349,0.00002045,0.0000
 0590,0.00001720,0.00008512,0.00014568,-0.00004570,-0.00006195,-0.00021
 817,-0.00015253,-0.00030652,0.00003410,-0.00003570,0.00002170,-0.00000
 657,-0.00001194,0.00002231,-0.00000117,-0.00000089,-0.00000814,0.00001
 014,0.00001175,0.00001304,-0.00001472,-0.00003233,-0.00002325,0.000369
 61,-0.00008902,0.00011671,0.00117241,0.00050333,-0.00065254,-0.0001013
 1,-0.00026083,0.00014301,0.00010809,0.00002722,-0.00003486,-0.00002790
 ,0.00003141,0.00003223,-0.00013910,0.00002124,-0.00011133,0.00002113,0
 .00000375,0.00002731,-0.00005325,-0.00001209,-0.00005042,0.00004780,0.
 00000063,-0.00004294,0.00001612,-0.00001091,-0.00003160,0.00001870,0.0
 0004327,-0.00000878,-0.00000568,-0.00000647,0.00002264,0.00000443,-0.0
 0000843,0.00000144,0.00000720,0.00002175,0.00000536,0.00001805,0.00001
 660,0.00000864,0.00001561,-0.00003281,-0.00001472,0.00001214,0.0000139
 0,0.00000021,-0.00003506,-0.00000564,-0.00000442,-0.00010125,-0.000106
 15,-0.00006139,-0.00005370,0.00002167,-0.00003348,0.00001772,-0.000076
 43,-0.00009213,0.00065616,-0.00010908,-0.00011216,0.37114243,0.0000116
 8,-0.00011216,0.00001469,0.00000171,0.00024013,0.00005281,-0.00002982,
 -0.00002048,-0.00010073,-0.00005057,0.00004212,-0.00000844,-0.00001754
 ,0.00000338,-0.00007410,-0.00000839,0.00005326,-0.00000437,-0.00001078
 ,-0.00000233,-0.00002382,0.00001499,-0.00000646,0.00001931,0.00004594,
 0.00000582,0.00009383,0.00008721,-0.00002749,0.00008098,0.00008095,-0.
 00008824,0.00011191,-0.00002682,-0.00028648,-0.00001935,0.00007482,0.0
 0015161,-0.00007975,-0.00019919,0.00019491,0.00007363,0.00008222,-0.00
 018292,-0.00002224,-0.00014695,-0.00001905,-0.00060592,0.00003792,0.00
 002226,-0.00009844,-0.00019526,-0.00006469,-0.00010866,0.00001524,0.00
 001236,0.00010900,0.00003201,0.00006419,-0.00003291,-0.00001030,-0.000
 09837,0.00002473,0.00046586,0.00012357,-0.00019382,-0.00158636,-0.0012
 0576,0.00116452,-0.00209012,0.00060073,-0.00159067,-0.00480190,0.00134
 930,-0.00056257,-0.00076047,0.00028802,-0.00001204,0.00094494,-0.00053
 589,0.00039490,-0.00025826,0.00118457,-0.00057359,-0.00001977,0.000007
 97,0.00025629,-0.00002051,-0.00020015,-0.00003184,0.00050961,-0.000058
 07,-0.00018683,-0.00018894,-0.00006595,0.00020732,-0.00001384,0.000001
 07,-0.00002783,-0.00000526,-0.00001125,-0.00000683,-0.00005628,-0.0000
 0797,0.00000175,0.00000856,0.00001540,-0.00001822,0.00005348,-0.000097
 43,0.00005394,0.00226813,-0.00026840,-0.00137088,0.10200286,-0.0385204
 6,0.07343040,-0.00054664,-0.00067878,0.00086143,0.00000656,-0.00002169
 ,0.00000329,-0.00003480,0.00000023,0.00003198,0.00000472,0.00000053,0.
 00001781,0.00000035,-0.00000088,0.00001051,-0.00000078,-0.00000638,0.0
 0000264,0.00001006,-0.00000312,0.00000672,-0.00000456,0.00000377,0.000
 00631,-0.00000835,0.00000129,-0.00001032,-0.00003562,-0.00001733,-0.00
 003068,-0.00002728,-0.00001508,-0.00006044,-0.00003967,0.00015836,-0.0
 0007699,-0.00001938,-0.00002920,-0.00000449,0.00001334,-0.00001416,-0.
 00004086,-0.00001078,0.00009361,0.00002104,0.00000683,0.00013428,0.000
 17051,0.00000370,-0.00001033,0.00003806,0.00000804,-0.00001152,-0.0000
 1057,0.00000249,-0.00000461,0.00000335,-0.00000877,-0.00000786,0.00000
 029,-0.00002118,0.00007538,0.00000564,0.00012718,-0.00000674,-0.000013
 20,0.00058601,0.00009530,0.00051544,-0.00014634,-0.00050869,0.00013517
 ,0.00015838,0.00002398,-0.00012852,-0.00001417,-0.00009370,0.00001464,
 -0.00009236,-0.00000737,-0.00004577,0.00004739,-0.00000285,0.00002126,
 0.00001776,0.00000995,-0.00002705,0.00006223,0.00000306,-0.00002920,-0
 .00000289,0.00000888,-0.00001917,0.00001478,0.00001972,-0.00000747,0.0
 0000889,-0.00002545,0.00001720,0.00001793,-0.00000394,-0.00000164,-0.0
 0000028,0.00000922,0.00000861,0.00001389,0.00000544,0.00000622,0.00001
 798,-0.00001593,-0.00001032,0.00001306,0.00000702,0.00000673,-0.000023
 00,0.00000661,-0.00001316,-0.00015219,-0.00000301,-0.00007031,-0.00008
 260,0.00023462,-0.00004986,-0.00001674,-0.00001917,-0.00004830,0.00033
 290,-0.00045281,0.00007185,-0.09842521,0.03812393,0.00008263,0.0000311
 2,-0.00002021,-0.00008295,-0.00000495,0.00001216,-0.00011253,-0.000046
 48,0.00002884,-0.00001002,-0.00001927,-0.00000612,-0.00001590,-0.00000
 706,0.00004882,-0.00001727,-0.00003241,-0.00001786,-0.00001373,-0.0000
 1408,0.00001311,0.00001874,0.00001895,-0.00000457,0.00003140,0.0000092
 8,-0.00007255,0.00003607,0.00003163,0.00000730,0.00017455,0.00006493,0
 .00004043,0.00003297,-0.00001989,0.00001070,0.00002406,-0.00000219,0.0
 0002405,-0.00009350,0.00037361,0.00005012,0.00019643,-0.00014118,0.000
 03848,-0.00015207,-0.00040300,-0.00014778,0.00022582,-0.00004775,-0.00
 011267,0.00004277,0.00001555,0.00002165,0.00000554,0.00000800,-0.00001
 442,-0.00001567,-0.00000696,-0.00000029,0.00002185,0.00000483,0.000004
 23,-0.00042904,-0.00006238,0.00003862,0.00326066,0.00086277,-0.0036969
 1,0.02597480,-0.00655346,0.01349725,0.00484497,0.00087077,0.00198918,0
 .00001549,-0.00016972,-0.00006492,-0.00098073,0.00031332,-0.00038702,0
 .00114853,-0.00062400,0.00146158,0.00021120,0.00008815,-0.00050358,-0.
 00001668,0.00010721,0.00004239,-0.00030044,0.00010793,-0.00019287,0.00
 016213,0.00010086,-0.00007277,0.00002038,0.00000615,-0.00000484,0.0000
 0986,0.00000611,0.00002393,0.00001364,-0.00000059,-0.00001066,-0.00001
 805,-0.00002456,0.00005575,-0.00001940,0.00004812,-0.00008139,-0.00079
 591,-0.00149203,-0.00038020,-0.23252215,0.07940284,-0.19519251,0.00049
 291,0.00024240,-0.00079337,0.00000515,-0.00000238,-0.00000237,-0.00002
 081,-0.00001267,0.00000161,0.00000318,0.00000314,0.00000133,0.00000233
 ,0.00000324,-0.00000873,-0.00000168,0.00000395,-0.00000116,0.00000097,
 0.00000147,-0.00000213,0.00000166,0.00000052,-0.00000384,-0.00000334,-
 0.00000472,0.00000408,-0.00002196,-0.00001570,0.00002651,-0.00002097,-
 0.00003609,-0.00001873,-0.00009701,0.00000046,-0.00007888,-0.00000133,
 0.00000098,-0.00000064,-0.00000875,-0.00005897,-0.00009821,-0.00011399
 ,0.00008125,-0.00012518,0.00002982,0.00044442,0.00013344,-0.00003352,0
 .00001524,0.00004817,0.00000122,-0.00000189,0.00000491,0.00000323,-0.0
 0000030,-0.00000196,0.00000027,0.00000081,0.00000186,-0.00001295,0.000
 00159,-0.00000003,-0.00001346,0.00016063,0.00003345,0.00118023,-0.0007
 2621,-0.00056105,-0.00057771,-0.00040296,-0.00032890,0.00011595,-0.000
 03477,-0.00011628,-0.00005160,0.00001805,0.00003278,0.00018983,-0.0000
 0392,0.00006111,-0.00005010,0.00000169,-0.00001964,-0.00001325,0.00000
 918,-0.00001002,-0.00004600,-0.00000475,0.00001922,0.00000470,-0.00001
 023,-0.00001349,-0.00000675,-0.00000720,-0.00000345,-0.00000635,0.0000
 2250,-0.00000253,-0.00001005,-0.00000006,-0.00000627,-0.00000378,-0.00
 000715,-0.00001080,-0.00001452,-0.00000935,-0.00000840,-0.00000155,0.0
 0001778,0.00002036,-0.00000488,-0.00000163,-0.00001030,0.00002143,-0.0
 0000333,0.00000606,0.00003539,0.00001170,0.00008269,0.00003838,-0.0001
 1387,0.00003460,-0.00002031,0.00002454,0.00005344,-0.00150753,-0.00001
 177,0.00018963,0.20171811,-0.07208839,0.18499644,0.00003476,0.00015296
 ,0.00003606,-0.00003435,-0.00028448,-0.00006240,0.00004746,0.00003179,
 -0.00002384,0.00003803,-0.00007087,0.00000589,0.00000039,0.00000556,0.
 00000280,-0.00001936,-0.00009502,-0.00002951,-0.00001997,-0.00003422,-
 0.00001401,0.00002849,0.00005293,0.00001567,-0.00001290,0.00004145,0.0
 0001131,-0.00007298,0.00007059,-0.00001588,-0.00009820,0.00011658,-0.0
 0001602,0.00016539,0.00037154,0.00023209,0.00028204,-0.00009821,-0.001
 42964,-0.00515280,-0.00240500,0.00090951,0.00067858,0.00084083,0.00054
 553,-0.01958130,0.00373353,-0.03779030,-0.00367742,-0.00028587,-0.0029
 7567,0.00075816,0.00027688,0.00098251,0.00009084,-0.00011659,-0.000528
 89,-0.00009664,-0.00002282,0.00009594,0.00008166,0.00011132,0.00004545
 ,0.00194738,0.00087588,-0.00018131,-0.00056307,-0.00173896,0.00118590,
 0.00081213,-0.00125629,0.00064420,-0.00029452,-0.00007688,0.00032407,0
 .00033169,-0.00025173,0.00027541,-0.00007593,0.00037061,-0.00041422,-0
 .00019910,-0.00015263,0.00017588,-0.00006840,-0.00006230,-0.00004419,0
 .00010126,0.00016596,0.00002754,-0.00005187,0.00013944,-0.00009177,-0.
 00002039,-0.00003153,0.00006461,0.00000511,-0.00000571,-0.00000278,-0.
 00000694,0.00000833,0.00000740,0.00001106,-0.00000660,-0.00000657,-0.0
 0002423,-0.00002831,0.00004479,-0.00001699,0.00011786,-0.00003109,-0.0
 0025635,0.00019875,-0.00022082,-0.00631693,0.00095901,-0.00037549,-0.0
 7607909,0.00741255,-0.11019194,0.00000678,0.00002545,0.00003324,0.0000
 1042,-0.00001324,0.00001291,-0.00000068,0.00000606,-0.00000270,0.00000
 058,0.00000668,-0.00000170,0.00000026,0.00000596,0.00000747,-0.0000092
 2,0.00000329,-0.00000435,0.00000101,-0.00000195,0.00000752,-0.00000753
 ,-0.00000986,-0.00000196,0.00001484,-0.00001581,0.00000382,0.00003841,
 -0.00001639,0.00000751,0.00007785,-0.00021969,0.00003685,-0.00032484,-
 0.00009569,0.00002643,-0.00001011,0.00016142,0.00025217,0.00042662,-0.
 00115059,-0.00040349,0.00196354,-0.00017213,0.00016276,-0.00010142,0.0
 0005423,-0.00009485,-0.00001724,-0.00000142,0.00006306,-0.00002658,0.0
 0000256,-0.00000608,0.00005975,0.00003062,0.00002088,0.00000454,-0.000
 09682,-0.00004042,-0.00012070,0.00007454,-0.00004275,-0.00005107,0.000
 01706,0.00014829,-0.00000077,0.00001060,-0.00003724,-0.00002385,0.0000
 0407,-0.00001904,0.00003961,0.00000666,-0.00001640,0.00003833,0.000037
 95,-0.00001142,-0.00008761,0.00002571,0.00001076,-0.00008807,-0.000039
 68,-0.00003258,-0.00000843,-0.00000253,0.00000232,0.00000242,-0.000002
 69,-0.00001042,0.00000401,0.00000264,-0.00000465,-0.00000419,0.0000041
 1,0.00000497,-0.00000357,-0.00000445,0.00000147,0.00000098,0.00000759,
 -0.00000545,0.00000039,0.00000737,0.00000012,0.00000101,-0.00000471,-0
 .00000180,0.00000184,0.00000195,-0.00000386,-0.00000567,-0.00001216,0.
 00000785,0.00001861,-0.00005950,0.00001185,0.00003561,-0.00018457,0.00
 001850,0.00001104,-0.00004402,-0.00003527,0.00004795,-0.00001633,-0.00
 003239,0.00129073,0.00199834,-0.00213903,0.10411973,-0.00001833,-0.000
 16844,0.00006075,0.00007306,0.00031745,0.00003055,-0.00009275,-0.00002
 588,-0.00013147,-0.00002018,0.00002291,0.00001134,-0.00002294,0.000012
 87,-0.00008965,-0.00000720,0.00007287,-0.00000531,-0.00000720,-0.00000
 022,-0.00004118,0.00000916,-0.00001017,0.00002772,0.00003737,0.0000218
 7,0.00012401,0.00006489,-0.00002816,0.00006302,0.00013682,-0.00009619,
 0.00016327,0.00023526,-0.00041004,0.00032144,0.00006383,0.00041757,-0.
 00225574,-0.00585493,-0.00296939,-0.00061893,-0.00026095,-0.00035058,0
 .00023107,-0.01065105,0.00268723,-0.02313147,0.00130909,0.00059605,0.0
 0016364,-0.00067695,-0.00023695,0.00004815,0.00023849,-0.00012103,0.00
 005370,0.00009697,0.00022241,-0.00009397,-0.00004387,-0.00021247,0.000
 18154,-0.00073823,-0.00125110,0.00121503,-0.00040334,0.00158599,-0.001
 05307,-0.00467690,0.00133706,0.00104811,0.00101927,-0.00031565,-0.0006
 5737,-0.00093665,0.00017068,-0.00001477,0.00028939,-0.00023143,0.00026
 250,0.00005369,-0.00010297,0.00023532,-0.00003583,0.00001441,-0.000280
 18,0.00013258,-0.00004948,0.00028749,0.00049760,0.00034569,-0.00038462
 ,-0.00016487,-0.00001801,0.00024878,0.00001559,-0.00001509,-0.00004759
 ,-0.00001662,-0.00000141,-0.00000740,-0.00002691,-0.00000871,0.,-0.000
 00658,-0.00000876,0.00000452,0.00002555,0.00000096,0.00004830,0.000204
 62,0.00018038,-0.00036996,0.00351982,-0.00255255,-0.00208618,0.0251755
 0,-0.04341408,0.11539143,0.00000602,0.00000410,0.00004901,-0.00002619,
 -0.00003463,0.00006128,0.00000107,0.00001131,0.00001859,0.00000332,-0.
 00000183,0.00001391,-0.00000107,-0.00000380,0.00000582,0.00001168,-0.0
 0000358,0.00000582,-0.00000543,0.00000012,0.00001293,-0.00000765,0.000
 00162,-0.00001355,-0.00001910,-0.00001689,-0.00002475,-0.00002019,-0.0
 0001986,-0.00004130,-0.00011737,0.00021335,-0.00020769,-0.00058070,-0.
 00034491,-0.00006324,-0.00000183,0.00014061,0.00022352,-0.00007221,0.0
 0072175,0.00013342,-0.00049609,-0.00001228,-0.00133538,0.00030944,-0.0
 0024199,0.00024387,0.00000141,0.00000284,-0.00000228,-0.00002141,-0.00
 001110,0.00001093,-0.00000671,-0.00002104,0.00003053,-0.00001759,0.000
 09939,-0.00001853,-0.00014951,-0.00027512,-0.00001804,0.00069952,0.000
 00323,-0.00082923,-0.00003885,-0.00008936,0.00010331,0.00006243,0.0000
 2406,-0.00001224,0.00001645,0.00001254,-0.00006210,0.00006572,-0.00000
 032,0.00004568,0.00005190,-0.00000981,-0.00000056,-0.00001704,0.000089
 14,-0.00028140,0.00003812,-0.00000179,-0.00002432,0.00000907,-0.000000
 07,-0.00002005,0.00001282,0.00002783,-0.00000631,0.00000176,-0.0000098
 4,0.00001561,0.00001000,-0.00000672,0.00000039,0.00000184,0.00001436,0
 .00000637,0.00001164,0.00001261,0.00000622,0.00001581,-0.00001910,-0.0
 0001073,0.00001323,0.00001335,0.00000090,-0.00003087,-0.00000836,-0.00
 000250,-0.00009888,-0.00007734,-0.00004234,-0.00007517,0.00007093,-0.0
 0005930,-0.00000256,-0.00005288,-0.00009818,0.00008229,-0.00006688,0.0
 0010345,0.00120554,0.00046471,-0.00030743,-0.00936095,0.04399400,0.000
 36448,0.00038902,-0.00011919,-0.00039300,-0.00083456,-0.00006499,-0.00
 019741,-0.00006739,0.00027018,0.00004479,-0.00013529,-0.00001878,-0.00
 001928,-0.00001822,0.00021210,-0.00003074,-0.00020824,-0.00006289,-0.0
 0004867,-0.00002452,0.00007987,0.00005939,0.00006692,-0.00003706,0.000
 03343,0.00000560,-0.00029736,-0.00005406,0.00016152,-0.00008335,0.0002
 4531,0.00048121,-0.00014152,0.00051289,0.00098510,0.00017251,-0.000258
 73,-0.00035453,0.00016315,-0.00057876,-0.00041970,-0.00025273,0.000067
 34,0.00067911,0.00088068,-0.00462694,-0.00215339,-0.00570496,0.0001206
 0,0.00120826,0.00488150,0.00211605,-0.00015749,-0.00101692,-0.00027638
 ,0.00014136,-0.00032609,-0.00023300,-0.00031877,0.00005117,0.00015744,
 0.00027707,-0.00032185,-0.00079475,0.00078626,-0.00280182,0.00096306,-
 0.00025851,0.00124121,0.00675655,-0.00120065,-0.00313640,-0.00152416,0
 .00054705,0.00108643,0.00139270,-0.00014047,0.00011872,-0.00049055,0.0
 0012629,-0.00035687,-0.00019776,-0.00003792,-0.00047777,0.00007678,0.0
 0012743,0.00055210,-0.00017329,-0.00010549,-0.00065948,-0.00075164,-0.
 00060008,0.00054402,0.00025126,0.00003302,-0.00034920,-0.00002010,0.00
 003370,0.00006899,0.00002780,-0.00000161,0.00003009,0.00003385,0.00001
 343,-0.00001523,-0.00001658,-0.00001366,0.00006350,-0.00000211,-0.0000
 4683,-0.00017016,-0.00026435,-0.00039066,0.00037254,-0.00412162,-0.002
 09789,0.00110943,-0.14832734,0.08811747,-0.42928943,0.00001151,0.00005
 038,0.00000215,0.00001250,-0.00001791,-0.00006389,0.00000174,-0.000001
 12,-0.00002186,0.00000598,0.00001613,-0.00004028,-0.00000379,0.0000152
 6,-0.00000702,-0.00000988,0.00000551,-0.00000682,0.00000840,0.00000608
 ,-0.00002521,-0.00000467,-0.00001075,0.00002071,-0.00001664,-0.0000212
 4,0.00007500,0.00001844,-0.00007028,0.00003435,-0.00011026,-0.00061979
 ,-0.00002031,0.00012171,0.00015085,0.00009724,0.00003246,-0.00012321,0
 .00011039,0.00003332,-0.00015655,-0.00110904,0.00237467,0.00211826,0.0
 0072360,-0.00014562,0.00009834,-0.00011975,-0.00003334,0.00004846,-0.0
 0001437,0.00004652,0.00001364,-0.00000969,0.00000903,0.00004255,-0.000
 02414,-0.00007086,-0.00006691,0.00003855,-0.00023138,-0.00018540,0.000
 09725,-0.00050731,0.00015239,0.00039044,0.00000225,-0.00005142,-0.0001
 6090,-0.00008179,-0.00003893,-0.00001491,0.00009380,-0.00002390,-0.000
 07659,-0.00009286,-0.00001048,-0.00008852,-0.00004349,0.00000422,0.000
 04614,-0.00000376,-0.00014648,0.00056429,-0.00005486,0.00000983,0.0000
 4018,-0.00002213,-0.00000082,0.00001896,-0.00001938,-0.00004539,0.0000
 0223,-0.00000200,0.00001135,-0.00002024,-0.00001250,0.00000885,-0.0000
 0591,-0.00000670,-0.00002230,-0.00001640,-0.00002606,-0.00003138,-0.00
 001132,-0.00001376,0.00003950,0.00002923,-0.00001933,-0.00001405,-0.00
 000784,0.00005996,0.00002135,-0.00000744,0.00013140,0.00013454,0.00016
 226,0.00005645,-0.00001856,0.00011923,-0.00004394,0.00010698,0.0002406
 6,-0.00013464,0.00011755,-0.00009060,-0.00205259,0.00047384,0.00005021
 ,0.15092090,-0.08656293,0.43290582\\0.00000136,0.00000441,-0.00001365,
 -0.00000985,-0.00001730,0.00000389,-0.00001397,0.00000286,0.00001097,-
 0.00000851,0.00001955,-0.00001015,0.00000972,0.00000615,-0.00001614,0.
 00001550,-0.00000017,0.00000423,0.00000575,0.00000814,-0.00000509,0.00
 001112,-0.00001172,0.00000847,-0.00000222,-0.00000482,0.00001965,0.000
 01209,-0.00001778,0.00001044,0.00001262,0.00000304,-0.00000651,0.00000
 671,0.00000721,0.00000833,0.00001506,-0.00000228,0.00000089,-0.0000068
 6,0.00000738,0.00000155,0.00001734,-0.00000324,0.00000076,-0.00000990,
 0.00000858,0.00001903,-0.00000522,-0.00001398,0.00000667,0.00001170,0.
 00000457,-0.00000173,0.00000194,-0.00000883,-0.00000626,-0.00000290,0.
 00000613,-0.00000790,0.00001290,-0.00001347,-0.00001379,0.00001432,0.0
 0000422,-0.00000100,-0.00001508,0.00000518,0.00000014,-0.00001139,-0.0
 0001126,0.00002609,-0.00003042,0.00000390,0.00000857,0.00001625,-0.000
 00639,-0.00001015,0.00000233,0.00000048,-0.00000200,0.00000071,0.00000
 444,-0.00000134,-0.00000069,0.00000743,0.00001157,0.00000718,-0.000017
 07,-0.00001300,0.00000217,0.00000782,-0.00000266,-0.00001580,-0.000008
 45,0.00002655,0.00000495,-0.00000357,-0.00000626,-0.00000641,0.0000075
 6,-0.00001132,-0.00000247,0.00000204,-0.00000663,-0.00000992,0.0000030
 6,-0.00000091,-0.00002115,-0.00002860,0.00001428,0.00002126,-0.0000021
 3,-0.00000244,0.00000970,-0.00000212,-0.00000832,0.00001004,-0.0000039
 3,0.00000377,0.00000752,0.00000017,-0.00000392,0.00000558,0.00000049,0
 .00000504,0.00000379,-0.00000474,-0.00000018,0.00000202,-0.00000083,0.
 00000044,0.00000436,-0.00000204,-0.00000729,-0.00000115,-0.00000104,-0
 .00000137,0.00000539,0.00000003,-0.00000033,-0.00000158,0.00000693,-0.
 00001613,0.00000726,0.00000130,-0.00000175,0.00000147,0.00000630,0.000
 00465,-0.00000592,-0.00000737,0.00000443,0.00000251,0.00000023,-0.0000
 0155,0.00000314,-0.00000018,0.00000074,0.00000018,0.00000165,0.0000056
 3,0.00000026,-0.00000287,0.00000220,-0.00000191,0.00000704,0.00000113,
 -0.00000111,0.00000117,-0.00000762,0.00000311,0.00000407,-0.00000360,0
 .00000753,-0.00000134,-0.00000003,-0.00000122,0.00001069,0.00001026,0.
 00000073,-0.00000618,0.00000016,-0.00000223,0.00000532,0.00000279,-0.0
 0000327,0.00000117,-0.00000592,-0.00000933,0.00000081,0.00000253,-0.00
 000901,-0.00000022,-0.00000063,-0.00000501,0.00000466,-0.00000199,-0.0
 0000257,0.00000039,-0.00000517,-0.00000017,0.00000762,0.00000039,-0.00
 000585,0.00000005,-0.00000072,-0.00000917,0.00000541,-0.00000633,-0.00
 001111,-0.00000127,0.00000217,-0.00000741,0.00000181,0.00000290,-0.000
 00889,-0.00000156,0.00000120,-0.00000395,-0.00000182,-0.00000025,-0.00
 000731,-0.00000156,-0.00000454,0.00000716,-0.00000035,0.00000333,-0.00
 000014,-0.00000286,-0.00000440,0.00000352,-0.00000033,-0.00000978,0.00
 000953,0.00000293,-0.00000122,-0.00000072,0.00000929,-0.00001007,0.000
 00232,0.00000616,-0.00000667,-0.00001525,0.00000163,0.00001085,-0.0000
 0704,0.00000326,0.00000507,-0.00000606,-0.00000106,-0.00000302\\\@


 LEARN FROM YESTERDAY,
 LIVE FOR TODAY,
 LOOK TO TOMORROW,
 REST THIS AFTERNOON.

           -- SNOOPY
 Job cpu time:      21 days  0 hours 14 minutes 19.9 seconds.
 File lengths (MBytes):  RWF=  23975 Int=      0 D2E=      0 Chk=     97 Scr=      1
 Normal termination of Gaussian 09 at Sun Mar 27 03:44:05 2016.
