 Entering Gaussian System, Link 0=g09
 Initial command:
 /share/apps//g09/l1.exe "/scratch/Gau-44420.inp" -scrdir="/scratch/"
 Entering Link 1 = /share/apps//g09/l1.exe PID=     44421.
  
 Copyright (c) 1988,1990,1992,1993,1995,1998,2003,2009,2013,
            Gaussian, Inc.  All Rights Reserved.
  
 This is part of the Gaussian(R) 09 program.  It is based on
 the Gaussian(R) 03 system (copyright 2003, Gaussian, Inc.),
 the Gaussian(R) 98 system (copyright 1998, Gaussian, Inc.),
 the Gaussian(R) 94 system (copyright 1995, Gaussian, Inc.),
 the Gaussian 92(TM) system (copyright 1992, Gaussian, Inc.),
 the Gaussian 90(TM) system (copyright 1990, Gaussian, Inc.),
 the Gaussian 88(TM) system (copyright 1988, Gaussian, Inc.),
 the Gaussian 86(TM) system (copyright 1986, Carnegie Mellon
 University), and the Gaussian 82(TM) system (copyright 1983,
 Carnegie Mellon University). Gaussian is a federally registered
 trademark of Gaussian, Inc.
  
 This software contains proprietary and confidential information,
 including trade secrets, belonging to Gaussian, Inc.
  
 This software is provided under written license and may be
 used, copied, transmitted, or stored only in accord with that
 written license.
  
 The following legend is applicable only to US Government
 contracts under FAR:
  
                    RESTRICTED RIGHTS LEGEND
  
 Use, reproduction and disclosure by the US Government is
 subject to restrictions as set forth in subparagraphs (a)
 and (c) of the Commercial Computer Software - Restricted
 Rights clause in FAR 52.227-19.
  
 Gaussian, Inc.
 340 Quinnipiac St., Bldg. 40, Wallingford CT 06492
  
  
 ---------------------------------------------------------------
 Warning -- This program may not be used in any manner that
 competes with the business of Gaussian, Inc. or will provide
 assistance to any competitor of Gaussian, Inc.  The licensee
 of this program is prohibited from giving any competitor of
 Gaussian, Inc. access to this program.  By using this program,
 the user acknowledges that Gaussian, Inc. is engaged in the
 business of creating and licensing software in the field of
 computational chemistry and represents and warrants to the
 licensee that it is not a competitor of Gaussian, Inc. and that
 it will not use this program in any manner prohibited above.
 ---------------------------------------------------------------
  

 Cite this work as:
 Gaussian 09, Revision D.01,
 M. J. Frisch, G. W. Trucks, H. B. Schlegel, G. E. Scuseria, 
 M. A. Robb, J. R. Cheeseman, G. Scalmani, V. Barone, B. Mennucci, 
 G. A. Petersson, H. Nakatsuji, M. Caricato, X. Li, H. P. Hratchian, 
 A. F. Izmaylov, J. Bloino, G. Zheng, J. L. Sonnenberg, M. Hada, 
 M. Ehara, K. Toyota, R. Fukuda, J. Hasegawa, M. Ishida, T. Nakajima, 
 Y. Honda, O. Kitao, H. Nakai, T. Vreven, J. A. Montgomery, Jr., 
 J. E. Peralta, F. Ogliaro, M. Bearpark, J. J. Heyd, E. Brothers, 
 K. N. Kudin, V. N. Staroverov, T. Keith, R. Kobayashi, J. Normand, 
 K. Raghavachari, A. Rendell, J. C. Burant, S. S. Iyengar, J. Tomasi, 
 M. Cossi, N. Rega, J. M. Millam, M. Klene, J. E. Knox, J. B. Cross, 
 V. Bakken, C. Adamo, J. Jaramillo, R. Gomperts, R. E. Stratmann, 
 O. Yazyev, A. J. Austin, R. Cammi, C. Pomelli, J. W. Ochterski, 
 R. L. Martin, K. Morokuma, V. G. Zakrzewski, G. A. Voth, 
 P. Salvador, J. J. Dannenberg, S. Dapprich, A. D. Daniels, 
 O. Farkas, J. B. Foresman, J. V. Ortiz, J. Cioslowski, 
 and D. J. Fox, Gaussian, Inc., Wallingford CT, 2013.
 
 ******************************************
 Gaussian 09:  EM64L-G09RevD.01 24-Apr-2013
                19-May-2016 
 ******************************************
 %nproc=20
 Will use up to   20 processors via shared memory.
 %mem=80GB
 %chk=Tri_A154_of.chk
 ----------------------------------------------------------------------
 #P PBE1PBE/6-311+G(d,p) opt=ModRedundant optcyc=999 freq EmpiricalDisp
 ersion=GD3
 ----------------------------------------------------------------------
 1/6=999,14=-1,18=120,19=15,26=3,38=1/1,3;
 2/9=110,12=2,17=6,18=5,40=1/2;
 3/5=4,6=6,7=111,11=2,16=1,25=1,30=1,71=1,74=-13,124=31/1,2,3;
 4//1;
 5/5=2,38=5/2;
 6/7=2,8=2,9=2,10=2,28=1/1;
 7//1,2,3,16;
 1/6=999,14=-1,18=20,19=15,26=3/3(2);
 2/9=110/2;
 99//99;
 2/9=110/2;
 3/5=4,6=6,7=111,11=2,16=1,25=1,30=1,71=1,74=-13,124=31/1,2,3;
 4/5=5,16=3,69=1/1;
 5/5=2,38=5/2;
 7//1,2,3,16;
 1/6=999,14=-1,18=20,19=15,26=3/3(-5);
 2/9=110/2;
 6/7=2,8=2,9=2,10=2,19=2,28=1/1;
 99/9=1/99;
 Leave Link    1 at Thu May 19 09:28:42 2016, MaxMem= 10737418240 cpu:         3.9
 (Enter /share/apps//g09/l101.exe)
 -------
 disacch
 -------
 Symbolic Z-matrix:
 Charge =  1 Multiplicity = 1
 O                     3.23602   1.34242  -1.43378 
 C                     3.88969   0.06014  -1.48801 
 C                     3.82842  -0.54997  -2.8914 
 C                     4.32937   0.43478  -3.9447 
 C                     3.59209   1.77068  -3.84535 
 C                     3.637     2.31829  -2.41368 
 C                     2.728     3.53275  -2.20722 
 O                     1.33071   3.22522  -2.31647 
 O                     2.22534   1.62339  -4.26444 
 O                     4.09926  -0.05395  -5.26612 
 O                     4.64367  -1.70442  -2.98506 
 O                     3.12801  -0.73946  -0.62867 
 C                     3.71688  -1.31124   0.55053 
 C                     3.5517   -2.82742   0.45429 
 O                     4.26385  -3.32943  -0.68053 
 C                     2.06402  -3.13331   0.31981 
 C                     1.25942  -2.57063   1.50674 
 O                     1.57523  -1.16834   1.74042 
 C                     2.9722   -0.8267    1.80718 
 C                     3.07522   0.67952   2.09966 
 O                     2.36543   1.53609   1.21038 
 O                    -0.1311   -2.6723    1.33123 
 C                    -0.67965  -1.94317   0.21512 
 C                    -1.26594  -2.86758  -0.85602 
 C                    -1.83692  -2.00841  -1.98871 
 C                    -2.81138  -0.93801  -1.47845 
 O                    -2.22386  -0.20073  -0.38936 
 C                    -1.84469  -1.04995   0.70099 
 C                    -1.53396  -0.17382   1.90426 
 O                    -0.44918   0.73207   1.69054 
 O                    -3.02502  -0.05997  -2.53512 
 C                    -4.021     0.96983  -2.29935 
 C                    -3.4749    2.30484  -2.79596 
 C                    -2.1935    2.78747  -2.09672 
 C                    -2.38938   3.16803  -0.62246 
 C                    -1.16895   3.79581   0.04744 
 N                    -0.001     2.85173   0.09435 
 O                    -2.4558   -2.9141   -2.90068 
 O                    -0.27369  -3.75378  -1.38978 
 O                     1.91157  -4.54126   0.22148 
 H                     4.93948   0.14322  -1.13848 
 H                     2.76301  -0.7793   -3.08706 
 H                     5.41125   0.60805  -3.78187 
 H                     4.10016   2.50362  -4.49971 
 H                     4.6788    2.64337  -2.2191 
 H                     3.01029   4.31455  -2.93309 
 H                     2.88689   3.93919  -1.19767 
 H                     1.23966   2.67597  -3.1298 
 H                     2.24734   1.06023  -5.06367 
 H                     4.4191   -0.97537  -5.29063 
 H                     4.40337  -2.33003  -2.25992 
 H                     4.78545  -1.04451   0.61889 
 H                     3.9575   -3.29133   1.37353 
 H                     3.92496  -4.23821  -0.81457 
 H                     1.71997  -2.6475   -0.60579 
 H                     1.46808  -3.15579   2.41952 
 H                     3.43797  -1.33583   2.67626 
 H                     2.65229   0.8629    3.09774 
 H                     4.14928   0.93936   2.14577 
 H                     2.72943   1.43797   0.30053 
 H                     0.08949  -1.28877  -0.22533 
 H                    -2.07778  -3.46584  -0.40007 
 H                    -0.99744  -1.47219  -2.47203 
 H                    -3.75798  -1.40398  -1.1269 
 H                    -2.69543  -1.69909   0.99617 
 H                    -2.42013   0.43607   2.12927 
 H                    -1.32709  -0.81762   2.7724 
 H                     0.38532   0.20455   1.70515 
 H                    -4.26446   1.0065   -1.22714 
 H                    -4.93402   0.69891  -2.85329 
 H                    -4.2751    3.05688  -2.69124 
 H                    -3.27762   2.21503  -3.87558 
 H                    -1.80077   3.65723  -2.64827 
 H                    -1.43902   1.98891  -2.1858 
 H                    -2.69801   2.28525  -0.04109 
 H                    -3.2061    3.90326  -0.53548 
 H                    -0.83487   4.69744  -0.48526 
 H                    -1.40054   4.07302   1.08426 
 H                     0.44365   2.75507  -0.85292 
 H                    -0.27409   1.91499   0.51452 
 H                     0.7416    3.1875    0.72227 
 H                    -2.7154   -2.41178  -3.69358 
 H                    -0.68784  -4.18079  -2.16418 
 H                     1.07928  -4.67342  -0.28235 
 
 The following ModRedundant input section has been read:
 
 NAtoms=     84 NQM=       84 NQMF=       0 NMMI=      0 NMMIF=      0
                NMic=       0 NMicF=      0.
                    Isotopes and Nuclear Properties:
 (Nuclear quadrupole moments (NQMom) in fm**2, nuclear magnetic moments (NMagM)
  in nuclear magnetons)

  Atom         1           2           3           4           5           6           7           8           9          10
 IAtWgt=          16          12          12          12          12          12          12          16          16          16
 AtmWgt=  15.9949146  12.0000000  12.0000000  12.0000000  12.0000000  12.0000000  12.0000000  15.9949146  15.9949146  15.9949146
 NucSpn=           0           0           0           0           0           0           0           0           0           0
 AtZEff=   0.0000000   0.0000000   0.0000000   0.0000000   0.0000000   0.0000000   0.0000000   0.0000000   0.0000000   0.0000000
 NQMom=    0.0000000   0.0000000   0.0000000   0.0000000   0.0000000   0.0000000   0.0000000   0.0000000   0.0000000   0.0000000
 NMagM=    0.0000000   0.0000000   0.0000000   0.0000000   0.0000000   0.0000000   0.0000000   0.0000000   0.0000000   0.0000000
 AtZNuc=   8.0000000   6.0000000   6.0000000   6.0000000   6.0000000   6.0000000   6.0000000   8.0000000   8.0000000   8.0000000

  Atom        11          12          13          14          15          16          17          18          19          20
 IAtWgt=          16          16          12          12          16          12          12          16          12          12
 AtmWgt=  15.9949146  15.9949146  12.0000000  12.0000000  15.9949146  12.0000000  12.0000000  15.9949146  12.0000000  12.0000000
 NucSpn=           0           0           0           0           0           0           0           0           0           0
 AtZEff=   0.0000000   0.0000000   0.0000000   0.0000000   0.0000000   0.0000000   0.0000000   0.0000000   0.0000000   0.0000000
 NQMom=    0.0000000   0.0000000   0.0000000   0.0000000   0.0000000   0.0000000   0.0000000   0.0000000   0.0000000   0.0000000
 NMagM=    0.0000000   0.0000000   0.0000000   0.0000000   0.0000000   0.0000000   0.0000000   0.0000000   0.0000000   0.0000000
 AtZNuc=   8.0000000   8.0000000   6.0000000   6.0000000   8.0000000   6.0000000   6.0000000   8.0000000   6.0000000   6.0000000

  Atom        21          22          23          24          25          26          27          28          29          30
 IAtWgt=          16          16          12          12          12          12          16          12          12          16
 AtmWgt=  15.9949146  15.9949146  12.0000000  12.0000000  12.0000000  12.0000000  15.9949146  12.0000000  12.0000000  15.9949146
 NucSpn=           0           0           0           0           0           0           0           0           0           0
 AtZEff=   0.0000000   0.0000000   0.0000000   0.0000000   0.0000000   0.0000000   0.0000000   0.0000000   0.0000000   0.0000000
 NQMom=    0.0000000   0.0000000   0.0000000   0.0000000   0.0000000   0.0000000   0.0000000   0.0000000   0.0000000   0.0000000
 NMagM=    0.0000000   0.0000000   0.0000000   0.0000000   0.0000000   0.0000000   0.0000000   0.0000000   0.0000000   0.0000000
 AtZNuc=   8.0000000   8.0000000   6.0000000   6.0000000   6.0000000   6.0000000   8.0000000   6.0000000   6.0000000   8.0000000

  Atom        31          32          33          34          35          36          37          38          39          40
 IAtWgt=          16          12          12          12          12          12          14          16          16          16
 AtmWgt=  15.9949146  12.0000000  12.0000000  12.0000000  12.0000000  12.0000000  14.0030740  15.9949146  15.9949146  15.9949146
 NucSpn=           0           0           0           0           0           0           2           0           0           0
 AtZEff=   0.0000000   0.0000000   0.0000000   0.0000000   0.0000000   0.0000000   0.0000000   0.0000000   0.0000000   0.0000000
 NQMom=    0.0000000   0.0000000   0.0000000   0.0000000   0.0000000   0.0000000   2.0440000   0.0000000   0.0000000   0.0000000
 NMagM=    0.0000000   0.0000000   0.0000000   0.0000000   0.0000000   0.0000000   0.4037610   0.0000000   0.0000000   0.0000000
 AtZNuc=   8.0000000   6.0000000   6.0000000   6.0000000   6.0000000   6.0000000   7.0000000   8.0000000   8.0000000   8.0000000

  Atom        41          42          43          44          45          46          47          48          49          50
 IAtWgt=           1           1           1           1           1           1           1           1           1           1
 AtmWgt=   1.0078250   1.0078250   1.0078250   1.0078250   1.0078250   1.0078250   1.0078250   1.0078250   1.0078250   1.0078250
 NucSpn=           1           1           1           1           1           1           1           1           1           1
 AtZEff=   0.0000000   0.0000000   0.0000000   0.0000000   0.0000000   0.0000000   0.0000000   0.0000000   0.0000000   0.0000000
 NQMom=    0.0000000   0.0000000   0.0000000   0.0000000   0.0000000   0.0000000   0.0000000   0.0000000   0.0000000   0.0000000
 NMagM=    2.7928460   2.7928460   2.7928460   2.7928460   2.7928460   2.7928460   2.7928460   2.7928460   2.7928460   2.7928460
 AtZNuc=   1.0000000   1.0000000   1.0000000   1.0000000   1.0000000   1.0000000   1.0000000   1.0000000   1.0000000   1.0000000

  Atom        51          52          53          54          55          56          57          58          59          60
 IAtWgt=           1           1           1           1           1           1           1           1           1           1
 AtmWgt=   1.0078250   1.0078250   1.0078250   1.0078250   1.0078250   1.0078250   1.0078250   1.0078250   1.0078250   1.0078250
 NucSpn=           1           1           1           1           1           1           1           1           1           1
 AtZEff=   0.0000000   0.0000000   0.0000000   0.0000000   0.0000000   0.0000000   0.0000000   0.0000000   0.0000000   0.0000000
 NQMom=    0.0000000   0.0000000   0.0000000   0.0000000   0.0000000   0.0000000   0.0000000   0.0000000   0.0000000   0.0000000
 NMagM=    2.7928460   2.7928460   2.7928460   2.7928460   2.7928460   2.7928460   2.7928460   2.7928460   2.7928460   2.7928460
 AtZNuc=   1.0000000   1.0000000   1.0000000   1.0000000   1.0000000   1.0000000   1.0000000   1.0000000   1.0000000   1.0000000

  Atom        61          62          63          64          65          66          67          68          69          70
 IAtWgt=           1           1           1           1           1           1           1           1           1           1
 AtmWgt=   1.0078250   1.0078250   1.0078250   1.0078250   1.0078250   1.0078250   1.0078250   1.0078250   1.0078250   1.0078250
 NucSpn=           1           1           1           1           1           1           1           1           1           1
 AtZEff=   0.0000000   0.0000000   0.0000000   0.0000000   0.0000000   0.0000000   0.0000000   0.0000000   0.0000000   0.0000000
 NQMom=    0.0000000   0.0000000   0.0000000   0.0000000   0.0000000   0.0000000   0.0000000   0.0000000   0.0000000   0.0000000
 NMagM=    2.7928460   2.7928460   2.7928460   2.7928460   2.7928460   2.7928460   2.7928460   2.7928460   2.7928460   2.7928460
 AtZNuc=   1.0000000   1.0000000   1.0000000   1.0000000   1.0000000   1.0000000   1.0000000   1.0000000   1.0000000   1.0000000

  Atom        71          72          73          74          75          76          77          78          79          80
 IAtWgt=           1           1           1           1           1           1           1           1           1           1
 AtmWgt=   1.0078250   1.0078250   1.0078250   1.0078250   1.0078250   1.0078250   1.0078250   1.0078250   1.0078250   1.0078250
 NucSpn=           1           1           1           1           1           1           1           1           1           1
 AtZEff=   0.0000000   0.0000000   0.0000000   0.0000000   0.0000000   0.0000000   0.0000000   0.0000000   0.0000000   0.0000000
 NQMom=    0.0000000   0.0000000   0.0000000   0.0000000   0.0000000   0.0000000   0.0000000   0.0000000   0.0000000   0.0000000
 NMagM=    2.7928460   2.7928460   2.7928460   2.7928460   2.7928460   2.7928460   2.7928460   2.7928460   2.7928460   2.7928460
 AtZNuc=   1.0000000   1.0000000   1.0000000   1.0000000   1.0000000   1.0000000   1.0000000   1.0000000   1.0000000   1.0000000

  Atom        81          82          83          84
 IAtWgt=           1           1           1           1
 AtmWgt=   1.0078250   1.0078250   1.0078250   1.0078250
 NucSpn=           1           1           1           1
 AtZEff=   0.0000000   0.0000000   0.0000000   0.0000000
 NQMom=    0.0000000   0.0000000   0.0000000   0.0000000
 NMagM=    2.7928460   2.7928460   2.7928460   2.7928460
 AtZNuc=   1.0000000   1.0000000   1.0000000   1.0000000
 Leave Link  101 at Thu May 19 09:28:45 2016, MaxMem= 10737418240 cpu:         4.9
 (Enter /share/apps//g09/l103.exe)

 GradGradGradGradGradGradGradGradGradGradGradGradGradGradGradGradGradGrad
 Berny optimization.
 Initialization pass.
                           ----------------------------
                           !    Initial Parameters    !
                           ! (Angstroms and Degrees)  !
 --------------------------                            --------------------------
 ! Name  Definition              Value          Derivative Info.                !
 --------------------------------------------------------------------------------
 ! R1    R(1,2)                  1.4403         estimate D2E/DX2                !
 ! R2    R(1,6)                  1.4399         estimate D2E/DX2                !
 ! R3    R(2,3)                  1.5315         estimate D2E/DX2                !
 ! R4    R(2,12)                 1.3993         estimate D2E/DX2                !
 ! R5    R(2,41)                 1.1096         estimate D2E/DX2                !
 ! R6    R(3,4)                  1.5265         estimate D2E/DX2                !
 ! R7    R(3,11)                 1.4164         estimate D2E/DX2                !
 ! R8    R(3,42)                 1.1072         estimate D2E/DX2                !
 ! R9    R(4,5)                  1.5291         estimate D2E/DX2                !
 ! R10   R(4,10)                 1.4276         estimate D2E/DX2                !
 ! R11   R(4,43)                 1.1077         estimate D2E/DX2                !
 ! R12   R(5,6)                  1.5335         estimate D2E/DX2                !
 ! R13   R(5,9)                  1.4371         estimate D2E/DX2                !
 ! R14   R(5,44)                 1.1061         estimate D2E/DX2                !
 ! R15   R(6,7)                  1.531          estimate D2E/DX2                !
 ! R16   R(6,45)                 1.1086         estimate D2E/DX2                !
 ! R17   R(7,8)                  1.4349         estimate D2E/DX2                !
 ! R18   R(7,46)                 1.1035         estimate D2E/DX2                !
 ! R19   R(7,47)                 1.0998         estimate D2E/DX2                !
 ! R20   R(8,48)                 0.9856         estimate D2E/DX2                !
 ! R21   R(9,49)                 0.978          estimate D2E/DX2                !
 ! R22   R(10,50)                0.9757         estimate D2E/DX2                !
 ! R23   R(11,51)                0.9874         estimate D2E/DX2                !
 ! R24   R(12,13)                1.4367         estimate D2E/DX2                !
 ! R25   R(13,14)                1.5282         estimate D2E/DX2                !
 ! R26   R(13,19)                1.539          estimate D2E/DX2                !
 ! R27   R(13,52)                1.1035         estimate D2E/DX2                !
 ! R28   R(14,15)                1.4307         estimate D2E/DX2                !
 ! R29   R(14,16)                1.5247         estimate D2E/DX2                !
 ! R30   R(14,53)                1.1067         estimate D2E/DX2                !
 ! R31   R(15,54)                0.9791         estimate D2E/DX2                !
 ! R32   R(16,17)                1.5404         estimate D2E/DX2                !
 ! R33   R(16,40)                1.4196         estimate D2E/DX2                !
 ! R34   R(16,55)                1.1005         estimate D2E/DX2                !
 ! R35   R(17,18)                1.4563         estimate D2E/DX2                !
 ! R36   R(17,22)                1.4052         estimate D2E/DX2                !
 ! R37   R(17,56)                1.1041         estimate D2E/DX2                !
 ! R38   R(18,19)                1.4397         estimate D2E/DX2                !
 ! R39   R(19,20)                1.5378         estimate D2E/DX2                !
 ! R40   R(19,57)                1.1097         estimate D2E/DX2                !
 ! R41   R(20,21)                1.4242         estimate D2E/DX2                !
 ! R42   R(20,58)                1.0994         estimate D2E/DX2                !
 ! R43   R(20,59)                1.106          estimate D2E/DX2                !
 ! R44   R(21,60)                0.9849         estimate D2E/DX2                !
 ! R45   R(22,23)                1.4416         estimate D2E/DX2                !
 ! R46   R(23,24)                1.5315         estimate D2E/DX2                !
 ! R47   R(23,28)                1.5464         estimate D2E/DX2                !
 ! R48   R(23,61)                1.1017         estimate D2E/DX2                !
 ! R49   R(24,25)                1.5321         estimate D2E/DX2                !
 ! R50   R(24,39)                1.4335         estimate D2E/DX2                !
 ! R51   R(24,62)                1.1067         estimate D2E/DX2                !
 ! R52   R(25,26)                1.5348         estimate D2E/DX2                !
 ! R53   R(25,38)                1.4265         estimate D2E/DX2                !
 ! R54   R(25,63)                1.1072         estimate D2E/DX2                !
 ! R55   R(26,27)                1.4404         estimate D2E/DX2                !
 ! R56   R(26,31)                1.3904         estimate D2E/DX2                !
 ! R57   R(26,64)                1.1121         estimate D2E/DX2                !
 ! R58   R(27,28)                1.4331         estimate D2E/DX2                !
 ! R59   R(28,29)                1.5205         estimate D2E/DX2                !
 ! R60   R(28,65)                1.1101         estimate D2E/DX2                !
 ! R61   R(29,30)                1.4294         estimate D2E/DX2                !
 ! R62   R(29,66)                1.099          estimate D2E/DX2                !
 ! R63   R(29,67)                1.1004         estimate D2E/DX2                !
 ! R64   R(30,68)                0.9874         estimate D2E/DX2                !
 ! R65   R(31,32)                1.4519         estimate D2E/DX2                !
 ! R66   R(32,33)                1.5255         estimate D2E/DX2                !
 ! R67   R(32,69)                1.1001         estimate D2E/DX2                !
 ! R68   R(32,70)                1.1017         estimate D2E/DX2                !
 ! R69   R(33,34)                1.5375         estimate D2E/DX2                !
 ! R70   R(33,71)                1.1031         estimate D2E/DX2                !
 ! R71   R(33,72)                1.1012         estimate D2E/DX2                !
 ! R72   R(34,35)                1.5351         estimate D2E/DX2                !
 ! R73   R(34,73)                1.1022         estimate D2E/DX2                !
 ! R74   R(34,74)                1.1022         estimate D2E/DX2                !
 ! R75   R(35,36)                1.5272         estimate D2E/DX2                !
 ! R76   R(35,75)                1.1012         estimate D2E/DX2                !
 ! R77   R(35,76)                1.1023         estimate D2E/DX2                !
 ! R78   R(36,37)                1.5025         estimate D2E/DX2                !
 ! R79   R(36,77)                1.0992         estimate D2E/DX2                !
 ! R80   R(36,78)                1.0979         estimate D2E/DX2                !
 ! R81   R(37,79)                1.0509         estimate D2E/DX2                !
 ! R82   R(37,80)                1.0624         estimate D2E/DX2                !
 ! R83   R(37,81)                1.0288         estimate D2E/DX2                !
 ! R84   R(38,82)                0.9739         estimate D2E/DX2                !
 ! R85   R(39,83)                0.9765         estimate D2E/DX2                !
 ! R86   R(40,84)                0.9818         estimate D2E/DX2                !
 ! A1    A(2,1,6)              116.8316         estimate D2E/DX2                !
 ! A2    A(1,2,3)              111.7781         estimate D2E/DX2                !
 ! A3    A(1,2,12)             103.8025         estimate D2E/DX2                !
 ! A4    A(1,2,41)             110.5406         estimate D2E/DX2                !
 ! A5    A(3,2,12)             108.2604         estimate D2E/DX2                !
 ! A6    A(3,2,41)             110.8759         estimate D2E/DX2                !
 ! A7    A(12,2,41)            111.3669         estimate D2E/DX2                !
 ! A8    A(2,3,4)              111.2338         estimate D2E/DX2                !
 ! A9    A(2,3,11)             111.2396         estimate D2E/DX2                !
 ! A10   A(2,3,42)             106.4354         estimate D2E/DX2                !
 ! A11   A(4,3,11)             106.9352         estimate D2E/DX2                !
 ! A12   A(4,3,42)             109.1146         estimate D2E/DX2                !
 ! A13   A(11,3,42)            111.9217         estimate D2E/DX2                !
 ! A14   A(3,4,5)              111.1335         estimate D2E/DX2                !
 ! A15   A(3,4,10)             111.4051         estimate D2E/DX2                !
 ! A16   A(3,4,43)             108.6631         estimate D2E/DX2                !
 ! A17   A(5,4,10)             106.351          estimate D2E/DX2                !
 ! A18   A(5,4,43)             108.9487         estimate D2E/DX2                !
 ! A19   A(10,4,43)            110.3071         estimate D2E/DX2                !
 ! A20   A(4,5,6)              111.0097         estimate D2E/DX2                !
 ! A21   A(4,5,9)              110.4917         estimate D2E/DX2                !
 ! A22   A(4,5,44)             108.6021         estimate D2E/DX2                !
 ! A23   A(6,5,9)              109.6763         estimate D2E/DX2                !
 ! A24   A(6,5,44)             107.5913         estimate D2E/DX2                !
 ! A25   A(9,5,44)             109.404          estimate D2E/DX2                !
 ! A26   A(1,6,5)              112.6546         estimate D2E/DX2                !
 ! A27   A(1,6,7)              106.2904         estimate D2E/DX2                !
 ! A28   A(1,6,45)             109.9379         estimate D2E/DX2                !
 ! A29   A(5,6,7)              113.0661         estimate D2E/DX2                !
 ! A30   A(5,6,45)             107.2244         estimate D2E/DX2                !
 ! A31   A(7,6,45)             107.5597         estimate D2E/DX2                !
 ! A32   A(6,7,8)              113.4472         estimate D2E/DX2                !
 ! A33   A(6,7,46)             108.7479         estimate D2E/DX2                !
 ! A34   A(6,7,47)             109.3392         estimate D2E/DX2                !
 ! A35   A(8,7,46)             110.5397         estimate D2E/DX2                !
 ! A36   A(8,7,47)             106.8443         estimate D2E/DX2                !
 ! A37   A(46,7,47)            107.7589         estimate D2E/DX2                !
 ! A38   A(7,8,48)             105.7962         estimate D2E/DX2                !
 ! A39   A(5,9,49)             106.0184         estimate D2E/DX2                !
 ! A40   A(4,10,50)            107.0814         estimate D2E/DX2                !
 ! A41   A(3,11,51)            109.1341         estimate D2E/DX2                !
 ! A42   A(2,12,13)            120.5544         estimate D2E/DX2                !
 ! A43   A(12,13,14)           107.3888         estimate D2E/DX2                !
 ! A44   A(12,13,19)           110.2766         estimate D2E/DX2                !
 ! A45   A(12,13,52)           110.5821         estimate D2E/DX2                !
 ! A46   A(14,13,19)           108.1491         estimate D2E/DX2                !
 ! A47   A(14,13,52)           110.3889         estimate D2E/DX2                !
 ! A48   A(19,13,52)           109.9915         estimate D2E/DX2                !
 ! A49   A(13,14,15)           110.1373         estimate D2E/DX2                !
 ! A50   A(13,14,16)           108.0627         estimate D2E/DX2                !
 ! A51   A(13,14,53)           108.901          estimate D2E/DX2                !
 ! A52   A(15,14,16)           110.2004         estimate D2E/DX2                !
 ! A53   A(15,14,53)           109.221          estimate D2E/DX2                !
 ! A54   A(16,14,53)           110.2985         estimate D2E/DX2                !
 ! A55   A(14,15,54)           105.1871         estimate D2E/DX2                !
 ! A56   A(14,16,17)           111.6167         estimate D2E/DX2                !
 ! A57   A(14,16,40)           108.0509         estimate D2E/DX2                !
 ! A58   A(14,16,55)           106.8968         estimate D2E/DX2                !
 ! A59   A(17,16,40)           111.0737         estimate D2E/DX2                !
 ! A60   A(17,16,55)           108.8763         estimate D2E/DX2                !
 ! A61   A(40,16,55)           110.2423         estimate D2E/DX2                !
 ! A62   A(16,17,18)           111.2299         estimate D2E/DX2                !
 ! A63   A(16,17,22)           113.2161         estimate D2E/DX2                !
 ! A64   A(16,17,56)           110.1633         estimate D2E/DX2                !
 ! A65   A(18,17,22)           107.716          estimate D2E/DX2                !
 ! A66   A(18,17,56)           109.6751         estimate D2E/DX2                !
 ! A67   A(22,17,56)           104.5905         estimate D2E/DX2                !
 ! A68   A(17,18,19)           116.511          estimate D2E/DX2                !
 ! A69   A(13,19,18)           110.9125         estimate D2E/DX2                !
 ! A70   A(13,19,20)           115.5475         estimate D2E/DX2                !
 ! A71   A(13,19,57)           106.9742         estimate D2E/DX2                !
 ! A72   A(18,19,20)           107.8334         estimate D2E/DX2                !
 ! A73   A(18,19,57)           109.555          estimate D2E/DX2                !
 ! A74   A(20,19,57)           105.8013         estimate D2E/DX2                !
 ! A75   A(19,20,21)           115.9089         estimate D2E/DX2                !
 ! A76   A(19,20,58)           108.0755         estimate D2E/DX2                !
 ! A77   A(19,20,59)           107.6436         estimate D2E/DX2                !
 ! A78   A(21,20,58)           105.9515         estimate D2E/DX2                !
 ! A79   A(21,20,59)           111.6365         estimate D2E/DX2                !
 ! A80   A(58,20,59)           107.2503         estimate D2E/DX2                !
 ! A81   A(20,21,60)           109.4347         estimate D2E/DX2                !
 ! A82   A(17,22,23)           115.8891         estimate D2E/DX2                !
 ! A83   A(22,23,24)           112.449          estimate D2E/DX2                !
 ! A84   A(22,23,28)           109.6073         estimate D2E/DX2                !
 ! A85   A(22,23,61)           110.1384         estimate D2E/DX2                !
 ! A86   A(24,23,28)           106.2591         estimate D2E/DX2                !
 ! A87   A(24,23,61)           110.2526         estimate D2E/DX2                !
 ! A88   A(28,23,61)           107.9679         estimate D2E/DX2                !
 ! A89   A(23,24,25)           108.7392         estimate D2E/DX2                !
 ! A90   A(23,24,39)           111.6285         estimate D2E/DX2                !
 ! A91   A(23,24,62)           108.5993         estimate D2E/DX2                !
 ! A92   A(25,24,39)           109.2313         estimate D2E/DX2                !
 ! A93   A(25,24,62)           109.5327         estimate D2E/DX2                !
 ! A94   A(39,24,62)           109.0852         estimate D2E/DX2                !
 ! A95   A(24,25,26)           112.4534         estimate D2E/DX2                !
 ! A96   A(24,25,38)           106.1582         estimate D2E/DX2                !
 ! A97   A(24,25,63)           108.1654         estimate D2E/DX2                !
 ! A98   A(26,25,38)           112.3258         estimate D2E/DX2                !
 ! A99   A(26,25,63)           106.7833         estimate D2E/DX2                !
 ! A100  A(38,25,63)           110.9377         estimate D2E/DX2                !
 ! A101  A(25,26,27)           110.4485         estimate D2E/DX2                !
 ! A102  A(25,26,31)           106.5777         estimate D2E/DX2                !
 ! A103  A(25,26,64)           110.6889         estimate D2E/DX2                !
 ! A104  A(27,26,31)           108.3034         estimate D2E/DX2                !
 ! A105  A(27,26,64)           108.8221         estimate D2E/DX2                !
 ! A106  A(31,26,64)           111.966          estimate D2E/DX2                !
 ! A107  A(26,27,28)           112.3249         estimate D2E/DX2                !
 ! A108  A(23,28,27)           107.6118         estimate D2E/DX2                !
 ! A109  A(23,28,29)           115.3096         estimate D2E/DX2                !
 ! A110  A(23,28,65)           108.8545         estimate D2E/DX2                !
 ! A111  A(27,28,29)           108.3432         estimate D2E/DX2                !
 ! A112  A(27,28,65)           110.2466         estimate D2E/DX2                !
 ! A113  A(29,28,65)           106.4472         estimate D2E/DX2                !
 ! A114  A(28,29,30)           113.7001         estimate D2E/DX2                !
 ! A115  A(28,29,66)           108.481          estimate D2E/DX2                !
 ! A116  A(28,29,67)           109.003          estimate D2E/DX2                !
 ! A117  A(30,29,66)           106.9086         estimate D2E/DX2                !
 ! A118  A(30,29,67)           110.2474         estimate D2E/DX2                !
 ! A119  A(66,29,67)           108.344          estimate D2E/DX2                !
 ! A120  A(29,30,68)           107.4944         estimate D2E/DX2                !
 ! A121  A(26,31,32)           115.4616         estimate D2E/DX2                !
 ! A122  A(31,32,33)           108.8007         estimate D2E/DX2                !
 ! A123  A(31,32,69)           109.4946         estimate D2E/DX2                !
 ! A124  A(31,32,70)           108.2049         estimate D2E/DX2                !
 ! A125  A(33,32,69)           111.5515         estimate D2E/DX2                !
 ! A126  A(33,32,70)           110.3761         estimate D2E/DX2                !
 ! A127  A(69,32,70)           108.3506         estimate D2E/DX2                !
 ! A128  A(32,33,34)           115.1518         estimate D2E/DX2                !
 ! A129  A(32,33,71)           107.8204         estimate D2E/DX2                !
 ! A130  A(32,33,72)           108.1757         estimate D2E/DX2                !
 ! A131  A(34,33,71)           110.3284         estimate D2E/DX2                !
 ! A132  A(34,33,72)           108.795          estimate D2E/DX2                !
 ! A133  A(71,33,72)           106.1789         estimate D2E/DX2                !
 ! A134  A(33,34,35)           114.0939         estimate D2E/DX2                !
 ! A135  A(33,34,73)           108.4866         estimate D2E/DX2                !
 ! A136  A(33,34,74)           107.8374         estimate D2E/DX2                !
 ! A137  A(35,34,73)           109.2929         estimate D2E/DX2                !
 ! A138  A(35,34,74)           110.1551         estimate D2E/DX2                !
 ! A139  A(73,34,74)           106.7001         estimate D2E/DX2                !
 ! A140  A(34,35,36)           114.9097         estimate D2E/DX2                !
 ! A141  A(34,35,75)           110.124          estimate D2E/DX2                !
 ! A142  A(34,35,76)           109.6123         estimate D2E/DX2                !
 ! A143  A(36,35,75)           108.7801         estimate D2E/DX2                !
 ! A144  A(36,35,76)           106.4567         estimate D2E/DX2                !
 ! A145  A(75,35,76)           106.5818         estimate D2E/DX2                !
 ! A146  A(35,36,37)           112.1228         estimate D2E/DX2                !
 ! A147  A(35,36,77)           111.5598         estimate D2E/DX2                !
 ! A148  A(35,36,78)           110.4539         estimate D2E/DX2                !
 ! A149  A(37,36,77)           107.1132         estimate D2E/DX2                !
 ! A150  A(37,36,78)           107.0448         estimate D2E/DX2                !
 ! A151  A(77,36,78)           108.3394         estimate D2E/DX2                !
 ! A152  A(36,37,79)           111.0111         estimate D2E/DX2                !
 ! A153  A(36,37,80)           111.5036         estimate D2E/DX2                !
 ! A154  A(36,37,81)           112.028          estimate D2E/DX2                !
 ! A155  A(79,37,80)           112.5923         estimate D2E/DX2                !
 ! A156  A(79,37,81)           105.9478         estimate D2E/DX2                !
 ! A157  A(80,37,81)           103.4106         estimate D2E/DX2                !
 ! A158  A(25,38,82)           107.9791         estimate D2E/DX2                !
 ! A159  A(24,39,83)           105.7868         estimate D2E/DX2                !
 ! A160  A(16,40,84)           105.0746         estimate D2E/DX2                !
 ! D1    D(6,1,2,3)            -52.0202         estimate D2E/DX2                !
 ! D2    D(6,1,2,12)          -168.4821         estimate D2E/DX2                !
 ! D3    D(6,1,2,41)            72.0001         estimate D2E/DX2                !
 ! D4    D(2,1,6,5)             51.4105         estimate D2E/DX2                !
 ! D5    D(2,1,6,7)            175.7629         estimate D2E/DX2                !
 ! D6    D(2,1,6,45)           -68.1098         estimate D2E/DX2                !
 ! D7    D(1,2,3,4)             51.926          estimate D2E/DX2                !
 ! D8    D(1,2,3,11)           171.0236         estimate D2E/DX2                !
 ! D9    D(1,2,3,42)           -66.8179         estimate D2E/DX2                !
 ! D10   D(12,2,3,4)           165.6518         estimate D2E/DX2                !
 ! D11   D(12,2,3,11)          -75.2506         estimate D2E/DX2                !
 ! D12   D(12,2,3,42)           46.9079         estimate D2E/DX2                !
 ! D13   D(41,2,3,4)           -71.9058         estimate D2E/DX2                !
 ! D14   D(41,2,3,11)           47.1918         estimate D2E/DX2                !
 ! D15   D(41,2,3,42)          169.3503         estimate D2E/DX2                !
 ! D16   D(1,2,12,13)         -117.6536         estimate D2E/DX2                !
 ! D17   D(3,2,12,13)          123.4411         estimate D2E/DX2                !
 ! D18   D(41,2,12,13)           1.2989         estimate D2E/DX2                !
 ! D19   D(2,3,4,5)            -53.3586         estimate D2E/DX2                !
 ! D20   D(2,3,4,10)          -171.7638         estimate D2E/DX2                !
 ! D21   D(2,3,4,43)            66.5103         estimate D2E/DX2                !
 ! D22   D(11,3,4,5)          -174.9989         estimate D2E/DX2                !
 ! D23   D(11,3,4,10)           66.5959         estimate D2E/DX2                !
 ! D24   D(11,3,4,43)          -55.13           estimate D2E/DX2                !
 ! D25   D(42,3,4,5)            63.7652         estimate D2E/DX2                !
 ! D26   D(42,3,4,10)          -54.64           estimate D2E/DX2                !
 ! D27   D(42,3,4,43)         -176.3659         estimate D2E/DX2                !
 ! D28   D(2,3,11,51)           53.0313         estimate D2E/DX2                !
 ! D29   D(4,3,11,51)          174.668          estimate D2E/DX2                !
 ! D30   D(42,3,11,51)         -65.8913         estimate D2E/DX2                !
 ! D31   D(3,4,5,6)             52.2158         estimate D2E/DX2                !
 ! D32   D(3,4,5,9)            -69.6937         estimate D2E/DX2                !
 ! D33   D(3,4,5,44)           170.3059         estimate D2E/DX2                !
 ! D34   D(10,4,5,6)           173.6267         estimate D2E/DX2                !
 ! D35   D(10,4,5,9)            51.7172         estimate D2E/DX2                !
 ! D36   D(10,4,5,44)          -68.2831         estimate D2E/DX2                !
 ! D37   D(43,4,5,6)           -67.4833         estimate D2E/DX2                !
 ! D38   D(43,4,5,9)           170.6072         estimate D2E/DX2                !
 ! D39   D(43,4,5,44)           50.6069         estimate D2E/DX2                !
 ! D40   D(3,4,10,50)          -48.3423         estimate D2E/DX2                !
 ! D41   D(5,4,10,50)         -169.5796         estimate D2E/DX2                !
 ! D42   D(43,4,10,50)          72.4248         estimate D2E/DX2                !
 ! D43   D(4,5,6,1)            -50.177          estimate D2E/DX2                !
 ! D44   D(4,5,6,7)           -170.7147         estimate D2E/DX2                !
 ! D45   D(4,5,6,45)            70.9045         estimate D2E/DX2                !
 ! D46   D(9,5,6,1)             72.2069         estimate D2E/DX2                !
 ! D47   D(9,5,6,7)            -48.3308         estimate D2E/DX2                !
 ! D48   D(9,5,6,45)          -166.7116         estimate D2E/DX2                !
 ! D49   D(44,5,6,1)          -168.8782         estimate D2E/DX2                !
 ! D50   D(44,5,6,7)            70.5841         estimate D2E/DX2                !
 ! D51   D(44,5,6,45)          -47.7967         estimate D2E/DX2                !
 ! D52   D(4,5,9,49)           -42.5151         estimate D2E/DX2                !
 ! D53   D(6,5,9,49)          -165.2067         estimate D2E/DX2                !
 ! D54   D(44,5,9,49)           77.0022         estimate D2E/DX2                !
 ! D55   D(1,6,7,8)            -57.2613         estimate D2E/DX2                !
 ! D56   D(1,6,7,46)           179.298          estimate D2E/DX2                !
 ! D57   D(1,6,7,47)            61.8795         estimate D2E/DX2                !
 ! D58   D(5,6,7,8)             66.836          estimate D2E/DX2                !
 ! D59   D(5,6,7,46)           -56.6046         estimate D2E/DX2                !
 ! D60   D(5,6,7,47)          -174.0231         estimate D2E/DX2                !
 ! D61   D(45,6,7,8)          -174.9784         estimate D2E/DX2                !
 ! D62   D(45,6,7,46)           61.5809         estimate D2E/DX2                !
 ! D63   D(45,6,7,47)          -55.8375         estimate D2E/DX2                !
 ! D64   D(6,7,8,48)           -46.5772         estimate D2E/DX2                !
 ! D65   D(46,7,8,48)           75.8766         estimate D2E/DX2                !
 ! D66   D(47,7,8,48)         -167.1385         estimate D2E/DX2                !
 ! D67   D(2,12,13,14)        -121.9755         estimate D2E/DX2                !
 ! D68   D(2,12,13,19)         120.4003         estimate D2E/DX2                !
 ! D69   D(2,12,13,52)          -1.4736         estimate D2E/DX2                !
 ! D70   D(12,13,14,15)         62.7503         estimate D2E/DX2                !
 ! D71   D(12,13,14,16)        -57.6766         estimate D2E/DX2                !
 ! D72   D(12,13,14,53)       -177.5018         estimate D2E/DX2                !
 ! D73   D(19,13,14,15)       -178.2492         estimate D2E/DX2                !
 ! D74   D(19,13,14,16)         61.3239         estimate D2E/DX2                !
 ! D75   D(19,13,14,53)        -58.5013         estimate D2E/DX2                !
 ! D76   D(52,13,14,15)        -57.8738         estimate D2E/DX2                !
 ! D77   D(52,13,14,16)       -178.3008         estimate D2E/DX2                !
 ! D78   D(52,13,14,53)         61.874          estimate D2E/DX2                !
 ! D79   D(12,13,19,18)         57.947          estimate D2E/DX2                !
 ! D80   D(12,13,19,20)        -65.1476         estimate D2E/DX2                !
 ! D81   D(12,13,19,57)        177.3711         estimate D2E/DX2                !
 ! D82   D(14,13,19,18)        -59.207          estimate D2E/DX2                !
 ! D83   D(14,13,19,20)        177.6985         estimate D2E/DX2                !
 ! D84   D(14,13,19,57)         60.2171         estimate D2E/DX2                !
 ! D85   D(52,13,19,18)       -179.8304         estimate D2E/DX2                !
 ! D86   D(52,13,19,20)         57.0751         estimate D2E/DX2                !
 ! D87   D(52,13,19,57)        -60.4063         estimate D2E/DX2                !
 ! D88   D(13,14,15,54)       -165.3701         estimate D2E/DX2                !
 ! D89   D(16,14,15,54)        -46.2392         estimate D2E/DX2                !
 ! D90   D(53,14,15,54)         75.0763         estimate D2E/DX2                !
 ! D91   D(13,14,16,17)        -57.9743         estimate D2E/DX2                !
 ! D92   D(13,14,16,40)        179.6183         estimate D2E/DX2                !
 ! D93   D(13,14,16,55)         60.9774         estimate D2E/DX2                !
 ! D94   D(15,14,16,17)       -178.3618         estimate D2E/DX2                !
 ! D95   D(15,14,16,40)         59.2308         estimate D2E/DX2                !
 ! D96   D(15,14,16,55)        -59.41           estimate D2E/DX2                !
 ! D97   D(53,14,16,17)         60.9671         estimate D2E/DX2                !
 ! D98   D(53,14,16,40)        -61.4403         estimate D2E/DX2                !
 ! D99   D(53,14,16,55)        179.9189         estimate D2E/DX2                !
 ! D100  D(14,16,17,18)         50.4048         estimate D2E/DX2                !
 ! D101  D(14,16,17,22)        171.8611         estimate D2E/DX2                !
 ! D102  D(14,16,17,56)        -71.4271         estimate D2E/DX2                !
 ! D103  D(40,16,17,18)        171.0613         estimate D2E/DX2                !
 ! D104  D(40,16,17,22)        -67.4825         estimate D2E/DX2                !
 ! D105  D(40,16,17,56)         49.2294         estimate D2E/DX2                !
 ! D106  D(55,16,17,18)        -67.3634         estimate D2E/DX2                !
 ! D107  D(55,16,17,22)         54.0929         estimate D2E/DX2                !
 ! D108  D(55,16,17,56)        170.8047         estimate D2E/DX2                !
 ! D109  D(14,16,40,84)       -153.1031         estimate D2E/DX2                !
 ! D110  D(17,16,40,84)         84.1573         estimate D2E/DX2                !
 ! D111  D(55,16,40,84)        -36.6158         estimate D2E/DX2                !
 ! D112  D(16,17,18,19)        -49.1066         estimate D2E/DX2                !
 ! D113  D(22,17,18,19)       -173.721          estimate D2E/DX2                !
 ! D114  D(56,17,18,19)         73.0087         estimate D2E/DX2                !
 ! D115  D(16,17,22,23)        -62.2338         estimate D2E/DX2                !
 ! D116  D(18,17,22,23)         61.1781         estimate D2E/DX2                !
 ! D117  D(56,17,22,23)        177.8178         estimate D2E/DX2                !
 ! D118  D(17,18,19,13)         54.232          estimate D2E/DX2                !
 ! D119  D(17,18,19,20)       -178.33           estimate D2E/DX2                !
 ! D120  D(17,18,19,57)        -63.6326         estimate D2E/DX2                !
 ! D121  D(13,19,20,21)         70.7336         estimate D2E/DX2                !
 ! D122  D(13,19,20,58)       -170.5852         estimate D2E/DX2                !
 ! D123  D(13,19,20,59)        -55.0449         estimate D2E/DX2                !
 ! D124  D(18,19,20,21)        -53.9724         estimate D2E/DX2                !
 ! D125  D(18,19,20,58)         64.7088         estimate D2E/DX2                !
 ! D126  D(18,19,20,59)       -179.7508         estimate D2E/DX2                !
 ! D127  D(57,19,20,21)       -171.1311         estimate D2E/DX2                !
 ! D128  D(57,19,20,58)        -52.4499         estimate D2E/DX2                !
 ! D129  D(57,19,20,59)         63.0905         estimate D2E/DX2                !
 ! D130  D(19,20,21,60)        -62.3292         estimate D2E/DX2                !
 ! D131  D(58,20,21,60)        177.8295         estimate D2E/DX2                !
 ! D132  D(59,20,21,60)         61.3947         estimate D2E/DX2                !
 ! D133  D(17,22,23,24)        114.3704         estimate D2E/DX2                !
 ! D134  D(17,22,23,28)       -127.6751         estimate D2E/DX2                !
 ! D135  D(17,22,23,61)         -9.027          estimate D2E/DX2                !
 ! D136  D(22,23,24,25)        179.3449         estimate D2E/DX2                !
 ! D137  D(22,23,24,39)        -60.0795         estimate D2E/DX2                !
 ! D138  D(22,23,24,62)         60.2223         estimate D2E/DX2                !
 ! D139  D(28,23,24,25)         59.43           estimate D2E/DX2                !
 ! D140  D(28,23,24,39)       -179.9944         estimate D2E/DX2                !
 ! D141  D(28,23,24,62)        -59.6926         estimate D2E/DX2                !
 ! D142  D(61,23,24,25)        -57.3214         estimate D2E/DX2                !
 ! D143  D(61,23,24,39)         63.2542         estimate D2E/DX2                !
 ! D144  D(61,23,24,62)       -176.444          estimate D2E/DX2                !
 ! D145  D(22,23,28,27)        171.4535         estimate D2E/DX2                !
 ! D146  D(22,23,28,29)         50.4316         estimate D2E/DX2                !
 ! D147  D(22,23,28,65)        -69.0697         estimate D2E/DX2                !
 ! D148  D(24,23,28,27)        -66.801          estimate D2E/DX2                !
 ! D149  D(24,23,28,29)        172.1771         estimate D2E/DX2                !
 ! D150  D(24,23,28,65)         52.6758         estimate D2E/DX2                !
 ! D151  D(61,23,28,27)         51.4704         estimate D2E/DX2                !
 ! D152  D(61,23,28,29)        -69.5514         estimate D2E/DX2                !
 ! D153  D(61,23,28,65)        170.9472         estimate D2E/DX2                !
 ! D154  D(23,24,25,26)        -52.4733         estimate D2E/DX2                !
 ! D155  D(23,24,25,38)       -175.6809         estimate D2E/DX2                !
 ! D156  D(23,24,25,63)         65.1997         estimate D2E/DX2                !
 ! D157  D(39,24,25,26)       -174.5172         estimate D2E/DX2                !
 ! D158  D(39,24,25,38)         62.2753         estimate D2E/DX2                !
 ! D159  D(39,24,25,63)        -56.8442         estimate D2E/DX2                !
 ! D160  D(62,24,25,26)         66.0631         estimate D2E/DX2                !
 ! D161  D(62,24,25,38)        -57.1444         estimate D2E/DX2                !
 ! D162  D(62,24,25,63)       -176.2639         estimate D2E/DX2                !
 ! D163  D(23,24,39,83)       -169.8965         estimate D2E/DX2                !
 ! D164  D(25,24,39,83)        -49.6091         estimate D2E/DX2                !
 ! D165  D(62,24,39,83)         70.0871         estimate D2E/DX2                !
 ! D166  D(24,25,26,27)         49.9333         estimate D2E/DX2                !
 ! D167  D(24,25,26,31)        167.3657         estimate D2E/DX2                !
 ! D168  D(24,25,26,64)        -70.6555         estimate D2E/DX2                !
 ! D169  D(38,25,26,27)        169.618          estimate D2E/DX2                !
 ! D170  D(38,25,26,31)        -72.9496         estimate D2E/DX2                !
 ! D171  D(38,25,26,64)         49.0292         estimate D2E/DX2                !
 ! D172  D(63,25,26,27)        -68.5553         estimate D2E/DX2                !
 ! D173  D(63,25,26,31)         48.8772         estimate D2E/DX2                !
 ! D174  D(63,25,26,64)        170.8559         estimate D2E/DX2                !
 ! D175  D(24,25,38,82)       -171.9781         estimate D2E/DX2                !
 ! D176  D(26,25,38,82)         64.7342         estimate D2E/DX2                !
 ! D177  D(63,25,38,82)        -54.6949         estimate D2E/DX2                !
 ! D178  D(25,26,27,28)        -57.8672         estimate D2E/DX2                !
 ! D179  D(31,26,27,28)       -174.2309         estimate D2E/DX2                !
 ! D180  D(64,26,27,28)         63.8313         estimate D2E/DX2                !
 ! D181  D(25,26,31,32)        174.6004         estimate D2E/DX2                !
 ! D182  D(27,26,31,32)        -66.5564         estimate D2E/DX2                !
 ! D183  D(64,26,31,32)         53.433          estimate D2E/DX2                !
 ! D184  D(26,27,28,23)         67.2574         estimate D2E/DX2                !
 ! D185  D(26,27,28,29)       -167.4471         estimate D2E/DX2                !
 ! D186  D(26,27,28,65)        -51.3287         estimate D2E/DX2                !
 ! D187  D(23,28,29,30)         59.1467         estimate D2E/DX2                !
 ! D188  D(23,28,29,66)        177.938          estimate D2E/DX2                !
 ! D189  D(23,28,29,67)        -64.2828         estimate D2E/DX2                !
 ! D190  D(27,28,29,30)        -61.4774         estimate D2E/DX2                !
 ! D191  D(27,28,29,66)         57.3139         estimate D2E/DX2                !
 ! D192  D(27,28,29,67)        175.0931         estimate D2E/DX2                !
 ! D193  D(65,28,29,30)        179.9664         estimate D2E/DX2                !
 ! D194  D(65,28,29,66)        -61.2423         estimate D2E/DX2                !
 ! D195  D(65,28,29,67)         56.5369         estimate D2E/DX2                !
 ! D196  D(28,29,30,68)        -73.7586         estimate D2E/DX2                !
 ! D197  D(66,29,30,68)        166.5538         estimate D2E/DX2                !
 ! D198  D(67,29,30,68)         48.9899         estimate D2E/DX2                !
 ! D199  D(26,31,32,33)        135.2041         estimate D2E/DX2                !
 ! D200  D(26,31,32,69)         13.0525         estimate D2E/DX2                !
 ! D201  D(26,31,32,70)       -104.8521         estimate D2E/DX2                !
 ! D202  D(31,32,33,34)        -61.2468         estimate D2E/DX2                !
 ! D203  D(31,32,33,71)        175.1067         estimate D2E/DX2                !
 ! D204  D(31,32,33,72)         60.6762         estimate D2E/DX2                !
 ! D205  D(69,32,33,34)         59.6494         estimate D2E/DX2                !
 ! D206  D(69,32,33,71)        -63.9971         estimate D2E/DX2                !
 ! D207  D(69,32,33,72)       -178.4276         estimate D2E/DX2                !
 ! D208  D(70,32,33,34)       -179.8343         estimate D2E/DX2                !
 ! D209  D(70,32,33,71)         56.5192         estimate D2E/DX2                !
 ! D210  D(70,32,33,72)        -57.9113         estimate D2E/DX2                !
 ! D211  D(32,33,34,35)        -67.6012         estimate D2E/DX2                !
 ! D212  D(32,33,34,73)        170.3166         estimate D2E/DX2                !
 ! D213  D(32,33,34,74)         55.1101         estimate D2E/DX2                !
 ! D214  D(71,33,34,35)         54.7087         estimate D2E/DX2                !
 ! D215  D(71,33,34,73)        -67.3735         estimate D2E/DX2                !
 ! D216  D(71,33,34,74)        177.42           estimate D2E/DX2                !
 ! D217  D(72,33,34,35)        170.8103         estimate D2E/DX2                !
 ! D218  D(72,33,34,73)         48.7281         estimate D2E/DX2                !
 ! D219  D(72,33,34,74)        -66.4784         estimate D2E/DX2                !
 ! D220  D(33,34,35,36)       -173.4907         estimate D2E/DX2                !
 ! D221  D(33,34,35,75)         63.2658         estimate D2E/DX2                !
 ! D222  D(33,34,35,76)        -53.685          estimate D2E/DX2                !
 ! D223  D(73,34,35,36)        -51.8525         estimate D2E/DX2                !
 ! D224  D(73,34,35,75)       -175.096          estimate D2E/DX2                !
 ! D225  D(73,34,35,76)         67.9532         estimate D2E/DX2                !
 ! D226  D(74,34,35,36)         65.0713         estimate D2E/DX2                !
 ! D227  D(74,34,35,75)        -58.1722         estimate D2E/DX2                !
 ! D228  D(74,34,35,76)       -175.123          estimate D2E/DX2                !
 ! D229  D(34,35,36,37)        -62.8362         estimate D2E/DX2                !
 ! D230  D(34,35,36,77)         57.3072         estimate D2E/DX2                !
 ! D231  D(34,35,36,78)        177.8675         estimate D2E/DX2                !
 ! D232  D(75,35,36,37)         61.1217         estimate D2E/DX2                !
 ! D233  D(75,35,36,77)       -178.7348         estimate D2E/DX2                !
 ! D234  D(75,35,36,78)        -58.1745         estimate D2E/DX2                !
 ! D235  D(76,35,36,37)        175.6255         estimate D2E/DX2                !
 ! D236  D(76,35,36,77)        -64.231          estimate D2E/DX2                !
 ! D237  D(76,35,36,78)         56.3293         estimate D2E/DX2                !
 ! D238  D(35,36,37,79)         74.5686         estimate D2E/DX2                !
 ! D239  D(35,36,37,80)        -51.8475         estimate D2E/DX2                !
 ! D240  D(35,36,37,81)       -167.2081         estimate D2E/DX2                !
 ! D241  D(77,36,37,79)        -48.1298         estimate D2E/DX2                !
 ! D242  D(77,36,37,80)       -174.546          estimate D2E/DX2                !
 ! D243  D(77,36,37,81)         70.0935         estimate D2E/DX2                !
 ! D244  D(78,36,37,79)       -164.1534         estimate D2E/DX2                !
 ! D245  D(78,36,37,80)         69.4304         estimate D2E/DX2                !
 ! D246  D(78,36,37,81)        -45.9302         estimate D2E/DX2                !
 --------------------------------------------------------------------------------
 Trust Radius=3.00D-01 FncErr=1.00D-07 GrdErr=1.00D-06
 Number of steps in this run=    504 maximum allowed number of steps=    504.
 GradGradGradGradGradGradGradGradGradGradGradGradGradGradGradGradGradGrad

 Leave Link  103 at Thu May 19 09:28:46 2016, MaxMem= 10737418240 cpu:         0.5
 (Enter /share/apps//g09/l202.exe)
 Stoichiometry    C23H44NO16(1+)
 Framework group  C1[X(C23H44NO16)]
 Deg. of freedom   246
 Full point group                 C1      NOp   1
 Largest Abelian subgroup         C1      NOp   1
 Largest concise Abelian subgroup C1      NOp   1
                         Standard orientation:                         
 ---------------------------------------------------------------------
 Center     Atomic      Atomic             Coordinates (Angstroms)
 Number     Number       Type             X           Y           Z
 ---------------------------------------------------------------------
      1          8           0        1.945365    1.940364    0.706831
      2          6           0        2.886811    0.996754    0.161170
      3          6           0        3.053058    1.169994   -1.351391
      4          6           0        3.365650    2.620272   -1.710701
      5          6           0        2.327798    3.571914   -1.114611
      6          6           0        2.158899    3.328649    0.390004
      7          6           0        0.977200    4.093270    0.992302
      8          8           0       -0.298436    3.638595    0.518009
      9          8           0        1.061568    3.413350   -1.775561
     10          8           0        3.334634    2.825407   -3.123116
     11          8           0        4.123105    0.383195   -1.843435
     12          8           0        2.288595   -0.246025    0.397012
     13          6           0        2.927493   -1.215266    1.243532
     14          6           0        3.132860   -2.481833    0.413484
     15          8           0        4.007959   -2.213582   -0.686166
     16          6           0        1.770637   -2.938589   -0.096974
     17          6           0        0.788484   -3.197899    1.061010
     18          8           0        0.748311   -2.069765    1.981042
     19          6           0        2.017984   -1.564998    2.434740
     20          6           0        1.743408   -0.416001    3.419256
     21          8           0        0.902943    0.628261    2.938144
     22          8           0       -0.525652   -3.443747    0.628235
     23          6           0       -1.166444   -2.365475   -0.082366
     24          6           0       -1.453808   -2.718110   -1.544789
     25          6           0       -2.146273   -1.525307   -2.211790
     26          6           0       -3.374733   -1.046275   -1.426229
     27          8           0       -3.042779   -0.861023   -0.036853
     28          6           0       -2.536236   -2.058355    0.566155
     29          6           0       -2.512225   -1.861701    2.073725
     30          8           0       -1.663108   -0.793985    2.500391
     31          8           0       -3.729545    0.188104   -1.958737
     32          6           0       -4.953430    0.766066   -1.433268
     33          6           0       -4.712272    2.243092   -1.137745
     34          6           0       -3.624557    2.530740   -0.089895
     35          6           0       -3.989737    2.081745    1.331964
     36          6           0       -2.993920    2.496254    2.413099
     37          7           0       -1.639904    1.880284    2.201399
     38          8           0       -2.478848   -1.947414   -3.533227
     39          8           0       -0.250480   -3.026086   -2.260305
     40          8           0        1.962770   -4.110100   -0.875357
     41          1           0        3.864937    1.079262    0.678465
     42          1           0        2.085652    0.883834   -1.807693
     43          1           0        4.364227    2.878246   -1.306607
     44          1           0        2.684116    4.610630   -1.247389
     45          1           0        3.080738    3.692317    0.886839
     46          1           0        1.107095    5.168975    0.783089
     47          1           0        0.976648    3.961562    2.084220
     48          1           0       -0.209488    3.563250   -0.460706
     49          1           0        1.262631    3.339279   -2.729756
     50          1           0        3.864973    2.113460   -3.527819
     51          1           0        3.996884   -0.552272   -1.553730
     52          1           0        3.896412   -0.833222    1.608084
     53          1           0        3.583589   -3.262286    1.055842
     54          1           0        3.902836   -2.977264   -1.289849
     55          1           0        1.374952   -2.125408   -0.724100
     56          1           0        1.077209   -4.112979    1.607256
     57          1           0        2.540491   -2.348048    3.022339
     58          1           0        1.232291   -0.834571    4.298017
     59          1           0        2.720568   -0.027702    3.762229
     60          1           0        1.331592    1.064531    2.166212
     61          1           0       -0.550636   -1.453794   -0.023807
     62          1           0       -2.125245   -3.597543   -1.570472
     63          1           0       -1.431727   -0.679871   -2.234562
     64          1           0       -4.202247   -1.785365   -1.501955
     65          1           0       -3.224057   -2.907496    0.370875
     66          1           0       -3.529305   -1.614788    2.409096
     67          1           0       -2.208742   -2.804501    2.553274
     68          1           0       -0.729485   -1.100013    2.402533
     69          1           0       -5.259948    0.218010   -0.529978
     70          1           0       -5.742562    0.650808   -2.193425
     71          1           0       -5.672814    2.685915   -0.824509
     72          1           0       -4.437490    2.741589   -2.080380
     73          1           0       -3.418489    3.613542   -0.088232
     74          1           0       -2.698204    2.032533   -0.419338
     75          1           0       -4.112879    0.987965    1.363981
     76          1           0       -4.961286    2.516244    1.619128
     77          1           0       -2.853377    3.586218    2.436349
     78          1           0       -3.344004    2.171903    3.401893
     79          1           0       -1.131242    2.350839    1.411325
     80          1           0       -1.706489    0.827642    2.074453
     81          1           0       -1.035684    1.983227    3.027717
     82          1           0       -2.804201   -1.171530   -4.023692
     83          1           0       -0.506106   -3.074741   -3.201496
     84          1           0        1.216089   -4.118411   -1.512865
 ---------------------------------------------------------------------
 Rotational constants (GHZ):      0.0985402      0.0842091      0.0678228
 Leave Link  202 at Thu May 19 09:28:49 2016, MaxMem= 10737418240 cpu:         5.6
 (Enter /share/apps//g09/l301.exe)
 Standard basis: 6-311+G(d,p) (5D, 7F)
 Ernie: Thresh=  0.10000D-02 Tol=  0.10000D-05 Strict=F.
 There are  1184 symmetry adapted cartesian basis functions of A   symmetry.
 There are  1144 symmetry adapted basis functions of A   symmetry.
  1144 basis functions,  1792 primitive gaussians,  1184 cartesian basis functions
   158 alpha electrons      158 beta electrons
       nuclear repulsion energy      5973.3512142666 Hartrees.
 IExCor= 1009 DFT=T Ex+Corr=PBE1PBE ExCW=0 ScaHFX=  0.250000
 ScaDFX=  0.750000  0.750000  1.000000  1.000000 ScalE2=  1.000000  1.000000
 IRadAn=      0 IRanWt=     -1 IRanGd=            0 ICorTp=0 IEmpDi=131
 NAtoms=   84 NActive=   84 NUniq=   84 SFac= 1.00D+00 NAtFMM=   60 NAOKFM=T Big=T
 Integral buffers will be    131072 words long.
 Raffenetti 2 integral format.
 Two-electron integral symmetry is turned on.
 R6Disp:  Grimme-D3 Dispersion energy=       -0.0835106396 Hartrees.
 Nuclear repulsion after empirical dispersion term =     5973.2677036269 Hartrees.
 Leave Link  301 at Thu May 19 09:28:50 2016, MaxMem= 10737418240 cpu:         4.2
 (Enter /share/apps//g09/l302.exe)
 NPDir=0 NMtPBC=     1 NCelOv=     1 NCel=       1 NClECP=     1 NCelD=      1
         NCelK=      1 NCelE2=     1 NClLst=     1 CellRange=     0.0.
 One-electron integrals computed using PRISM.
 NBasis=  1144 RedAO= T EigKep=  1.81D-06  NBF=  1144
 NBsUse=  1144 1.00D-06 EigRej= -1.00D+00 NBFU=  1144
 Precomputing XC quadrature grid using
 IXCGrd= 4 IRadAn=           0 IRanWt=          -1 IRanGd=           0 AccXCQ= 0.00D+00.
 Generated NRdTot=       0 NPtTot=           0 NUsed=           0 NTot=          32
 NSgBfM=  1086  1086  1086  1086  1088 MxSgAt=    84 MxSgA2=    84.
 Leave Link  302 at Thu May 19 09:28:54 2016, MaxMem= 10737418240 cpu:        64.9
 (Enter /share/apps//g09/l303.exe)
 DipDrv:  MaxL=1.
 Leave Link  303 at Thu May 19 09:28:57 2016, MaxMem= 10737418240 cpu:        28.7
 (Enter /share/apps//g09/l401.exe)
 ExpMin= 4.38D-02 ExpMax= 8.59D+03 ExpMxC= 1.30D+03 IAcc=2 IRadAn=         4 AccDes= 0.00D+00
 Harris functional with IExCor= 1009 and IRadAn=       4 diagonalized for initial guess.
 HarFok:  IExCor= 1009 AccDes= 0.00D+00 IRadAn=         4 IDoV= 1 UseB2=F ITyADJ=14
 ICtDFT=  3500011 ScaDFX=  1.000000  1.000000  1.000000  1.000000
 FoFCou: FMM=F IPFlag=           0 FMFlag=      100000 FMFlg1=        2001
         NFxFlg=           0 DoJE=T BraDBF=F KetDBF=T FulRan=T
         wScrn=  0.000000 ICntrl=     500 IOpCl=  0 I1Cent=   200000004 NGrid=           0
         NMat0=    1 NMatS0=      1 NMatT0=    0 NMatD0=    1 NMtDS0=    0 NMtDT0=    0
 Petite list used in FoFCou.
 Harris En= -2159.72214044985    
 JPrj=0 DoOrth=F DoCkMO=F.
 Leave Link  401 at Thu May 19 09:29:03 2016, MaxMem= 10737418240 cpu:       120.8
 (Enter /share/apps//g09/l502.exe)
 Closed shell SCF:
 Using DIIS extrapolation, IDIIS=  1040.
 Integral symmetry usage will be decided dynamically.
 IVT=     4256630 IEndB=     4256630 NGot= 10737418240 MDV= 10734581291
 LenX= 10734581291 LenY= 10733178251
 Requested convergence on RMS density matrix=1.00D-08 within 128 cycles.
 Requested convergence on MAX density matrix=1.00D-06.
 Requested convergence on             energy=1.00D-06.
 No special actions if energy rises.
 Fock matrices will be formed incrementally for  20 cycles.

 Cycle   1  Pass 1  IDiag  1:
 FoFJK:  IHMeth= 1 ICntrl=       0 DoSepK=F KAlg= 0 I1Cent=   0 FoldK=F
 IRaf= 800000000 NMat=   1 IRICut=       1 DoRegI=T DoRafI=F ISym2E= 0.
 FoFCou: FMM=T IPFlag=           0 FMFlag=      100000 FMFlg1=        2001
         NFxFlg=           0 DoJE=F BraDBF=F KetDBF=F FulRan=T
         wScrn=  0.000000 ICntrl=       0 IOpCl=  0 I1Cent=           0 NGrid=           0
         NMat0=    1 NMatS0=      1 NMatT0=    0 NMatD0=    1 NMtDS0=    0 NMtDT0=    0
 Symmetry not used in FoFCou.
 FMM levels:  10  Number of levels for PrismC:   9
 E= -2158.71421405834    
 DIIS: error= 1.07D-02 at cycle   1 NSaved=   1.
 NSaved= 1 IEnMin= 1 EnMin= -2158.71421405834     IErMin= 1 ErrMin= 1.07D-02
 ErrMax= 1.07D-02  0.00D+00 EMaxC= 1.00D-01 BMatC= 1.02D+00 BMatP= 1.02D+00
 IDIUse=3 WtCom= 8.93D-01 WtEn= 1.07D-01
 Coeff-Com:  0.100D+01
 Coeff-En:   0.100D+01
 Coeff:      0.100D+01
 Gap=     0.279 Goal=   None    Shift=    0.000
 GapD=    0.279 DampG=1.000 DampE=0.500 DampFc=0.5000 IDamp=-1.
 Damping current iteration by 5.00D-01
 RMSDP=8.35D-03 MaxDP=1.37D+00              OVMax= 1.44D-01

 Cycle   2  Pass 1  IDiag  1:
 RMSU=  4.16D-03    CP:  9.91D-01
 E= -2158.99331796873     Delta-E=       -0.279103910389 Rises=F Damp=T
 DIIS: error= 4.20D-03 at cycle   2 NSaved=   2.
 NSaved= 2 IEnMin= 2 EnMin= -2158.99331796873     IErMin= 2 ErrMin= 4.20D-03
 ErrMax= 4.20D-03  0.00D+00 EMaxC= 1.00D-01 BMatC= 8.14D-02 BMatP= 1.02D+00
 IDIUse=3 WtCom= 9.58D-01 WtEn= 4.20D-02
 Coeff-Com:  0.634D-01 0.937D+00
 Coeff-En:   0.165D+00 0.835D+00
 Coeff:      0.677D-01 0.932D+00
 Gap=     0.306 Goal=   None    Shift=    0.000
 RMSDP=4.35D-03 MaxDP=1.15D+00 DE=-2.79D-01 OVMax= 8.33D-02

 Cycle   3  Pass 1  IDiag  1:
 RMSU=  2.36D-03    CP:  8.90D-01  9.45D-01
 E= -2159.36382024042     Delta-E=       -0.370502271690 Rises=F Damp=F
 DIIS: error= 4.09D-03 at cycle   3 NSaved=   3.
 NSaved= 3 IEnMin= 3 EnMin= -2159.36382024042     IErMin= 3 ErrMin= 4.09D-03
 ErrMax= 4.09D-03  0.00D+00 EMaxC= 1.00D-01 BMatC= 4.42D-02 BMatP= 8.14D-02
 IDIUse=3 WtCom= 9.59D-01 WtEn= 4.09D-02
 Coeff-Com: -0.657D-01 0.405D+00 0.661D+00
 Coeff-En:   0.000D+00 0.000D+00 0.100D+01
 Coeff:     -0.630D-01 0.388D+00 0.675D+00
 Gap=     0.278 Goal=   None    Shift=    0.000
 RMSDP=1.63D-03 MaxDP=5.87D-01 DE=-3.71D-01 OVMax= 1.85D-02

 Cycle   4  Pass 1  IDiag  1:
 RMSU=  1.10D-03    CP:  9.17D-01  1.10D+00  8.94D-01
 E= -2159.39152079342     Delta-E=       -0.027700552994 Rises=F Damp=F
 DIIS: error= 1.10D-03 at cycle   4 NSaved=   4.
 NSaved= 4 IEnMin= 4 EnMin= -2159.39152079342     IErMin= 4 ErrMin= 1.10D-03
 ErrMax= 1.10D-03  0.00D+00 EMaxC= 1.00D-01 BMatC= 6.19D-03 BMatP= 4.42D-02
 IDIUse=3 WtCom= 9.89D-01 WtEn= 1.10D-02
 Coeff-Com: -0.349D-01 0.121D+00 0.346D+00 0.568D+00
 Coeff-En:   0.000D+00 0.000D+00 0.887D-01 0.911D+00
 Coeff:     -0.345D-01 0.120D+00 0.343D+00 0.572D+00
 Gap=     0.271 Goal=   None    Shift=    0.000
 RMSDP=1.07D-03 MaxDP=4.03D-01 DE=-2.77D-02 OVMax= 5.70D-03

 Cycle   5  Pass 1  IDiag  1:
 RMSU=  2.66D-04    CP:  8.92D-01  1.05D+00  8.96D-01  5.74D-01
 E= -2159.39680772754     Delta-E=       -0.005286934120 Rises=F Damp=F
 DIIS: error= 2.91D-04 at cycle   5 NSaved=   5.
 NSaved= 5 IEnMin= 5 EnMin= -2159.39680772754     IErMin= 5 ErrMin= 2.91D-04
 ErrMax= 2.91D-04  0.00D+00 EMaxC= 1.00D-01 BMatC= 2.46D-04 BMatP= 6.19D-03
 IDIUse=3 WtCom= 9.97D-01 WtEn= 2.91D-03
 Coeff-Com: -0.110D-01 0.249D-01 0.103D+00 0.244D+00 0.639D+00
 Coeff-En:   0.000D+00 0.000D+00 0.000D+00 0.000D+00 0.100D+01
 Coeff:     -0.110D-01 0.248D-01 0.103D+00 0.243D+00 0.640D+00
 Gap=     0.271 Goal=   None    Shift=    0.000
 RMSDP=1.05D-04 MaxDP=2.38D-02 DE=-5.29D-03 OVMax= 1.46D-03

 Cycle   6  Pass 1  IDiag  1:
 RMSU=  5.99D-05    CP:  8.93D-01  1.05D+00  9.13D-01  5.82D-01  7.69D-01
 E= -2159.39698912405     Delta-E=       -0.000181396515 Rises=F Damp=F
 DIIS: error= 5.68D-05 at cycle   6 NSaved=   6.
 NSaved= 6 IEnMin= 6 EnMin= -2159.39698912405     IErMin= 6 ErrMin= 5.68D-05
 ErrMax= 5.68D-05  0.00D+00 EMaxC= 1.00D-01 BMatC= 1.95D-05 BMatP= 2.46D-04
 IDIUse=1 WtCom= 1.00D+00 WtEn= 0.00D+00
 Coeff-Com: -0.358D-02 0.625D-02 0.333D-01 0.922D-01 0.315D+00 0.556D+00
 Coeff:     -0.358D-02 0.625D-02 0.333D-01 0.922D-01 0.315D+00 0.556D+00
 Gap=     0.271 Goal=   None    Shift=    0.000
 RMSDP=3.43D-05 MaxDP=7.41D-03 DE=-1.81D-04 OVMax= 3.61D-04

 Cycle   7  Pass 1  IDiag  1:
 RMSU=  1.50D-05    CP:  8.94D-01  1.05D+00  9.12D-01  5.96D-01  7.70D-01
                    CP:  7.65D-01
 E= -2159.39700352425     Delta-E=       -0.000014400199 Rises=F Damp=F
 DIIS: error= 1.85D-05 at cycle   7 NSaved=   7.
 NSaved= 7 IEnMin= 7 EnMin= -2159.39700352425     IErMin= 7 ErrMin= 1.85D-05
 ErrMax= 1.85D-05  0.00D+00 EMaxC= 1.00D-01 BMatC= 1.39D-06 BMatP= 1.95D-05
 IDIUse=1 WtCom= 1.00D+00 WtEn= 0.00D+00
 Coeff-Com: -0.940D-03 0.126D-02 0.907D-02 0.286D-01 0.110D+00 0.271D+00
 Coeff-Com:  0.581D+00
 Coeff:     -0.940D-03 0.126D-02 0.907D-02 0.286D-01 0.110D+00 0.271D+00
 Coeff:      0.581D+00
 Gap=     0.271 Goal=   None    Shift=    0.000
 RMSDP=8.29D-06 MaxDP=2.27D-03 DE=-1.44D-05 OVMax= 1.19D-04

 Cycle   8  Pass 1  IDiag  1:
 RMSU=  6.21D-06    CP:  8.94D-01  1.05D+00  9.11D-01  5.99D-01  7.80D-01
                    CP:  7.39D-01  7.71D-01
 E= -2159.39700441253     Delta-E=       -0.000000888276 Rises=F Damp=F
 DIIS: error= 6.20D-06 at cycle   8 NSaved=   8.
 NSaved= 8 IEnMin= 8 EnMin= -2159.39700441253     IErMin= 8 ErrMin= 6.20D-06
 ErrMax= 6.20D-06  0.00D+00 EMaxC= 1.00D-01 BMatC= 1.57D-07 BMatP= 1.39D-06
 IDIUse=1 WtCom= 1.00D+00 WtEn= 0.00D+00
 Coeff-Com:  0.263D-04-0.231D-03-0.211D-04 0.164D-02 0.993D-02 0.524D-01
 Coeff-Com:  0.284D+00 0.652D+00
 Coeff:      0.263D-04-0.231D-03-0.211D-04 0.164D-02 0.993D-02 0.524D-01
 Coeff:      0.284D+00 0.652D+00
 Gap=     0.271 Goal=   None    Shift=    0.000
 RMSDP=2.95D-06 MaxDP=5.37D-04 DE=-8.88D-07 OVMax= 3.72D-05

 Cycle   9  Pass 1  IDiag  1:
 RMSU=  1.88D-06    CP:  8.94D-01  1.05D+00  9.12D-01  5.98D-01  7.79D-01
                    CP:  7.57D-01  7.92D-01  8.75D-01
 E= -2159.39700452904     Delta-E=       -0.000000116510 Rises=F Damp=F
 DIIS: error= 1.43D-06 at cycle   9 NSaved=   9.
 NSaved= 9 IEnMin= 9 EnMin= -2159.39700452904     IErMin= 9 ErrMin= 1.43D-06
 ErrMax= 1.43D-06  0.00D+00 EMaxC= 1.00D-01 BMatC= 9.41D-09 BMatP= 1.57D-07
 IDIUse=1 WtCom= 1.00D+00 WtEn= 0.00D+00
 Coeff-Com:  0.648D-04-0.171D-03-0.565D-03-0.990D-03-0.253D-02 0.545D-02
 Coeff-Com:  0.869D-01 0.288D+00 0.624D+00
 Coeff:      0.648D-04-0.171D-03-0.565D-03-0.990D-03-0.253D-02 0.545D-02
 Coeff:      0.869D-01 0.288D+00 0.624D+00
 Gap=     0.271 Goal=   None    Shift=    0.000
 RMSDP=7.59D-07 MaxDP=3.16D-04 DE=-1.17D-07 OVMax= 1.01D-05

 Cycle  10  Pass 1  IDiag  1:
 RMSU=  3.90D-07    CP:  8.94D-01  1.05D+00  9.12D-01  5.98D-01  7.80D-01
                    CP:  7.58D-01  8.10D-01  8.58D-01  8.16D-01
 E= -2159.39700453614     Delta-E=       -0.000000007103 Rises=F Damp=F
 DIIS: error= 5.26D-07 at cycle  10 NSaved=  10.
 NSaved=10 IEnMin=10 EnMin= -2159.39700453614     IErMin=10 ErrMin= 5.26D-07
 ErrMax= 5.26D-07  0.00D+00 EMaxC= 1.00D-01 BMatC= 9.66D-10 BMatP= 9.41D-09
 IDIUse=1 WtCom= 1.00D+00 WtEn= 0.00D+00
 Coeff-Com:  0.250D-04-0.571D-04-0.258D-03-0.556D-03-0.189D-02-0.133D-02
 Coeff-Com:  0.189D-01 0.860D-01 0.301D+00 0.598D+00
 Coeff:      0.250D-04-0.571D-04-0.258D-03-0.556D-03-0.189D-02-0.133D-02
 Coeff:      0.189D-01 0.860D-01 0.301D+00 0.598D+00
 Gap=     0.271 Goal=   None    Shift=    0.000
 RMSDP=2.02D-07 MaxDP=4.01D-05 DE=-7.10D-09 OVMax= 2.99D-06

 Cycle  11  Pass 1  IDiag  1:
 RMSU=  1.14D-07    CP:  8.94D-01  1.05D+00  9.12D-01  5.98D-01  7.80D-01
                    CP:  7.58D-01  8.10D-01  8.75D-01  8.06D-01  8.04D-01
 E= -2159.39700453707     Delta-E=       -0.000000000932 Rises=F Damp=F
 DIIS: error= 1.58D-07 at cycle  11 NSaved=  11.
 NSaved=11 IEnMin=11 EnMin= -2159.39700453707     IErMin=11 ErrMin= 1.58D-07
 ErrMax= 1.58D-07  0.00D+00 EMaxC= 1.00D-01 BMatC= 8.81D-11 BMatP= 9.66D-10
 IDIUse=1 WtCom= 1.00D+00 WtEn= 0.00D+00
 Coeff-Com:  0.715D-05-0.152D-04-0.887D-04-0.200D-03-0.729D-03-0.937D-03
 Coeff-Com:  0.332D-02 0.218D-01 0.103D+00 0.298D+00 0.575D+00
 Coeff:      0.715D-05-0.152D-04-0.887D-04-0.200D-03-0.729D-03-0.937D-03
 Coeff:      0.332D-02 0.218D-01 0.103D+00 0.298D+00 0.575D+00
 Gap=     0.271 Goal=   None    Shift=    0.000
 RMSDP=5.00D-08 MaxDP=1.86D-05 DE=-9.32D-10 OVMax= 8.88D-07

 Cycle  12  Pass 1  IDiag  1:
 RMSU=  3.08D-08    CP:  8.94D-01  1.05D+00  9.12D-01  5.98D-01  7.80D-01
                    CP:  7.58D-01  8.10D-01  8.76D-01  8.17D-01  7.93D-01
                    CP:  8.28D-01
 E= -2159.39700453702     Delta-E=        0.000000000055 Rises=F Damp=F
 DIIS: error= 4.55D-08 at cycle  12 NSaved=  12.
 NSaved=12 IEnMin=11 EnMin= -2159.39700453707     IErMin=12 ErrMin= 4.55D-08
 ErrMax= 4.55D-08  0.00D+00 EMaxC= 1.00D-01 BMatC= 8.25D-12 BMatP= 8.81D-11
 IDIUse=1 WtCom= 1.00D+00 WtEn= 0.00D+00
 Coeff-Com: -0.127D-07 0.338D-06-0.980D-05-0.247D-04-0.108D-03-0.285D-03
 Coeff-Com: -0.978D-03-0.117D-02 0.991D-02 0.655D-01 0.273D+00 0.654D+00
 Coeff:     -0.127D-07 0.338D-06-0.980D-05-0.247D-04-0.108D-03-0.285D-03
 Coeff:     -0.978D-03-0.117D-02 0.991D-02 0.655D-01 0.273D+00 0.654D+00
 Gap=     0.271 Goal=   None    Shift=    0.000
 RMSDP=1.82D-08 MaxDP=5.74D-06 DE= 5.46D-11 OVMax= 2.67D-07

 Cycle  13  Pass 1  IDiag  1:
 RMSU=  1.20D-08    CP:  8.94D-01  1.05D+00  9.12D-01  5.98D-01  7.80D-01
                    CP:  7.58D-01  8.10D-01  8.76D-01  8.22D-01  7.95D-01
                    CP:  8.13D-01  8.31D-01
 E= -2159.39700453702     Delta-E=       -0.000000000005 Rises=F Damp=F
 DIIS: error= 9.14D-09 at cycle  13 NSaved=  13.
 NSaved=13 IEnMin=11 EnMin= -2159.39700453707     IErMin=13 ErrMin= 9.14D-09
 ErrMax= 9.14D-09  0.00D+00 EMaxC= 1.00D-01 BMatC= 4.53D-13 BMatP= 8.25D-12
 IDIUse=1 WtCom= 1.00D+00 WtEn= 0.00D+00
 Coeff-Com: -0.401D-06 0.985D-06 0.970D-06 0.128D-05-0.142D-05-0.557D-04
 Coeff-Com: -0.587D-03-0.179D-02-0.232D-02 0.889D-02 0.780D-01 0.278D+00
 Coeff-Com:  0.640D+00
 Coeff:     -0.401D-06 0.985D-06 0.970D-06 0.128D-05-0.142D-05-0.557D-04
 Coeff:     -0.587D-03-0.179D-02-0.232D-02 0.889D-02 0.780D-01 0.278D+00
 Coeff:      0.640D+00
 Gap=     0.271 Goal=   None    Shift=    0.000
 RMSDP=5.83D-09 MaxDP=1.51D-06 DE=-4.55D-12 OVMax= 7.57D-08

 Cycle  14  Pass 1  IDiag  1:
[...]
 2036,0.00002057,0.00001712,0.00000946,-0.00000410,0.00000663,-0.000011
 53,0.00001090,-0.00001155,-0.00000009,0.00000290,0.00004875,-0.0000184
 9,0.00000708,-0.00004001,0.00002735,-0.00000984,-0.00041276,-0.0015937
 4,0.00108350,-0.11642734,-0.08127468,-0.18105723,-0.00079654,0.0003037
 7,0.00000325,-0.00000346,0.00000913,0.00002146,0.00002875,-0.00006785,
 0.00000292,0.00001410,0.00001522,-0.00000444,-0.00000356,0.00001118,-0
 .00000442,0.00000111,0.00000282,-0.00000219,-0.00000738,-0.00000181,-0
 .00000121,-0.00000597,0.00000224,0.00000494,0.00004742,-0.00003384,-0.
 00002326,0.00002191,-0.00006084,0.00001825,-0.00005775,-0.00005668,0.0
 0002491,-0.00011126,-0.00007955,-0.00014316,-0.00000175,-0.00001442,0.
 00000439,-0.00013920,-0.00004021,0.00004050,-0.00008967,-0.00003467,-0
 .00020633,0.00024098,0.00030791,-0.00047587,0.00004496,-0.00001702,-0.
 00002928,-0.00000575,0.00000161,0.00000661,-0.00000175,0.00000484,0.00
 000323,-0.00000229,-0.00000282,-0.00000225,0.00002443,-0.00001090,-0.0
 0004314,0.00003302,0.00003744,-0.00013052,-0.00082472,0.00031444,0.001
 13574,-0.00023519,-0.00068654,-0.00018526,-0.00014679,0.00005748,0.000
 08485,0.00004885,0.00000399,-0.00000946,0.00001058,0.00011516,0.000152
 02,-0.00000722,-0.00002448,-0.00002347,0.00000219,-0.00001425,-0.00002
 336,0.00003564,-0.00002710,-0.00001445,0.00000442,-0.00000418,-0.00000
 208,-0.00000602,-0.00002042,-0.00000074,-0.00000659,0.00000833,-0.0000
 0610,-0.00000521,-0.00002256,-0.00000455,0.00001528,0.00002379,-0.0000
 0111,0.00000373,0.00000584,0.00001371,-0.00000122,0.00000040,-0.000001
 93,-0.00000646,0.00000006,0.00000003,-0.00000905,-0.00000114,-0.000006
 76,0.00004558,0.00000598,-0.00002586,0.00001480,-0.00003899,0.00004515
 ,0.00001444,-0.00001000,0.00000361,0.00052216,-0.00122708,-0.00100907,
 0.11102164,0.00004260,0.00002928,0.00001515,-0.00001948,-0.00001566,-0
 .00004457,-0.00023177,0.00007198,-0.00004683,0.00000877,-0.00001023,0.
 00006031,-0.00009865,-0.00002860,-0.00002999,-0.00001489,-0.00003253,0
 .00001105,-0.00007442,-0.00003202,-0.00001132,0.00008577,0.00006199,0.
 00001717,0.00012818,0.00007828,0.00000474,0.00006802,-0.00000129,-0.00
 005554,0.00012744,-0.00010838,0.00003225,0.00006613,-0.00002152,0.0001
 1059,-0.00002437,0.00005966,-0.00010330,-0.00011668,-0.00001206,0.0000
 0778,0.00012885,-0.00008743,-0.00003242,-0.00046076,-0.00017322,-0.000
 19333,-0.00033863,-0.00020098,-0.00016338,0.00010406,0.00004739,0.0000
 4198,-0.00005437,-0.00001809,-0.00001522,-0.00001959,0.00001344,-0.000
 04840,0.00003591,-0.00000817,0.00006967,0.00008483,0.00074896,0.000864
 98,0.00535179,-0.00314387,-0.00086045,-0.00821353,-0.01539903,-0.02362
 037,-0.00052211,-0.00172705,-0.00223776,0.00003481,-0.00107894,-0.0015
 5588,0.00021100,0.00039271,0.00111992,-0.00122836,-0.00015002,-0.00189
 448,0.00061701,-0.00018688,0.00003668,-0.00006334,-0.00000202,0.000123
 04,-0.00066611,0.00099357,0.00023434,0.00040928,-0.00030488,-0.0000872
 3,-0.00008735,0.00002723,0.00001910,0.00002038,-0.00002610,-0.00001874
 ,0.00000250,0.00000193,-0.00001107,-0.00002794,-0.00001017,-0.00001212
 ,0.00002360,-0.00000708,0.00003417,-0.00158023,0.00095482,0.00027973,-
 0.05420896,-0.10514859,-0.16654637,0.00177029,-0.00076755,0.00064681,0
 .00001949,0.00000948,0.00002278,0.00003721,-0.00003143,0.00002295,0.00
 001937,0.00001263,-0.00001111,0.00001805,0.00001320,-0.00000114,0.0000
 1312,0.00000086,0.00000397,0.00000937,0.00000477,-0.00000814,0.0000029
 8,0.00000127,0.00000796,-0.00003699,-0.00005438,-0.00000179,-0.0000596
 1,-0.00004174,0.00004199,-0.00004445,0.00001946,0.00003397,-0.00005225
 ,0.00006357,-0.00004351,0.00001351,0.00000460,0.00000838,0.00002390,0.
 00000587,0.00000550,-0.00003347,0.00010983,0.00006584,-0.00017098,-0.0
 0014420,-0.00021794,0.00003378,0.00000728,0.00004042,0.00000351,-0.000
 00552,0.00001645,-0.00000506,-0.00000066,0.00000323,0.00001100,0.00000
 182,-0.00000040,-0.00001250,-0.00001052,-0.00003948,-0.00004411,0.0002
 0296,0.00021922,-0.00031858,0.00107769,0.00049476,0.00007317,-0.000629
 44,0.00034726,-0.00017499,0.00016840,0.00009858,-0.00000315,0.00000523
 ,0.00001435,-0.00005287,-0.00010108,-0.00016750,0.00002394,0.00002804,
 0.00003554,0.00000119,-0.00000712,-0.00001152,-0.00004691,0.00003603,0
 .00003087,-0.00006100,0.00003595,-0.00001241,0.00000487,0.00006188,-0.
 00000299,0.00002394,-0.00001259,0.00001034,0.00000755,0.00003351,0.000
 00644,-0.00003913,-0.00003219,-0.00000264,0.00000472,-0.00001926,-0.00
 002388,-0.00000673,0.00001166,0.00000570,0.00000911,0.00000077,-0.0000
 0551,0.00000861,0.00000178,0.00001386,-0.00002822,-0.00003222,-0.00001
 894,-0.00001540,0.00001757,-0.00007491,-0.00001587,0.00000264,-0.00001
 648,-0.00019565,0.00021045,0.00071524,0.06126948,0.12181004,0.00001380
 ,0.00010179,-0.00015222,-0.00012295,-0.00017815,0.00027936,0.00007231,
 0.00004073,0.00000570,-0.00000430,0.00003385,0.00010386,0.00007418,0.0
 0001945,0.00002568,-0.00001766,-0.00005405,0.00009414,0.00000489,0.000
 00940,-0.00000040,0.00000646,-0.00000356,-0.00006630,-0.00007806,-0.00
 006476,-0.00007588,-0.00005944,-0.00008779,-0.00012714,-0.00005379,-0.
 00001158,-0.00017132,0.00010899,0.00020593,-0.00029455,0.00007049,-0.0
 0015428,0.00011696,-0.00021301,0.00005440,0.00027794,0.00018066,0.0000
 0519,-0.00022720,0.00045102,0.00004194,0.00014482,-0.00026832,-0.00022
 859,-0.00019349,0.00024251,0.00034190,0.00012809,-0.00022936,-0.000044
 96,-0.00003933,0.00003204,-0.00007557,0.00003450,0.00001181,0.00010127
 ,-0.00008389,0.00038941,0.00012592,0.00058217,0.00200888,0.00046823,-0
 .00047443,-0.00398325,-0.00980007,-0.01357148,-0.00086937,0.00263403,0
 .00412688,-0.00015430,-0.00042673,-0.00035381,-0.00005439,-0.00020403,
 -0.00070119,-0.00022248,-0.00073254,0.00023786,0.00007021,-0.00008553,
 -0.00005240,0.00001038,0.00019545,0.00000963,-0.00026075,0.00035443,-0
 .00033425,0.00005871,0.00009008,-0.00001562,-0.00003235,0.00002347,0.0
 0002305,0.00000043,0.00000046,0.00000136,-0.00000757,-0.00001205,0.000
 01238,0.00003481,-0.00002369,-0.00000082,0.00000263,0.00007016,-0.0000
 5968,0.00115976,-0.00141357,-0.00143705,-0.14549193,-0.18359100,-0.346
 26174,0.00019012,0.00042333,0.00011463,0.00001047,0.00000780,-0.000025
 12,-0.00001886,0.00002217,0.00003410,-0.00001840,-0.00000694,-0.000010
 52,-0.00001292,-0.00000117,-0.00000675,0.00000494,0.00000537,-0.000010
 59,-0.00000149,0.00000882,-0.00000276,0.00000030,-0.00001125,-0.000006
 11,0.00000139,0.00003345,0.00005493,0.00004938,0.00006028,0.00002220,0
 .00005888,0.00003926,0.00003473,0.00000283,-0.00005719,0.00020724,0.00
 001865,0.00004171,-0.00001778,0.00008435,0.00000230,-0.00000121,-0.000
 11847,0.00000296,0.00009612,-0.00044471,-0.00020794,-0.00009521,0.0000
 0107,0.00000585,0.00002786,0.00003123,-0.00000375,-0.00000193,-0.00000
 730,-0.00000021,-0.00000586,0.00000783,0.00002083,-0.00000478,-0.00003
 672,-0.00003875,0.00008650,0.00005343,0.00007990,0.00011353,-0.0008715
 1,0.00039225,0.00006811,-0.00003824,0.00003720,-0.00013345,0.00004877,
 -0.00001433,-0.00000935,0.00004778,0.00002703,-0.00007943,-0.00002218,
 0.00003247,-0.00000063,-0.00000053,-0.00001518,-0.00003629,0.00002814,
 -0.00010176,-0.00003286,0.00001874,-0.00002034,-0.00001528,-0.00001716
 ,0.00000460,0.00000432,0.00000453,0.00000818,-0.00000637,-0.00000123,0
 .00000832,-0.00001828,-0.00000083,0.00000520,-0.00000369,0.00000028,0.
 00000073,0.00001629,0.00000972,-0.00000209,-0.00000487,-0.00000197,0.0
 0000254,-0.00000537,-0.00000394,0.00000887,-0.00000016,-0.00000544,-0.
 00000579,-0.00000483,-0.00002412,-0.00001065,0.00006516,-0.00001104,-0
 .00013530,0.00008829,0.00000627,-0.00002444,0.00001527,-0.00001858,0.0
 0011128,-0.00033484,0.14933712,0.19210866,0.35956511,-0.00013158,0.000
 47642,-0.00018022,-0.00007227,-0.00064833,0.00050167,0.00023969,-0.000
 21392,0.00001922,-0.00003398,-0.00002632,0.00010989,0.00017086,-0.0000
 0477,0.00002737,-0.00007122,-0.00014647,0.00015869,0.00017635,0.000009
 48,0.00000539,-0.00022306,0.00000017,0.00000834,-0.00020520,0.00003210
 ,-0.00006822,-0.00003717,0.00003841,-0.00015078,-0.00006460,0.00045674
 ,-0.00030776,0.00030956,0.00090163,-0.00049226,-0.00013947,-0.00038149
 ,0.00005171,-0.00058679,-0.00126697,0.00006259,0.00094842,0.00013737,-
 0.00026867,-0.00507634,-0.00449331,-0.00168588,0.00518437,0.00117862,-
 0.00019677,-0.00143999,0.00180278,0.00099250,-0.00023910,-0.00016429,-
 0.00026990,0.00004641,-0.00027376,0.00016157,-0.00020738,0.00025434,-0
 .00013029,-0.00248416,-0.00068296,-0.00161149,0.00090882,0.00072275,0.
 00076563,-0.00380312,0.00372273,0.00317167,0.00095859,-0.00058467,-0.0
 0090444,-0.00011869,0.00083225,0.00074667,-0.00015805,-0.00030661,-0.0
 0032152,-0.00034143,-0.00015450,-0.00026679,0.00053653,0.00020799,0.00
 014881,-0.00067180,-0.00014316,-0.00010396,0.00047909,-0.00085219,0.00
 004857,-0.00030589,0.00026655,0.00006281,0.00007101,-0.00000749,-0.000
 01278,-0.00001472,-0.00000339,0.00001407,-0.00000216,0.00002788,-0.000
 00382,0.00008795,-0.00003521,0.00001566,-0.00012748,-0.00000757,0.0000
 1981,0.00034023,-0.00036983,0.00023297,0.00046850,-0.00313151,0.001496
 00,-0.35896888,-0.07009849,-0.21112463,0.00001910,0.00004090,-0.000047
 30,-0.00001592,-0.00000870,0.00002162,-0.00001573,-0.00000002,-0.00000
 240,-0.00002799,0.00001449,-0.00002038,0.00000480,0.00001434,-0.000019
 37,-0.00003058,0.00000879,-0.00000217,-0.00000667,-0.00001069,0.000000
 83,0.00008971,-0.00001464,-0.00000551,0.00007880,-0.00001144,0.0000242
 6,0.00001062,-0.00002747,0.00008005,-0.00014969,-0.00039431,0.00042609
 ,0.00009068,0.00008059,-0.00005098,0.00009591,-0.00000066,0.00012889,-
 0.00106784,0.00000505,-0.00040375,0.00074202,0.00289504,-0.00033964,-0
 .00009353,-0.00007175,-0.00011847,-0.00001643,-0.00000943,-0.00004510,
 -0.00000983,0.00004558,0.00001300,-0.00001711,0.00001211,-0.00002864,0
 .00005308,-0.00009400,0.00000477,0.00007783,-0.00024260,0.00002172,0.0
 0021621,-0.00014967,-0.00030202,-0.00006013,0.00000040,0.00001157,0.00
 000503,-0.00007940,-0.00002097,-0.00013102,0.00003704,0.00006313,-0.00
 004936,-0.00007379,-0.00005731,-0.00000708,-0.00001765,-0.00000737,0.0
 0060171,-0.00029564,0.00010950,0.00002699,-0.00000872,-0.00001423,0.00
 004206,-0.00003485,0.00000308,-0.00001110,-0.00004947,0.00000239,-0.00
 001932,0.00000482,-0.00000236,-0.00000342,-0.00004470,0.00000174,0.000
 03828,0.00004922,-0.00000988,-0.00000878,0.00002089,0.00002751,-0.0000
 0405,-0.00001181,-0.00000411,-0.00001397,-0.00000600,0.00000455,-0.000
 01149,0.00000917,-0.00001074,0.00011828,0.00001605,-0.00005715,0.00009
 912,0.00010721,-0.00000515,0.00008866,-0.00004573,0.00002121,-0.000036
 69,-0.00002354,-0.00017789,0.00063736,-0.00148365,-0.00122172,0.363269
 66,0.00005921,0.00003155,-0.00002076,-0.00004219,-0.00003042,0.0000628
 2,-0.00009647,0.00000139,-0.00003771,-0.00000334,0.00000304,0.00006247
 ,-0.00003667,-0.00001314,-0.00001120,-0.00001833,-0.00003839,0.0000286
 1,-0.00005598,-0.00002079,-0.00000584,0.00006868,0.00004270,-0.0000229
 2,0.00005045,0.00002685,-0.00001817,0.00003005,-0.00001260,-0.00005747
 ,0.00008272,-0.00000257,-0.00004645,0.00037721,0.00028384,0.00011621,-
 0.00238374,0.00030105,-0.00044055,0.00062172,-0.00815602,-0.00072302,0
 .00075177,0.00070722,-0.00020440,-0.04094563,-0.01627654,-0.02409195,-
 0.00236733,-0.00213750,-0.00135337,0.00089975,0.00015404,0.00007374,-0
 .00043134,0.00009854,0.00017137,0.00003283,0.00001895,-0.00009035,0.00
 009277,0.00002941,0.00004365,0.00067550,0.00107962,0.00078939,0.000361
 36,-0.00081924,0.00008813,0.00159199,-0.00166495,-0.00107503,-0.000230
 05,0.00011165,0.00038743,0.00024659,-0.00027520,-0.00008314,-0.0001874
 5,0.00017621,-0.00006760,0.00030530,-0.00013485,0.00013204,-0.00020922
 ,-0.00006596,-0.00009755,0.00012510,0.00017055,0.00005981,-0.00028314,
 0.00040688,-0.00010162,0.00018112,-0.00014415,-0.00001675,-0.00002992,
 0.00000901,0.00001176,0.00001389,-0.00001028,-0.00000478,-0.00000792,-
 0.00001378,0.00000590,0.00001351,-0.00002343,-0.00000779,0.00002609,0.
 00006685,-0.00003544,-0.00036764,0.00009865,-0.00032652,-0.00133928,-0
 .00290102,-0.00203914,-0.02720928,-0.05082807,-0.01826298,0.00005881,0
 .00002880,-0.00001233,0.00002665,-0.00001531,0.00003809,0.00000954,0.0
 0000763,-0.00001006,0.00000632,0.00000898,-0.00000344,0.00001138,0.000
 00288,-0.00000126,0.00000792,0.00000599,-0.00000678,0.,-0.00000314,0.0
 0000394,-0.00001820,-0.00002084,0.00001842,-0.00001566,-0.00000992,0.0
 0002548,-0.00002099,0.00001441,0.00003048,-0.00008191,-0.00002673,0.00
 006972,0.00001424,-0.00064086,-0.00001627,0.00034469,0.00009719,-0.000
 11334,-0.00045349,-0.00002092,0.00074626,-0.00079846,0.00084460,0.0009
 4266,0.00000789,0.00005180,0.00017511,0.00004695,-0.00001306,0.0000049
 1,0.00000311,-0.00002968,-0.00001093,0.00002889,0.00004902,0.00000819,
 -0.00004697,-0.00002609,0.00001130,-0.00002322,-0.00012167,-0.00004897
 ,-0.00042410,0.00026754,0.00017455,0.00001132,-0.00005961,0.00002699,-
 0.00003207,0.00002318,0.00000045,-0.00004867,0.00002297,0.00000232,0.0
 0000421,0.00007115,0.00002757,0.00003189,-0.00000736,-0.00003159,-0.00
 008172,-0.00007593,-0.00007155,-0.00000212,0.00000526,0.00000852,-0.00
 003038,0.00001531,-0.00001154,-0.00000113,0.00002665,0.00000073,0.0000
 1068,-0.00000450,-0.00000281,0.00000254,0.00001984,-0.00000274,-0.0000
 2396,-0.00001420,0.00001005,0.00001449,-0.00001473,-0.00001466,-0.0000
 0517,0.00001188,-0.00000169,0.00000211,0.00000805,-0.00000561,-0.00000
 022,-0.00000617,0.00000485,-0.00003800,-0.00002402,0.00003566,-0.00003
 560,-0.00014335,0.00005467,-0.00001986,-0.00001167,-0.00000362,0.00001
 925,0.00002937,0.00010327,-0.00160131,0.00238425,-0.00056986,0.0727776
 4,0.07704391,-0.00004605,0.00020913,-0.00023420,-0.00011225,-0.0003554
 5,0.00044581,0.00017751,0.00006599,0.00003877,-0.00003205,0.00001446,0
 .00007620,0.00010626,0.00003095,0.00003354,-0.00002465,-0.00008325,0.0
 0013128,0.00008012,0.00002041,0.00000712,-0.00009006,-0.00001914,-0.00
 005097,-0.00011839,-0.00006128,-0.00006497,-0.00005299,-0.00006478,-0.
 00012683,-0.00013639,0.00001174,-0.00032057,-0.00002848,0.00029362,-0.
 00066240,0.00109290,-0.00019094,0.00062938,0.00127858,0.00246412,0.000
 17118,0.00051399,0.00125649,-0.00046806,-0.00159846,-0.00213102,-0.001
 02721,-0.00126914,-0.00284826,-0.00165181,0.00022396,0.00125418,0.0004
 0516,-0.00025669,-0.00009708,-0.00020118,0.00014743,-0.00023149,0.0001
 7366,-0.00011754,0.00023556,-0.00021419,-0.00140012,0.00235362,-0.0005
 5971,0.00175333,-0.00124381,0.00218738,-0.00226006,0.00245175,0.004854
 70,0.00116260,-0.00075677,-0.00085124,-0.00002488,0.00069637,0.0010365
 6,-0.00038409,-0.00003234,-0.00062287,-0.00015397,-0.00021774,-0.00020
 145,0.00030408,0.00001411,0.00015179,-0.00035682,0.00005031,-0.0001596
 1,0.00038281,-0.00063295,-0.00010557,-0.00022310,0.00017709,0.00007560
 ,0.00006070,-0.00001437,-0.00001008,-0.00001258,0.00000764,0.00001478,
 -0.00000589,0.00000748,0.00000785,0.00006643,-0.00003088,0.00001034,-0
 .00005661,0.00005401,-0.00005034,0.00027136,-0.00033006,-0.00011670,0.
 00327920,-0.00436742,-0.00533829,-0.21403506,-0.04480238,-0.13940464,-
 0.00002518,0.00000327,-0.00002991,-0.00004399,0.00004567,-0.00001761,-
 0.00002573,-0.00001216,0.00000258,-0.00001732,-0.00000362,-0.00001157,
 0.00000168,0.00000867,-0.00001146,-0.00001436,0.00000824,-0.00000250,-
 0.00000114,-0.00001590,-0.00000722,0.00003559,0.00003280,0.00003346,0.
 00004710,0.00004252,0.00000674,0.00004892,0.00003913,0.00002880,0.0001
 1982,-0.00009914,0.00049490,0.00007736,0.00043739,-0.00006177,-0.00002
 510,0.00000003,0.00002639,-0.00094133,-0.00047773,0.00129909,0.0010389
 3,0.00182030,0.00119626,-0.00021085,-0.00008115,-0.00021064,0.00003084
 ,-0.00000368,-0.00001375,-0.00001328,0.00002029,-0.00000489,-0.0000227
 8,0.00004637,-0.00001746,-0.00001164,-0.00006335,0.00013421,-0.0000147
 0,0.00014639,-0.00016543,0.00085086,-0.00036412,-0.00030877,-0.0000898
 5,0.00009323,-0.00007136,0.00002379,-0.00008013,-0.00003482,-0.0000239
 8,0.00002685,0.00005484,-0.00004140,-0.00001429,-0.00005921,0.00001231
 ,-0.00003880,-0.00010259,0.00035205,-0.00029098,0.00010123,0.00002798,
 -0.00001266,-0.00001697,0.00002798,-0.00002503,0.00000187,-0.00000768,
 -0.00003717,0.00000348,-0.00001433,0.00000555,-0.00000996,-0.00000360,
 -0.00002277,-0.00000380,0.00002205,0.00002689,0.00000256,0.00000219,0.
 00001388,0.00001677,-0.00000237,-0.00000616,-0.00000613,-0.00001148,0.
 00000362,0.00000263,-0.00000869,-0.00000093,-0.00001041,0.00003393,0.0
 0001036,0.00003566,0.00003520,-0.00005464,0.00008906,0.00005246,-0.000
 04448,0.00002989,-0.00009284,-0.00000955,-0.00011430,-0.00056959,0.000
 14533,-0.00125020,0.21128726,0.04562403,0.14097411\\0.00000348,0.00000
 118,-0.00001201,-0.00001199,-0.00000866,0.00000661,0.00000472,-0.00001
 019,-0.00000185,0.00000023,-0.00000046,-0.00000502,-0.00000160,-0.0000
 0597,-0.00000343,0.00000547,-0.00000343,0.00000041,-0.00000039,0.00000
 271,-0.00000110,-0.00000258,0.00000859,0.00000506,0.00000484,-0.000004
 88,-0.00001164,-0.00000732,-0.00000390,-0.00000488,-0.00001039,-0.0000
 0062,-0.00000931,0.00000860,-0.00000438,-0.00000067,-0.00000620,-0.000
 00291,-0.00001096,0.00000167,-0.00000261,0.00000014,-0.00000512,-0.000
 00223,-0.00000275,0.00000236,0.00000105,-0.00000036,0.00000380,-0.0000
 0784,0.00000128,0.00000381,0.00000327,-0.00000021,0.00000404,-0.000004
 70,-0.00000342,-0.00000098,-0.00000023,-0.00000370,0.00000179,-0.00000
 104,0.00000613,0.00000258,0.00000478,-0.00000332,-0.00000204,0.0000012
 5,0.00000824,0.00000485,-0.00000380,0.00000151,-0.00000394,0.00000607,
 -0.00000192,-0.00000393,-0.00000493,0.00000782,-0.00000125,0.00000669,
 0.00000260,-0.00000162,0.00000429,-0.00000386,0.00000999,0.00000553,0.
 00000287,-0.00000508,0.00000723,-0.00000380,0.00000050,0.00001160,0.00
 001195,-0.00000040,0.00000293,0.00000216,-0.00000058,0.00000298,0.0000
 0177,0.00000018,-0.00000039,0.00000366,0.00000402,0.00000190,-0.000000
 44,0.00000855,-0.00000057,0.00000433,-0.00001560,0.00000664,-0.0000044
 5,-0.00000629,0.00000360,0.00000663,-0.00000486,0.00000195,0.00000701,
 -0.00000801,0.00000132,-0.00000199,0.00000059,-0.00000315,-0.00000468,
 -0.00000439,-0.00000200,-0.00000112,-0.00000238,-0.00000313,-0.0000045
 6,-0.00000232,-0.00000466,-0.00000518,-0.00000053,-0.00000594,-0.00000
 412,0.00000144,-0.00000241,-0.00000408,0.00000358,-0.00000179,-0.00000
 346,-0.00000032,-0.00000334,-0.00000582,-0.00000527,-0.00000683,-0.000
 00352,-0.00000531,-0.00000686,-0.00000244,-0.00000273,-0.00000123,0.00
 000057,0.00000108,-0.00000365,-0.00000180,-0.00000165,-0.00000400,-0.0
 0000084,-0.00000212,-0.00000321,-0.00000050,-0.00000344,-0.00000058,0.
 00000115,0.00000086,0.00000299,0.00000216,0.00000215,0.00000158,0.0000
 0050,0.00000369,0.00000134,-0.00000304,0.00000500,-0.00000351,-0.00000
 417,0.00000544,-0.00000420,-0.00000478,0.,0.00000028,-0.00000030,-0.00
 000498,0.00000308,0.00000324,-0.00000305,0.00000016,0.00000241,-0.0000
 0124,0.00000366,0.00000483,0.00000062,0.00000406,0.00000520,0.00000396
 ,0.00000593,0.00000341,0.00000129,0.00000279,0.00000301,0.00000057,-0.
 00000232,0.00000475,0.00000195,0.00000396,0.00000512,-0.00000194,0.000
 00376,0.00000567,0.00000017,0.00000191,0.00000420,-0.00000017,0.000003
 29,0.00000259,0.00000138,0.00000088,0.00000149,0.00000059,0.00000121,-
 0.00000051,0.00000466,0.00000402,0.00000362,0.00000333,0.00000408,0.00
 000226,0.00000413,0.00000165,0.00000067,0.00000433,0.00000334,0.000000
 36,0.00000887,-0.00000882,0.00000298,0.00001036,0.00000416,-0.00000358
 ,0.00000722,0.00000107,0.00000133,-0.00000377,0.00000131,0.00000323,-0
 .00000592,0.00000008,0.00000311,-0.00000108,-0.00000077,0.00000158\\\@


 THE ... SCIENTISTS WERE WRONG ... THE MOST PERSISTENT PRINCIPLES 
 OF THE UNIVERSE WERE ACCIDENT AND ERROR.

                          -- FRANK HERBERT IN DUNE
 Job cpu time:      22 days 11 hours 41 minutes 35.6 seconds.
 File lengths (MBytes):  RWF=  24159 Int=      0 D2E=      0 Chk=     97 Scr=      1
 Normal termination of Gaussian 09 at Sat May 21 21:10:36 2016.
