 Entering Gaussian System, Link 0=g09
 Initial command:
 /share/apps//g09/l1.exe "/scratch/Gau-21985.inp" -scrdir="/scratch/"
 Entering Link 1 = /share/apps//g09/l1.exe PID=     21986.
  
 Copyright (c) 1988,1990,1992,1993,1995,1998,2003,2009,2013,
            Gaussian, Inc.  All Rights Reserved.
  
 This is part of the Gaussian(R) 09 program.  It is based on
 the Gaussian(R) 03 system (copyright 2003, Gaussian, Inc.),
 the Gaussian(R) 98 system (copyright 1998, Gaussian, Inc.),
 the Gaussian(R) 94 system (copyright 1995, Gaussian, Inc.),
 the Gaussian 92(TM) system (copyright 1992, Gaussian, Inc.),
 the Gaussian 90(TM) system (copyright 1990, Gaussian, Inc.),
 the Gaussian 88(TM) system (copyright 1988, Gaussian, Inc.),
 the Gaussian 86(TM) system (copyright 1986, Carnegie Mellon
 University), and the Gaussian 82(TM) system (copyright 1983,
 Carnegie Mellon University). Gaussian is a federally registered
 trademark of Gaussian, Inc.
  
 This software contains proprietary and confidential information,
 including trade secrets, belonging to Gaussian, Inc.
  
 This software is provided under written license and may be
 used, copied, transmitted, or stored only in accord with that
 written license.
  
 The following legend is applicable only to US Government
 contracts under FAR:
  
                    RESTRICTED RIGHTS LEGEND
  
 Use, reproduction and disclosure by the US Government is
 subject to restrictions as set forth in subparagraphs (a)
 and (c) of the Commercial Computer Software - Restricted
 Rights clause in FAR 52.227-19.
  
 Gaussian, Inc.
 340 Quinnipiac St., Bldg. 40, Wallingford CT 06492
  
  
 ---------------------------------------------------------------
 Warning -- This program may not be used in any manner that
 competes with the business of Gaussian, Inc. or will provide
 assistance to any competitor of Gaussian, Inc.  The licensee
 of this program is prohibited from giving any competitor of
 Gaussian, Inc. access to this program.  By using this program,
 the user acknowledges that Gaussian, Inc. is engaged in the
 business of creating and licensing software in the field of
 computational chemistry and represents and warrants to the
 licensee that it is not a competitor of Gaussian, Inc. and that
 it will not use this program in any manner prohibited above.
 ---------------------------------------------------------------
  

 Cite this work as:
 Gaussian 09, Revision D.01,
 M. J. Frisch, G. W. Trucks, H. B. Schlegel, G. E. Scuseria, 
 M. A. Robb, J. R. Cheeseman, G. Scalmani, V. Barone, B. Mennucci, 
 G. A. Petersson, H. Nakatsuji, M. Caricato, X. Li, H. P. Hratchian, 
 A. F. Izmaylov, J. Bloino, G. Zheng, J. L. Sonnenberg, M. Hada, 
 M. Ehara, K. Toyota, R. Fukuda, J. Hasegawa, M. Ishida, T. Nakajima, 
 Y. Honda, O. Kitao, H. Nakai, T. Vreven, J. A. Montgomery, Jr., 
 J. E. Peralta, F. Ogliaro, M. Bearpark, J. J. Heyd, E. Brothers, 
 K. N. Kudin, V. N. Staroverov, T. Keith, R. Kobayashi, J. Normand, 
 K. Raghavachari, A. Rendell, J. C. Burant, S. S. Iyengar, J. Tomasi, 
 M. Cossi, N. Rega, J. M. Millam, M. Klene, J. E. Knox, J. B. Cross, 
 V. Bakken, C. Adamo, J. Jaramillo, R. Gomperts, R. E. Stratmann, 
 O. Yazyev, A. J. Austin, R. Cammi, C. Pomelli, J. W. Ochterski, 
 R. L. Martin, K. Morokuma, V. G. Zakrzewski, G. A. Voth, 
 P. Salvador, J. J. Dannenberg, S. Dapprich, A. D. Daniels, 
 O. Farkas, J. B. Foresman, J. V. Ortiz, J. Cioslowski, 
 and D. J. Fox, Gaussian, Inc., Wallingford CT, 2013.
 
 ******************************************
 Gaussian 09:  EM64L-G09RevD.01 24-Apr-2013
                27-Apr-2016 
 ******************************************
 %nproc=20
 Will use up to   20 processors via shared memory.
 %mem=80GB
 %chk=Tri_A131_of.chk
 ----------------------------------------------------------------------
 #P PBE1PBE/6-311+G(d,p) opt=ModRedundant freq optcyc=999 EmpiricalDisp
 ersion=GD3
 ----------------------------------------------------------------------
 1/6=999,14=-1,18=120,19=15,26=3,38=1/1,3;
 2/9=110,12=2,17=6,18=5,40=1/2;
 3/5=4,6=6,7=111,11=2,16=1,25=1,30=1,71=1,74=-13,124=31/1,2,3;
 4//1;
 5/5=2,38=5/2;
 6/7=2,8=2,9=2,10=2,28=1/1;
 7//1,2,3,16;
 1/6=999,14=-1,18=20,19=15,26=3/3(2);
 2/9=110/2;
 99//99;
 2/9=110/2;
 3/5=4,6=6,7=111,11=2,16=1,25=1,30=1,71=1,74=-13,124=31/1,2,3;
 4/5=5,16=3,69=1/1;
 5/5=2,38=5/2;
 7//1,2,3,16;
 1/6=999,14=-1,18=20,19=15,26=3/3(-5);
 2/9=110/2;
 6/7=2,8=2,9=2,10=2,19=2,28=1/1;
 99/9=1/99;
 Leave Link    1 at Wed Apr 27 21:37:33 2016, MaxMem= 10737418240 cpu:         2.4
 (Enter /share/apps//g09/l101.exe)
 -----
 trich
 -----
 Symbolic Z-matrix:
 Charge =  1 Multiplicity = 1
 O                     0.77143  -6.59099   9.29292 
 C                    -0.33616  -5.74172   9.1129 
 C                    -0.52732  -4.87592   10.35996 
 C                     0.72744  -4.04633   10.64164 
 C                     1.94225  -4.96442   10.79059 
 C                     2.02925  -5.92372   9.59038 
 H                    -1.19198  -6.42344   8.96617 
 H                    -0.71033  -5.5646    11.20072 
 H                     0.90258  -3.36133   9.79679 
 H                     2.85821  -4.35011   10.79059 
 H                     2.33939  -5.33165   8.71193 
 O                     1.78896  -5.62002   12.05675 
 O                     0.50825  -3.23702   11.79727 
 O                    -1.67131  -4.00099   10.21844 
 O                    -0.19866  -4.8526    8.00511 
 C                     3.00761  -7.07592   9.83866 
 H                     2.48744  -7.84433   10.43582 
 H                     3.3064   -7.52117   8.87623 
 O                     4.13853  -6.54168   10.54366 
 H                     4.83921  -7.21408   10.55324 
 H                     2.66375  -5.98579   12.28581 
 H                     0.78921  -3.79004   12.55739 
 H                    -1.63289  -3.43629   11.0191 
 O                    -0.33806  -5.38356   3.85419 
 C                     0.91346  -5.00193   4.41698 
 C                     0.78534  -4.5074    5.87441 
 C                    -0.02146  -5.4823    6.72302 
 C                    -1.36879  -5.79098   6.05607 
 C                    -1.14079  -6.28922   4.61709 
 H                     1.63892  -5.83607   4.38154 
 H                     0.23874  -3.54852   5.86287 
 H                     0.54705  -6.42017   6.8522 
 H                    -1.87716  -6.59971   6.61401 
 H                    -0.65799  -7.28654   4.67101 
 O                    -2.19807  -4.61475   6.077 
 O                     2.07185  -4.3355    6.44341 
 O                     1.46541  -4.02404   3.5621 
 C                    -2.4468   -6.42008   3.82334 
 H                    -2.22057  -6.79073   2.81173 
 H                    -3.1124   -7.14492   4.31425 
 O                    -3.15259  -5.17111   3.75481 
 H                    -2.68963  -4.58273   3.08982 
 H                    -2.73166  -4.63822   5.21721 
 H                     2.41938  -3.51145   6.0421 
 O                     0.09673  -1.29966   1.50184 
 C                    -0.36354  -0.44119   2.50332 
 C                     0.6216   -0.33204   3.69457 
 C                     1.47855  -1.60098   3.83339 
 C                     0.68024  -2.82945   3.39468 
 C                     0.36954  -2.68337   1.88777 
 H                    -0.47806   0.54548   2.02212 
 H                     0.03066  -0.23086   4.61864 
 H                     2.3601   -1.51837   3.169 
 H                     1.29267  -2.94776   1.34524 
 H                    -0.25966  -2.90868   3.96227 
 O                     1.92607  -1.75316   5.19168 
 O                     1.42958   0.84341   3.65427 
 O                    -1.65063  -0.90614   2.96523 
 C                    -0.73526  -3.59454   1.35456 
 H                    -0.85076  -3.38092   0.27902 
 H                    -0.42078  -4.63884   1.4762 
 O                    -1.99803  -3.45613   2.01749 
 H                    -2.13205  -2.49836   2.20529 
 H                     2.46867  -0.97004   5.39675 
 H                     1.95321   0.83314   2.83052 
 C                    -2.5243    0.11687   3.48589 
 H                    -1.98505   0.72747   4.23236 
 H                    -2.8298    0.7876    2.66422 
 C                    -3.73844  -0.56874   4.09793 
 H                    -4.2314   -1.16351   3.31299 
 H                    -4.46045   0.21371   4.38353 
 C                    -3.44096  -1.47702   5.3028 
 H                    -4.34154  -2.07814   5.509 
 H                    -2.65218  -2.19232   5.02054 
 C                    -3.04939  -0.71747   6.5797 
 H                    -2.08103  -0.2013    6.45519 
 H                    -3.78562   0.08116   6.76794 
 C                    -3.001    -1.56605   7.84899 
 H                    -3.94134  -2.11603   7.9955 
 H                    -2.8436   -0.93032   8.73098 
 N                    -1.90875  -2.59073   7.83668 
 H                    -2.05272  -3.35846   7.11174 
 H                    -1.8154   -3.09558   8.76295 
 H                    -0.99392  -2.16479   7.64526 
 
 The following ModRedundant input section has been read:
 B      45      84 B                                                           
 B      58      84 B                                                           
 B      56      84 B                                                           
 B      41      82 B                                                           
 B      62      82 B                                                           
 B      35      82 B                                                           
 B      13      83 B                                                           
 B      19      83 B                                                           
 B      14      83 B                                                           
 
 NAtoms=     84 NQM=       84 NQMF=       0 NMMI=      0 NMMIF=      0
                NMic=       0 NMicF=      0.
                    Isotopes and Nuclear Properties:
 (Nuclear quadrupole moments (NQMom) in fm**2, nuclear magnetic moments (NMagM)
  in nuclear magnetons)

  Atom         1           2           3           4           5           6           7           8           9          10
 IAtWgt=          16          12          12          12          12          12           1           1           1           1
 AtmWgt=  15.9949146  12.0000000  12.0000000  12.0000000  12.0000000  12.0000000   1.0078250   1.0078250   1.0078250   1.0078250
 NucSpn=           0           0           0           0           0           0           1           1           1           1
 AtZEff=   0.0000000   0.0000000   0.0000000   0.0000000   0.0000000   0.0000000   0.0000000   0.0000000   0.0000000   0.0000000
 NQMom=    0.0000000   0.0000000   0.0000000   0.0000000   0.0000000   0.0000000   0.0000000   0.0000000   0.0000000   0.0000000
 NMagM=    0.0000000   0.0000000   0.0000000   0.0000000   0.0000000   0.0000000   2.7928460   2.7928460   2.7928460   2.7928460
 AtZNuc=   8.0000000   6.0000000   6.0000000   6.0000000   6.0000000   6.0000000   1.0000000   1.0000000   1.0000000   1.0000000

  Atom        11          12          13          14          15          16          17          18          19          20
 IAtWgt=           1          16          16          16          16          12           1           1          16           1
 AtmWgt=   1.0078250  15.9949146  15.9949146  15.9949146  15.9949146  12.0000000   1.0078250   1.0078250  15.9949146   1.0078250
 NucSpn=           1           0           0           0           0           0           1           1           0           1
 AtZEff=   0.0000000   0.0000000   0.0000000   0.0000000   0.0000000   0.0000000   0.0000000   0.0000000   0.0000000   0.0000000
 NQMom=    0.0000000   0.0000000   0.0000000   0.0000000   0.0000000   0.0000000   0.0000000   0.0000000   0.0000000   0.0000000
 NMagM=    2.7928460   0.0000000   0.0000000   0.0000000   0.0000000   0.0000000   2.7928460   2.7928460   0.0000000   2.7928460
 AtZNuc=   1.0000000   8.0000000   8.0000000   8.0000000   8.0000000   6.0000000   1.0000000   1.0000000   8.0000000   1.0000000

  Atom        21          22          23          24          25          26          27          28          29          30
 IAtWgt=           1           1           1          16          12          12          12          12          12           1
 AtmWgt=   1.0078250   1.0078250   1.0078250  15.9949146  12.0000000  12.0000000  12.0000000  12.0000000  12.0000000   1.0078250
 NucSpn=           1           1           1           0           0           0           0           0           0           1
 AtZEff=   0.0000000   0.0000000   0.0000000   0.0000000   0.0000000   0.0000000   0.0000000   0.0000000   0.0000000   0.0000000
 NQMom=    0.0000000   0.0000000   0.0000000   0.0000000   0.0000000   0.0000000   0.0000000   0.0000000   0.0000000   0.0000000
 NMagM=    2.7928460   2.7928460   2.7928460   0.0000000   0.0000000   0.0000000   0.0000000   0.0000000   0.0000000   2.7928460
 AtZNuc=   1.0000000   1.0000000   1.0000000   8.0000000   6.0000000   6.0000000   6.0000000   6.0000000   6.0000000   1.0000000

  Atom        31          32          33          34          35          36          37          38          39          40
 IAtWgt=           1           1           1           1          16          16          16          12           1           1
 AtmWgt=   1.0078250   1.0078250   1.0078250   1.0078250  15.9949146  15.9949146  15.9949146  12.0000000   1.0078250   1.0078250
 NucSpn=           1           1           1           1           0           0           0           0           1           1
 AtZEff=   0.0000000   0.0000000   0.0000000   0.0000000   0.0000000   0.0000000   0.0000000   0.0000000   0.0000000   0.0000000
 NQMom=    0.0000000   0.0000000   0.0000000   0.0000000   0.0000000   0.0000000   0.0000000   0.0000000   0.0000000   0.0000000
 NMagM=    2.7928460   2.7928460   2.7928460   2.7928460   0.0000000   0.0000000   0.0000000   0.0000000   2.7928460   2.7928460
 AtZNuc=   1.0000000   1.0000000   1.0000000   1.0000000   8.0000000   8.0000000   8.0000000   6.0000000   1.0000000   1.0000000

  Atom        41          42          43          44          45          46          47          48          49          50
 IAtWgt=          16           1           1           1          16          12          12          12          12          12
 AtmWgt=  15.9949146   1.0078250   1.0078250   1.0078250  15.9949146  12.0000000  12.0000000  12.0000000  12.0000000  12.0000000
 NucSpn=           0           1           1           1           0           0           0           0           0           0
 AtZEff=   0.0000000   0.0000000   0.0000000   0.0000000   0.0000000   0.0000000   0.0000000   0.0000000   0.0000000   0.0000000
 NQMom=    0.0000000   0.0000000   0.0000000   0.0000000   0.0000000   0.0000000   0.0000000   0.0000000   0.0000000   0.0000000
 NMagM=    0.0000000   2.7928460   2.7928460   2.7928460   0.0000000   0.0000000   0.0000000   0.0000000   0.0000000   0.0000000
 AtZNuc=   8.0000000   1.0000000   1.0000000   1.0000000   8.0000000   6.0000000   6.0000000   6.0000000   6.0000000   6.0000000

  Atom        51          52          53          54          55          56          57          58          59          60
 IAtWgt=           1           1           1           1           1          16          16          16          12           1
 AtmWgt=   1.0078250   1.0078250   1.0078250   1.0078250   1.0078250  15.9949146  15.9949146  15.9949146  12.0000000   1.0078250
 NucSpn=           1           1           1           1           1           0           0           0           0           1
 AtZEff=   0.0000000   0.0000000   0.0000000   0.0000000   0.0000000   0.0000000   0.0000000   0.0000000   0.0000000   0.0000000
 NQMom=    0.0000000   0.0000000   0.0000000   0.0000000   0.0000000   0.0000000   0.0000000   0.0000000   0.0000000   0.0000000
 NMagM=    2.7928460   2.7928460   2.7928460   2.7928460   2.7928460   0.0000000   0.0000000   0.0000000   0.0000000   2.7928460
 AtZNuc=   1.0000000   1.0000000   1.0000000   1.0000000   1.0000000   8.0000000   8.0000000   8.0000000   6.0000000   1.0000000

  Atom        61          62          63          64          65          66          67          68          69          70
 IAtWgt=           1          16           1           1           1          12           1           1          12           1
 AtmWgt=   1.0078250  15.9949146   1.0078250   1.0078250   1.0078250  12.0000000   1.0078250   1.0078250  12.0000000   1.0078250
 NucSpn=           1           0           1           1           1           0           1           1           0           1
 AtZEff=   0.0000000   0.0000000   0.0000000   0.0000000   0.0000000   0.0000000   0.0000000   0.0000000   0.0000000   0.0000000
 NQMom=    0.0000000   0.0000000   0.0000000   0.0000000   0.0000000   0.0000000   0.0000000   0.0000000   0.0000000   0.0000000
 NMagM=    2.7928460   0.0000000   2.7928460   2.7928460   2.7928460   0.0000000   2.7928460   2.7928460   0.0000000   2.7928460
 AtZNuc=   1.0000000   8.0000000   1.0000000   1.0000000   1.0000000   6.0000000   1.0000000   1.0000000   6.0000000   1.0000000

  Atom        71          72          73          74          75          76          77          78          79          80
 IAtWgt=           1          12           1           1          12           1           1          12           1           1
 AtmWgt=   1.0078250  12.0000000   1.0078250   1.0078250  12.0000000   1.0078250   1.0078250  12.0000000   1.0078250   1.0078250
 NucSpn=           1           0           1           1           0           1           1           0           1           1
 AtZEff=   0.0000000   0.0000000   0.0000000   0.0000000   0.0000000   0.0000000   0.0000000   0.0000000   0.0000000   0.0000000
 NQMom=    0.0000000   0.0000000   0.0000000   0.0000000   0.0000000   0.0000000   0.0000000   0.0000000   0.0000000   0.0000000
 NMagM=    2.7928460   0.0000000   2.7928460   2.7928460   0.0000000   2.7928460   2.7928460   0.0000000   2.7928460   2.7928460
 AtZNuc=   1.0000000   6.0000000   1.0000000   1.0000000   6.0000000   1.0000000   1.0000000   6.0000000   1.0000000   1.0000000

  Atom        81          82          83          84
 IAtWgt=          14           1           1           1
 AtmWgt=  14.0030740   1.0078250   1.0078250   1.0078250
 NucSpn=           2           1           1           1
 AtZEff=   0.0000000   0.0000000   0.0000000   0.0000000
 NQMom=    2.0440000   0.0000000   0.0000000   0.0000000
 NMagM=    0.4037610   2.7928460   2.7928460   2.7928460
 AtZNuc=   7.0000000   1.0000000   1.0000000   1.0000000
 Leave Link  101 at Wed Apr 27 21:37:34 2016, MaxMem= 10737418240 cpu:         4.2
 (Enter /share/apps//g09/l103.exe)

 GradGradGradGradGradGradGradGradGradGradGradGradGradGradGradGradGradGrad
 Berny optimization.
 Initialization pass.
                           ----------------------------
                           !    Initial Parameters    !
                           ! (Angstroms and Degrees)  !
 --------------------------                            --------------------------
 ! Name  Definition              Value          Derivative Info.                !
 --------------------------------------------------------------------------------
 ! R1    R(1,2)                  1.4073         estimate D2E/DX2                !
 ! R2    R(1,6)                  1.4546         estimate D2E/DX2                !
 ! R3    R(2,3)                  1.5301         estimate D2E/DX2                !
 ! R4    R(2,7)                  1.1039         estimate D2E/DX2                !
 ! R5    R(2,15)                 1.4271         estimate D2E/DX2                !
 ! R6    R(3,4)                  1.5304         estimate D2E/DX2                !
 ! R7    R(3,8)                  1.1021         estimate D2E/DX2                !
 ! R8    R(3,14)                 1.4472         estimate D2E/DX2                !
 ! R9    R(4,5)                  1.53           estimate D2E/DX2                !
 ! R10   R(4,9)                  1.1017         estimate D2E/DX2                !
 ! R11   R(4,13)                 1.4278         estimate D2E/DX2                !
 ! R12   R(5,6)                  1.5389         estimate D2E/DX2                !
 ! R13   R(5,10)                 1.1029         estimate D2E/DX2                !
 ! R14   R(5,12)                 1.434          estimate D2E/DX2                !
 ! R15   R(6,11)                 1.1038         estimate D2E/DX2                !
 ! R16   R(6,16)                 1.5318         estimate D2E/DX2                !
 ! R17   R(12,21)                0.9755         estimate D2E/DX2                !
 ! R18   R(13,22)                0.9811         estimate D2E/DX2                !
 ! R19   R(13,83)                3.8245         estimate D2E/DX2                !
 ! R20   R(14,23)                0.9805         estimate D2E/DX2                !
 ! R21   R(14,83)                1.7202         estimate D2E/DX2                !
 ! R22   R(15,27)                1.4393         estimate D2E/DX2                !
 ! R23   R(16,17)                1.1035         estimate D2E/DX2                !
 ! R24   R(16,18)                1.1017         estimate D2E/DX2                !
 ! R25   R(16,19)                1.4358         estimate D2E/DX2                !
 ! R26   R(19,20)                0.9712         estimate D2E/DX2                !
 ! R27   R(19,83)                7.106          estimate D2E/DX2                !
 ! R28   R(24,25)                1.4243         estimate D2E/DX2                !
 ! R29   R(24,29)                1.4306         estimate D2E/DX2                !
 ! R30   R(25,26)                1.5444         estimate D2E/DX2                !
 ! R31   R(25,30)                1.106          estimate D2E/DX2                !
 ! R32   R(25,37)                1.4113         estimate D2E/DX2                !
 ! R33   R(26,27)                1.5236         estimate D2E/DX2                !
 ! R34   R(26,31)                1.1038         estimate D2E/DX2                !
 ! R35   R(26,36)                1.4172         estimate D2E/DX2                !
 ! R36   R(27,28)                1.5347         estimate D2E/DX2                !
 ! R37   R(27,32)                1.1043         estimate D2E/DX2                !
 ! R38   R(28,29)                1.5398         estimate D2E/DX2                !
 ! R39   R(28,33)                1.1062         estimate D2E/DX2                !
 ! R40   R(28,35)                1.4393         estimate D2E/DX2                !
 ! R41   R(29,34)                1.1093         estimate D2E/DX2                !
 ! R42   R(29,38)                1.5339         estimate D2E/DX2                !
 ! R43   R(35,43)                1.0122         estimate D2E/DX2                !
 ! R44   R(35,82)                1.634          estimate D2E/DX2                !
 ! R45   R(36,44)                0.9802         estimate D2E/DX2                !
 ! R46   R(37,49)                1.4393         estimate D2E/DX2                !
 ! R47   R(38,39)                1.1009         estimate D2E/DX2                !
 ! R48   R(38,40)                1.0997         estimate D2E/DX2                !
 ! R49   R(38,41)                1.4362         estimate D2E/DX2                !
 ! R50   R(41,42)                1.0014         estimate D2E/DX2                !
 ! R51   R(41,82)                3.9704         estimate D2E/DX2                !
 ! R52   R(45,46)                1.3971         estimate D2E/DX2                !
 ! R53   R(45,50)                1.4622         estimate D2E/DX2                !
 ! R54   R(45,84)                6.2992         estimate D2E/DX2                !
 ! R55   R(46,47)                1.5497         estimate D2E/DX2                !
 ! R56   R(46,51)                1.1037         estimate D2E/DX2                !
 ! R57   R(46,58)                1.4443         estimate D2E/DX2                !
 ! R58   R(47,48)                1.5375         estimate D2E/DX2                !
 ! R59   R(47,52)                1.1015         estimate D2E/DX2                !
 ! R60   R(47,57)                1.4269         estimate D2E/DX2                !
 ! R61   R(48,49)                1.5293         estimate D2E/DX2                !
 ! R62   R(48,53)                1.107          estimate D2E/DX2                !
 ! R63   R(48,56)                1.4382         estimate D2E/DX2                !
 ! R64   R(49,50)                1.5455         estimate D2E/DX2                !
 ! R65   R(49,55)                1.1008         estimate D2E/DX2                !
 ! R66   R(50,54)                1.1029         estimate D2E/DX2                !
 ! R67   R(50,59)                1.5281         estimate D2E/DX2                !
 ! R68   R(56,64)                0.9745         estimate D2E/DX2                !
 ! R69   R(56,84)                3.8361         estimate D2E/DX2                !
 ! R70   R(57,65)                0.9761         estimate D2E/DX2                !
 ! R71   R(58,66)                1.4425         estimate D2E/DX2                !
 ! R72   R(58,84)                4.8906         estimate D2E/DX2                !
 ! R73   R(59,60)                1.1026         estimate D2E/DX2                !
 ! R74   R(59,61)                1.0974         estimate D2E/DX2                !
 ! R75   R(59,62)                1.4329         estimate D2E/DX2                !
 ! R76   R(62,63)                0.9852         estimate D2E/DX2                !
 ! R77   R(62,82)                5.0955         estimate D2E/DX2                !
 ! R78   R(66,67)                1.1049         estimate D2E/DX2                !
 ! R79   R(66,68)                1.1038         estimate D2E/DX2                !
 ! R80   R(66,69)                1.5228         estimate D2E/DX2                !
 ! R81   R(69,70)                1.1013         estimate D2E/DX2                !
 ! R82   R(69,71)                1.1023         estimate D2E/DX2                !
 ! R83   R(69,72)                1.5379         estimate D2E/DX2                !
 ! R84   R(72,73)                1.1022         estimate D2E/DX2                !
 ! R85   R(72,74)                1.1016         estimate D2E/DX2                !
 ! R86   R(72,75)                1.5365         estimate D2E/DX2                !
 ! R87   R(75,76)                1.1044         estimate D2E/DX2                !
 ! R88   R(75,77)                1.1024         estimate D2E/DX2                !
 ! R89   R(75,78)                1.5276         estimate D2E/DX2                !
 ! R90   R(78,79)                1.0992         estimate D2E/DX2                !
 ! R91   R(78,80)                1.0986         estimate D2E/DX2                !
 ! R92   R(78,81)                1.4977         estimate D2E/DX2                !
 ! R93   R(81,82)                1.0657         estimate D2E/DX2                !
 ! R94   R(81,83)                1.059          estimate D2E/DX2                !
 ! R95   R(81,84)                1.0271         estimate D2E/DX2                !
 ! A1    A(2,1,6)              115.461          estimate D2E/DX2                !
 ! A2    A(1,2,3)              109.6055         estimate D2E/DX2                !
 ! A3    A(1,2,7)              104.7427         estimate D2E/DX2                !
 ! A4    A(1,2,15)             113.5439         estimate D2E/DX2                !
 ! A5    A(3,2,7)              111.155          estimate D2E/DX2                !
 ! A6    A(3,2,15)             106.9869         estimate D2E/DX2                !
 ! A7    A(7,2,15)             110.8703         estimate D2E/DX2                !
 ! A8    A(2,3,4)              110.7512         estimate D2E/DX2                !
 ! A9    A(2,3,8)              106.7924         estimate D2E/DX2                !
 ! A10   A(2,3,14)             111.1711         estimate D2E/DX2                !
 ! A11   A(4,3,8)              109.5405         estimate D2E/DX2                !
 ! A12   A(4,3,14)             109.7801         estimate D2E/DX2                !
 ! A13   A(8,3,14)             108.731          estimate D2E/DX2                !
 ! A14   A(3,4,5)              110.0991         estimate D2E/DX2                !
 ! A15   A(3,4,9)              109.0418         estimate D2E/DX2                !
 ! A16   A(3,4,13)             109.292          estimate D2E/DX2                !
 ! A17   A(5,4,9)              108.7563         estimate D2E/DX2                !
 ! A18   A(5,4,13)             112.5344         estimate D2E/DX2                !
 ! A19   A(9,4,13)             107.0178         estimate D2E/DX2                !
 ! A20   A(4,5,6)              110.0606         estimate D2E/DX2                !
 ! A21   A(4,5,10)             108.9771         estimate D2E/DX2                !
 ! A22   A(4,5,12)             105.9868         estimate D2E/DX2                !
 ! A23   A(6,5,10)             107.4731         estimate D2E/DX2                !
 ! A24   A(6,5,12)             114.1835         estimate D2E/DX2                !
 ! A25   A(10,5,12)            110.0854         estimate D2E/DX2                !
 ! A26   A(1,6,5)              113.3629         estimate D2E/DX2                !
 ! A27   A(1,6,11)             109.0428         estimate D2E/DX2                !
 ! A28   A(1,6,16)             103.9096         estimate D2E/DX2                !
 ! A29   A(5,6,11)             107.5893         estimate D2E/DX2                !
 ! A30   A(5,6,16)             112.2456         estimate D2E/DX2                !
 ! A31   A(11,6,16)            110.6708         estimate D2E/DX2                !
 ! A32   A(5,12,21)            106.4332         estimate D2E/DX2                !
 ! A33   A(4,13,22)            105.2848         estimate D2E/DX2                !
 ! A34   A(4,13,83)             58.1338         estimate D2E/DX2                !
 ! A35   A(22,13,83)           144.0508         estimate D2E/DX2                !
 ! A36   A(3,14,23)            103.7311         estimate D2E/DX2                !
 ! A37   A(3,14,83)            117.8519         estimate D2E/DX2                !
 ! A38   A(23,14,83)           113.0212         estimate D2E/DX2                !
 ! A39   A(2,15,27)            115.5144         estimate D2E/DX2                !
 ! A40   A(6,16,17)            108.0851         estimate D2E/DX2                !
 ! A41   A(6,16,18)            109.61           estimate D2E/DX2                !
 ! A42   A(6,16,19)            107.6255         estimate D2E/DX2                !
 ! A43   A(17,16,18)           108.6124         estimate D2E/DX2                !
 ! A44   A(17,16,19)           111.3887         estimate D2E/DX2                !
 ! A45   A(18,16,19)           111.4509         estimate D2E/DX2                !
 ! A46   A(16,19,20)           108.3919         estimate D2E/DX2                !
 ! A47   A(16,19,83)            52.9458         estimate D2E/DX2                !
 ! A48   A(20,19,83)           160.5175         estimate D2E/DX2                !
 ! A49   A(25,24,29)           116.869          estimate D2E/DX2                !
 ! A50   A(24,25,26)           112.6928         estimate D2E/DX2                !
 ! A51   A(24,25,30)           111.1985         estimate D2E/DX2                !
 ! A52   A(24,25,37)           106.8554         estimate D2E/DX2                !
 ! A53   A(26,25,30)           109.035          estimate D2E/DX2                !
 ! A54   A(26,25,37)           112.4707         estimate D2E/DX2                !
 ! A55   A(30,25,37)           104.2784         estimate D2E/DX2                !
 ! A56   A(25,26,27)           111.3858         estimate D2E/DX2                !
 ! A57   A(25,26,31)           108.0225         estimate D2E/DX2                !
 ! A58   A(25,26,36)           110.0249         estimate D2E/DX2                !
 ! A59   A(27,26,31)           107.4245         estimate D2E/DX2                !
 ! A60   A(27,26,36)           109.5534         estimate D2E/DX2                !
 ! A61   A(31,26,36)           110.3874         estimate D2E/DX2                !
 ! A62   A(15,27,26)           106.3423         estimate D2E/DX2                !
 ! A63   A(15,27,28)           111.5313         estimate D2E/DX2                !
 ! A64   A(15,27,32)           109.3136         estimate D2E/DX2                !
 ! A65   A(26,27,28)           110.58           estimate D2E/DX2                !
 ! A66   A(26,27,32)           109.631          estimate D2E/DX2                !
 ! A67   A(28,27,32)           109.3883         estimate D2E/DX2                !
 ! A68   A(27,28,29)           109.9508         estimate D2E/DX2                !
 ! A69   A(27,28,33)           109.3471         estimate D2E/DX2                !
 ! A70   A(27,28,35)           109.5799         estimate D2E/DX2                !
 ! A71   A(29,28,33)           107.6277         estimate D2E/DX2                !
 ! A72   A(29,28,35)           111.3053         estimate D2E/DX2                !
 ! A73   A(33,28,35)           108.9851         estimate D2E/DX2                !
 ! A74   A(24,29,28)           112.1236         estimate D2E/DX2                !
 ! A75   A(24,29,34)           110.5393         estimate D2E/DX2                !
 ! A76   A(24,29,38)           104.8213         estimate D2E/DX2                !
 ! A77   A(28,29,34)           108.0547         estimate D2E/DX2                !
 ! A78   A(28,29,38)           112.6519         estimate D2E/DX2                !
 ! A79   A(34,29,38)           108.603          estimate D2E/DX2                !
 ! A80   A(28,35,43)           105.809          estimate D2E/DX2                !
 ! A81   A(28,35,82)           125.8913         estimate D2E/DX2                !
 ! A82   A(43,35,82)           127.058          estimate D2E/DX2                !
 ! A83   A(26,36,44)           105.0367         estimate D2E/DX2                !
 ! A84   A(25,37,49)           115.6078         estimate D2E/DX2                !
 ! A85   A(29,38,39)           109.2244         estimate D2E/DX2                !
 ! A86   A(29,38,40)           109.9107         estimate D2E/DX2                !
 ! A87   A(29,38,41)           111.6486         estimate D2E/DX2                !
 ! A88   A(39,38,40)           108.2196         estimate D2E/DX2                !
 ! A89   A(39,38,41)           110.483          estimate D2E/DX2                !
 ! A90   A(40,38,41)           107.2801         estimate D2E/DX2                !
 ! A91   A(38,41,42)           108.3884         estimate D2E/DX2                !
 ! A92   A(38,41,82)           102.7407         estimate D2E/DX2                !
 ! A93   A(42,41,82)            99.5058         estimate D2E/DX2                !
 ! A94   A(46,45,50)           116.9854         estimate D2E/DX2                !
 ! A95   A(46,45,84)            47.796          estimate D2E/DX2                !
 ! A96   A(50,45,84)            69.2019         estimate D2E/DX2                !
 ! A97   A(45,46,47)           112.6369         estimate D2E/DX2                !
 ! A98   A(45,46,51)           105.722          estimate D2E/DX2                !
 ! A99   A(45,46,58)           108.9673         estimate D2E/DX2                !
 ! A100  A(47,46,51)           109.7635         estimate D2E/DX2                !
 ! A101  A(47,46,58)           110.0798         estimate D2E/DX2                !
 ! A102  A(51,46,58)           109.5568         estimate D2E/DX2                !
 ! A103  A(46,47,48)           111.4446         estimate D2E/DX2                !
 ! A104  A(46,47,52)           108.0773         estimate D2E/DX2                !
 ! A105  A(46,47,57)           113.3453         estimate D2E/DX2                !
 ! A106  A(48,47,52)           107.4025         estimate D2E/DX2                !
 ! A107  A(48,47,57)           111.52           estimate D2E/DX2                !
 ! A108  A(52,47,57)           104.5839         estimate D2E/DX2                !
 ! A109  A(47,48,49)           110.2501         estimate D2E/DX2                !
 ! A110  A(47,48,53)           109.1529         estimate D2E/DX2                !
 ! A111  A(47,48,56)           110.2455         estimate D2E/DX2                !
 ! A112  A(49,48,53)           107.6663         estimate D2E/DX2                !
 ! A113  A(49,48,56)           110.3868         estimate D2E/DX2                !
 ! A114  A(53,48,56)           109.0831         estimate D2E/DX2                !
 ! A115  A(37,49,48)           110.3997         estimate D2E/DX2                !
 ! A116  A(37,49,50)           107.5496         estimate D2E/DX2                !
 ! A117  A(37,49,55)           110.2465         estimate D2E/DX2                !
 ! A118  A(48,49,50)           107.9814         estimate D2E/DX2                !
 ! A119  A(48,49,55)           110.8295         estimate D2E/DX2                !
 ! A120  A(50,49,55)           109.7475         estimate D2E/DX2                !
 ! A121  A(45,50,49)           112.6            estimate D2E/DX2                !
 ! A122  A(45,50,54)           104.6659         estimate D2E/DX2                !
 ! A123  A(45,50,59)           109.7111         estimate D2E/DX2                !
 ! A124  A(49,50,54)           106.7799         estimate D2E/DX2                !
 ! A125  A(49,50,59)           115.4168         estimate D2E/DX2                !
 ! A126  A(54,50,59)           106.891          estimate D2E/DX2                !
 ! A127  A(48,56,64)           106.6758         estimate D2E/DX2                !
 ! A128  A(48,56,84)           112.2447         estimate D2E/DX2                !
 ! A129  A(64,56,84)           112.0516         estimate D2E/DX2                !
 ! A130  A(47,57,65)           108.597          estimate D2E/DX2                !
 ! A131  A(46,58,66)           115.2673         estimate D2E/DX2                !
 ! A132  A(46,58,84)           105.618          estimate D2E/DX2                !
 ! A133  A(66,58,84)            85.3222         estimate D2E/DX2                !
 ! A134  A(50,59,60)           107.4923         estimate D2E/DX2                !
 ! A135  A(50,59,61)           108.7574         estimate D2E/DX2                !
 ! A136  A(50,59,62)           114.7154         estimate D2E/DX2                !
 ! A137  A(60,59,61)           108.8147         estimate D2E/DX2                !
 ! A138  A(60,59,62)           109.8927         estimate D2E/DX2                !
 ! A139  A(61,59,62)           107.0487         estimate D2E/DX2                !
 ! A140  A(59,62,63)           107.5769         estimate D2E/DX2                !
 ! A141  A(59,62,82)           118.2842         estimate D2E/DX2                !
 ! A142  A(63,62,82)            77.838          estimate D2E/DX2                !
 ! A143  A(58,66,67)           109.8867         estimate D2E/DX2                !
 ! A144  A(58,66,68)           109.2616         estimate D2E/DX2                !
 ! A145  A(58,66,69)           107.979          estimate D2E/DX2                !
 ! A146  A(67,66,68)           107.589          estimate D2E/DX2                !
 ! A147  A(67,66,69)           111.4943         estimate D2E/DX2                !
 ! A148  A(68,66,69)           110.6167         estimate D2E/DX2                !
 ! A149  A(66,69,70)           108.2753         estimate D2E/DX2                !
 ! A150  A(66,69,71)           107.8659         estimate D2E/DX2                !
 ! A151  A(66,69,72)           115.2501         estimate D2E/DX2                !
 ! A152  A(70,69,71)           105.9515         estimate D2E/DX2                !
 ! A153  A(70,69,72)           109.027          estimate D2E/DX2                !
 ! A154  A(71,69,72)           110.0555         estimate D2E/DX2                !
 ! A155  A(69,72,73)           108.096          estimate D2E/DX2                !
 ! A156  A(69,72,74)           108.7388         estimate D2E/DX2                !
 ! A157  A(69,72,75)           114.1063         estimate D2E/DX2                !
 ! A158  A(73,72,74)           106.1916         estimate D2E/DX2                !
 ! A159  A(73,72,75)           108.8056         estimate D2E/DX2                !
 ! A160  A(74,72,75)           110.5766         estimate D2E/DX2                !
 ! A161  A(72,75,76)           111.1505         estimate D2E/DX2                !
 ! A162  A(72,75,77)           109.259          estimate D2E/DX2                !
 ! A163  A(72,75,78)           115.0875         estimate D2E/DX2                !
 ! A164  A(76,75,77)           105.441          estimate D2E/DX2                !
 ! A165  A(76,75,78)           108.9981         estimate D2E/DX2                !
 ! A166  A(77,75,78)           106.3621         estimate D2E/DX2                !
 ! A167  A(75,78,79)           111.1987         estimate D2E/DX2                !
 ! A168  A(75,78,80)           110.4982         estimate D2E/DX2                !
 ! A169  A(75,78,81)           113.3488         estimate D2E/DX2                !
 ! A170  A(79,78,80)           107.765          estimate D2E/DX2                !
 ! A171  A(79,78,81)           106.4194         estimate D2E/DX2                !
 ! A172  A(80,78,81)           107.3394         estimate D2E/DX2                !
 ! A173  A(78,81,82)           113.575          estimate D2E/DX2                !
 ! A174  A(78,81,83)           112.5345         estimate D2E/DX2                !
 ! A175  A(78,81,84)           111.5531         estimate D2E/DX2                !
 ! A176  A(82,81,83)           105.2755         estimate D2E/DX2                !
 ! A177  A(82,81,84)           106.9957         estimate D2E/DX2                !
 ! A178  A(83,81,84)           106.3903         estimate D2E/DX2                !
 ! A179  A(35,82,41)            24.3518         estimate D2E/DX2                !
 ! A180  A(35,82,62)            49.6939         estimate D2E/DX2                !
 ! A181  A(41,82,62)            31.6735         estimate D2E/DX2                !
 ! A182  A(41,82,81)           160.2991         estimate D2E/DX2                !
 ! A183  A(62,82,81)           133.8248         estimate D2E/DX2                !
 ! A184  A(13,83,14)            42.1252         estimate D2E/DX2                !
 ! A185  A(13,83,19)            43.4626         estimate D2E/DX2                !
 ! A186  A(13,83,81)           139.9175         estimate D2E/DX2                !
 ! A187  A(14,83,19)            57.4883         estimate D2E/DX2                !
 ! A188  A(19,83,81)           121.6151         estimate D2E/DX2                !
 ! A189  A(45,84,56)            39.6179         estimate D2E/DX2                !
 ! A190  A(45,84,58)            19.0251         estimate D2E/DX2                !
 ! A191  A(45,84,81)           113.1366         estimate D2E/DX2                !
 ! A192  A(56,84,58)            57.4889         estimate D2E/DX2                !
 ! A193  A(56,84,81)           147.316          estimate D2E/DX2                !
 ! A194  A(58,84,81)            99.5243         estimate D2E/DX2                !
 ! A195  L(35,82,81,41,-1)     184.6509         estimate D2E/DX2                !
 ! A196  L(14,83,81,13,-1)     182.0428         estimate D2E/DX2                !
 ! A197  L(35,82,81,41,-2)     181.525          estimate D2E/DX2                !
 ! A198  L(14,83,81,13,-2)     176.076          estimate D2E/DX2                !
 ! D1    D(6,1,2,3)            -57.063          estimate D2E/DX2                !
 ! D2    D(6,1,2,7)           -176.3953         estimate D2E/DX2                !
 ! D3    D(6,1,2,15)            62.5077         estimate D2E/DX2                !
 ! D4    D(2,1,6,5)             53.6401         estimate D2E/DX2                !
 ! D5    D(2,1,6,11)           -66.184          estimate D2E/DX2                !
 ! D6    D(2,1,6,16)           175.769          estimate D2E/DX2                !
 ! D7    D(1,2,3,4)             58.4754         estimate D2E/DX2                !
 ! D8    D(1,2,3,8)            -60.7303         estimate D2E/DX2                !
 ! D9    D(1,2,3,14)          -179.1927         estimate D2E/DX2                !
 ! D10   D(7,2,3,4)            173.7843         estimate D2E/DX2                !
 ! D11   D(7,2,3,8)             54.5785         estimate D2E/DX2                !
 ! D12   D(7,2,3,14)           -63.8838         estimate D2E/DX2                !
 ! D13   D(15,2,3,4)           -65.0419         estimate D2E/DX2                !
 ! D14   D(15,2,3,8)           175.7523         estimate D2E/DX2                !
 ! D15   D(15,2,3,14)           57.2899         estimate D2E/DX2                !
 ! D16   D(1,2,15,27)           59.5708         estimate D2E/DX2                !
 ! D17   D(3,2,15,27)         -179.3774         estimate D2E/DX2                !
 ! D18   D(7,2,15,27)          -58.0234         estimate D2E/DX2                !
 ! D19   D(2,3,4,5)            -56.7776         estimate D2E/DX2                !
 ! D20   D(2,3,4,9)             62.4653         estimate D2E/DX2                !
 ! D21   D(2,3,4,13)           179.1349         estimate D2E/DX2                !
 ! D22   D(8,3,4,5)             60.7582         estimate D2E/DX2                !
 ! D23   D(8,3,4,9)           -179.9989         estimate D2E/DX2                !
 ! D24   D(8,3,4,13)           -63.3294         estimate D2E/DX2                !
 ! D25   D(14,3,4,5)          -179.9174         estimate D2E/DX2                !
 ! D26   D(14,3,4,9)           -60.6745         estimate D2E/DX2                !
 ! D27   D(14,3,4,13)           55.9951         estimate D2E/DX2                !
 ! D28   D(2,3,14,23)         -173.9175         estimate D2E/DX2                !
 ! D29   D(2,3,14,83)          -48.1544         estimate D2E/DX2                !
 ! D30   D(4,3,14,23)          -51.0252         estimate D2E/DX2                !
 ! D31   D(4,3,14,83)           74.7379         estimate D2E/DX2                !
 ! D32   D(8,3,14,23)           68.7943         estimate D2E/DX2                !
 ! D33   D(8,3,14,83)         -165.4426         estimate D2E/DX2                !
 ! D34   D(3,4,5,6)             51.1798         estimate D2E/DX2                !
 ! D35   D(3,4,5,10)           168.7993         estimate D2E/DX2                !
 ! D36   D(3,4,5,12)           -72.7573         estimate D2E/DX2                !
 ! D37   D(9,4,5,6)            -68.237          estimate D2E/DX2                !
 ! D38   D(9,4,5,10)            49.3825         estimate D2E/DX2                !
 ! D39   D(9,4,5,12)           167.8258         estimate D2E/DX2                !
 ! D40   D(13,4,5,6)           173.3692         estimate D2E/DX2                !
 ! D41   D(13,4,5,10)          -69.0113         estimate D2E/DX2                !
 ! D42   D(13,4,5,12)           49.4321         estimate D2E/DX2                !
 ! D43   D(3,4,13,22)           89.0402         estimate D2E/DX2                !
 ! D44   D(3,4,13,83)          -55.8723         estimate D2E/DX2                !
 ! D45   D(5,4,13,22)          -33.6041         estimate D2E/DX2                !
 ! D46   D(5,4,13,83)         -178.5166         estimate D2E/DX2                !
 ! D47   D(9,4,13,22)         -153.0142         estimate D2E/DX2                !
 ! D48   D(9,4,13,83)           62.0733         estimate D2E/DX2                !
 ! D49   D(4,5,6,1)            -48.8657         estimate D2E/DX2                !
 ! D50   D(4,5,6,11)            71.7839         estimate D2E/DX2                !
 ! D51   D(4,5,6,16)          -166.2272         estimate D2E/DX2                !
 ! D52   D(10,5,6,1)          -167.4133         estimate D2E/DX2                !
 ! D53   D(10,5,6,11)          -46.7638         estimate D2E/DX2                !
 ! D54   D(10,5,6,16)           75.2252         estimate D2E/DX2                !
 ! D55   D(12,5,6,1)            70.1729         estimate D2E/DX2                !
 ! D56   D(12,5,6,11)         -169.1775         estimate D2E/DX2                !
 ! D57   D(12,5,6,16)          -47.1886         estimate D2E/DX2                !
 ! D58   D(4,5,12,21)         -163.054          estimate D2E/DX2                !
 ! D59   D(6,5,12,21)           75.6273         estimate D2E/DX2                !
 ! D60   D(10,5,12,21)         -45.3477         estimate D2E/DX2                !
 ! D61   D(1,6,16,17)          -41.5045         estimate D2E/DX2                !
 ! D62   D(1,6,16,18)           76.7099         estimate D2E/DX2                !
 ! D63   D(1,6,16,19)         -161.9219         estimate D2E/DX2                !
 ! D64   D(5,6,16,17)           81.3619         estimate D2E/DX2                !
 ! D65   D(5,6,16,18)         -160.4238         estimate D2E/DX2                !
 ! D66   D(5,6,16,19)          -39.0555         estimate D2E/DX2                !
 ! D67   D(11,6,16,17)        -158.4212         estimate D2E/DX2                !
 ! D68   D(11,6,16,18)         -40.2068         estimate D2E/DX2                !
 ! D69   D(11,6,16,19)          81.1614         estimate D2E/DX2                !
 ! D70   D(4,13,83,14)          88.1976         estimate D2E/DX2                !
 ! D71   D(4,13,83,19)          -1.9088         estimate D2E/DX2                !
 ! D72   D(4,13,83,81)         -87.8784         estimate D2E/DX2                !
 ! D73   D(22,13,83,14)         17.3733         estimate D2E/DX2                !
 ! D74   D(22,13,83,19)        -72.7331         estimate D2E/DX2                !
 ! D75   D(22,13,83,81)       -158.7027         estimate D2E/DX2                !
 ! D76   D(3,14,83,13)         -66.7881         estimate D2E/DX2                !
 ! D77   D(3,14,83,19)         -12.1297         estimate D2E/DX2                !
 ! D78   D(23,14,83,13)         54.2907         estimate D2E/DX2                !
 ! D79   D(23,14,83,19)        108.9491         estimate D2E/DX2                !
 ! D80   D(2,15,27,26)        -151.4624         estimate D2E/DX2                !
 ! D81   D(2,15,27,28)          87.9082         estimate D2E/DX2                !
 ! D82   D(2,15,27,32)         -33.1846         estimate D2E/DX2                !
 ! D83   D(6,16,19,20)        -168.9682         estimate D2E/DX2                !
 ! D84   D(6,16,19,83)           4.66           estimate D2E/DX2                !
 ! D85   D(17,16,19,20)         72.7214         estimate D2E/DX2                !
 ! D86   D(17,16,19,83)       -113.6504         estimate D2E/DX2                !
 ! D87   D(18,16,19,20)        -48.757          estimate D2E/DX2                !
 ! D88   D(18,16,19,83)        124.8712         estimate D2E/DX2                !
 ! D89   D(16,19,83,13)        139.4345         estimate D2E/DX2                !
 ! D90   D(16,19,83,14)         86.7408         estimate D2E/DX2                !
 ! D91   D(16,19,83,81)        -89.5239         estimate D2E/DX2                !
 ! D92   D(20,19,83,13)        157.8412         estimate D2E/DX2                !
 ! D93   D(20,19,83,14)        105.1475         estimate D2E/DX2                !
 ! D94   D(20,19,83,81)        -71.1173         estimate D2E/DX2                !
 ! D95   D(29,24,25,26)        -50.6838         estimate D2E/DX2                !
 ! D96   D(29,24,25,30)         72.0919         estimate D2E/DX2                !
 ! D97   D(29,24,25,37)       -174.7098         estimate D2E/DX2                !
 ! D98   D(25,24,29,28)         53.1089         estimate D2E/DX2                !
 ! D99   D(25,24,29,34)        -67.5272         estimate D2E/DX2                !
 ! D100  D(25,24,29,38)        175.6309         estimate D2E/DX2                !
 ! D101  D(24,25,26,27)         49.552          estimate D2E/DX2                !
 ! D102  D(24,25,26,31)        -68.1969         estimate D2E/DX2                !
 ! D103  D(24,25,26,36)        171.2397         estimate D2E/DX2                !
 ! D104  D(30,25,26,27)        -74.4266         estimate D2E/DX2                !
 ! D105  D(30,25,26,31)        167.8246         estimate D2E/DX2                !
 ! D106  D(30,25,26,36)         47.2611         estimate D2E/DX2                !
 ! D107  D(37,25,26,27)        170.4204         estimate D2E/DX2                !
 ! D108  D(37,25,26,31)         52.6715         estimate D2E/DX2                !
 ! D109  D(37,25,26,36)        -67.8919         estimate D2E/DX2                !
 ! D110  D(24,25,37,49)         60.2508         estimate D2E/DX2                !
 ! D111  D(26,25,37,49)        -63.9117         estimate D2E/DX2                !
 ! D112  D(30,25,37,49)        178.0893         estimate D2E/DX2                !
 ! D113  D(25,26,27,15)       -173.8075         estimate D2E/DX2                !
 ! D114  D(25,26,27,28)        -52.5671         estimate D2E/DX2                !
 ! D115  D(25,26,27,32)         68.1241         estimate D2E/DX2                !
 ! D116  D(31,26,27,15)        -55.6982         estimate D2E/DX2                !
 ! D117  D(31,26,27,28)         65.5423         estimate D2E/DX2                !
 ! D118  D(31,26,27,32)       -173.7665         estimate D2E/DX2                !
 ! D119  D(36,26,27,15)         64.2314         estimate D2E/DX2                !
 ! D120  D(36,26,27,28)       -174.5282         estimate D2E/DX2                !
 ! D121  D(36,26,27,32)        -53.8369         estimate D2E/DX2                !
 ! D122  D(25,26,36,44)         74.9631         estimate D2E/DX2                !
 ! D123  D(27,26,36,44)       -162.2642         estimate D2E/DX2                !
 ! D124  D(31,26,36,44)        -44.1645         estimate D2E/DX2                !
 ! D125  D(15,27,28,29)        172.5516         estimate D2E/DX2                !
 ! D126  D(15,27,28,33)        -69.4853         estimate D2E/DX2                !
 ! D127  D(15,27,28,35)         49.9107         estimate D2E/DX2                !
 ! D128  D(26,27,28,29)         54.4366         estimate D2E/DX2                !
 ! D129  D(26,27,28,33)        172.3997         estimate D2E/DX2                !
 ! D130  D(26,27,28,35)        -68.2043         estimate D2E/DX2                !
 ! D131  D(32,27,28,29)        -66.3991         estimate D2E/DX2                !
 ! D132  D(32,27,28,33)         51.564          estimate D2E/DX2                !
 ! D133  D(32,27,28,35)        170.96           estimate D2E/DX2                !
 ! D134  D(27,28,29,24)        -53.6043         estimate D2E/DX2                !
 ! D135  D(27,28,29,34)         68.4601         estimate D2E/DX2                !
 ! D136  D(27,28,29,38)       -171.5656         estimate D2E/DX2                !
 ! D137  D(33,28,29,24)       -172.6265         estimate D2E/DX2                !
 ! D138  D(33,28,29,34)        -50.5622         estimate D2E/DX2                !
 ! D139  D(33,28,29,38)         69.4121         estimate D2E/DX2                !
 ! D140  D(35,28,29,24)         68.0125         estimate D2E/DX2                !
 ! D141  D(35,28,29,34)       -169.9232         estimate D2E/DX2                !
 ! D142  D(35,28,29,38)        -49.9488         estimate D2E/DX2                !
 ! D143  D(27,28,35,43)        145.3004         estimate D2E/DX2                !
 ! D144  D(27,28,35,82)        -22.6578         estimate D2E/DX2                !
 ! D145  D(29,28,35,43)         23.468          estimate D2E/DX2                !
 ! D146  D(29,28,35,82)       -144.4902         estimate D2E/DX2                !
 ! D147  D(33,28,35,43)        -95.0813         estimate D2E/DX2                !
 ! D148  D(33,28,35,82)         96.9605         estimate D2E/DX2                !
 ! D149  D(24,29,38,39)         58.5382         estimate D2E/DX2                !
 ! D150  D(24,29,38,40)        177.1246         estimate D2E/DX2                !
 ! D151  D(24,29,38,41)        -63.9502         estimate D2E/DX2                !
 ! D152  D(28,29,38,39)       -179.2834         estimate D2E/DX2                !
 ! D153  D(28,29,38,40)        -60.697          estimate D2E/DX2                !
 ! D154  D(28,29,38,41)         58.2283         estimate D2E/DX2                !
 ! D155  D(34,29,38,39)        -59.626          estimate D2E/DX2                !
 ! D156  D(34,29,38,40)         58.9604         estimate D2E/DX2                !
 ! D157  D(34,29,38,41)        177.8856         estimate D2E/DX2                !
 ! D158  D(28,35,82,41)        157.3641         estimate D2E/DX2                !
 ! D159  D(28,35,82,62)        123.7062         estimate D2E/DX2                !
 ! D160  D(43,35,82,41)         -8.0674         estimate D2E/DX2                !
 ! D161  D(43,35,82,62)        -41.7253         estimate D2E/DX2                !
 ! D162  D(25,37,49,48)        121.079          estimate D2E/DX2                !
 ! D163  D(25,37,49,50)       -121.3367         estimate D2E/DX2                !
 ! D164  D(25,37,49,55)         -1.7094         estimate D2E/DX2                !
 ! D165  D(29,38,41,42)         75.7907         estimate D2E/DX2                !
 ! D166  D(29,38,41,82)        -28.8994         estimate D2E/DX2                !
 ! D167  D(39,38,41,42)        -45.9739         estimate D2E/DX2                !
 ! D168  D(39,38,41,82)       -150.664          estimate D2E/DX2                !
 ! D169  D(40,38,41,42)       -163.7323         estimate D2E/DX2                !
 ! D170  D(40,38,41,82)         91.5776         estimate D2E/DX2                !
 ! D171  D(38,41,82,35)        -11.764          estimate D2E/DX2                !
 ! D172  D(38,41,82,62)        114.6312         estimate D2E/DX2                !
 ! D173  D(38,41,82,81)        166.711          estimate D2E/DX2                !
 ! D174  D(42,41,82,35)       -123.2198         estimate D2E/DX2                !
 ! D175  D(42,41,82,62)          3.1754         estimate D2E/DX2                !
 ! D176  D(42,41,82,81)         55.2552         estimate D2E/DX2                !
 ! D177  D(50,45,46,47)         58.52           estimate D2E/DX2                !
 ! D178  D(50,45,46,51)        178.3873         estimate D2E/DX2                !
 ! D179  D(50,45,46,58)        -63.937          estimate D2E/DX2                !
 ! D180  D(84,45,46,47)         57.0961         estimate D2E/DX2                !
 ! D181  D(84,45,46,51)        176.9634         estimate D2E/DX2                !
 ! D182  D(84,45,46,58)        -65.361          estimate D2E/DX2                !
 ! D183  D(46,45,50,49)        -24.4351         estimate D2E/DX2                !
 ! D184  D(46,45,50,54)       -140.0411         estimate D2E/DX2                !
 ! D185  D(46,45,50,59)        105.5785         estimate D2E/DX2                !
 ! D186  D(84,45,50,49)        -23.3068         estimate D2E/DX2                !
 ! D187  D(84,45,50,54)       -138.9128         estimate D2E/DX2                !
 ! D188  D(84,45,50,59)        106.7068         estimate D2E/DX2                !
 ! D189  D(46,45,84,56)       -105.4532         estimate D2E/DX2                !
 ! D190  D(46,45,84,58)         51.1481         estimate D2E/DX2                !
 ! D191  D(46,45,84,81)         97.7403         estimate D2E/DX2                !
 ! D192  D(50,45,84,56)         75.9042         estimate D2E/DX2                !
 ! D193  D(50,45,84,58)       -127.4945         estimate D2E/DX2                !
 ! D194  D(50,45,84,81)        -80.9023         estimate D2E/DX2                !
 ! D195  D(45,46,47,48)        -26.802          estimate D2E/DX2                !
 ! D196  D(45,46,47,52)       -144.5916         estimate D2E/DX2                !
 ! D197  D(45,46,47,57)         99.9808         estimate D2E/DX2                !
 ! D198  D(51,46,47,48)       -144.3052         estimate D2E/DX2                !
 ! D199  D(51,46,47,52)         97.9052         estimate D2E/DX2                !
 ! D200  D(51,46,47,57)        -17.5225         estimate D2E/DX2                !
 ! D201  D(58,46,47,48)         95.0273         estimate D2E/DX2                !
 ! D202  D(58,46,47,52)        -22.7623         estimate D2E/DX2                !
 ! D203  D(58,46,47,57)       -138.19           estimate D2E/DX2                !
 ! D204  D(45,46,58,66)       -152.0263         estimate D2E/DX2                !
 ! D205  D(45,46,58,84)        115.7783         estimate D2E/DX2                !
 ! D206  D(47,46,58,66)         83.9896         estimate D2E/DX2                !
 ! D207  D(47,46,58,84)         -8.2058         estimate D2E/DX2                !
 ! D208  D(51,46,58,66)        -36.8022         estimate D2E/DX2                !
 ! D209  D(51,46,58,84)       -128.9976         estimate D2E/DX2                !
 ! D210  D(46,47,48,49)        -32.624          estimate D2E/DX2                !
 ! D211  D(46,47,48,53)         85.4461         estimate D2E/DX2                !
 ! D212  D(46,47,48,56)       -154.753          estimate D2E/DX2                !
 ! D213  D(52,47,48,49)         85.5717         estimate D2E/DX2                !
 ! D214  D(52,47,48,53)       -156.3582         estimate D2E/DX2                !
 ! D215  D(52,47,48,56)        -36.5572         estimate D2E/DX2                !
 ! D216  D(57,47,48,49)       -160.3968         estimate D2E/DX2                !
 ! D217  D(57,47,48,53)        -42.3267         estimate D2E/DX2                !
 ! D218  D(57,47,48,56)         77.4743         estimate D2E/DX2                !
 ! D219  D(46,47,57,65)        -60.0222         estimate D2E/DX2                !
 ! D220  D(48,47,57,65)         66.7209         estimate D2E/DX2                !
 ! D221  D(52,47,57,65)       -177.5071         estimate D2E/DX2                !
 ! D222  D(47,48,49,37)       -178.2368         estimate D2E/DX2                !
 ! D223  D(47,48,49,50)         64.4453         estimate D2E/DX2                !
 ! D224  D(47,48,49,55)        -55.7896         estimate D2E/DX2                !
 ! D225  D(53,48,49,37)         62.7828         estimate D2E/DX2                !
 ! D226  D(53,48,49,50)        -54.5352         estimate D2E/DX2                !
 ! D227  D(53,48,49,55)       -174.7701         estimate D2E/DX2                !
 ! D228  D(56,48,49,37)        -56.1912         estimate D2E/DX2                !
 ! D229  D(56,48,49,50)       -173.5092         estimate D2E/DX2                !
 ! D230  D(56,48,49,55)         66.2559         estimate D2E/DX2                !
 ! D231  D(47,48,56,64)        -61.1848         estimate D2E/DX2                !
 ! D232  D(47,48,56,84)         61.9054         estimate D2E/DX2                !
 ! D233  D(49,48,56,64)        176.767          estimate D2E/DX2                !
 ! D234  D(49,48,56,84)        -60.1428         estimate D2E/DX2                !
 ! D235  D(53,48,56,64)         58.6583         estimate D2E/DX2                !
 ! D236  D(53,48,56,84)       -178.2516         estimate D2E/DX2                !
 ! D237  D(37,49,50,45)       -155.6658         estimate D2E/DX2                !
 ! D238  D(37,49,50,54)        -41.3381         estimate D2E/DX2                !
 ! D239  D(37,49,50,59)         77.3004         estimate D2E/DX2                !
 ! D240  D(48,49,50,45)        -36.5223         estimate D2E/DX2                !
 ! D241  D(48,49,50,54)         77.8054         estimate D2E/DX2                !
 ! D242  D(48,49,50,59)       -163.5561         estimate D2E/DX2                !
 ! D243  D(55,49,50,45)         84.3896         estimate D2E/DX2                !
 ! D244  D(55,49,50,54)       -161.2827         estimate D2E/DX2                !
 ! D245  D(55,49,50,59)        -42.6441         estimate D2E/DX2                !
 ! D246  D(45,50,59,60)         51.2729         estimate D2E/DX2                !
 ! D247  D(45,50,59,61)        168.9274         estimate D2E/DX2                !
 ! D248  D(45,50,59,62)        -71.2603         estimate D2E/DX2                !
 ! D249  D(49,50,59,60)        179.7505         estimate D2E/DX2                !
 ! D250  D(49,50,59,61)        -62.5951         estimate D2E/DX2                !
 ! D251  D(49,50,59,62)         57.2173         estimate D2E/DX2                !
 ! D252  D(54,50,59,60)        -61.6726         estimate D2E/DX2                !
 ! D253  D(54,50,59,61)         55.9819         estimate D2E/DX2                !
 ! D254  D(54,50,59,62)        175.7942         estimate D2E/DX2                !
 ! D255  D(48,56,84,45)         -0.8856         estimate D2E/DX2                !
 ! D256  D(48,56,84,58)         -9.7163         estimate D2E/DX2                !
 ! D257  D(48,56,84,81)         41.2327         estimate D2E/DX2                !
 ! D258  D(64,56,84,45)        119.1261         estimate D2E/DX2                !
 ! D259  D(64,56,84,58)        110.2955         estimate D2E/DX2                !
 ! D260  D(64,56,84,81)        161.2444         estimate D2E/DX2                !
 ! D261  D(46,58,66,67)        -50.4108         estimate D2E/DX2                !
 ! D262  D(46,58,66,68)         67.4166         estimate D2E/DX2                !
 ! D263  D(46,58,66,69)       -172.2161         estimate D2E/DX2                !
 ! D264  D(84,58,66,67)         54.6639         estimate D2E/DX2                !
 ! D265  D(84,58,66,68)        172.4913         estimate D2E/DX2                !
 ! D266  D(84,58,66,69)        -67.1414         estimate D2E/DX2                !
 ! D267  D(46,58,84,45)        -35.4074         estimate D2E/DX2                !
 ! D268  D(46,58,84,56)        -17.9321         estimate D2E/DX2                !
 ! D269  D(46,58,84,81)       -172.7674         estimate D2E/DX2                !
 ! D270  D(66,58,84,45)       -150.3565         estimate D2E/DX2                !
 ! D271  D(66,58,84,56)       -132.8813         estimate D2E/DX2                !
 ! D272  D(66,58,84,81)         72.2834         estimate D2E/DX2                !
 ! D273  D(50,59,62,63)         38.8821         estimate D2E/DX2                !
 ! D274  D(50,59,62,82)        -46.5004         estimate D2E/DX2                !
 ! D275  D(60,59,62,63)        -82.3452         estimate D2E/DX2                !
 ! D276  D(60,59,62,82)       -167.7277         estimate D2E/DX2                !
 ! D277  D(61,59,62,63)        159.6398         estimate D2E/DX2                !
 ! D278  D(61,59,62,82)         74.2572         estimate D2E/DX2                !
 ! D279  D(59,62,82,35)        -91.5082         estimate D2E/DX2                !
 ! D280  D(59,62,82,41)       -117.3083         estimate D2E/DX2                !
 ! D281  D(59,62,82,81)         84.3213         estimate D2E/DX2                !
 ! D282  D(63,62,82,35)        164.9097         estimate D2E/DX2                !
 ! D283  D(63,62,82,41)        139.1096         estimate D2E/DX2                !
 ! D284  D(63,62,82,81)        -19.2607         estimate D2E/DX2                !
 ! D285  D(58,66,69,70)        -58.9438         estimate D2E/DX2                !
 ! D286  D(58,66,69,71)       -173.1822         estimate D2E/DX2                !
 ! D287  D(58,66,69,72)         63.424          estimate D2E/DX2                !
 ! D288  D(67,66,69,70)       -179.7508         estimate D2E/DX2                !
 ! D289  D(67,66,69,71)         66.0109         estimate D2E/DX2                !
 ! D290  D(67,66,69,72)        -57.383          estimate D2E/DX2                !
 ! D291  D(68,66,69,70)         60.57           estimate D2E/DX2                !
 ! D292  D(68,66,69,71)        -53.6684         estimate D2E/DX2                !
 ! D293  D(68,66,69,72)       -177.0622         estimate D2E/DX2                !
 ! D294  D(66,69,72,73)       -167.6126         estimate D2E/DX2                !
 ! D295  D(66,69,72,74)        -52.738          estimate D2E/DX2                !
 ! D296  D(66,69,72,75)         71.206          estimate D2E/DX2                !
 ! D297  D(70,69,72,73)        -45.6483         estimate D2E/DX2                !
 ! D298  D(70,69,72,74)         69.2263         estimate D2E/DX2                !
 ! D299  D(70,69,72,75)       -166.8297         estimate D2E/DX2                !
 ! D300  D(71,69,72,73)         70.1605         estimate D2E/DX2                !
 ! D301  D(71,69,72,74)       -174.9649         estimate D2E/DX2                !
 ! D302  D(71,69,72,75)        -51.0209         estimate D2E/DX2                !
 ! D303  D(69,72,75,76)        -66.3041         estimate D2E/DX2                !
 ! D304  D(69,72,75,77)         49.645          estimate D2E/DX2                !
 ! D305  D(69,72,75,78)        169.1871         estimate D2E/DX2                !
 ! D306  D(73,72,75,76)        172.9088         estimate D2E/DX2                !
 ! D307  D(73,72,75,77)        -71.1422         estimate D2E/DX2                !
 ! D308  D(73,72,75,78)         48.4            estimate D2E/DX2                !
 ! D309  D(74,72,75,76)         56.646          estimate D2E/DX2                !
 ! D310  D(74,72,75,77)        172.5951         estimate D2E/DX2                !
 ! D311  D(74,72,75,78)        -67.8628         estimate D2E/DX2                !
 ! D312  D(72,75,78,79)        -53.02           estimate D2E/DX2                !
 ! D313  D(72,75,78,80)       -172.6487         estimate D2E/DX2                !
 ! D314  D(72,75,78,81)         66.8246         estimate D2E/DX2                !
 ! D315  D(76,75,78,79)       -178.6494         estimate D2E/DX2                !
 ! D316  D(76,75,78,80)         61.7219         estimate D2E/DX2                !
 ! D317  D(76,75,78,81)        -58.8048         estimate D2E/DX2                !
 ! D318  D(77,75,78,79)         68.1126         estimate D2E/DX2                !
 ! D319  D(77,75,78,80)        -51.5161         estimate D2E/DX2                !
 ! D320  D(77,75,78,81)       -172.0428         estimate D2E/DX2                !
 ! D321  D(75,78,81,82)        -67.0709         estimate D2E/DX2                !
 ! D322  D(75,78,81,83)        173.4391         estimate D2E/DX2                !
 ! D323  D(75,78,81,84)         53.9435         estimate D2E/DX2                !
 ! D324  D(79,78,81,82)         55.4638         estimate D2E/DX2                !
 ! D325  D(79,78,81,83)        -64.0262         estimate D2E/DX2                !
 ! D326  D(79,78,81,84)        176.4782         estimate D2E/DX2                !
 ! D327  D(80,78,81,82)        170.6294         estimate D2E/DX2                !
 ! D328  D(80,78,81,83)         51.1394         estimate D2E/DX2                !
 ! D329  D(80,78,81,84)        -68.3563         estimate D2E/DX2                !
 ! D330  D(78,81,82,41)         32.9533         estimate D2E/DX2                !
 ! D331  D(78,81,82,62)         67.9924         estimate D2E/DX2                !
 ! D332  D(83,81,82,41)        156.5009         estimate D2E/DX2                !
 ! D333  D(83,81,82,62)       -168.46           estimate D2E/DX2                !
 ! D334  D(84,81,82,41)        -90.5853         estimate D2E/DX2                !
 ! D335  D(84,81,82,62)        -55.5461         estimate D2E/DX2                !
 ! D336  D(78,81,83,13)       -106.4739         estimate D2E/DX2                !
 ! D337  D(78,81,83,19)       -160.158          estimate D2E/DX2                !
 ! D338  D(82,81,83,13)        129.319          estimate D2E/DX2                !
 ! D339  D(82,81,83,19)         75.6349         estimate D2E/DX2                !
 ! D340  D(84,81,83,13)         15.98           estimate D2E/DX2                !
 ! D341  D(84,81,83,19)        -37.7041         estimate D2E/DX2                !
 ! D342  D(78,81,84,45)        -83.014          estimate D2E/DX2                !
 ! D343  D(78,81,84,56)       -110.7283         estimate D2E/DX2                !
 ! D344  D(78,81,84,58)        -69.1197         estimate D2E/DX2                !
 ! D345  D(82,81,84,45)         41.7628         estimate D2E/DX2                !
 ! D346  D(82,81,84,56)         14.0485         estimate D2E/DX2                !
 ! D347  D(82,81,84,58)         55.6571         estimate D2E/DX2                !
 ! D348  D(83,81,84,45)        153.9147         estimate D2E/DX2                !
 ! D349  D(83,81,84,56)        126.2004         estimate D2E/DX2                !
 ! D350  D(83,81,84,58)        167.809          estimate D2E/DX2                !
 --------------------------------------------------------------------------------
 Trust Radius=3.00D-01 FncErr=1.00D-07 GrdErr=1.00D-06
 Number of steps in this run=    504 maximum allowed number of steps=    504.
 GradGradGradGradGradGradGradGradGradGradGradGradGradGradGradGradGradGrad

 Leave Link  103 at Wed Apr 27 21:37:34 2016, MaxMem= 10737418240 cpu:         0.5
 (Enter /share/apps//g09/l202.exe)
 Stoichiometry    C23H44NO16(1+)
 Framework group  C1[X(C23H44NO16)]
 Deg. of freedom   246
 Full point group                 C1      NOp   1
 Largest Abelian subgroup         C1      NOp   1
 Largest concise Abelian subgroup C1      NOp   1
                         Standard orientation:                         
 ---------------------------------------------------------------------
 Center     Atomic      Atomic             Coordinates (Angstroms)
 Number     Number       Type             X           Y           Z
 ---------------------------------------------------------------------
      1          8           0        4.264878   -0.823906    0.946778
      2          6           0        3.436464    0.286069    1.195991
      3          6           0        4.080129    1.547505    0.616519
      4          6           0        4.312064    1.395507   -0.888502
      5          6           0        5.173266    0.161702   -1.165797
      6          6           0        4.581262   -1.066513   -0.452109
      7          1           0        3.367249    0.343554    2.296265
      8          1           0        5.048214    1.674582    1.127707
      9          1           0        3.339873    1.269124   -1.391037
     10          1           0        5.162322   -0.047313   -2.248642
     11          1           0        3.657802   -1.349776   -0.986329
     12          8           0        6.500453    0.503426   -0.743577
     13          8           0        4.893854    2.594996   -1.399633
     14          8           0        3.263584    2.714921    0.870757
     15          8           0        2.140043    0.172765    0.610247
     16          6           0        5.563145   -2.241442   -0.409166
     17          1           0        6.262989   -2.072611    0.427102
     18          1           0        5.012148   -3.177170   -0.223126
     19          8           0        6.251530   -2.278979   -1.668585
     20          1           0        6.744396   -3.113976   -1.723626
     21          1           0        7.097683   -0.148091   -1.156320
     22          1           0        5.862929    2.471242   -1.309465
     23          1           0        3.717754    3.428959    0.375481
     24          8           0       -1.232322   -2.140082    1.509902
     25          6           0       -0.566668   -2.415522    0.281198
     26          6           0        0.435293   -1.308986   -0.114694
     27          6           0        1.360539   -0.956974    1.043538
     28          6           0        0.547410   -0.630306    2.303503
     29          6           0       -0.409396   -1.792448    2.627290
     30          1           0       -0.035762   -3.384939    0.322515
     31          1           0       -0.140139   -0.401126   -0.365740
     32          1           0        2.033957   -1.807005    1.251979
     33          1           0        1.234266   -0.512569    3.162658
     34          1           0        0.201297   -2.661881    2.946337
     35          8           0       -0.172404    0.600573    2.107375
     36          8           0        1.206504   -1.728092   -1.227350
     37          8           0       -1.569309   -2.609015   -0.692973
     38          6           0       -1.396640   -1.449533    3.750048
     39          1           0       -2.042181   -2.320031    3.943509
     40          1           0       -0.847155   -1.216880    4.673816
     41          8           0       -2.190364   -0.297754    3.424211
     42          1           0       -2.886605   -0.571907    2.758761
     43          1           0       -1.048328    0.489646    2.602309
     44          1           0        0.602841   -1.657154   -1.996403
     45          8           0       -4.893310   -1.163277   -1.326266
     46          6           0       -4.531949    0.139318   -1.679035
     47          6           0       -3.283195    0.184382   -2.595590
     48          6           0       -2.378573   -1.038823   -2.373621
     49          6           0       -2.446471   -1.489457   -0.913750
     50          6           0       -3.889157   -1.964237   -0.627582
     51          1           0       -5.402591    0.556813   -2.213700
     52          1           0       -2.697701    1.079346   -2.331791
     53          1           0       -2.739853   -1.876325   -3.000866
     54          1           0       -3.984542   -2.973173   -1.062738
     55          1           0       -2.185928   -0.661941   -0.236120
     56          8           0       -1.022850   -0.728137   -2.739510
     57          8           0       -3.600877    0.356869   -3.975976
     58          8           0       -4.291989    0.902007   -0.476178
     59          6           0       -4.260163   -2.081178    0.850189
     60          1           0       -5.307573   -2.421622    0.902999
     61          1           0       -3.617778   -2.838969    1.316397
     62          8           0       -4.101317   -0.873688    1.605143
     63          1           0       -4.390677   -0.125239    1.033611
     64          1           0       -1.034244   -0.499466   -3.686782
     65          1           0       -4.158179   -0.391382   -4.263017
     66          6           0       -4.529062    2.320464   -0.588920
     67          1           0       -4.002231    2.720401   -1.473985
     68          1           0       -5.608580    2.498770   -0.734522
     69          6           0       -4.044763    2.981432    0.694577
     70          1           0       -4.598600    2.542559    1.539294
     71          1           0       -4.337685    4.043530    0.659371
     72          6           0       -2.536037    2.859181    0.966570
     73          1           0       -2.349531    3.169935    2.007509
     74          1           0       -2.250701    1.796838    0.907325
     75          6           0       -1.659193    3.706767    0.031980
     76          1           0       -1.720110    3.343945   -1.009320
     77          1           0       -2.046610    4.738529    0.006433
     78          6           0       -0.190063    3.808670    0.437938
     79          1           0       -0.087896    4.144836    1.479445
     80          1           0        0.336276    4.531177   -0.200642
     81          7           0        0.544717    2.507341    0.339095
     82          1           0        0.213874    1.776699    1.040794
     83          1           0        1.583550    2.613388    0.515570
     84          1           0        0.450457    2.090800   -0.595030
 ---------------------------------------------------------------------
 Rotational constants (GHZ):      0.1377680      0.0571896      0.0551602
 Leave Link  202 at Wed Apr 27 21:37:34 2016, MaxMem= 10737418240 cpu:         0.9
 (Enter /share/apps//g09/l301.exe)
 Standard basis: 6-311+G(d,p) (5D, 7F)
 Ernie: Thresh=  0.10000D-02 Tol=  0.10000D-05 Strict=F.
 There are  1184 symmetry adapted cartesian basis functions of A   symmetry.
 There are  1144 symmetry adapted basis functions of A   symmetry.
  1144 basis functions,  1792 primitive gaussians,  1184 cartesian basis functions
   158 alpha electrons      158 beta electrons
       nuclear repulsion energy      5868.6592499330 Hartrees.
 IExCor= 1009 DFT=T Ex+Corr=PBE1PBE ExCW=0 ScaHFX=  0.250000
 ScaDFX=  0.750000  0.750000  1.000000  1.000000 ScalE2=  1.000000  1.000000
 IRadAn=      0 IRanWt=     -1 IRanGd=            0 ICorTp=0 IEmpDi=131
[...]
 1417,-0.00002554,0.00004282,0.00006071,-0.00042105,0.00062062,0.000642
 92,-0.00014022,0.00005531,-0.00028864,-0.00004758,0.00016225,-0.000175
 61,0.00014507,-0.00013155,-0.00004344,-0.00003763,0.00001065,-0.000012
 64,0.00000180,-0.00000190,-0.00000422,-0.00005586,0.00014662,0.0001214
 5,0.00001673,0.00000506,-0.00001613,-0.00009521,0.00004546,-0.00020597
 ,0.00001698,-0.00010511,0.00007328,-0.00003590,0.00006902,0.00003811,0
 .00007103,-0.00000762,-0.00008145,0.00010244,0.00000953,-0.00008560,0.
 00002565,-0.00001034,0.00000012,0.00012000,-0.00010860,-0.00001343,-0.
 00000055,-0.00003174,0.00001156,-0.00000389,-0.00000214,0.00000336,-0.
 00001765,0.00003996,0.00001550,-0.00001040,-0.00000003,0.00000848,-0.0
 0000671,-0.00000070,0.00000937,-0.00001402,-0.00001426,-0.00001748,-0.
 00016060,0.00008498,-0.00001490,-0.00006790,-0.00001929,0.00002745,-0.
 00007047,-0.00000470,0.00007775,0.00004461,-0.00001447,-0.00002355,-0.
 00000605,0.00000071,0.00000439,-0.00000043,0.00000621,0.00000758,-0.00
 005001,0.00002777,0.00003798,0.00000930,-0.00002728,-0.00002961,0.0000
 5207,-0.00000948,0.00002807,0.00000870,-0.00000355,0.00000113,0.000026
 03,-0.00001965,-0.00001561,-0.00000835,0.00001649,-0.00000232,-0.00001
 033,-0.00000287,0.00001886,-0.00004097,0.00002082,-0.00005993,0.000017
 88,-0.00001772,-0.00000163,0.00003098,-0.00003465,0.00001714,0.0001268
 0,0.00000490,0.00036552,-0.00002503,-0.00004789,-0.00003883,-0.0000001
 8,-0.00009054,-0.00007465,-0.00354017,0.00262897,0.00176262,0.00019719
 ,0.00012320,0.00011075,0.00024919,0.00073194,-0.00105414,-0.00104968,0
 .01040106,-0.02259477,-0.00054069,-0.00029504,-0.00062222,0.00104540,-
 0.00044062,0.00028324,-0.06480764,0.00840612,-0.01640865,-0.00056098,0
 .00296022,-0.00746609,0.07411231,-0.00149084,0.00070383,0.00052217,0.0
 0179821,-0.00255513,-0.00039618,0.00496406,-0.00486536,0.00096979,0.00
 051474,0.00154811,-0.00025281,-0.00020049,-0.00054318,0.00001930,0.000
 70514,0.00032734,-0.00012597,-0.00011014,-0.00005577,-0.00009908,-0.00
 081468,0.00064309,-0.00017366,-0.00011339,-0.00005529,0.00018814,-0.00
 021145,0.00010714,-0.00009374,-0.00006536,-0.00000673,-0.00005686,-0.0
 0030369,0.00014563,-0.00019224,-0.00099960,-0.00057116,-0.00034493,-0.
 00108162,-0.00751159,-0.00565665,-0.00067091,-0.00072761,0.00287498,0.
 00019943,-0.00011725,0.00002192,0.00000268,-0.00003243,0.00000405,-0.0
 0003906,0.00003340,0.00002259,-0.00036608,0.00005968,-0.00001601,0.000
 06969,-0.00000002,-0.00001539,0.00006797,-0.00005962,0.00008468,0.0001
 9304,0.00001407,0.00020573,-0.00098354,0.00577918,-0.00286998,-0.00004
 910,-0.00019014,0.00019984,0.00001290,-0.00002778,-0.00028500,-0.00040
 671,0.00080439,-0.00006877,0.00003523,-0.00032005,-0.00261326,-0.00123
 680,0.00096454,-0.00056209,0.00047519,-0.00017022,-0.00006000,0.000031
 86,-0.00006325,-0.00005744,-0.00002196,-0.00025556,0.00015907,-0.00004
 971,0.00023476,0.00037234,0.00003719,-0.00040465,-0.00002620,0.0000682
 5,-0.00008968,-0.00011572,0.00064235,-0.00442059,-0.00062660,0.0002286
 3,-0.00038997,0.00030542,0.00006857,-0.00042275,0.00033921,-0.00023117
 ,0.00033249,0.00002844,0.00006289,-0.00003017,0.00002727,-0.00001761,-
 0.00002982,0.00000898,0.00008506,-0.00041599,-0.00007693,0.00001674,0.
 00015284,-0.00002327,0.00002425,0.00014119,0.00023924,-0.00008648,0.00
 024299,-0.00002224,0.00014841,-0.00025688,-0.00015563,-0.00035366,0.00
 003648,0.00031198,-0.00020582,-0.00002052,0.00014397,-0.00002281,0.000
 04337,0.00001746,-0.00025145,0.00026357,0.00002468,-0.00002096,0.00014
 198,-0.00002053,0.00001759,0.00000709,-0.00000674,0.00001683,-0.000042
 24,-0.00005173,0.00002515,-0.00000212,-0.00002696,0.00001895,-0.000006
 51,-0.00002044,0.00002120,0.00004743,0.00002439,0.00024087,-0.00019889
 ,-0.00006827,0.00016851,0.00004338,-0.00006115,0.00040348,-0.00006766,
 -0.00035313,-0.00010739,0.00003282,0.00006916,0.00001279,0.00000247,-0
 .00001493,0.00000767,-0.00001799,-0.00001821,0.00010118,-0.00018758,-0
 .00010956,-0.00004002,0.00015467,0.00014713,-0.00012982,0.00002753,0.0
 0002516,-0.00003442,-0.00000620,0.00000466,-0.00022062,0.00012973,0.00
 017058,-0.00002251,-0.00008339,0.00001575,0.00005128,-0.00000081,-0.00
 008795,-0.00007322,-0.00010685,0.00020909,-0.00003084,0.00004555,-0.00
 012795,-0.00000008,0.00009742,-0.00007686,0.00029495,0.00021090,-0.000
 36612,-0.00000221,0.00002318,0.00006169,-0.00020033,0.00020345,0.00033
 903,0.00235440,-0.00190293,-0.00123819,0.00004699,0.00009065,-0.000281
 22,-0.00001573,-0.00008853,0.00063589,0.00388652,-0.01273229,0.0171908
 9,-0.00072063,0.00115135,-0.00020444,-0.00098046,0.00006936,0.00007789
 ,0.00518033,-0.11669076,0.10807053,-0.00038900,0.02011520,-0.01928536,
 -0.00980724,0.12786192,0.00071751,-0.00026562,-0.00243822,-0.00031097,
 -0.00032752,0.00663799,-0.01119828,0.00684044,0.00360119,-0.00054469,-
 0.00168217,0.00003671,0.00003195,0.00104603,0.00034616,-0.00044469,-0.
 00008327,0.00079700,0.00003588,0.00022640,-0.00033937,0.00257402,-0.00
 211181,0.00007016,-0.00004271,0.00023017,0.00008834,0.00035110,-0.0002
 1600,0.00009319,0.00012793,-0.00003791,0.00009053,0.00075791,-0.000540
 32,0.00011901,0.00172323,0.00019333,0.00036026,0.00752168,-0.00935123,
 0.00361848,-0.00124042,0.00235676,-0.00451232,-0.00018876,0.00012782,-
 0.00004245,-0.00002312,0.00005964,0.00000415,0.00010978,-0.00010613,-0
 .00005108,0.00039180,-0.00012162,-0.00013000,-0.00011234,-0.00002056,0
 .00002572,-0.00013187,0.00014686,-0.00006899,-0.00034064,-0.00002406,-
 0.00044834,0.00063496,-0.00247925,-0.00289205,-0.00015055,0.00015608,-
 0.00008137,0.00013919,0.00007789,0.00001400,0.00091376,-0.00070073,0.0
 0013066,0.00023780,0.00021372,0.00047283,0.00135710,-0.00199878,0.0003
 7999,-0.00029451,0.00021078,-0.00013430,-0.00004990,0.00008474,0.00009
 398,-0.00004424,0.00034367,-0.00027772,-0.00010764,0.00008207,0.000158
 44,0.00000860,0.00039070,-0.00000662,-0.00010545,0.00011531,0.00017164
 ,-0.00023458,0.00292900,0.00233332,-0.00066774,0.00025194,-0.00042184,
 -0.00016961,0.00026137,-0.00013806,0.00018835,-0.00049859,-0.00002155,
 -0.00005684,0.00004851,0.00002418,0.00001093,0.00002410,-0.00003210,0.
 00003953,0.00060984,0.00058058,0.00001632,-0.00005445,-0.00011477,-0.0
 0062287,0.00009819,-0.00077709,0.00015340,-0.00017483,0.00005695,-0.00
 020377,0.00025884,0.00024465,0.00052746,0.00001485,-0.00044219,0.00032
 035,0.00012059,-0.00022434,0.00008250,-0.00006036,-0.00001317,0.000291
 13,-0.00017829,-0.00006643,0.00001780,-0.00014069,-0.00000600,-0.00001
 878,-0.00002195,0.00000884,-0.00001270,0.00006470,0.00007727,-0.000045
 57,0.00000259,0.00004066,-0.00002936,0.00000643,0.00002555,-0.00003497
 ,-0.00004793,-0.00002229,-0.00039557,0.00016158,0.00002806,-0.00030134
 ,-0.00017253,0.00008988,-0.00060879,0.00005351,0.00050245,0.00019031,-
 0.00004448,-0.00014674,-0.00001971,-0.00001482,0.00003983,-0.00000884,
 0.00002277,-0.00000565,-0.00018617,0.00017414,0.00025661,0.00004324,-0
 .00017145,-0.00020656,0.00019577,-0.00001845,0.00005167,0.00006484,0.0
 0003053,-0.00001162,0.00031951,-0.00018127,-0.00027433,0.00006012,0.00
 013903,-0.00004265,-0.00006577,0.00000046,0.00014346,-0.00000723,0.000
 28087,-0.00005864,0.00001526,-0.00004468,0.00023743,-0.00006753,-0.000
 04868,-0.00002000,-0.00019200,-0.00045731,-0.00027935,-0.00000708,0.00
 003455,0.00000867,0.00004906,0.00001791,-0.00014399,0.00333765,-0.0027
 8283,-0.00088887,-0.00012704,0.00033908,-0.00019660,0.00047981,-0.0009
 3152,0.00128886,-0.00690627,0.00020469,0.01141985,0.00056545,-0.000240
 38,0.00020175,0.00056750,-0.00142603,0.00043854,-0.01069865,0.11239464
 ,-0.26864216,-0.00110307,0.00560966,-0.02365907,0.01206494,-0.10884093
 ,0.27535227,-0.00019694,-0.00000442,0.00005968,0.00012216,-0.00007476,
 -0.00017888,0.00067399,-0.00045678,-0.00003901,0.00022586,0.00032629,-
 0.00050517,-0.00012098,0.00002126,-0.00002771,0.00014987,0.00010747,-0
 .00003835,-0.00002611,-0.00010641,0.00005536,-0.00016626,0.00006491,-0
 .00001212,-0.00011030,-0.00004739,-0.00006062,-0.00004447,0.00001172,-
 0.00001706,-0.00003177,0.00002877,0.00000576,0.00001723,-0.00009482,0.
 00010325,-0.00015507,-0.00004143,0.00021099,-0.00071413,0.00086204,-0.
 00105473,-0.00046459,0.00017165,0.00011431,-0.00002121,-0.00000194,0.0
 0000431,0.00000527,-0.00001604,0.00001138,0.00000488,0.00000384,-0.000
 00290,-0.00000323,-0.00002027,0.00001616,-0.00000551,0.00000681,-0.000
 01020,-0.00001114,0.00000195,0.00000135,-0.00000619,0.00001230,0.00001
 206,0.00004038,0.00005780,0.00007220,-0.00036202,-0.00015112,-0.000085
 61,0.00038152,-0.00009147,0.00037208,0.00002123,0.00058060,0.00007968,
 0.00024120,0.00003460,0.00002133,0.00060713,-0.00052514,0.00013039,0.0
 0003883,0.00020590,-0.00016789,-0.00001829,-0.00000590,-0.00009481,0.0
 0027833,0.00019232,0.00051216,-0.00007253,-0.00002575,0.00001024,-0.00
 009264,0.00009869,-0.00001722,-0.00003426,0.00001451,0.00005818,-0.000
 22195,0.00111857,0.00067433,-0.00014220,-0.00051390,-0.00046023,-0.000
 15939,0.00002939,-0.00010733,0.00008229,-0.00015094,0.00000992,-0.0000
 1486,0.00001920,0.00000753,-0.00001564,0.00000129,-0.00001016,-0.00005
 094,0.00014759,0.00018201,0.00005319,0.00002415,-0.00005456,-0.0001099
 1,-0.00000204,-0.00026806,-0.00022942,0.00019693,0.00028054,-0.0001502
 4,0.00006976,0.00000358,0.00040090,0.00008127,-0.00008982,0.00002990,-
 0.00002699,-0.00007052,0.00032181,-0.00000702,0.00062202,0.00013796,0.
 00001340,-0.00003171,0.00003455,-0.00009125,0.00006767,-0.00003567,-0.
 00000968,-0.00001857,0.00007217,0.00001643,0.00002131,-0.00003789,0.00
 002767,-0.00014481,-0.00001287,0.00000456,0.00000632,0.00004158,-0.000
 02157,-0.00000559,0.00007257,-0.00007591,-0.00092702,-0.00012225,0.000
 04931,-0.00006864,-0.00040588,0.00002089,0.00021560,0.00012973,0.00000
 814,-0.00007603,-0.00002912,-0.00000826,0.00000314,-0.00000093,0.00001
 104,0.00001075,-0.00015879,0.00003346,0.00007970,0.00004983,-0.0000481
 9,-0.00005558,-0.00013236,-0.00007522,0.00015427,0.00002522,-0.0000364
 5,0.00002937,0.00019051,-0.00009771,-0.00013390,0.00001879,0.00004091,
 -0.00002015,-0.00003250,0.00000810,0.00004683,0.00009593,0.00007410,-0
 .00007703,0.00000533,-0.00002705,0.00008418,-0.00002564,-0.00003286,0.
 00003270,-0.00025446,-0.00011348,-0.00011874,0.00008676,0.00001962,0.0
 0010940,-0.00001165,-0.00013117,-0.00023000,0.00170716,-0.00062048,-0.
 00064294,-0.00012157,0.00081458,-0.00087415,0.00048329,-0.00021099,0.0
 0051518,-0.02290297,-0.00788665,0.00450826,-0.00101522,0.00413524,0.00
 026855,0.00099828,-0.00022708,0.00036760,-0.34695293,-0.13017180,0.063
 79370,-0.00563565,-0.00351263,0.00102777,0.00368272,-0.00012151,0.0008
 8721,0.37011218,-0.00044618,0.00043209,-0.00047907,-0.00016096,-0.0006
 0169,0.00162661,-0.00032708,0.00010046,0.00035528,-0.00005620,-0.00003
 257,0.00044405,0.00008514,-0.00002144,0.00005971,0.00022300,0.00006607
 ,0.00014810,0.00006661,0.00020761,-0.00019133,0.00007483,-0.00006537,-
 0.00006076,0.00022875,0.00017873,0.00015214,-0.00001098,-0.00000412,-0
 .00002089,0.00002516,-0.00002833,-0.00000423,-0.00004722,0.00003130,-0
 .00015786,-0.00000301,-0.00015676,-0.00032160,0.00070786,-0.00034655,0
 .00041910,0.00026002,0.00171454,-0.00101346,0.00010243,-0.00002590,0.0
 0002292,-0.00001080,0.00000309,-0.00000579,0.00000058,-0.00001052,0.00
 000028,-0.00013210,0.00000215,-0.00005432,0.00002186,-0.00000603,0.000
 00582,0.00002267,0.00001035,0.00002742,0.00002708,0.00000391,0.0000000
 9,0.00005792,0.00005680,0.00007250,0.00017458,0.00003632,0.00022869,-0
 .00030993,0.00048369,-0.00091570,0.00090548,-0.00091984,0.00066302,0.0
 0003662,-0.00063731,-0.00096042,-0.00046968,0.00012789,-0.00027770,0.0
 0015522,-0.00021809,0.00001567,-0.00001288,0.00002942,0.00020810,0.000
 02963,0.00057646,-0.00082604,0.00000656,0.00020216,0.00012823,0.000029
 47,0.00000077,0.00001097,0.00001875,-0.00002328,-0.00005315,0.00100343
 ,-0.00098594,-0.00081705,-0.00062596,0.00003080,0.00012378,0.00005640,
 -0.00045972,0.00039046,-0.00013890,0.00011199,-0.00001044,0.00002997,-
 0.00000946,0.00002373,0.00000446,-0.00001065,-0.00000078,0.00006978,-0
 .00015816,0.00008145,-0.00000385,0.00010009,-0.00006683,0.00003497,0.0
 0007304,-0.00020132,0.00016566,0.00030114,-0.00019992,0.00006938,-0.00
 027281,-0.00010523,-0.00004801,0.00010522,0.00021280,-0.00021591,0.000
 10482,0.00017900,0.00006226,0.00005789,0.00007573,-0.00003233,0.000317
 83,-0.00008686,-0.00008693,0.00016502,-0.00005562,0.00000452,-0.000012
 54,0.00000002,0.00007346,-0.00001774,-0.00001284,0.00000017,-0.0000256
 3,-0.00003231,0.00001238,-0.00000922,0.00000879,-0.00005352,0.00002367
 ,-0.00004883,0.00021148,-0.00044566,-0.00021141,0.00007502,-0.00007059
 ,-0.00009371,0.00012038,-0.00014949,-0.00016677,-0.00003229,0.00000959
 ,0.00000106,0.00000905,-0.00000417,0.00000802,-0.00000512,-0.00001640,
 -0.00002976,0.00003753,-0.00012744,0.00001029,-0.00002251,0.00012268,0
 .00005295,-0.00020480,0.00006330,0.00017250,-0.00000601,0.00001259,0.0
 0000170,-0.00003138,0.00015975,0.00015290,-0.00003498,-0.00007339,-0.0
 0001765,-0.00000336,-0.00002714,-0.00003733,0.00003186,-0.00008052,0.0
 0000992,-0.00001399,0.00000487,-0.00004268,0.00002563,-0.00000643,0.00
 001649,-0.00032444,0.00003016,0.00043344,-0.00010986,-0.00015008,-0.00
 022568,-0.00000355,0.00000068,-0.00014631,0.00107086,0.00222750,-0.000
 78184,-0.00111034,-0.00070490,0.00040383,-0.00049368,-0.00010841,-0.00
 020276,0.02677788,0.01364925,-0.00571918,0.00408227,-0.00406220,-0.000
 04206,-0.00010562,0.00049241,-0.00057574,-0.12958699,-0.11502481,0.028
 80516,-0.02231789,-0.00730745,0.01002745,-0.01580516,-0.00629026,-0.00
 043734,0.13611546,0.11728088,0.00005920,-0.00013379,-0.00019266,-0.000
 05126,0.00013798,0.00022379,-0.00001305,0.00035615,-0.00034266,0.00035
 004,0.00050508,-0.00072180,-0.00028153,0.00014146,0.00010773,0.0000277
 1,0.00002265,0.00013512,-0.00002373,-0.00005053,-0.00000885,-0.0000953
 5,-0.00004910,-0.00000427,-0.00042049,-0.00005539,0.00014716,-0.000011
 75,0.00000480,0.00000752,-0.00000853,-0.00000070,0.00006801,0.00019552
 ,-0.00024923,0.00007093,0.00004790,-0.00020407,0.00028353,-0.00128465,
 -0.00026550,-0.00066364,0.00024044,-0.00058195,-0.00110267,-0.00004171
 ,0.00001764,0.00000365,0.00000285,0.00000289,0.00000160,0.00002633,-0.
 00003206,-0.00001279,0.00006179,-0.00002804,-0.00004468,-0.00002279,-0
 .00000513,0.00001144,-0.00004783,0.00001017,0.00002083,-0.00005589,0.0
 0002763,-0.00004817,0.00015418,0.00029002,-0.00036836,0.00030191,0.000
 27387,0.00000507,-0.00044040,0.00020463,-0.00039791,0.00135661,-0.0012
 5358,0.00078768,-0.00036040,-0.00016820,0.00099533,-0.00008287,-0.0000
 8680,-0.00047272,-0.00016031,-0.00032666,0.00020937,-0.00002635,0.0000
 7671,0.00019162,0.00002383,0.00017169,-0.00072972,0.00009827,0.0000097
 6,-0.00019050,0.00005112,0.00005853,0.00001026,0.00001235,0.00001629,-
 0.00005734,0.00080461,-0.00087003,-0.00117056,-0.00071384,0.00021937,-
 0.00042562,-0.00001538,0.00017719,0.00000660,0.00003572,-0.00002705,-0
 .00001260,-0.00001888,-0.00000432,-0.00000917,0.00002114,0.00001128,0.
 00000055,0.00000080,0.00006919,-0.00013160,-0.00007995,-0.00009518,0.0
 0005466,0.00008887,-0.00011393,0.00006052,0.00020383,-0.00009873,0.000
 03185,0.00002735,0.00005968,0.00013967,-0.00006138,-0.00000957,-0.0001
 8162,0.00029324,0.00011771,-0.00023502,0.00003789,-0.00002185,-0.00031
 349,0.00026032,-0.00008333,-0.00009172,-0.00009078,0.00000404,-0.00007
 231,0.00001256,-0.00001165,0.00002828,-0.00007063,0.00010744,0.0000904
 0,-0.00003156,-0.00001461,0.00007291,-0.00000158,-0.00000245,0.0000352
 2,-0.00014349,-0.00006831,-0.00007381,-0.00055655,0.00007232,0.0002389
 6,-0.00015512,-0.00019027,0.00012860,0.00009401,-0.00006761,0.00014713
 ,-0.00002828,-0.00003373,-0.00001678,0.00001747,0.00000166,0.00001644,
 -0.00000777,0.00000102,-0.00000717,0.00008476,0.00008759,0.00005435,-0
 .00004178,-0.00006162,-0.00007558,0.00012495,0.00004187,0.00015190,0.0
 0000570,0.00002427,-0.00002251,-0.00012055,0.00008900,-0.00004094,0.00
 001525,0.00004503,-0.00000534,0.00001646,-0.00000569,0.00003685,0.0001
 1863,-0.00004719,-0.00012098,0.00000451,0.00000422,0.00001082,0.000017
 59,-0.00004253,0.00004969,-0.00026340,0.00022524,-0.00009017,0.0002387
 2,-0.00000855,0.00006379,-0.00001237,-0.00034765,-0.00028488,-0.001929
 09,-0.00079596,0.00058550,0.00048041,0.00033348,0.00025181,0.00034643,
 0.00010917,-0.00017855,0.00001185,-0.00074744,-0.00048593,-0.00050823,
 0.00000734,0.00032915,0.00079732,-0.00008343,-0.00048480,0.06237291,0.
 02806702,-0.06883984,-0.02474519,-0.00690427,0.00892345,0.03254388,0.0
 1211423,-0.00248288,-0.06906250,-0.03006962,0.06642288\\-0.00000163,0.
 00001558,-0.00000983,-0.00000181,-0.00001110,0.00002172,0.00001422,-0.
 00000884,0.00000416,-0.00000015,-0.00000820,-0.00000783,-0.00000535,0.
 00000253,0.00000206,-0.00000437,0.00000009,0.00000844,0.00000423,0.000
 00578,-0.00000117,-0.00000090,0.00000687,-0.00000072,-0.00000042,-0.00
 000389,0.00000393,-0.00000229,-0.00000400,-0.00000172,-0.00000166,-0.0
 0000625,0.00000155,0.00000519,0.00000049,-0.00000444,0.00000912,-0.000
 00296,0.00000984,0.00002011,0.00000979,0.00000247,0.00000081,-0.000002
 22,-0.00000623,0.00000577,0.00000018,0.00000571,0.00000387,0.00000617,
 -0.00000363,-0.00000154,0.00000022,0.00000228,-0.00000999,-0.00003003,
 -0.00000791,0.00000041,0.00001888,0.00000411,-0.00000719,0.00000295,-0
 .00000343,-0.00000490,0.00000263,-0.00001013,0.00000062,-0.00000229,-0
 .00000515,-0.00000003,-0.00000147,0.00000821,0.00000355,-0.00001225,0.
 00002037,0.00000262,-0.00000927,-0.00000821,-0.00000478,0.00000441,-0.
 00000979,0.00001662,-0.00002345,-0.00000857,-0.00000907,0.00000180,0.0
 0000820,-0.00001073,0.00000256,-0.00000390,-0.00000038,-0.00000702,0.0
 0000144,-0.00000404,0.00000438,-0.00000314,-0.00000014,0.00000891,-0.0
 0000153,-0.00000354,0.00000446,-0.00000170,0.00000656,0.00000920,0.000
 01916,-0.00000622,0.00000823,-0.00000687,0.00000135,0.00000333,-0.0000
 0079,0.00000032,0.00000179,-0.00000112,-0.00000667,-0.00000052,0.00000
 464,0.00000081,0.00000368,0.00000223,-0.00000518,-0.00002647,0.0000061
 8,0.00000727,0.00001755,0.00000158,-0.00000428,0.00000511,-0.00000585,
 0.00000155,-0.00000797,0.00000317,-0.00001506,-0.00001510,-0.00000463,
 0.00000188,0.00001422,0.00002925,-0.00000433,-0.00001462,-0.00000230,-
 0.00000327,-0.00000330,-0.00001771,-0.00000348,0.00001045,-0.00001236,
 0.00000720,0.00000167,0.00000228,0.00000215,-0.00000551,0.00000236,0.0
 0000260,-0.00000353,-0.00000690,-0.00000620,0.00000112,0.00000854,-0.0
 0000290,-0.00000253,0.00000412,0.00000624,0.00000222,-0.00000296,0.000
 00832,0.00000963,-0.00000154,0.00001344,0.00000180,-0.00001426,0.00001
 080,-0.00000981,-0.00001709,0.00001556,-0.00000773,-0.00000528,-0.0000
 0224,-0.00000160,0.00000493,-0.00000679,0.00000551,-0.00000164,-0.0000
 0300,0.00001163,0.00000430,-0.00000729,-0.00000730,-0.00000249,-0.0000
 0527,-0.00001081,0.00000101,-0.00000769,0.00000297,0.00000878,-0.00001
 301,0.00001120,0.00000650,-0.00000150,-0.00000366,-0.00000231,0.000003
 42,-0.00000585,0.00000303,0.00000161,0.00000188,-0.00000619,0.00000276
 ,0.00000308,0.00000560,0.00000355,0.00000006,0.00000156,0.00000249,0.0
 0000101,0.00000520,0.00000296,0.00000484,-0.00000135,-0.00000368,0.000
 00391,0.00000128,0.00000262,-0.00000101,-0.00000263,-0.00000237,-0.000
 00054,0.00000142,0.00000290,-0.00000131,-0.00000027,-0.00000074,0.0000
 0256,0.00000307,0.00000407,0.00000438,-0.00000088,0.00000119,-0.000000
 99,-0.00000408,0.00000241,-0.00002051,-0.00001685,-0.00002092,0.000034
 88,-0.00003481,-0.00000789,-0.00000099,-0.00001488,0.00001175,0.000008
 28,0.00005240\\\@


      LET US REMEMBER, PLEASE, THAT THE SEARCH FOR THE CONSTITUTION
      OF THE WORLD IS ONE OF THE GREATEST AND NOBLEST PROBLEMS PRESENTED 
      BY NATURE.

                                                  -- GALILEO
 Job cpu time:      18 days 20 hours 49 minutes 33.6 seconds.
 File lengths (MBytes):  RWF=  17344 Int=      0 D2E=      0 Chk=    104 Scr=      1
 Normal termination of Gaussian 09 at Fri Apr 29 17:31:19 2016.
