 Entering Gaussian System, Link 0=g09
 Initial command:
 /share/apps//g09/l1.exe "/scratch/Gau-27843.inp" -scrdir="/scratch/"
 Entering Link 1 = /share/apps//g09/l1.exe PID=     27844.
  
 Copyright (c) 1988,1990,1992,1993,1995,1998,2003,2009,2013,
            Gaussian, Inc.  All Rights Reserved.
  
 This is part of the Gaussian(R) 09 program.  It is based on
 the Gaussian(R) 03 system (copyright 2003, Gaussian, Inc.),
 the Gaussian(R) 98 system (copyright 1998, Gaussian, Inc.),
 the Gaussian(R) 94 system (copyright 1995, Gaussian, Inc.),
 the Gaussian 92(TM) system (copyright 1992, Gaussian, Inc.),
 the Gaussian 90(TM) system (copyright 1990, Gaussian, Inc.),
 the Gaussian 88(TM) system (copyright 1988, Gaussian, Inc.),
 the Gaussian 86(TM) system (copyright 1986, Carnegie Mellon
 University), and the Gaussian 82(TM) system (copyright 1983,
 Carnegie Mellon University). Gaussian is a federally registered
 trademark of Gaussian, Inc.
  
 This software contains proprietary and confidential information,
 including trade secrets, belonging to Gaussian, Inc.
  
 This software is provided under written license and may be
 used, copied, transmitted, or stored only in accord with that
 written license.
  
 The following legend is applicable only to US Government
 contracts under FAR:
  
                    RESTRICTED RIGHTS LEGEND
  
 Use, reproduction and disclosure by the US Government is
 subject to restrictions as set forth in subparagraphs (a)
 and (c) of the Commercial Computer Software - Restricted
 Rights clause in FAR 52.227-19.
  
 Gaussian, Inc.
 340 Quinnipiac St., Bldg. 40, Wallingford CT 06492
  
  
 ---------------------------------------------------------------
 Warning -- This program may not be used in any manner that
 competes with the business of Gaussian, Inc. or will provide
 assistance to any competitor of Gaussian, Inc.  The licensee
 of this program is prohibited from giving any competitor of
 Gaussian, Inc. access to this program.  By using this program,
 the user acknowledges that Gaussian, Inc. is engaged in the
 business of creating and licensing software in the field of
 computational chemistry and represents and warrants to the
 licensee that it is not a competitor of Gaussian, Inc. and that
 it will not use this program in any manner prohibited above.
 ---------------------------------------------------------------
  

 Cite this work as:
 Gaussian 09, Revision D.01,
 M. J. Frisch, G. W. Trucks, H. B. Schlegel, G. E. Scuseria, 
 M. A. Robb, J. R. Cheeseman, G. Scalmani, V. Barone, B. Mennucci, 
 G. A. Petersson, H. Nakatsuji, M. Caricato, X. Li, H. P. Hratchian, 
 A. F. Izmaylov, J. Bloino, G. Zheng, J. L. Sonnenberg, M. Hada, 
 M. Ehara, K. Toyota, R. Fukuda, J. Hasegawa, M. Ishida, T. Nakajima, 
 Y. Honda, O. Kitao, H. Nakai, T. Vreven, J. A. Montgomery, Jr., 
 J. E. Peralta, F. Ogliaro, M. Bearpark, J. J. Heyd, E. Brothers, 
 K. N. Kudin, V. N. Staroverov, T. Keith, R. Kobayashi, J. Normand, 
 K. Raghavachari, A. Rendell, J. C. Burant, S. S. Iyengar, J. Tomasi, 
 M. Cossi, N. Rega, J. M. Millam, M. Klene, J. E. Knox, J. B. Cross, 
 V. Bakken, C. Adamo, J. Jaramillo, R. Gomperts, R. E. Stratmann, 
 O. Yazyev, A. J. Austin, R. Cammi, C. Pomelli, J. W. Ochterski, 
 R. L. Martin, K. Morokuma, V. G. Zakrzewski, G. A. Voth, 
 P. Salvador, J. J. Dannenberg, S. Dapprich, A. D. Daniels, 
 O. Farkas, J. B. Foresman, J. V. Ortiz, J. Cioslowski, 
 and D. J. Fox, Gaussian, Inc., Wallingford CT, 2013.
 
 ******************************************
 Gaussian 09:  EM64L-G09RevD.01 24-Apr-2013
                22-Mar-2016 
 ******************************************
 %nproc=20
 Will use up to   20 processors via shared memory.
 %mem=80GB
 %chk=Tri_A154_of.chk
 -------------------------------------------------------------------
 #P PBE1PBE/6-311+G(d,p) opt optcyc=999 freq EmpiricalDispersion=GD3
 -------------------------------------------------------------------
 1/6=999,14=-1,18=20,19=15,26=3,38=1/1,3;
 2/9=110,12=2,17=6,18=5,40=1/2;
 3/5=4,6=6,7=111,11=2,16=1,25=1,30=1,71=1,74=-13,124=31/1,2,3;
 4//1;
 5/5=2,38=5/2;
 6/7=2,8=2,9=2,10=2,28=1/1;
 7//1,2,3,16;
 1/6=999,14=-1,18=20,19=15,26=3/3(2);
 2/9=110/2;
 99//99;
 2/9=110/2;
 3/5=4,6=6,7=111,11=2,16=1,25=1,30=1,71=1,74=-13,124=31/1,2,3;
 4/5=5,16=3,69=1/1;
 5/5=2,38=5/2;
 7//1,2,3,16;
 1/6=999,14=-1,18=20,19=15,26=3/3(-5);
 2/9=110/2;
 6/7=2,8=2,9=2,10=2,19=2,28=1/1;
 99/9=1/99;
 Leave Link    1 at Tue Mar 22 18:22:48 2016, MaxMem= 10737418240 cpu:         2.0
 (Enter /share/apps//g09/l101.exe)
 -------
 disacch
 -------
 Symbolic Z-matrix:
 Charge =  1 Multiplicity = 1
 O                     0.55061  -0.91012  -2.78432 
 C                     1.40259  -1.4391   -1.74594 
 C                     0.71974  -2.57817  -0.9836 
 C                     0.1339   -3.62667  -1.92723 
 C                    -0.76476  -2.97903  -2.988 
 C                    -0.00061  -1.8662   -3.70775 
 C                    -0.78728  -1.06327  -4.75967 
 O                    -1.67077  -0.08774  -4.20572 
 O                    -1.98088  -2.50889  -2.37489 
 O                    -0.68958  -4.55808  -1.22126 
 O                     1.63377  -3.23795  -0.12518 
 O                     1.56354  -0.39175  -0.84274 
 C                     2.8199    0.30602  -0.73915 
 C                     3.29957   0.14683   0.70091 
 O                     3.50996  -1.24462   0.97645 
 C                     2.23719   0.71274   1.6393 
 C                     1.80819   2.15159   1.26592 
 O                     1.58777   2.3216   -0.14564 
 C                     2.60349   1.80607  -1.00691 
 C                     2.19865   2.1809   -2.43777 
 O                     0.86819   1.79722  -2.79983 
 O                     0.62513   2.56136   1.91351 
 C                    -0.53166   1.71855   1.75399 
 C                    -0.96099   1.2173    3.13609 
 C                    -2.28269   0.45895   3.06419 
 C                    -3.36157   1.26774   2.34056 
 O                    -2.86127   1.67879   1.05064 
 C                    -1.69676   2.52988   1.14481 
 C                    -1.44056   3.10528  -0.24386 
 O                    -1.28763   2.09886  -1.24859 
 O                    -4.44199   0.40779   2.16358 
 C                    -5.71466   1.01303   1.81501 
 C                    -5.91237   1.10362   0.30285 
 C                    -5.78713  -0.265    -0.38857 
 C                    -5.44034  -0.21632  -1.88552 
 C                    -4.14965   0.52816  -2.22547 
 N                    -2.95965   0.019    -1.46391 
 O                    -2.64008   0.15233   4.40916 
 O                     0.04564   0.35719   3.69054 
 O                     2.74891   0.66079   2.96205 
 H                     2.37015  -1.76645  -2.1768 
 H                    -0.10773  -2.11056  -0.41296 
 H                     0.96434  -4.15571  -2.43254 
 H                    -1.0222   -3.74477  -3.74293 
 H                     0.82131  -2.37546  -4.25184 
 H                    -1.39551  -1.76346  -5.35151 
 H                    -0.06819  -0.58581  -5.44327 
 H                    -1.18988   0.75667  -4.15387 
 H                    -2.22594  -3.23131  -1.75864 
 H                    -0.17737  -4.88051  -0.45649 
 H                     2.15827  -2.56303   0.36642 
 H                     3.5569   -0.11808  -1.44221 
 H                     4.25088   0.69678   0.826 
 H                     3.68244  -1.29946   1.93726 
 H                     1.36751   0.045     1.54445 
 H                     2.57551   2.86332   1.62055 
 H                     3.57358   2.3138   -0.81864 
 H                     2.23352   3.27459  -2.53127 
 H                     2.93408   1.75852  -3.14432 
 H                     0.82176   0.81046  -2.82641 
 H                    -0.31904   0.87709   1.07596 
 H                    -1.08639   2.10041   3.79165 
 H                    -2.12659  -0.46727   2.47623 
 H                    -3.65456   2.16853   2.92026 
 H                    -1.91524   3.38982   1.80965 
 H                    -2.30497   3.73358  -0.51253 
 H                    -0.54563   3.7398   -0.20139 
 H                    -0.37205   2.10518  -1.64238 
 H                    -5.78733   2.00653   2.28699 
 H                    -6.46994   0.35843   2.27451 
 H                    -5.17552   1.81846  -0.09109 
 H                    -6.90449   1.54214   0.10839 
 H                    -6.72498  -0.82827  -0.26669 
 H                    -5.0309   -0.8637    0.1476 
 H                    -6.24814   0.27835  -2.4478 
 H                    -5.38444  -1.24453  -2.27778 
 H                    -3.89959   0.43217  -3.28839 
 H                    -4.22664   1.59807  -1.99211 
 H                    -3.20147  -0.12785  -0.47456 
 H                    -2.2084    0.77196  -1.43793 
 H                    -2.5689   -0.85854  -1.87312 
 H                    -3.43     -0.41711   4.38743 
 H                    -0.3352   -0.00624   4.51249 
 H                     1.95715   0.62478   3.54258 
 
 NAtoms=     84 NQM=       84 NQMF=       0 NMMI=      0 NMMIF=      0
                NMic=       0 NMicF=      0.
                    Isotopes and Nuclear Properties:
 (Nuclear quadrupole moments (NQMom) in fm**2, nuclear magnetic moments (NMagM)
  in nuclear magnetons)

  Atom         1           2           3           4           5           6           7           8           9          10
 IAtWgt=          16          12          12          12          12          12          12          16          16          16
 AtmWgt=  15.9949146  12.0000000  12.0000000  12.0000000  12.0000000  12.0000000  12.0000000  15.9949146  15.9949146  15.9949146
 NucSpn=           0           0           0           0           0           0           0           0           0           0
 AtZEff=   0.0000000   0.0000000   0.0000000   0.0000000   0.0000000   0.0000000   0.0000000   0.0000000   0.0000000   0.0000000
 NQMom=    0.0000000   0.0000000   0.0000000   0.0000000   0.0000000   0.0000000   0.0000000   0.0000000   0.0000000   0.0000000
 NMagM=    0.0000000   0.0000000   0.0000000   0.0000000   0.0000000   0.0000000   0.0000000   0.0000000   0.0000000   0.0000000
 AtZNuc=   8.0000000   6.0000000   6.0000000   6.0000000   6.0000000   6.0000000   6.0000000   8.0000000   8.0000000   8.0000000

  Atom        11          12          13          14          15          16          17          18          19          20
 IAtWgt=          16          16          12          12          16          12          12          16          12          12
 AtmWgt=  15.9949146  15.9949146  12.0000000  12.0000000  15.9949146  12.0000000  12.0000000  15.9949146  12.0000000  12.0000000
 NucSpn=           0           0           0           0           0           0           0           0           0           0
 AtZEff=   0.0000000   0.0000000   0.0000000   0.0000000   0.0000000   0.0000000   0.0000000   0.0000000   0.0000000   0.0000000
 NQMom=    0.0000000   0.0000000   0.0000000   0.0000000   0.0000000   0.0000000   0.0000000   0.0000000   0.0000000   0.0000000
 NMagM=    0.0000000   0.0000000   0.0000000   0.0000000   0.0000000   0.0000000   0.0000000   0.0000000   0.0000000   0.0000000
 AtZNuc=   8.0000000   8.0000000   6.0000000   6.0000000   8.0000000   6.0000000   6.0000000   8.0000000   6.0000000   6.0000000

  Atom        21          22          23          24          25          26          27          28          29          30
 IAtWgt=          16          16          12          12          12          12          16          12          12          16
 AtmWgt=  15.9949146  15.9949146  12.0000000  12.0000000  12.0000000  12.0000000  15.9949146  12.0000000  12.0000000  15.9949146
 NucSpn=           0           0           0           0           0           0           0           0           0           0
 AtZEff=   0.0000000   0.0000000   0.0000000   0.0000000   0.0000000   0.0000000   0.0000000   0.0000000   0.0000000   0.0000000
 NQMom=    0.0000000   0.0000000   0.0000000   0.0000000   0.0000000   0.0000000   0.0000000   0.0000000   0.0000000   0.0000000
 NMagM=    0.0000000   0.0000000   0.0000000   0.0000000   0.0000000   0.0000000   0.0000000   0.0000000   0.0000000   0.0000000
 AtZNuc=   8.0000000   8.0000000   6.0000000   6.0000000   6.0000000   6.0000000   8.0000000   6.0000000   6.0000000   8.0000000

  Atom        31          32          33          34          35          36          37          38          39          40
 IAtWgt=          16          12          12          12          12          12          14          16          16          16
 AtmWgt=  15.9949146  12.0000000  12.0000000  12.0000000  12.0000000  12.0000000  14.0030740  15.9949146  15.9949146  15.9949146
 NucSpn=           0           0           0           0           0           0           2           0           0           0
 AtZEff=   0.0000000   0.0000000   0.0000000   0.0000000   0.0000000   0.0000000   0.0000000   0.0000000   0.0000000   0.0000000
 NQMom=    0.0000000   0.0000000   0.0000000   0.0000000   0.0000000   0.0000000   2.0440000   0.0000000   0.0000000   0.0000000
 NMagM=    0.0000000   0.0000000   0.0000000   0.0000000   0.0000000   0.0000000   0.4037610   0.0000000   0.0000000   0.0000000
 AtZNuc=   8.0000000   6.0000000   6.0000000   6.0000000   6.0000000   6.0000000   7.0000000   8.0000000   8.0000000   8.0000000

  Atom        41          42          43          44          45          46          47          48          49          50
 IAtWgt=           1           1           1           1           1           1           1           1           1           1
 AtmWgt=   1.0078250   1.0078250   1.0078250   1.0078250   1.0078250   1.0078250   1.0078250   1.0078250   1.0078250   1.0078250
 NucSpn=           1           1           1           1           1           1           1           1           1           1
 AtZEff=   0.0000000   0.0000000   0.0000000   0.0000000   0.0000000   0.0000000   0.0000000   0.0000000   0.0000000   0.0000000
 NQMom=    0.0000000   0.0000000   0.0000000   0.0000000   0.0000000   0.0000000   0.0000000   0.0000000   0.0000000   0.0000000
 NMagM=    2.7928460   2.7928460   2.7928460   2.7928460   2.7928460   2.7928460   2.7928460   2.7928460   2.7928460   2.7928460
 AtZNuc=   1.0000000   1.0000000   1.0000000   1.0000000   1.0000000   1.0000000   1.0000000   1.0000000   1.0000000   1.0000000

  Atom        51          52          53          54          55          56          57          58          59          60
 IAtWgt=           1           1           1           1           1           1           1           1           1           1
 AtmWgt=   1.0078250   1.0078250   1.0078250   1.0078250   1.0078250   1.0078250   1.0078250   1.0078250   1.0078250   1.0078250
 NucSpn=           1           1           1           1           1           1           1           1           1           1
 AtZEff=   0.0000000   0.0000000   0.0000000   0.0000000   0.0000000   0.0000000   0.0000000   0.0000000   0.0000000   0.0000000
 NQMom=    0.0000000   0.0000000   0.0000000   0.0000000   0.0000000   0.0000000   0.0000000   0.0000000   0.0000000   0.0000000
 NMagM=    2.7928460   2.7928460   2.7928460   2.7928460   2.7928460   2.7928460   2.7928460   2.7928460   2.7928460   2.7928460
 AtZNuc=   1.0000000   1.0000000   1.0000000   1.0000000   1.0000000   1.0000000   1.0000000   1.0000000   1.0000000   1.0000000

  Atom        61          62          63          64          65          66          67          68          69          70
 IAtWgt=           1           1           1           1           1           1           1           1           1           1
 AtmWgt=   1.0078250   1.0078250   1.0078250   1.0078250   1.0078250   1.0078250   1.0078250   1.0078250   1.0078250   1.0078250
 NucSpn=           1           1           1           1           1           1           1           1           1           1
 AtZEff=   0.0000000   0.0000000   0.0000000   0.0000000   0.0000000   0.0000000   0.0000000   0.0000000   0.0000000   0.0000000
 NQMom=    0.0000000   0.0000000   0.0000000   0.0000000   0.0000000   0.0000000   0.0000000   0.0000000   0.0000000   0.0000000
 NMagM=    2.7928460   2.7928460   2.7928460   2.7928460   2.7928460   2.7928460   2.7928460   2.7928460   2.7928460   2.7928460
 AtZNuc=   1.0000000   1.0000000   1.0000000   1.0000000   1.0000000   1.0000000   1.0000000   1.0000000   1.0000000   1.0000000

  Atom        71          72          73          74          75          76          77          78          79          80
 IAtWgt=           1           1           1           1           1           1           1           1           1           1
 AtmWgt=   1.0078250   1.0078250   1.0078250   1.0078250   1.0078250   1.0078250   1.0078250   1.0078250   1.0078250   1.0078250
 NucSpn=           1           1           1           1           1           1           1           1           1           1
 AtZEff=   0.0000000   0.0000000   0.0000000   0.0000000   0.0000000   0.0000000   0.0000000   0.0000000   0.0000000   0.0000000
 NQMom=    0.0000000   0.0000000   0.0000000   0.0000000   0.0000000   0.0000000   0.0000000   0.0000000   0.0000000   0.0000000
 NMagM=    2.7928460   2.7928460   2.7928460   2.7928460   2.7928460   2.7928460   2.7928460   2.7928460   2.7928460   2.7928460
 AtZNuc=   1.0000000   1.0000000   1.0000000   1.0000000   1.0000000   1.0000000   1.0000000   1.0000000   1.0000000   1.0000000

  Atom        81          82          83          84
 IAtWgt=           1           1           1           1
 AtmWgt=   1.0078250   1.0078250   1.0078250   1.0078250
 NucSpn=           1           1           1           1
 AtZEff=   0.0000000   0.0000000   0.0000000   0.0000000
 NQMom=    0.0000000   0.0000000   0.0000000   0.0000000
 NMagM=    2.7928460   2.7928460   2.7928460   2.7928460
 AtZNuc=   1.0000000   1.0000000   1.0000000   1.0000000
 Leave Link  101 at Tue Mar 22 18:22:48 2016, MaxMem= 10737418240 cpu:         5.1
 (Enter /share/apps//g09/l103.exe)

 GradGradGradGradGradGradGradGradGradGradGradGradGradGradGradGradGradGrad
 Berny optimization.
 Initialization pass.
                           ----------------------------
                           !    Initial Parameters    !
                           ! (Angstroms and Degrees)  !
 --------------------------                            --------------------------
 ! Name  Definition              Value          Derivative Info.                !
 --------------------------------------------------------------------------------
 ! R1    R(1,2)                  1.4436         estimate D2E/DX2                !
 ! R2    R(1,6)                  1.439          estimate D2E/DX2                !
 ! R3    R(2,3)                  1.5313         estimate D2E/DX2                !
 ! R4    R(2,12)                 1.3923         estimate D2E/DX2                !
 ! R5    R(2,41)                 1.1086         estimate D2E/DX2                !
 ! R6    R(3,4)                  1.5274         estimate D2E/DX2                !
 ! R7    R(3,11)                 1.4169         estimate D2E/DX2                !
 ! R8    R(3,42)                 1.1086         estimate D2E/DX2                !
 ! R9    R(4,5)                  1.5337         estimate D2E/DX2                !
 ! R10   R(4,10)                 1.4297         estimate D2E/DX2                !
 ! R11   R(4,43)                 1.1067         estimate D2E/DX2                !
 ! R12   R(5,6)                  1.5298         estimate D2E/DX2                !
 ! R13   R(5,9)                  1.4408         estimate D2E/DX2                !
 ! R14   R(5,44)                 1.1057         estimate D2E/DX2                !
 ! R15   R(6,7)                  1.5395         estimate D2E/DX2                !
 ! R16   R(6,45)                 1.1095         estimate D2E/DX2                !
 ! R17   R(7,8)                  1.428          estimate D2E/DX2                !
 ! R18   R(7,46)                 1.1002         estimate D2E/DX2                !
 ! R19   R(7,47)                 1.1011         estimate D2E/DX2                !
 ! R20   R(8,48)                 0.9731         estimate D2E/DX2                !
 ! R21   R(9,49)                 0.9807         estimate D2E/DX2                !
 ! R22   R(10,50)                0.9753         estimate D2E/DX2                !
 ! R23   R(11,51)                0.986          estimate D2E/DX2                !
 ! R24   R(12,13)                1.4409         estimate D2E/DX2                !
 ! R25   R(13,14)                1.5262         estimate D2E/DX2                !
 ! R26   R(13,19)                1.5391         estimate D2E/DX2                !
 ! R27   R(13,52)                1.1033         estimate D2E/DX2                !
 ! R28   R(14,15)                1.434          estimate D2E/DX2                !
 ! R29   R(14,16)                1.5263         estimate D2E/DX2                !
 ! R30   R(14,53)                1.1059         estimate D2E/DX2                !
 ! R31   R(15,54)                0.9777         estimate D2E/DX2                !
 ! R32   R(16,17)                1.5472         estimate D2E/DX2                !
 ! R33   R(16,40)                1.4192         estimate D2E/DX2                !
 ! R34   R(16,55)                1.1006         estimate D2E/DX2                !
 ! R35   R(17,18)                1.4387         estimate D2E/DX2                !
 ! R36   R(17,22)                1.4096         estimate D2E/DX2                !
 ! R37   R(17,56)                1.105          estimate D2E/DX2                !
 ! R38   R(18,19)                1.428          estimate D2E/DX2                !
 ! R39   R(19,20)                1.5335         estimate D2E/DX2                !
 ! R40   R(19,57)                1.111          estimate D2E/DX2                !
 ! R41   R(20,21)                1.4312         estimate D2E/DX2                !
 ! R42   R(20,58)                1.0982         estimate D2E/DX2                !
 ! R43   R(20,59)                1.1038         estimate D2E/DX2                !
 ! R44   R(21,60)                0.9882         estimate D2E/DX2                !
 ! R45   R(22,23)                1.4401         estimate D2E/DX2                !
 ! R46   R(23,24)                1.5316         estimate D2E/DX2                !
 ! R47   R(23,28)                1.5449         estimate D2E/DX2                !
 ! R48   R(23,61)                1.1014         estimate D2E/DX2                !
 ! R49   R(24,25)                1.5255         estimate D2E/DX2                !
 ! R50   R(24,39)                1.4354         estimate D2E/DX2                !
 ! R51   R(24,62)                1.107          estimate D2E/DX2                !
 ! R52   R(25,26)                1.5303         estimate D2E/DX2                !
 ! R53   R(25,38)                1.425          estimate D2E/DX2                !
 ! R54   R(25,63)                1.1081         estimate D2E/DX2                !
 ! R55   R(26,27)                1.4433         estimate D2E/DX2                !
 ! R56   R(26,31)                1.3922         estimate D2E/DX2                !
 ! R57   R(26,64)                1.1105         estimate D2E/DX2                !
 ! R58   R(27,28)                1.4454         estimate D2E/DX2                !
 ! R59   R(28,29)                1.5248         estimate D2E/DX2                !
 ! R60   R(28,65)                1.1087         estimate D2E/DX2                !
 ! R61   R(29,30)                1.4303         estimate D2E/DX2                !
 ! R62   R(29,66)                1.1019         estimate D2E/DX2                !
 ! R63   R(29,67)                1.0979         estimate D2E/DX2                !
 ! R64   R(30,68)                0.9967         estimate D2E/DX2                !
 ! R65   R(31,32)                1.4517         estimate D2E/DX2                !
 ! R66   R(32,33)                1.5277         estimate D2E/DX2                !
 ! R67   R(32,69)                1.1023         estimate D2E/DX2                !
 ! R68   R(32,70)                1.1            estimate D2E/DX2                !
 ! R69   R(33,34)                1.5385         estimate D2E/DX2                !
 ! R70   R(33,71)                1.0996         estimate D2E/DX2                !
 ! R71   R(33,72)                1.102          estimate D2E/DX2                !
 ! R72   R(34,35)                1.5374         estimate D2E/DX2                !
 ! R73   R(34,73)                1.1008         estimate D2E/DX2                !
 ! R74   R(34,74)                1.1035         estimate D2E/DX2                !
 ! R75   R(35,36)                1.5283         estimate D2E/DX2                !
 ! R76   R(35,75)                1.1015         estimate D2E/DX2                !
 ! R77   R(35,76)                1.1019         estimate D2E/DX2                !
 ! R78   R(36,37)                1.5018         estimate D2E/DX2                !
 ! R79   R(36,77)                1.0961         estimate D2E/DX2                !
 ! R80   R(36,78)                1.0978         estimate D2E/DX2                !
 ! R81   R(37,79)                1.029          estimate D2E/DX2                !
 ! R82   R(37,80)                1.064          estimate D2E/DX2                !
 ! R83   R(37,81)                1.0441         estimate D2E/DX2                !
 ! R84   R(38,82)                0.974          estimate D2E/DX2                !
 ! R85   R(39,83)                0.9761         estimate D2E/DX2                !
 ! R86   R(40,84)                0.9824         estimate D2E/DX2                !
 ! A1    A(2,1,6)              116.3729         estimate D2E/DX2                !
 ! A2    A(1,2,3)              111.561          estimate D2E/DX2                !
 ! A3    A(1,2,12)             105.0221         estimate D2E/DX2                !
 ! A4    A(1,2,41)             110.1052         estimate D2E/DX2                !
 ! A5    A(3,2,12)             106.7471         estimate D2E/DX2                !
 ! A6    A(3,2,41)             111.2866         estimate D2E/DX2                !
 ! A7    A(12,2,41)            111.9222         estimate D2E/DX2                !
 ! A8    A(2,3,4)              111.9683         estimate D2E/DX2                !
 ! A9    A(2,3,11)             111.1198         estimate D2E/DX2                !
 ! A10   A(2,3,42)             105.9822         estimate D2E/DX2                !
 ! A11   A(4,3,11)             107.5815         estimate D2E/DX2                !
 ! A12   A(4,3,42)             108.7395         estimate D2E/DX2                !
 ! A13   A(11,3,42)            111.4728         estimate D2E/DX2                !
 ! A14   A(3,4,5)              111.2328         estimate D2E/DX2                !
 ! A15   A(3,4,10)             111.2884         estimate D2E/DX2                !
 ! A16   A(3,4,43)             108.8089         estimate D2E/DX2                !
 ! A17   A(5,4,10)             106.2083         estimate D2E/DX2                !
 ! A18   A(5,4,43)             109.0098         estimate D2E/DX2                !
 ! A19   A(10,4,43)            110.2567         estimate D2E/DX2                !
 ! A20   A(4,5,6)              109.8704         estimate D2E/DX2                !
 ! A21   A(4,5,9)              109.7577         estimate D2E/DX2                !
 ! A22   A(4,5,44)             108.434          estimate D2E/DX2                !
 ! A23   A(6,5,9)              112.6099         estimate D2E/DX2                !
 ! A24   A(6,5,44)             107.3883         estimate D2E/DX2                !
 ! A25   A(9,5,44)             108.6629         estimate D2E/DX2                !
 ! A26   A(1,6,5)              111.8844         estimate D2E/DX2                !
 ! A27   A(1,6,7)              106.7201         estimate D2E/DX2                !
 ! A28   A(1,6,45)             109.6272         estimate D2E/DX2                !
 ! A29   A(5,6,7)              116.463          estimate D2E/DX2                !
 ! A30   A(5,6,45)             105.4781         estimate D2E/DX2                !
 ! A31   A(7,6,45)             106.4311         estimate D2E/DX2                !
 ! A32   A(6,7,8)              114.0409         estimate D2E/DX2                !
 ! A33   A(6,7,46)             108.5496         estimate D2E/DX2                !
 ! A34   A(6,7,47)             108.461          estimate D2E/DX2                !
 ! A35   A(8,7,46)             107.5425         estimate D2E/DX2                !
 ! A36   A(8,7,47)             110.406          estimate D2E/DX2                !
 ! A37   A(46,7,47)            107.6399         estimate D2E/DX2                !
 ! A38   A(7,8,48)             107.9221         estimate D2E/DX2                !
 ! A39   A(5,9,49)             103.7657         estimate D2E/DX2                !
 ! A40   A(4,10,50)            107.4625         estimate D2E/DX2                !
 ! A41   A(3,11,51)            109.054          estimate D2E/DX2                !
 ! A42   A(2,12,13)            120.7782         estimate D2E/DX2                !
 ! A43   A(12,13,14)           106.9405         estimate D2E/DX2                !
 ! A44   A(12,13,19)           109.6874         estimate D2E/DX2                !
 ! A45   A(12,13,52)           110.5173         estimate D2E/DX2                !
 ! A46   A(14,13,19)           108.0604         estimate D2E/DX2                !
 ! A47   A(14,13,52)           110.5625         estimate D2E/DX2                !
 ! A48   A(19,13,52)           110.9595         estimate D2E/DX2                !
 ! A49   A(13,14,15)           109.1858         estimate D2E/DX2                !
 ! A50   A(13,14,16)           108.8258         estimate D2E/DX2                !
 ! A51   A(13,14,53)           108.9784         estimate D2E/DX2                !
 ! A52   A(15,14,16)           110.1066         estimate D2E/DX2                !
 ! A53   A(15,14,53)           109.5473         estimate D2E/DX2                !
 ! A54   A(16,14,53)           110.1712         estimate D2E/DX2                !
 ! A55   A(14,15,54)           105.613          estimate D2E/DX2                !
 ! A56   A(14,16,17)           112.9203         estimate D2E/DX2                !
 ! A57   A(14,16,40)           107.9679         estimate D2E/DX2                !
 ! A58   A(14,16,55)           105.7888         estimate D2E/DX2                !
 ! A59   A(17,16,40)           111.0352         estimate D2E/DX2                !
 ! A60   A(17,16,55)           108.9256         estimate D2E/DX2                !
 ! A61   A(40,16,55)           110.0621         estimate D2E/DX2                !
 ! A62   A(16,17,18)           112.9012         estimate D2E/DX2                !
 ! A63   A(16,17,22)           113.0914         estimate D2E/DX2                !
 ! A64   A(16,17,56)           109.208          estimate D2E/DX2                !
 ! A65   A(18,17,22)           106.7266         estimate D2E/DX2                !
 ! A66   A(18,17,56)           110.1898         estimate D2E/DX2                !
 ! A67   A(22,17,56)           104.3665         estimate D2E/DX2                !
 ! A68   A(17,18,19)           116.11           estimate D2E/DX2                !
 ! A69   A(13,19,18)           110.3007         estimate D2E/DX2                !
 ! A70   A(13,19,20)           115.9557         estimate D2E/DX2                !
 ! A71   A(13,19,57)           107.0474         estimate D2E/DX2                !
 ! A72   A(18,19,20)           106.6622         estimate D2E/DX2                !
 ! A73   A(18,19,57)           110.7248         estimate D2E/DX2                !
 ! A74   A(20,19,57)           106.0765         estimate D2E/DX2                !
 ! A75   A(19,20,21)           114.5768         estimate D2E/DX2                !
 ! A76   A(19,20,58)           108.3285         estimate D2E/DX2                !
 ! A77   A(19,20,59)           109.1362         estimate D2E/DX2                !
 ! A78   A(21,20,58)           105.9588         estimate D2E/DX2                !
 ! A79   A(21,20,59)           110.7833         estimate D2E/DX2                !
 ! A80   A(58,20,59)           107.783          estimate D2E/DX2                !
 ! A81   A(20,21,60)           108.5519         estimate D2E/DX2                !
 ! A82   A(17,22,23)           116.9464         estimate D2E/DX2                !
 ! A83   A(22,23,24)           108.466          estimate D2E/DX2                !
 ! A84   A(22,23,28)           110.0055         estimate D2E/DX2                !
 ! A85   A(22,23,61)           111.1158         estimate D2E/DX2                !
 ! A86   A(24,23,28)           108.4389         estimate D2E/DX2                !
 ! A87   A(24,23,61)           111.0765         estimate D2E/DX2                !
 ! A88   A(28,23,61)           107.7023         estimate D2E/DX2                !
 ! A89   A(23,24,25)           111.2863         estimate D2E/DX2                !
 ! A90   A(23,24,39)           110.3699         estimate D2E/DX2                !
 ! A91   A(23,24,62)           107.7627         estimate D2E/DX2                !
 ! A92   A(25,24,39)           109.1424         estimate D2E/DX2                !
 ! A93   A(25,24,62)           109.0474         estimate D2E/DX2                !
 ! A94   A(39,24,62)           109.191          estimate D2E/DX2                !
 ! A95   A(24,25,26)           111.7392         estimate D2E/DX2                !
 ! A96   A(24,25,38)           106.2465         estimate D2E/DX2                !
 ! A97   A(24,25,63)           108.5703         estimate D2E/DX2                !
 ! A98   A(26,25,38)           112.533          estimate D2E/DX2                !
 ! A99   A(26,25,63)           106.8685         estimate D2E/DX2                !
 ! A100  A(38,25,63)           110.871          estimate D2E/DX2                !
 ! A101  A(25,26,27)           109.1932         estimate D2E/DX2                !
 ! A102  A(25,26,31)           106.3072         estimate D2E/DX2                !
 ! A103  A(25,26,64)           111.5838         estimate D2E/DX2                !
 ! A104  A(27,26,31)           109.3487         estimate D2E/DX2                !
 ! A105  A(27,26,64)           109.0846         estimate D2E/DX2                !
 ! A106  A(31,26,64)           111.2628         estimate D2E/DX2                !
 ! A107  A(26,27,28)           112.8753         estimate D2E/DX2                !
 ! A108  A(23,28,27)           108.9076         estimate D2E/DX2                !
 ! A109  A(23,28,29)           115.5029         estimate D2E/DX2                !
 ! A110  A(23,28,65)           108.6317         estimate D2E/DX2                !
 ! A111  A(27,28,29)           107.3506         estimate D2E/DX2                !
 ! A112  A(27,28,65)           109.6943         estimate D2E/DX2                !
 ! A113  A(29,28,65)           106.6503         estimate D2E/DX2                !
 ! A114  A(28,29,30)           113.09           estimate D2E/DX2                !
 ! A115  A(28,29,66)           107.7831         estimate D2E/DX2                !
 ! A116  A(28,29,67)           108.6522         estimate D2E/DX2                !
 ! A117  A(30,29,66)           108.2896         estimate D2E/DX2                !
 ! A118  A(30,29,67)           110.2851         estimate D2E/DX2                !
 ! A119  A(66,29,67)           108.6237         estimate D2E/DX2                !
 ! A120  A(29,30,68)           111.7957         estimate D2E/DX2                !
 ! A121  A(26,31,32)           116.9585         estimate D2E/DX2                !
 ! A122  A(31,32,33)           112.0761         estimate D2E/DX2                !
 ! A123  A(31,32,69)           109.3139         estimate D2E/DX2                !
 ! A124  A(31,32,70)           104.686          estimate D2E/DX2                !
 ! A125  A(33,32,69)           111.213          estimate D2E/DX2                !
 ! A126  A(33,32,70)           111.0933         estimate D2E/DX2                !
 ! A127  A(69,32,70)           108.1926         estimate D2E/DX2                !
 ! A128  A(32,33,34)           112.4303         estimate D2E/DX2                !
 ! A129  A(32,33,71)           107.8445         estimate D2E/DX2                !
 ! A130  A(32,33,72)           108.3469         estimate D2E/DX2                !
 ! A131  A(34,33,71)           111.2698         estimate D2E/DX2                !
 ! A132  A(34,33,72)           110.3639         estimate D2E/DX2                !
 ! A133  A(71,33,72)           106.3425         estimate D2E/DX2                !
 ! A134  A(33,34,35)           115.3282         estimate D2E/DX2                !
 ! A135  A(33,34,73)           109.6392         estimate D2E/DX2                !
 ! A136  A(33,34,74)           108.6666         estimate D2E/DX2                !
 ! A137  A(35,34,73)           108.4335         estimate D2E/DX2                !
 ! A138  A(35,34,74)           109.6144         estimate D2E/DX2                !
 ! A139  A(73,34,74)           104.6221         estimate D2E/DX2                !
 ! A140  A(34,35,36)           114.9936         estimate D2E/DX2                !
 ! A141  A(34,35,75)           110.2323         estimate D2E/DX2                !
 ! A142  A(34,35,76)           109.179          estimate D2E/DX2                !
 ! A143  A(36,35,75)           106.6798         estimate D2E/DX2                !
 ! A144  A(36,35,76)           109.4219         estimate D2E/DX2                !
 ! A145  A(75,35,76)           105.9338         estimate D2E/DX2                !
 ! A146  A(35,36,37)           113.032          estimate D2E/DX2                !
 ! A147  A(35,36,77)           111.4503         estimate D2E/DX2                !
 ! A148  A(35,36,78)           111.608          estimate D2E/DX2                !
 ! A149  A(37,36,77)           106.3366         estimate D2E/DX2                !
 ! A150  A(37,36,78)           106.1534         estimate D2E/DX2                !
 ! A151  A(77,36,78)           107.9074         estimate D2E/DX2                !
 ! A152  A(36,37,79)           110.471          estimate D2E/DX2                !
 ! A153  A(36,37,80)           109.3872         estimate D2E/DX2                !
 ! A154  A(36,37,81)           112.5038         estimate D2E/DX2                !
 ! A155  A(79,37,80)           104.0904         estimate D2E/DX2                !
 ! A156  A(79,37,81)           110.1705         estimate D2E/DX2                !
 ! A157  A(80,37,81)           109.8836         estimate D2E/DX2                !
 ! A158  A(25,38,82)           107.9467         estimate D2E/DX2                !
 ! A159  A(24,39,83)           105.9472         estimate D2E/DX2                !
 ! A160  A(16,40,84)           105.1588         estimate D2E/DX2                !
 ! D1    D(6,1,2,3)            -52.3632         estimate D2E/DX2                !
 ! D2    D(6,1,2,12)          -167.6299         estimate D2E/DX2                !
 ! D3    D(6,1,2,41)            71.7146         estimate D2E/DX2                !
 ! D4    D(2,1,6,5)             55.0924         estimate D2E/DX2                !
 ! D5    D(2,1,6,7)           -176.4388         estimate D2E/DX2                !
 ! D6    D(2,1,6,45)           -61.5603         estimate D2E/DX2                !
 ! D7    D(1,2,3,4)             49.8017         estimate D2E/DX2                !
 ! D8    D(1,2,3,11)           170.1316         estimate D2E/DX2                !
 ! D9    D(1,2,3,42)           -68.6149         estimate D2E/DX2                !
 ! D10   D(12,2,3,4)           164.0027         estimate D2E/DX2                !
 ! D11   D(12,2,3,11)          -75.6674         estimate D2E/DX2                !
 ! D12   D(12,2,3,42)           45.5861         estimate D2E/DX2                !
 ! D13   D(41,2,3,4)           -73.608          estimate D2E/DX2                !
 ! D14   D(41,2,3,11)           46.7219         estimate D2E/DX2                !
 ! D15   D(41,2,3,42)          167.9754         estimate D2E/DX2                !
 ! D16   D(1,2,12,13)         -107.9871         estimate D2E/DX2                !
 ! D17   D(3,2,12,13)          133.4515         estimate D2E/DX2                !
 ! D18   D(41,2,12,13)          11.462          estimate D2E/DX2                !
 ! D19   D(2,3,4,5)            -51.9644         estimate D2E/DX2                !
 ! D20   D(2,3,4,10)          -170.1794         estimate D2E/DX2                !
 ! D21   D(2,3,4,43)            68.1349         estimate D2E/DX2                !
 ! D22   D(11,3,4,5)          -174.3344         estimate D2E/DX2                !
 ! D23   D(11,3,4,10)           67.4506         estimate D2E/DX2                !
 ! D24   D(11,3,4,43)          -54.2351         estimate D2E/DX2                !
 ! D25   D(42,3,4,5)            64.8026         estimate D2E/DX2                !
 ! D26   D(42,3,4,10)          -53.4124         estimate D2E/DX2                !
 ! D27   D(42,3,4,43)         -175.0982         estimate D2E/DX2                !
 ! D28   D(2,3,11,51)           45.7033         estimate D2E/DX2                !
 ! D29   D(4,3,11,51)          168.5965         estimate D2E/DX2                !
 ! D30   D(42,3,11,51)         -72.274          estimate D2E/DX2                !
 ! D31   D(3,4,5,6)             53.3431         estimate D2E/DX2                !
 ! D32   D(3,4,5,9)            -71.002          estimate D2E/DX2                !
 ! D33   D(3,4,5,44)           170.4347         estimate D2E/DX2                !
 ! D34   D(10,4,5,6)           174.5793         estimate D2E/DX2                !
 ! D35   D(10,4,5,9)            50.2341         estimate D2E/DX2                !
 ! D36   D(10,4,5,44)          -68.3291         estimate D2E/DX2                !
 ! D37   D(43,4,5,6)           -66.6372         estimate D2E/DX2                !
 ! D38   D(43,4,5,9)           169.0177         estimate D2E/DX2                !
 ! D39   D(43,4,5,44)           50.4544         estimate D2E/DX2                !
 ! D40   D(3,4,10,50)          -50.2889         estimate D2E/DX2                !
 ! D41   D(5,4,10,50)         -171.4894         estimate D2E/DX2                !
 ! D42   D(43,4,10,50)          70.5508         estimate D2E/DX2                !
 ! D43   D(4,5,6,1)            -53.881          estimate D2E/DX2                !
 ! D44   D(4,5,6,7)           -176.9926         estimate D2E/DX2                !
 ! D45   D(4,5,6,45)            65.2518         estimate D2E/DX2                !
 ! D46   D(9,5,6,1)             68.7945         estimate D2E/DX2                !
 ! D47   D(9,5,6,7)            -54.3171         estimate D2E/DX2                !
 ! D48   D(9,5,6,45)          -172.0726         estimate D2E/DX2                !
 ! D49   D(44,5,6,1)          -171.6241         estimate D2E/DX2                !
 ! D50   D(44,5,6,7)            65.2643         estimate D2E/DX2                !
 ! D51   D(44,5,6,45)          -52.4913         estimate D2E/DX2                !
 ! D52   D(4,5,9,49)           -41.9621         estimate D2E/DX2                !
 ! D53   D(6,5,9,49)          -164.7009         estimate D2E/DX2                !
 ! D54   D(44,5,9,49)           76.4596         estimate D2E/DX2                !
 ! D55   D(1,6,7,8)            -48.1937         estimate D2E/DX2                !
 ! D56   D(1,6,7,46)          -168.0493         estimate D2E/DX2                !
 ! D57   D(1,6,7,47)            75.2709         estimate D2E/DX2                !
 ! D58   D(5,6,7,8)             77.5577         estimate D2E/DX2                !
 ! D59   D(5,6,7,46)           -42.2979         estimate D2E/DX2                !
 ! D60   D(5,6,7,47)          -158.9777         estimate D2E/DX2                !
 ! D61   D(45,6,7,8)          -165.2103         estimate D2E/DX2                !
 ! D62   D(45,6,7,46)           74.9341         estimate D2E/DX2                !
 ! D63   D(45,6,7,47)          -41.7457         estimate D2E/DX2                !
 ! D64   D(6,7,8,48)            92.5249         estimate D2E/DX2                !
 ! D65   D(46,7,8,48)         -147.0543         estimate D2E/DX2                !
 ! D66   D(47,7,8,48)          -29.8804         estimate D2E/DX2                !
 ! D67   D(2,12,13,14)        -120.8018         estimate D2E/DX2                !
 ! D68   D(2,12,13,19)         122.2499         estimate D2E/DX2                !
 ! D69   D(2,12,13,52)          -0.403          estimate D2E/DX2                !
 ! D70   D(12,13,14,15)         62.0168         estimate D2E/DX2                !
 ! D71   D(12,13,14,16)        -58.1942         estimate D2E/DX2                !
 ! D72   D(12,13,14,53)       -178.3602         estimate D2E/DX2                !
 ! D73   D(19,13,14,15)       -179.9655         estimate D2E/DX2                !
 ! D74   D(19,13,14,16)         59.8234         estimate D2E/DX2                !
 ! D75   D(19,13,14,53)        -60.3426         estimate D2E/DX2                !
 ! D76   D(52,13,14,15)        -58.3531         estimate D2E/DX2                !
 ! D77   D(52,13,14,16)       -178.5642         estimate D2E/DX2                !
 ! D78   D(52,13,14,53)         61.2699         estimate D2E/DX2                !
 ! D79   D(12,13,19,18)         54.0124         estimate D2E/DX2                !
 ! D80   D(12,13,19,20)        -67.3256         estimate D2E/DX2                !
 ! D81   D(12,13,19,57)        174.549          estimate D2E/DX2                !
 ! D82   D(14,13,19,18)        -62.2307         estimate D2E/DX2                !
 ! D83   D(14,13,19,20)        176.4314         estimate D2E/DX2                !
 ! D84   D(14,13,19,57)         58.306          estimate D2E/DX2                !
 ! D85   D(52,13,19,18)        176.4026         estimate D2E/DX2                !
 ! D86   D(52,13,19,20)         55.0647         estimate D2E/DX2                !
 ! D87   D(52,13,19,57)        -63.0608         estimate D2E/DX2                !
 ! D88   D(13,14,15,54)       -171.716          estimate D2E/DX2                !
 ! D89   D(16,14,15,54)        -52.295          estimate D2E/DX2                !
 ! D90   D(53,14,15,54)         69.0131         estimate D2E/DX2                !
 ! D91   D(13,14,16,17)        -51.9316         estimate D2E/DX2                !
 ! D92   D(13,14,16,40)       -175.0805         estimate D2E/DX2                !
 ! D93   D(13,14,16,55)         67.1144         estimate D2E/DX2                !
 ! D94   D(15,14,16,17)       -171.5716         estimate D2E/DX2                !
 ! D95   D(15,14,16,40)         65.2795         estimate D2E/DX2                !
 ! D96   D(15,14,16,55)        -52.5256         estimate D2E/DX2                !
 ! D97   D(53,14,16,17)         67.4936         estimate D2E/DX2                !
 ! D98   D(53,14,16,40)        -55.6553         estimate D2E/DX2                !
 ! D99   D(53,14,16,55)       -173.4604         estimate D2E/DX2                !
 ! D100  D(14,16,17,18)         44.5815         estimate D2E/DX2                !
 ! D101  D(14,16,17,22)        165.8974         estimate D2E/DX2                !
 ! D102  D(14,16,17,56)        -78.3698         estimate D2E/DX2                !
 ! D103  D(40,16,17,18)        166.0111         estimate D2E/DX2                !
 ! D104  D(40,16,17,22)        -72.6731         estimate D2E/DX2                !
 ! D105  D(40,16,17,56)         43.0598         estimate D2E/DX2                !
 ! D106  D(55,16,17,18)        -72.6302         estimate D2E/DX2                !
 ! D107  D(55,16,17,22)         48.6857         estimate D2E/DX2                !
 ! D108  D(55,16,17,56)        164.4185         estimate D2E/DX2                !
 ! D109  D(14,16,40,84)       -154.6921         estimate D2E/DX2                !
 ! D110  D(17,16,40,84)         81.019          estimate D2E/DX2                !
 ! D111  D(55,16,40,84)        -39.6708         estimate D2E/DX2                !
 ! D112  D(16,17,18,19)        -47.5153         estimate D2E/DX2                !
 ! D113  D(22,17,18,19)       -172.3717         estimate D2E/DX2                !
 ! D114  D(56,17,18,19)         74.8879         estimate D2E/DX2                !
 ! D115  D(16,17,22,23)        -54.8128         estimate D2E/DX2                !
 ! D116  D(18,17,22,23)         69.9274         estimate D2E/DX2                !
 ! D117  D(56,17,22,23)       -173.3939         estimate D2E/DX2                !
 ! D118  D(17,18,19,13)         56.8854         estimate D2E/DX2                !
 ! D119  D(17,18,19,20)       -176.3998         estimate D2E/DX2                !
 ! D120  D(17,18,19,57)        -61.42           estimate D2E/DX2                !
 ! D121  D(13,19,20,21)         70.8231         estimate D2E/DX2                !
 ! D122  D(13,19,20,58)       -171.1427         estimate D2E/DX2                !
 ! D123  D(13,19,20,59)        -54.0456         estimate D2E/DX2                !
 ! D124  D(18,19,20,21)        -52.439          estimate D2E/DX2                !
 ! D125  D(18,19,20,58)         65.5952         estimate D2E/DX2                !
 ! D126  D(18,19,20,59)       -177.3077         estimate D2E/DX2                !
 ! D127  D(57,19,20,21)       -170.5173         estimate D2E/DX2                !
 ! D128  D(57,19,20,58)        -52.4831         estimate D2E/DX2                !
 ! D129  D(57,19,20,59)         64.614          estimate D2E/DX2                !
 ! D130  D(19,20,21,60)        -66.8539         estimate D2E/DX2                !
 ! D131  D(58,20,21,60)        173.7768         estimate D2E/DX2                !
 ! D132  D(59,20,21,60)         57.1422         estimate D2E/DX2                !
 ! D133  D(17,22,23,24)        119.097          estimate D2E/DX2                !
 ! D134  D(17,22,23,28)       -122.4489         estimate D2E/DX2                !
 ! D135  D(17,22,23,61)         -3.2731         estimate D2E/DX2                !
 ! D136  D(22,23,24,25)        172.9459         estimate D2E/DX2                !
 ! D137  D(22,23,24,39)        -65.7178         estimate D2E/DX2                !
 ! D138  D(22,23,24,62)         53.4351         estimate D2E/DX2                !
 ! D139  D(28,23,24,25)         53.5042         estimate D2E/DX2                !
 ! D140  D(28,23,24,39)        174.8406         estimate D2E/DX2                !
 ! D141  D(28,23,24,62)        -66.0066         estimate D2E/DX2                !
 ! D142  D(61,23,24,25)        -64.6601         estimate D2E/DX2                !
 ! D143  D(61,23,24,39)         56.6763         estimate D2E/DX2                !
 ! D144  D(61,23,24,62)        175.8292         estimate D2E/DX2                !
 ! D145  D(22,23,28,27)       -177.4705         estimate D2E/DX2                !
 ! D146  D(22,23,28,29)         61.6887         estimate D2E/DX2                !
 ! D147  D(22,23,28,65)        -58.0374         estimate D2E/DX2                !
 ! D148  D(24,23,28,27)        -58.9997         estimate D2E/DX2                !
 ! D149  D(24,23,28,29)       -179.8405         estimate D2E/DX2                !
 ! D150  D(24,23,28,65)         60.4334         estimate D2E/DX2                !
 ! D151  D(61,23,28,27)         61.2876         estimate D2E/DX2                !
 ! D152  D(61,23,28,29)        -59.5532         estimate D2E/DX2                !
 ! D153  D(61,23,28,65)       -179.2793         estimate D2E/DX2                !
 ! D154  D(23,24,25,26)        -51.6919         estimate D2E/DX2                !
 ! D155  D(23,24,25,38)       -174.7789         estimate D2E/DX2                !
 ! D156  D(23,24,25,63)         65.9222         estimate D2E/DX2                !
 ! D157  D(39,24,25,26)       -173.7423         estimate D2E/DX2                !
 ! D158  D(39,24,25,38)         63.1707         estimate D2E/DX2                !
 ! D159  D(39,24,25,63)        -56.1282         estimate D2E/DX2                !
 ! D160  D(62,24,25,26)         67.0516         estimate D2E/DX2                !
 ! D161  D(62,24,25,38)        -56.0354         estimate D2E/DX2                !
 ! D162  D(62,24,25,63)       -175.3343         estimate D2E/DX2                !
 ! D163  D(23,24,39,83)       -173.4464         estimate D2E/DX2                !
 ! D164  D(25,24,39,83)        -50.8451         estimate D2E/DX2                !
 ! D165  D(62,24,39,83)         68.2718         estimate D2E/DX2                !
 ! D166  D(24,25,26,27)         53.5215         estimate D2E/DX2                !
 ! D167  D(24,25,26,31)        171.3846         estimate D2E/DX2                !
 ! D168  D(24,25,26,64)        -67.1439         estimate D2E/DX2                !
 ! D169  D(38,25,26,27)        172.9618         estimate D2E/DX2                !
 ! D170  D(38,25,26,31)        -69.1751         estimate D2E/DX2                !
 ! D171  D(38,25,26,64)         52.2964         estimate D2E/DX2                !
 ! D172  D(63,25,26,27)        -65.1101         estimate D2E/DX2                !
 ! D173  D(63,25,26,31)         52.7531         estimate D2E/DX2                !
 ! D174  D(63,25,26,64)        174.2245         estimate D2E/DX2                !
 ! D175  D(24,25,38,82)       -173.8641         estimate D2E/DX2                !
 ! D176  D(26,25,38,82)         63.5493         estimate D2E/DX2                !
 ! D177  D(63,25,38,82)        -56.0815         estimate D2E/DX2                !
 ! D178  D(25,26,27,28)        -61.4848         estimate D2E/DX2                !
 ! D179  D(31,26,27,28)       -177.4195         estimate D2E/DX2                !
 ! D180  D(64,26,27,28)         60.6967         estimate D2E/DX2                !
 ! D181  D(25,26,31,32)        164.5739         estimate D2E/DX2                !
 ! D182  D(27,26,31,32)        -77.666          estimate D2E/DX2                !
 ! D183  D(64,26,31,32)         42.8975         estimate D2E/DX2                !
 ! D184  D(26,27,28,23)         65.1344         estimate D2E/DX2                !
 ! D185  D(26,27,28,29)       -169.1456         estimate D2E/DX2                !
 ! D186  D(26,27,28,65)        -53.6353         estimate D2E/DX2                !
 ! D187  D(23,28,29,30)         65.6727         estimate D2E/DX2                !
 ! D188  D(23,28,29,66)       -174.657          estimate D2E/DX2                !
 ! D189  D(23,28,29,67)        -57.1256         estimate D2E/DX2                !
 ! D190  D(27,28,29,30)        -56.0078         estimate D2E/DX2                !
 ! D191  D(27,28,29,66)         63.6625         estimate D2E/DX2                !
 ! D192  D(27,28,29,67)       -178.8062         estimate D2E/DX2                !
 ! D193  D(65,28,29,30)       -173.5214         estimate D2E/DX2                !
 ! D194  D(65,28,29,66)        -53.8511         estimate D2E/DX2                !
 ! D195  D(65,28,29,67)         63.6803         estimate D2E/DX2                !
 ! D196  D(28,29,30,68)       -115.7399         estimate D2E/DX2                !
 ! D197  D(66,29,30,68)        124.881          estimate D2E/DX2                !
 ! D198  D(67,29,30,68)          6.1469         estimate D2E/DX2                !
 ! D199  D(26,31,32,33)         91.3357         estimate D2E/DX2                !
 ! D200  D(26,31,32,69)        -32.4363         estimate D2E/DX2                !
 ! D201  D(26,31,32,70)       -148.1488         estimate D2E/DX2                !
 ! D202  D(31,32,33,34)         56.1005         estimate D2E/DX2                !
 ! D203  D(31,32,33,71)        -66.9359         estimate D2E/DX2                !
 ! D204  D(31,32,33,72)        178.3439         estimate D2E/DX2                !
 ! D205  D(69,32,33,34)        178.8025         estimate D2E/DX2                !
 ! D206  D(69,32,33,71)         55.7661         estimate D2E/DX2                !
 ! D207  D(69,32,33,72)        -58.9541         estimate D2E/DX2                !
 ! D208  D(70,32,33,34)        -60.622          estimate D2E/DX2                !
 ! D209  D(70,32,33,71)        176.3416         estimate D2E/DX2                !
 ! D210  D(70,32,33,72)         61.6214         estimate D2E/DX2                !
 ! D211  D(32,33,34,35)       -157.7443         estimate D2E/DX2                !
 ! D212  D(32,33,34,73)         79.549          estimate D2E/DX2                !
 ! D213  D(32,33,34,74)        -34.2465         estimate D2E/DX2                !
 ! D214  D(71,33,34,35)        -36.6507         estimate D2E/DX2                !
 ! D215  D(71,33,34,73)       -159.3574         estimate D2E/DX2                !
 ! D216  D(71,33,34,74)         86.8471         estimate D2E/DX2                !
 ! D217  D(72,33,34,35)         81.161          estimate D2E/DX2                !
 ! D218  D(72,33,34,73)        -41.5457         estimate D2E/DX2                !
 ! D219  D(72,33,34,74)       -155.3412         estimate D2E/DX2                !
 ! D220  D(33,34,35,36)         57.0664         estimate D2E/DX2                !
 ! D221  D(33,34,35,75)        -63.5522         estimate D2E/DX2                !
 ! D222  D(33,34,35,76)       -179.5265         estimate D2E/DX2                !
 ! D223  D(73,34,35,36)       -179.587          estimate D2E/DX2                !
 ! D224  D(73,34,35,75)         59.7945         estimate D2E/DX2                !
 ! D225  D(73,34,35,76)        -56.1799         estimate D2E/DX2                !
 ! D226  D(74,34,35,36)        -65.9296         estimate D2E/DX2                !
 ! D227  D(74,34,35,75)        173.4518         estimate D2E/DX2                !
 ! D228  D(74,34,35,76)         57.4775         estimate D2E/DX2                !
 ! D229  D(34,35,36,37)         53.932          estimate D2E/DX2                !
 ! D230  D(34,35,36,77)        173.63           estimate D2E/DX2                !
 ! D231  D(34,35,36,78)        -65.6422         estimate D2E/DX2                !
 ! D232  D(75,35,36,37)        176.4794         estimate D2E/DX2                !
 ! D233  D(75,35,36,77)        -63.8226         estimate D2E/DX2                !
 ! D234  D(75,35,36,78)         56.9052         estimate D2E/DX2                !
 ! D235  D(76,35,36,37)        -69.3458         estimate D2E/DX2                !
 ! D236  D(76,35,36,77)         50.3522         estimate D2E/DX2                !
 ! D237  D(76,35,36,78)        171.08           estimate D2E/DX2                !
 ! D238  D(35,36,37,79)        -44.1445         estimate D2E/DX2                !
 ! D239  D(35,36,37,80)       -158.1517         estimate D2E/DX2                !
 ! D240  D(35,36,37,81)         79.4322         estimate D2E/DX2                !
 ! D241  D(77,36,37,79)       -166.7397         estimate D2E/DX2                !
 ! D242  D(77,36,37,80)         79.253          estimate D2E/DX2                !
 ! D243  D(77,36,37,81)        -43.1631         estimate D2E/DX2                !
 ! D244  D(78,36,37,79)         78.5213         estimate D2E/DX2                !
 ! D245  D(78,36,37,80)        -35.486          estimate D2E/DX2                !
 ! D246  D(78,36,37,81)       -157.9021         estimate D2E/DX2                !
 --------------------------------------------------------------------------------
 Trust Radius=3.00D-01 FncErr=1.00D-07 GrdErr=1.00D-06
 Number of steps in this run=    504 maximum allowed number of steps=    504.
 GradGradGradGradGradGradGradGradGradGradGradGradGradGradGradGradGradGrad

 Leave Link  103 at Tue Mar 22 18:22:49 2016, MaxMem= 10737418240 cpu:         0.4
 (Enter /share/apps//g09/l202.exe)
 Stoichiometry    C23H44NO16(1+)
 Framework group  C1[X(C23H44NO16)]
 Deg. of freedom   246
 Full point group                 C1      NOp   1
 Largest Abelian subgroup         C1      NOp   1
 Largest concise Abelian subgroup C1      NOp   1
                         Standard orientation:                         
 ---------------------------------------------------------------------
 Center     Atomic      Atomic             Coordinates (Angstroms)
 Number     Number       Type             X           Y           Z
 ---------------------------------------------------------------------
      1          8           0       -2.161802    2.093450   -0.414876
      2          6           0       -2.746349    1.171713    0.529915
      3          6           0       -2.114961    1.312624    1.917870
      4          6           0       -2.075677    2.767044    2.382756
      5          6           0       -1.429993    3.670943    1.325251
      6          6           0       -2.129384    3.477229   -0.021480
      7          6           0       -1.552918    4.263095   -1.213194
      8          8           0       -0.360557    3.698869   -1.760002
      9          8           0       -0.015108    3.407494    1.257587
     10          8           0       -1.287761    2.912401    3.566858
     11          8           0       -2.839208    0.573369    2.885659
     12          8           0       -2.403288   -0.093100    0.059624
     13          6           0       -3.394863   -0.952252   -0.535936
     14          6           0       -3.434146   -2.230287    0.297299
     15          8           0       -3.833868   -1.907854    1.636171
     16          6           0       -2.043034   -2.858196    0.301878
     17          6           0       -1.460163   -3.041844   -1.119486
     18          8           0       -1.650905   -1.887159   -1.956331
     19          6           0       -2.964671   -1.327530   -1.965195
     20          6           0       -2.947458   -0.181230   -2.983750
     21          8           0       -1.900829    0.774815   -2.786349
     22          8           0       -0.077989   -3.318450   -1.118716
     23          6           0        0.773918   -2.385261   -0.427812
     24          6           0        1.490970   -3.128554    0.703174
     25          6           0        2.540398   -2.244029    1.369109
     26          6           0        3.489880   -1.620846    0.343492
     27          8           0        2.716312   -0.938265   -0.665881
     28          6           0        1.838998   -1.824769   -1.396455
     29          6           0        1.296223   -1.045760   -2.589630
     30          8           0        0.638910    0.168049   -2.214987
     31          8           0        4.261923   -0.693810    1.038255
     32          6           0        5.463834   -0.213638    0.380720
     33          6           0        5.204824    1.050285   -0.437410
     34          6           0        4.593838    2.181517    0.407504
     35          6           0        3.824691    3.251739   -0.384032
     36          6           0        2.675506    2.720352   -1.240011
     37          7           0        1.696394    1.891012   -0.459721
     38          8           0        3.219572   -3.070827    2.310287
     39          8           0        0.546373   -3.564336    1.692284
     40          8           0       -2.125695   -4.100551    0.983013
     41          1           0       -3.844995    1.313982    0.571227
     42          1           0       -1.074803    0.942074    1.819085
     43          1           0       -3.111382    3.110839    2.567069
     44          1           0       -1.579771    4.724094    1.626902
     45          1           0       -3.164909    3.846874    0.126784
     46          1           0       -1.313288    5.282895   -0.876936
     47          1           0       -2.331025    4.341528   -1.988285
     48          1           0       -0.616766    3.101079   -2.483863
     49          1           0        0.251095    3.319609    2.197332
     50          1           0       -1.597221    2.245774    4.207979
     51          1           0       -3.036843   -0.322660    2.524607
     52          1           0       -4.382335   -0.460094   -0.537395
     53          1           0       -4.166247   -2.928530   -0.149432
     54          1           0       -3.712285   -2.729378    2.152144
     55          1           0       -1.401979   -2.161747    0.863325
     56          1           0       -1.917673   -3.932043   -1.587816
     57          1           0       -3.703691   -2.065204   -2.344664
     58          1           0       -2.781823   -0.608521   -3.981800
     59          1           0       -3.934180    0.313576   -2.988374
     60          1           0       -2.070217    1.256208   -1.940107
     61          1           0        0.195016   -1.533543   -0.037381
     62          1           0        1.990574   -4.012706    0.262675
     63          1           0        2.023961   -1.406891    1.879443
     64          1           0        4.125762   -2.389537   -0.144447
     65          1           0        2.423149   -2.671878   -1.809269
     66          1           0        2.147831   -0.791067   -3.240817
     67          1           0        0.608828   -1.693914   -3.148830
     68          1           0       -0.330980    0.149532   -2.443826
     69          1           0        5.881264   -1.017136   -0.247955
     70          1           0        6.170479   -0.016736    1.200458
     71          1           0        4.547799    0.779722   -1.276604
     72          1           0        6.158468    1.376595   -0.882943
     73          1           0        5.386050    2.679591    0.987171
     74          1           0        3.930559    1.735380    1.168310
     75          1           0        4.506381    3.784769   -1.065629
     76          1           0        3.439989    4.012026    0.314665
     77          1           0        2.098770    3.537436   -1.688665
     78          1           0        3.039950    2.078558   -2.052644
     79          1           0        2.192707    1.239776    0.163513
     80          1           0        1.162051    1.255962   -1.125446
     81          1           0        1.026500    2.474453    0.088963
     82          1           0        3.829176   -2.507357    2.819790
     83          1           0        1.075937   -3.930945    2.425689
     84          1           0       -1.220046   -4.266351    1.325804
 ---------------------------------------------------------------------
 Rotational constants (GHZ):      0.0998135      0.0878696      0.0657839
 Leave Link  202 at Tue Mar 22 18:22:49 2016, MaxMem= 10737418240 cpu:         2.0
 (Enter /share/apps//g09/l301.exe)
 Standard basis: 6-311+G(d,p) (5D, 7F)
 Ernie: Thresh=  0.10000D-02 Tol=  0.10000D-05 Strict=F.
 There are  1184 symmetry adapted cartesian basis functions of A   symmetry.
 There are  1144 symmetry adapted basis functions of A   symmetry.
  1144 basis functions,  1792 primitive gaussians,  1184 cartesian basis functions
   158 alpha electrons      158 beta electrons
       nuclear repulsion energy      6004.3651594568 Hartrees.
 IExCor= 1009 DFT=T Ex+Corr=PBE1PBE ExCW=0 ScaHFX=  0.250000
 ScaDFX=  0.750000  0.750000  1.000000  1.000000 ScalE2=  1.000000  1.000000
 IRadAn=      0 IRanWt=     -1 IRanGd=            0 ICorTp=0 IEmpDi=131
 NAtoms=   84 NActive=   84 NUniq=   84 SFac= 1.00D+00 NAtFMM=   60 NAOKFM=T Big=T
 Integral buffers will be    131072 words long.
 Raffenetti 2 integral format.
 Two-electron integral symmetry is turned on.
 R6Disp:  Grimme-D3 Dispersion energy=       -0.0853846521 Hartrees.
 Nuclear repulsion after empirical dispersion term =     6004.2797748047 Hartrees.
 Leave Link  301 at Tue Mar 22 18:22:49 2016, MaxMem= 10737418240 cpu:         2.2
 (Enter /share/apps//g09/l302.exe)
 NPDir=0 NMtPBC=     1 NCelOv=     1 NCel=       1 NClECP=     1 NCelD=      1
         NCelK=      1 NCelE2=     1 NClLst=     1 CellRange=     0.0.
 One-electron integrals computed using PRISM.
 NBasis=  1144 RedAO= T EigKep=  1.58D-06  NBF=  1144
 NBsUse=  1144 1.00D-06 EigRej= -1.00D+00 NBFU=  1144
 Precomputing XC quadrature grid using
 IXCGrd= 4 IRadAn=           0 IRanWt=          -1 IRanGd=           0 AccXCQ= 0.00D+00.
 Generated NRdTot=       0 NPtTot=           0 NUsed=           0 NTot=          32
 NSgBfM=  1098  1104  1105  1105  1105 MxSgAt=    84 MxSgA2=    84.
 Leave Link  302 at Tue Mar 22 18:22:53 2016, MaxMem= 10737418240 cpu:        56.6
 (Enter /share/apps//g09/l303.exe)
 DipDrv:  MaxL=1.
 Leave Link  303 at Tue Mar 22 18:22:56 2016, MaxMem= 10737418240 cpu:        32.4
 (Enter /share/apps//g09/l401.exe)
 ExpMin= 4.38D-02 ExpMax= 8.59D+03 ExpMxC= 1.30D+03 IAcc=2 IRadAn=         4 AccDes= 0.00D+00
 Harris functional with IExCor= 1009 and IRadAn=       4 diagonalized for initial guess.
 HarFok:  IExCor= 1009 AccDes= 0.00D+00 IRadAn=         4 IDoV= 1 UseB2=F ITyADJ=14
 ICtDFT=  3500011 ScaDFX=  1.000000  1.000000  1.000000  1.000000
 FoFCou: FMM=F IPFlag=           0 FMFlag=      100000 FMFlg1=        2001
         NFxFlg=           0 DoJE=T BraDBF=F KetDBF=T FulRan=T
         wScrn=  0.000000 ICntrl=     500 IOpCl=  0 I1Cent=   200000004 NGrid=           0
         NMat0=    1 NMatS0=      1 NMatT0=    0 NMatD0=    1 NMtDS0=    0 NMtDT0=    0
 Petite list used in FoFCou.
 Harris En= -2159.72088364621    
 JPrj=0 DoOrth=F DoCkMO=F.
 Leave Link  401 at Tue Mar 22 18:23:02 2016, MaxMem= 10737418240 cpu:       125.3
 (Enter /share/apps//g09/l502.exe)
 Closed shell SCF:
 Using DIIS extrapolation, IDIIS=  1040.
 Integral symmetry usage will be decided dynamically.
 IVT=     4256630 IEndB=     4256630 NGot= 10737418240 MDV= 10734581291
 LenX= 10734581291 LenY= 10733178251
 Requested convergence on RMS density matrix=1.00D-08 within 128 cycles.
 Requested convergence on MAX density matrix=1.00D-06.
 Requested convergence on             energy=1.00D-06.
 No special actions if energy rises.
 Fock matrices will be formed incrementally for  20 cycles.

 Cycle   1  Pass 1  IDiag  1:
 FoFJK:  IHMeth= 1 ICntrl=       0 DoSepK=F KAlg= 0 I1Cent=   0 FoldK=F
 IRaf= 790000000 NMat=   1 IRICut=       1 DoRegI=T DoRafI=F ISym2E= 0.
 FoFCou: FMM=T IPFlag=           0 FMFlag=      100000 FMFlg1=        2001
         NFxFlg=           0 DoJE=F BraDBF=F KetDBF=F FulRan=T
         wScrn=  0.000000 ICntrl=       0 IOpCl=  0 I1Cent=           0 NGrid=           0
         NMat0=    1 NMatS0=      1 NMatT0=    0 NMatD0=    1 NMtDS0=    0 NMtDT0=    0
 Symmetry not used in FoFCou.
 FMM levels:  10  Number of levels for PrismC:   9
 E= -2158.71208938481    
 DIIS: error= 1.23D-02 at cycle   1 NSaved=   1.
 NSaved= 1 IEnMin= 1 EnMin= -2158.71208938481     IErMin= 1 ErrMin= 1.23D-02
 ErrMax= 1.23D-02  0.00D+00 EMaxC= 1.00D-01 BMatC= 1.02D+00 BMatP= 1.02D+00
 IDIUse=3 WtCom= 8.77D-01 WtEn= 1.23D-01
 Coeff-Com:  0.100D+01
 Coeff-En:   0.100D+01
 Coeff:      0.100D+01
 Gap=     0.266 Goal=   None    Shift=    0.000
 GapD=    0.266 DampG=1.000 DampE=0.500 DampFc=0.5000 IDamp=-1.
 Damping current iteration by 5.00D-01
 RMSDP=9.76D-03 MaxDP=1.73D+00              OVMax= 1.36D-01

 Cycle   2  Pass 1  IDiag  1:
 RMSU=  4.88D-03    CP:  1.00D+00
 E= -2158.99268412280     Delta-E=       -0.280594737992 Rises=F Damp=T
 DIIS: error= 3.34D-03 at cycle   2 NSaved=   2.
 NSaved= 2 IEnMin= 2 EnMin= -2158.99268412280     IErMin= 2 ErrMin= 3.34D-03
 ErrMax= 3.34D-03  0.00D+00 EMaxC= 1.00D-01 BMatC= 8.13D-02 BMatP= 1.02D+00
 IDIUse=3 WtCom= 9.67D-01 WtEn= 3.34D-02
 Coeff-Com:  0.620D-01 0.938D+00
 Coeff-En:   0.160D+00 0.840D+00
 Coeff:      0.653D-01 0.935D+00
 Gap=     0.296 Goal=   None    Shift=    0.000
 RMSDP=4.76D-03 MaxDP=1.39D+00 DE=-2.81D-01 OVMax= 8.09D-02

 Cycle   3  Pass 1  IDiag  1:
 RMSU=  2.61D-03    CP:  9.03D-01  9.42D-01
 E= -2159.36132001612     Delta-E=       -0.368635893313 Rises=F Damp=F
 DIIS: error= 3.22D-03 at cycle   3 NSaved=   3.
 NSaved= 3 IEnMin= 3 EnMin= -2159.36132001612     IErMin= 3 ErrMin= 3.22D-03
 ErrMax= 3.22D-03  0.00D+00 EMaxC= 1.00D-01 BMatC= 4.52D-02 BMatP= 8.13D-02
 IDIUse=3 WtCom= 9.68D-01 WtEn= 3.22D-02
 Coeff-Com: -0.666D-01 0.409D+00 0.657D+00
 Coeff-En:   0.000D+00 0.000D+00 0.100D+01
 Coeff:     -0.644D-01 0.396D+00 0.668D+00
 Gap=     0.274 Goal=   None    Shift=    0.000
 RMSDP=1.54D-03 MaxDP=4.11D-01 DE=-3.69D-01 OVMax= 1.92D-02

 Cycle   4  Pass 1  IDiag  1:
 RMSU=  1.07D-03    CP:  9.25D-01  1.05D+00  8.44D-01
 E= -2159.38974332160     Delta-E=       -0.028423305482 Rises=F Damp=F
 DIIS: error= 1.04D-03 at cycle   4 NSaved=   4.
 NSaved= 4 IEnMin= 4 EnMin= -2159.38974332160     IErMin= 4 ErrMin= 1.04D-03
 ErrMax= 1.04D-03  0.00D+00 EMaxC= 1.00D-01 BMatC= 5.84D-03 BMatP= 4.52D-02
 IDIUse=3 WtCom= 9.90D-01 WtEn= 1.04D-02
 Coeff-Com: -0.357D-01 0.122D+00 0.338D+00 0.575D+00
 Coeff-En:   0.000D+00 0.000D+00 0.723D-01 0.928D+00
 Coeff:     -0.353D-01 0.121D+00 0.336D+00 0.579D+00
 Gap=     0.268 Goal=   None    Shift=    0.000
 RMSDP=1.12D-03 MaxDP=3.79D-01 DE=-2.84D-02 OVMax= 6.03D-03

 Cycle   5  Pass 1  IDiag  1:
 RMSU=  2.93D-04    CP:  9.01D-01  1.02D+00  8.56D-01  5.78D-01
 E= -2159.39475321432     Delta-E=       -0.005009892718 Rises=F Damp=F
 DIIS: error= 2.38D-04 at cycle   5 NSaved=   5.
 NSaved= 5 IEnMin= 5 EnMin= -2159.39475321432     IErMin= 5 ErrMin= 2.38D-04
 ErrMax= 2.38D-04  0.00D+00 EMaxC= 1.00D-01 BMatC= 2.46D-04 BMatP= 5.84D-03
 IDIUse=3 WtCom= 9.98D-01 WtEn= 2.38D-03
 Coeff-Com: -0.113D-01 0.255D-01 0.100D+00 0.248D+00 0.638D+00
 Coeff-En:   0.000D+00 0.000D+00 0.000D+00 0.000D+00 0.100D+01
 Coeff:     -0.113D-01 0.254D-01 0.100D+00 0.247D+00 0.639D+00
 Gap=     0.267 Goal=   None    Shift=    0.000
 RMSDP=1.44D-04 MaxDP=3.78D-02 DE=-5.01D-03 OVMax= 1.47D-03

 Cycle   6  Pass 1  IDiag  1:
 RMSU=  7.00D-05    CP:  9.03D-01  1.03D+00  8.68D-01  5.87D-01  7.48D-01
 E= -2159.39493800074     Delta-E=       -0.000184786425 Rises=F Damp=F
 DIIS: error= 6.68D-05 at cycle   6 NSaved=   6.
 NSaved= 6 IEnMin= 6 EnMin= -2159.39493800074     IErMin= 6 ErrMin= 6.68D-05
 ErrMax= 6.68D-05  0.00D+00 EMaxC= 1.00D-01 BMatC= 1.90D-05 BMatP= 2.46D-04
 IDIUse=1 WtCom= 1.00D+00 WtEn= 0.00D+00
 Coeff-Com: -0.370D-02 0.651D-02 0.325D-01 0.934D-01 0.313D+00 0.558D+00
 Coeff:     -0.370D-02 0.651D-02 0.325D-01 0.934D-01 0.313D+00 0.558D+00
 Gap=     0.267 Goal=   None    Shift=    0.000
 RMSDP=3.24D-05 MaxDP=1.00D-02 DE=-1.85D-04 OVMax= 4.11D-04

 Cycle   7  Pass 1  IDiag  1:
 RMSU=  1.53D-05    CP:  9.04D-01  1.03D+00  8.69D-01  6.02D-01  7.53D-01
                    CP:  7.42D-01
 E= -2159.39495214115     Delta-E=       -0.000014140412 Rises=F Damp=F
 DIIS: error= 2.12D-05 at cycle   7 NSaved=   7.
 NSaved= 7 IEnMin= 7 EnMin= -2159.39495214115     IErMin= 7 ErrMin= 2.12D-05
 ErrMax= 2.12D-05  0.00D+00 EMaxC= 1.00D-01 BMatC= 1.52D-06 BMatP= 1.90D-05
 IDIUse=1 WtCom= 1.00D+00 WtEn= 0.00D+00
 Coeff-Com: -0.101D-02 0.140D-02 0.914D-02 0.297D-01 0.112D+00 0.280D+00
 Coeff-Com:  0.568D+00
 Coeff:     -0.101D-02 0.140D-02 0.914D-02 0.297D-01 0.112D+00 0.280D+00
 Coeff:      0.568D+00
 Gap=     0.267 Goal=   None    Shift=    0.000
 RMSDP=8.98D-06 MaxDP=1.87D-03 DE=-1.41D-05 OVMax= 1.39D-04

 Cycle   8  Pass 1  IDiag  1:
 RMSU=  6.74D-06    CP:  9.04D-01  1.03D+00  8.68D-01  6.03D-01  7.64D-01
                    CP:  7.06D-01  7.84D-01
 E= -2159.39495313518     Delta-E=       -0.000000994025 Rises=F Damp=F
 DIIS: error= 6.78D-06 at cycle   8 NSaved=   8.
 NSaved= 8 IEnMin= 8 EnMin= -2159.39495313518     IErMin= 8 ErrMin= 6.78D-06
 ErrMax= 6.78D-06  0.00D+00 EMaxC= 1.00D-01 BMatC= 1.65D-07 BMatP= 1.52D-06
 IDIUse=1 WtCom= 1.00D+00 WtEn= 0.00D+00
 Coeff-Com:  0.104D-04-0.208D-03 0.100D-03 0.204D-02 0.114D-01 0.578D-01
 Coeff-Com:  0.281D+00 0.648D+00
 Coeff:      0.104D-04-0.208D-03 0.100D-03 0.204D-02 0.114D-01 0.578D-01
 Coeff:      0.281D+00 0.648D+00
 Gap=     0.267 Goal=   None    Shift=    0.000
 RMSDP=3.28D-06 MaxDP=5.54D-04 DE=-9.94D-07 OVMax= 4.03D-05

 Cycle   9  Pass 1  IDiag  1:
 RMSU=  2.13D-06    CP:  9.04D-01  1.03D+00  8.69D-01  6.03D-01  7.64D-01
                    CP:  7.22D-01  8.27D-01  8.44D-01
 E= -2159.39495325765     Delta-E=       -0.000000122473 Rises=F Damp=F
 DIIS: error= 1.83D-06 at cycle   9 NSaved=   9.
 NSaved= 9 IEnMin= 9 EnMin= -2159.39495325765     IErMin= 9 ErrMin= 1.83D-06
 ErrMax= 1.83D-06  0.00D+00 EMaxC= 1.00D-01 BMatC= 1.07D-08 BMatP= 1.65D-07
 IDIUse=1 WtCom= 1.00D+00 WtEn= 0.00D+00
 Coeff-Com:  0.662D-04-0.177D-03-0.554D-03-0.100D-02-0.244D-02 0.630D-02
 Coeff-Com:  0.868D-01 0.291D+00 0.620D+00
 Coeff:      0.662D-04-0.177D-03-0.554D-03-0.100D-02-0.244D-02 0.630D-02
 Coeff:      0.868D-01 0.291D+00 0.620D+00
 Gap=     0.267 Goal=   None    Shift=    0.000
 RMSDP=7.26D-07 MaxDP=2.86D-04 DE=-1.22D-07 OVMax= 9.61D-06

 Cycle  10  Pass 1  IDiag  1:
 RMSU=  4.37D-07    CP:  9.04D-01  1.03D+00  8.69D-01  6.03D-01  7.64D-01
                    CP:  7.26D-01  8.36D-01  8.44D-01  8.00D-01
 E= -2159.39495326557     Delta-E=       -0.000000007920 Rises=F Damp=F
 DIIS: error= 5.39D-07 at cycle  10 NSaved=  10.
 NSaved=10 IEnMin=10 EnMin= -2159.39495326557     IErMin=10 ErrMin= 5.39D-07
 ErrMax= 5.39D-07  0.00D+00 EMaxC= 1.00D-01 BMatC= 1.17D-09 BMatP= 1.07D-08
 IDIUse=1 WtCom= 1.00D+00 WtEn= 0.00D+00
 Coeff-Com:  0.275D-04-0.630D-04-0.266D-03-0.593D-03-0.195D-02-0.123D-02
 Coeff-Com:  0.203D-01 0.926D-01 0.309D+00 0.582D+00
 Coeff:      0.275D-04-0.630D-04-0.266D-03-0.593D-03-0.195D-02-0.123D-02
 Coeff:      0.203D-01 0.926D-01 0.309D+00 0.582D+00
 Gap=     0.267 Goal=   None    Shift=    0.000
 RMSDP=2.14D-07 MaxDP=4.73D-05 DE=-7.92D-09 OVMax= 3.26D-06

 Cycle  11  Pass 1  IDiag  1:
 RMSU=  1.21D-07    CP:  9.04D-01  1.03D+00  8.69D-01  6.03D-01  7.64D-01
                    CP:  7.25D-01  8.39D-01  8.58D-01  8.09D-01  7.55D-01
 E= -2159.39495326628     Delta-E=       -0.000000000708 Rises=F Damp=F
 DIIS: error= 1.49D-07 at cycle  11 NSaved=  11.
 NSaved=11 IEnMin=11 EnMin= -2159.39495326628     IErMin=11 ErrMin= 1.49D-07
 ErrMax= 1.49D-07  0.00D+00 EMaxC= 1.00D-01 BMatC= 9.48D-11 BMatP= 1.17D-09
 IDIUse=1 WtCom= 1.00D+00 WtEn= 0.00D+00
 Coeff-Com:  0.788D-05-0.168D-04-0.905D-04-0.211D-03-0.747D-03-0.968D-03
 Coeff-Com:  0.343D-02 0.231D-01 0.103D+00 0.286D+00 0.586D+00
 Coeff:      0.788D-05-0.168D-04-0.905D-04-0.211D-03-0.747D-03-0.968D-03
 Coeff:      0.343D-02 0.231D-01 0.103D+00 0.286D+00 0.586D+00
 Gap=     0.267 Goal=   None    Shift=    0.000
 RMSDP=6.88D-08 MaxDP=1.28D-05 DE=-7.08D-10 OVMax= 9.20D-07

 Cycle  12  Pass 1  IDiag  1:
 RMSU=  4.86D-08    CP:  9.04D-01  1.03D+00  8.69D-01  6.03D-01  7.64D-01
                    CP:  7.25D-01  8.39D-01  8.61D-01  8.12D-01  7.72D-01
                    CP:  7.54D-01
 E= -2159.39495326646     Delta-E=       -0.000000000183 Rises=F Damp=F
 DIIS: error= 5.00D-08 at cycle  12 NSaved=  12.
 NSaved=12 IEnMin=12 EnMin= -2159.39495326646     IErMin=12 ErrMin= 5.00D-08
 ErrMax= 5.00D-08  0.00D+00 EMaxC= 1.00D-01 BMatC= 7.86D-12 BMatP= 9.48D-11
 IDIUse=1 WtCom= 1.00D+00 WtEn= 0.00D+00
 Coeff-Com:  0.101D-06 0.122D-06-0.102D-04-0.261D-04-0.110D-03-0.305D-03
 Coeff-Com: -0.986D-03-0.105D-02 0.905D-02 0.592D-01 0.264D+00 0.670D+00
 Coeff:      0.101D-06 0.122D-06-0.102D-04-0.261D-04-0.110D-03-0.305D-03
 Coeff:     -0.986D-03-0.105D-02 0.905D-02 0.592D-01 0.264D+00 0.670D+00
 Gap=     0.267 Goal=   None    Shift=    0.000
 RMSDP=2.23D-08 MaxDP=4.35D-06 DE=-1.83D-10 OVMax= 2.78D-07

 Cycle  13  Pass 1  IDiag  1:
 RMSU=  1.32D-08    CP:  9.04D-01  1.03D+00  8.69D-01  6.03D-01  7.64D-01
                    CP:  7.25D-01  8.39D-01  8.60D-01  8.16D-01  7.75D-01
                    CP:  7.77D-01  8.25D-01
 E= -2159.39495326647     Delta-E=       -0.000000000014 Rises=F Damp=F
 DIIS: error= 1.33D-08 at cycle  13 NSaved=  13.
 NSaved=13 IEnMin=13 EnMin= -2159.39495326647     IErMin=13 ErrMin= 1.33D-08
 ErrMax= 1.33D-08  0.00D+00 EMaxC= 1.00D-01 BMatC= 5.48D-13 BMatP= 7.86D-12
 IDIUse=1 WtCom= 1.00D+00 WtEn= 0.00D+00
 Coeff-Com: -0.390D-06 0.981D-06 0.554D-06 0.424D-06-0.524D-05-0.717D-04
 Coeff-Com: -0.601D-03-0.178D-02-0.212D-02 0.926D-02 0.812D-01 0.300D+00
 Coeff-Com:  0.614D+00
 Coeff:     -0.390D-06 0.981D-06 0.554D-06 0.424D-06-0.524D-05-0.717D-04
 Coeff:     -0.601D-03-0.178D-02-0.212D-02 0.926D-02 0.812D-01 0.300D+00
 Coeff:      0.614D+00
 Gap=     0.267 Goal=   None    Shift=    0.000
 RMSDP=6.16D-09 MaxDP=1.23D-06 DE=-1.36D-11 OVMax= 9.73D-08

 Cycle  14  Pass 1  IDiag  1:
 RMSU=  3.70D-09    CP:  9.04D-01  1.03D+00  8.69D-01  6.03D-01  7.64D-01
[...]
 0.00002699,-0.00008222,-0.00004013,0.00001720,0.00168624,-0.00013127,0
 .00140141,-0.11506062,-0.08482401,0.17538831,-0.00173885,0.00031257,-0
 .00010573,-0.00001184,-0.00000495,0.00000235,-0.00001221,0.00002216,0.
 00000101,-0.00000871,0.00000487,0.00000673,-0.00001243,0.00000576,0.00
 000403,-0.00000619,-0.00000477,-0.00000043,-0.00000092,0.00000176,-0.0
 0000433,-0.00000532,0.00000193,0.00000560,0.00001682,0.00000714,0.0000
 0513,0.00003549,-0.00002218,-0.00002788,0.00003814,-0.00000210,0.00000
 536,0.00003544,0.00001383,0.00010808,-0.00000821,-0.00000492,-0.000005
 14,-0.00004088,0.00005899,0.00006762,-0.00007509,-0.00006073,0.0001431
 4,-0.00012239,-0.00027305,-0.00024301,0.00001034,-0.00004496,0.0000142
 6,0.00000039,-0.00000752,-0.00000306,-0.00000289,-0.00000020,-0.000001
 43,-0.00000309,0.00000003,-0.00000168,0.00001813,0.00002322,0.00001081
 ,-0.00002647,-0.00021146,0.00010875,-0.00018367,0.00096462,0.00024646,
 -0.00020067,-0.00014873,0.00043620,0.00004772,0.00000819,0.00003067,0.
 00000291,-0.00006277,-0.00000121,0.00001768,0.00011889,-0.00023419,-0.
 00001018,-0.00003294,0.00007591,0.00001369,-0.00001492,0.00000352,0.00
 003208,-0.00001116,0.00000584,0.00002660,-0.00000359,-0.00000395,-0.00
 001603,0.00000109,0.00000309,0.00002044,-0.00000255,0.00004171,-0.0000
 0009,0.00000038,0.00000256,0.00000723,-0.00002356,-0.00003026,-0.00000
 235,-0.00001025,0.00001207,-0.00000954,0.00000641,0.00001592,0.0000030
 1,-0.00000035,0.00000506,0.00001148,0.00001047,-0.00001809,0.00001810,
 0.00000756,-0.00011477,0.00014433,0.00014172,-0.00000322,0.00004997,-0
 .00004934,-0.00003528,0.00037758,-0.00117054,0.00111506,0.10915537,-0.
 00006240,-0.00012771,-0.00003223,0.00008915,0.00025975,0.00011612,-0.0
 0009316,0.00003877,-0.00012779,0.00006086,0.00008019,-0.00004886,-0.00
 000308,0.00000318,-0.00001650,0.00004982,0.00005315,0.00002083,-0.0000
 2604,0.00002529,0.00000260,0.00000847,-0.00004417,-0.00001645,0.000007
 15,-0.00004837,0.00004013,-0.00006066,-0.00007978,0.00013411,-0.000049
 38,-0.00012197,0.00022871,-0.00012440,-0.00026050,-0.00015422,0.000147
 88,0.00003112,0.00009770,-0.00001024,0.00052137,0.00001079,-0.00000152
 ,-0.00036588,0.00004988,0.00034308,-0.00023458,-0.00045932,-0.00007000
 ,-0.00012606,0.00031625,0.00008347,0.00000851,-0.00035964,-0.00014218,
 0.00005321,0.00011355,0.00006237,0.00001158,0.00003543,-0.00005186,-0.
 00007045,-0.00006389,0.00038008,0.00035290,-0.00043591,0.00284833,-0.0
 0239882,-0.00035064,-0.00639667,-0.01366081,0.02370995,-0.00025504,0.0
 0291293,-0.00066829,-0.00004000,-0.00012773,0.00030183,-0.00012559,-0.
 00022588,0.00002949,-0.00027090,0.00017429,0.00114826,0.00029041,-0.00
 014374,0.00005627,-0.00006735,-0.00000962,-0.00012108,-0.00036841,-0.0
 0015441,-0.00014852,0.00005168,-0.00002664,-0.00002687,-0.00001113,0.0
 0000650,0.00000037,-0.00001741,0.00001677,-0.00000805,0.00000294,-0.00
 000106,-0.00000224,0.00000971,0.00000038,0.00000919,-0.00003330,-0.000
 06540,-0.00002372,0.00054733,-0.00211695,0.00046908,-0.05780364,-0.112
 07294,0.17483822,0.00014641,-0.00017930,-0.00042865,-0.00000154,-0.000
 01970,-0.00000971,0.00000785,0.00002100,-0.00002817,-0.00001408,-0.000
 00340,0.00000734,-0.00000165,-0.00000182,0.00000227,0.00000127,-0.0000
 0700,-0.00000577,-0.00000349,-0.00000204,-0.00000613,0.00000357,-0.000
 00623,0.00000643,0.00001136,0.00001903,0.00001628,-0.00001249,0.000022
 25,-0.00004758,0.00002527,-0.00000726,-0.00009193,0.00014194,0.0001506
 1,-0.00008772,-0.00001257,-0.00001927,-0.00004276,0.00007548,-0.000072
 34,-0.00006227,0.00002462,0.00016833,-0.00005156,-0.00010998,0.0002996
 0,0.00041864,-0.00002373,0.00003853,-0.00000271,0.00001738,-0.00001506
 ,-0.00000267,-0.00000600,-0.00000264,0.00000484,-0.00000440,-0.0000053
 7,-0.00001756,0.00002098,0.00008632,0.00003091,0.00007190,0.00012784,-
 0.00007481,-0.00057727,-0.00033900,0.00032588,-0.00019565,-0.00018112,
 -0.00036017,0.00012172,-0.00012353,0.00002346,-0.00004791,-0.00004996,
 -0.00002800,-0.00002574,-0.00003625,0.00005471,0.00000356,-0.00000990,
 0.00001106,0.00001278,-0.00000060,0.00004641,0.00000979,-0.00000573,-0
 .00000281,-0.00002280,0.00000050,-0.00000429,0.00000226,-0.00000763,0.
 00001100,-0.00000135,-0.00000351,-0.00000826,-0.00000902,-0.00000162,-
 0.00000233,0.00001012,0.00000721,0.00000273,-0.00000128,-0.00000138,0.
 00000411,-0.00000038,-0.00000504,-0.00000716,-0.00000126,0.00000249,-0
 .00000033,0.00000433,-0.00000474,0.00000033,0.00001013,0.00004907,0.00
 000809,0.00007356,0.00008508,0.00003372,-0.00001573,0.00006055,0.00000
 252,-0.00046871,0.00015170,-0.00052123,0.06323800,0.12777461,0.0000333
 4,-0.00000383,0.00009929,-0.00001861,0.00001017,-0.00010262,0.00007180
 ,-0.00003835,-0.00008066,-0.00003209,-0.00003252,-0.00001656,0.0000266
 0,-0.00000574,-0.00003720,-0.00001214,-0.00003534,-0.00004983,0.000004
 19,-0.00000639,-0.00002640,-0.00000110,0.00000403,0.00004809,-0.000009
 51,0.00003412,0.00006977,0.00000062,0.00006957,0.00005021,-0.00007379,
 0.00004333,0.00012814,-0.00004394,-0.00000553,0.00007220,0.00002325,0.
 00003215,0.00000431,0.00011617,0.00003210,-0.00004184,-0.00014853,0.00
 003444,0.00005997,0.00014076,-0.00010479,-0.00037055,0.00037837,-0.000
 03106,-0.00037137,-0.00010533,-0.00000069,0.00021693,0.00009044,-0.000
 02374,-0.00006068,0.00000710,0.00002448,-0.00002311,-0.00002404,-0.000
 02042,0.00005503,-0.00022699,-0.00060794,0.00076179,-0.00319798,0.0019
 1980,-0.00032711,0.00383286,0.00773386,-0.01441144,0.00027946,-0.00037
 782,0.00097559,-0.00004279,0.00092935,-0.00135803,-0.00013343,-0.00021
 848,0.00020801,0.00081366,0.00042109,-0.00054166,-0.00028125,0.0001964
 2,0.00003511,0.00000626,-0.00008578,0.00007493,0.00105750,-0.00017028,
 0.00034540,-0.00028768,0.00018877,0.00001877,0.00007764,-0.00002109,0.
 00000560,-0.00002052,-0.00000219,-0.00000972,0.00000880,-0.00000323,-0
 .00000468,-0.00005267,0.00001987,-0.00001897,0.00003365,-0.00000170,0.
 00003379,0.00058525,-0.00069291,-0.00065741,0.13904601,0.19105472,-0.3
 4241210,-0.00134589,0.00001760,0.00035121,-0.00001264,-0.00000571,0.00
 001407,-0.00004674,0.00001736,-0.00002852,-0.00000267,0.00001238,0.000
 01359,0.00000297,0.00000685,0.00001349,-0.00000578,0.00000677,0.000004
 16,0.00000523,0.00000329,-0.00000050,-0.00000652,-0.00000404,0.0000029
 3,-0.00000453,0.00000595,-0.00002511,-0.00001910,-0.00002743,-0.000038
 03,0.00000836,-0.00006574,-0.00002552,0.00010312,-0.00001618,-0.000071
 83,-0.00000475,0.00000747,0.00001697,-0.00001265,-0.00001733,-0.000000
 85,0.00011701,-0.00003924,0.00001435,0.00016391,0.00017052,-0.00015115
 ,-0.00005162,-0.00000840,0.00002471,-0.00002065,-0.00000570,0.00000099
 ,0.00000487,-0.00000512,-0.00000208,-0.00000366,0.00000661,0.00001159,
 0.00000514,0.00001306,-0.00002570,0.00001396,-0.00012552,0.00032009,0.
 00097658,-0.00108645,0.00103543,-0.00041416,-0.00026439,-0.00057685,0.
 00016478,-0.00014574,0.00009744,-0.00004146,0.00004317,-0.00000771,0.0
 0005349,0.00002199,-0.00007460,-0.00001106,0.00000439,0.00001967,0.000
 01992,0.00000624,-0.00005265,0.00000906,-0.00002932,0.00001176,0.00006
 779,0.00000587,0.00002273,-0.00001627,0.00001292,-0.00001673,0.0000205
 7,-0.00000486,0.00003957,0.00001316,0.00000153,0.00000406,-0.00000077,
 -0.00002536,-0.00001017,0.00000638,-0.00000614,0.00000571,-0.00000815,
 0.00000539,0.00000518,0.00000579,-0.00000042,0.00000497,0.00000594,0.0
 0000403,-0.00000849,-0.00004617,-0.00000679,-0.00008087,0.00000574,0.0
 0001741,-0.00003705,0.00000714,-0.00002399,-0.00003452,-0.00017355,-0.
 00011681,-0.00017558,-0.14341479,-0.19853707,0.35676700,-0.00037115,-0
 .00010674,-0.00033716,0.00044173,0.00048717,0.00057363,0.00026238,-0.0
 0014962,-0.00001853,0.00004479,0.00011803,-0.00000548,0.00017743,-0.00
 008299,-0.00009487,0.00011708,0.00017452,0.00009916,0.00006997,-0.0001
 2635,-0.00003352,-0.00013228,0.00009186,0.00006465,-0.00024225,0.00012
 215,0.00012117,-0.00015511,-0.00009031,0.00007971,-0.00042095,-0.00014
 500,-0.00011348,-0.00060835,-0.00058702,-0.00048340,0.00164821,-0.0003
 2814,-0.00032425,-0.00194506,0.00056433,-0.00351452,0.00011343,-0.0005
 7060,-0.00039272,0.01415033,0.00157557,-0.01153234,0.00337541,-0.00203
 149,-0.00275791,-0.00140104,0.00143468,-0.00106500,-0.00015477,-0.0002
 9869,0.00031926,0.00029770,0.00016641,0.00025050,-0.00048641,-0.000052
 17,-0.00005371,-0.00277362,-0.00035349,0.00163493,0.00111923,0.0006598
 2,-0.00134036,-0.00415839,0.00635795,-0.00408652,0.00099682,-0.0017473
 3,0.00063714,-0.00035433,0.00090747,-0.00121722,-0.00017223,-0.0002830
 8,0.00058454,-0.00044278,0.00003719,0.00038074,0.00043301,-0.00021750,
 -0.00045951,-0.00044748,0.00020659,0.00056090,0.00123179,-0.00015800,0
 .00058291,-0.00049327,0.00025338,-0.00011262,0.00008791,-0.00003072,0.
 00002246,-0.00002167,-0.00002893,-0.00000729,0.00001991,0.00000450,-0.
 00002219,-0.00002199,0.00000491,0.00000207,-0.00002516,0.00007437,0.00
 008588,0.00078904,0.00002055,0.00007028,0.00325778,-0.00173255,0.00204
 004,-0.33351433,-0.02014452,0.23925926,-0.00004635,-0.00001601,-0.0000
 0468,-0.00005958,0.00004380,-0.00000651,-0.00001834,0.00001892,0.00001
 611,-0.00003812,0.00000724,0.00001024,-0.00001404,-0.00001605,-0.00000
 798,-0.00001431,0.00001189,-0.00001271,-0.00001253,0.00000851,0.000020
 75,0.00007657,-0.00000918,-0.00000596,0.00006088,-0.00003369,-0.000040
 73,0.00007057,0.00001303,-0.00003739,0.00040515,0.00035516,0.00013893,
 -0.00019988,-0.00005171,-0.00054503,0.00002668,0.00021293,0.00008464,-
 0.00060701,0.00044331,0.00051079,-0.00058804,-0.00084698,-0.00277416,-
 0.00018270,-0.00020262,0.00021991,-0.00003381,-0.00003472,0.00001805,-
 0.00003365,0.00001964,-0.00004521,-0.00004945,-0.00001968,0.00001049,0
 .00010339,0.00001898,0.00005506,0.00009834,-0.00005748,0.00002680,0.00
 062816,-0.00074194,0.00021357,-0.00012752,0.00002925,0.00001541,0.0000
 5058,-0.00001379,0.00008104,-0.00003286,0.00007089,-0.00002724,-0.0000
 3210,-0.00002811,0.00014719,0.00002822,-0.00003032,0.00001835,0.000563
 39,-0.00008443,-0.00021486,0.00001509,-0.00001914,0.00002157,0.0000817
 7,-0.00000099,0.00001617,-0.00002999,0.00001589,-0.00003093,0.00003350
 ,0.00000244,0.00005504,0.00000953,0.00000653,0.00000916,-0.00000068,-0
 .00003639,-0.00003218,0.00000312,-0.00001200,0.00001090,-0.00000842,0.
 00001762,0.00002224,0.00002118,-0.00000481,0.00000953,0.00000093,0.000
 01905,-0.00002738,-0.00003185,-0.00007183,-0.00019071,0.00004914,-0.00
 001945,-0.00011111,0.00012953,-0.00016152,-0.00008997,-0.00013106,-0.0
 0015644,0.00015160,0.00144558,-0.00137563,0.00196126,0.31809964,-0.000
 02624,-0.00012874,0.00004170,0.00004269,0.00016954,0.00002329,-0.00010
 729,0.00005647,-0.00019521,0.00000941,0.00001754,-0.00001325,-0.000003
 95,0.00001586,-0.00002285,0.00004075,0.00003036,0.00000598,-0.00002190
 ,0.00002922,-0.00000349,0.00000565,-0.00004485,-0.00000586,0.00001917,
 -0.00003201,0.00004055,-0.00001336,-0.00003195,0.00008069,0.00000616,-
 0.00006376,0.00031855,-0.00021940,-0.00026613,0.00024281,0.00097914,-0
 .00009524,-0.00055340,-0.00041670,-0.00006919,-0.00302407,-0.00057690,
 -0.00009097,-0.00038038,0.00054270,-0.00066145,-0.00041709,-0.00139287
 ,0.00028348,0.00415400,0.00041468,-0.00042398,-0.00064212,-0.00013549,
 0.00002349,0.00013782,0.00015170,0.00001525,0.00002152,-0.00010076,-0.
 00010178,-0.00006522,-0.00119642,0.00010040,-0.00190499,0.00199150,0.0
 0109129,0.00042642,0.00064880,0.00229403,-0.00131911,0.00044506,-0.000
 49237,0.00021950,0.00008821,0.00040475,-0.00038129,-0.00038716,-0.0002
 1520,0.00013750,0.00005882,-0.00006298,0.00005585,0.00007405,0.0000403
 8,0.00003236,-0.00008557,-0.00010280,-0.00005161,0.00016277,-0.0001242
 5,0.00011972,-0.00005528,0.00005091,-0.00000902,0.00002256,0.00000185,
 -0.00000126,-0.00001250,0.00000186,-0.00000332,0.00000562,0.00000183,-
 0.00000404,-0.00000057,0.00000497,0.00000601,-0.00003364,-0.00006287,-
 0.00000746,0.00006760,-0.00019880,0.00011695,0.00065440,-0.00570572,0.
 00211260,-0.02097412,-0.01145246,0.01876733,-0.00000931,0.00000842,0.0
 0000592,-0.00002484,-0.00000395,-0.00002179,-0.00000455,0.00000571,0.0
 0000616,0.00000321,-0.00000337,0.00000853,0.00000054,-0.00000266,-0.00
 000399,-0.00000129,-0.00000287,-0.00000440,0.00000242,-0.00000597,0.00
 000787,0.00001537,0.00002426,0.00001262,-0.00001770,0.00000869,-0.0000
 2970,-0.00000913,-0.00002187,-0.00005324,0.00017980,0.00005773,-0.0002
 6363,-0.00013607,-0.00001823,-0.00032140,-0.00009618,0.00000821,0.0000
 7055,0.00057488,0.00093860,0.00009151,0.00087799,0.00058976,-0.0007724
 3,-0.00020536,-0.00017852,0.00022935,0.00003780,0.00000065,-0.00001224
 ,-0.00000900,-0.00000596,0.00000941,-0.00002404,0.00000347,-0.00002752
 ,0.00003035,0.00012398,0.00001738,-0.00020477,-0.00015373,-0.00017410,
 0.00065768,-0.00041078,0.00003350,-0.00010079,-0.00004254,-0.00002625,
 0.00002137,-0.00001824,0.00002280,0.00005651,-0.00002851,-0.00001855,-
 0.00002377,-0.00001461,0.00000232,-0.00000043,-0.00005497,0.00005715,0
 .00005160,0.00001574,0.00003082,0.00000340,-0.00000554,-0.00000250,0.0
 0000795,-0.00000273,0.00000367,-0.00000317,-0.00000283,0.00000405,0.00
 000336,-0.00000210,0.00000857,-0.00000274,-0.00000130,0.00000031,0.000
 00595,-0.00000264,-0.00000220,-0.00000045,-0.00000221,0.00000368,-0.00
 000318,-0.00000232,-0.00000014,0.00000083,0.00000229,0.00000157,0.0000
 0747,-0.00000154,-0.00000247,-0.00000136,0.00002531,-0.00001261,0.0000
 8044,0.00010552,0.00001103,-0.00001459,0.00003881,-0.00000475,-0.00005
 810,0.00001518,0.00003023,-0.00107302,-0.00001971,-0.00008149,0.018733
 63,0.01483138,0.00019443,0.00009791,0.00025766,-0.00025413,-0.00033607
 ,-0.00035352,-0.00006411,0.00004302,-0.00006131,-0.00005983,-0.0001096
 3,0.00000697,-0.00005582,0.00003405,0.00001520,-0.00007132,-0.00012614
 ,-0.00009493,-0.00001233,0.00003355,-0.00001352,0.00005108,-0.00001112
 ,0.00002928,0.00009864,-0.00000792,-0.00000719,0.00008729,0.00011296,-
 0.00003421,0.00017660,0.00017047,0.00013540,0.00011192,0.00039351,0.00
 078918,0.00152132,-0.00074616,-0.00078597,-0.00351223,0.00092730,-0.00
 619740,-0.00020288,0.00071388,0.00110060,0.03008365,0.00124145,-0.0360
 3598,-0.00024008,0.00152617,-0.00196828,0.00008968,-0.00047604,0.00125
 145,0.00041929,-0.00024358,-0.00025303,-0.00013852,0.00002534,-0.00011
 466,0.00015193,0.00003767,0.00013417,0.00134180,-0.00029689,0.00067806
 ,-0.00152105,-0.00031556,0.00006939,0.00042609,-0.00217417,0.00101920,
 -0.00051014,0.00052707,-0.00019368,-0.00016137,-0.00035689,0.00053710,
 0.00042211,0.00017706,-0.00026696,-0.00015925,-0.00000360,-0.00024135,
 -0.00009710,0.00005972,0.00004922,0.00020001,-0.00003841,-0.00002412,-
 0.00013838,0.00010109,-0.00016961,0.00003773,-0.00003761,0.00003105,-0
 .00002164,-0.00000420,0.00000101,0.00000590,0.00001217,-0.00000165,-0.
 00000704,-0.00000764,0.00001045,-0.00004582,0.00001578,-0.00003323,0.0
 0008711,0.00002423,0.00000980,0.00006168,0.00012307,-0.00025527,-0.001
 55216,0.00193277,-0.00536898,0.18933931,0.01462824,-0.20279997,-0.0000
 0709,0.00004546,0.00003843,-0.00002672,-0.00002651,-0.00000202,0.00001
 030,0.00000467,0.00000168,0.00002121,0.00000310,0.00000685,0.00000058,
 0.00001787,0.00000949,0.00001170,-0.00000024,0.00000757,-0.00000247,-0
 .00000552,-0.00000757,-0.00004017,-0.00000261,-0.00003521,-0.00004069,
 -0.00001012,0.00000488,-0.00003388,-0.00005499,0.00002025,-0.00015724,
 -0.00030176,-0.00015042,-0.00020694,0.00011834,-0.00035375,-0.00021130
 ,0.00020466,0.00019671,0.00035916,-0.00101080,-0.00031277,0.00089990,-
 0.00056495,0.00217485,0.00003767,-0.00001119,-0.00005267,-0.00003048,0
 .00004609,0.00000010,0.00000572,0.00000496,-0.00000573,0.00001885,0.00
 000934,0.00005950,-0.00003227,-0.00004932,-0.00007083,-0.00011602,0.00
 003997,-0.00023841,0.00005486,0.00008058,0.00001886,0.00002574,-0.0000
 3595,-0.00004007,0.00000425,0.00000016,-0.00003864,0.00007927,-0.00007
 238,0.00002944,0.00004397,0.00000271,0.00000329,-0.00002859,0.00006526
 ,-0.00003795,-0.00017462,0.00003744,-0.00003662,-0.00000607,-0.0000058
 6,-0.00000189,-0.00000640,0.00000689,-0.00000270,0.00000160,0.00000787
 ,-0.00000362,0.00000214,0.00000034,-0.00000951,0.00000703,0.00000078,-
 0.00000284,-0.00000104,-0.00000281,0.00001105,0.00000714,0.00000201,-0
 .00000369,-0.00000024,-0.00000079,-0.00000708,-0.00000378,0.00000081,-
 0.00000068,-0.00000318,-0.00000476,0.00000691,-0.00003254,-0.00000749,
 0.00003837,-0.00011088,-0.00009034,-0.00001522,-0.00004376,0.00002459,
 0.00001264,0.00003905,0.00000098,-0.00000727,0.00264053,0.00075637,0.0
 0030181,-0.21903668,-0.01688974,0.24764414\\-0.00000967,0.00000040,0.0
 0000280,0.00000031,0.00000367,-0.00000931,0.00000091,0.00000211,-0.000
 00520,-0.00000980,0.00000324,-0.00000656,0.00000463,-0.00000021,-0.000
 00530,-0.00000843,0.00000534,-0.00001116,-0.00000521,-0.00000193,-0.00
 000653,-0.00000655,0.00001472,0.00001003,0.00000073,-0.00001725,0.0000
 0130,0.00000058,0.00000472,-0.00000591,0.00000165,-0.00000142,-0.00000
 758,-0.00000020,0.00000365,0.00000053,-0.00000046,-0.00000103,-0.00000
 440,-0.00000031,-0.00000003,0.00000199,0.00000443,-0.00000476,-0.00000
 834,0.00001371,-0.00000487,-0.00000733,0.00000152,-0.00000808,-0.00001
 529,0.00000776,0.00000218,-0.00000257,0.00000178,-0.00000230,-0.000001
 54,0.00000527,0.00000616,0.00000150,-0.00000390,0.00000419,-0.00000390
 ,-0.00000357,-0.00000536,0.00001778,0.00000182,0.00000480,-0.00001055,
 -0.00000146,-0.00000790,0.00000852,0.00000562,-0.00000161,0.00000555,0
 .00002315,0.00000908,0.00000138,0.00000281,0.00000027,0.00001999,-0.00
 000393,-0.00001000,0.00000446,-0.00000693,0.00000142,-0.00000624,-0.00
 001913,-0.00001683,0.00002061,-0.00000088,-0.00001449,-0.00001546,-0.0
 0000113,0.00000198,0.00001532,-0.00000405,0.00000567,0.00001186,0.0000
 0295,-0.00000912,0.00001031,-0.00000183,0.00000385,0.00000221,0.000000
 43,0.00000378,0.00000428,-0.00000550,0.00001514,0.00000328,0.00000486,
 -0.00000655,0.00000207,-0.00000027,-0.00000079,0.00000121,0.00000499,-
 0.00000279,-0.00000376,-0.00000034,0.00000095,-0.00000539,0.00000092,0
 .00000072,-0.00000062,0.00000067,0.00000292,-0.00000830,-0.00000548,0.
 00000274,-0.00000112,-0.00000430,0.00000452,-0.00000495,-0.00000636,0.
 00000743,-0.00000324,-0.00000633,0.00000677,-0.00000036,-0.00000614,0.
 00000201,-0.00000406,-0.00000043,0.00000291,-0.00000561,-0.00000008,-0
 .00000117,-0.00000916,0.00000033,0.00000041,-0.00000823,-0.00000220,0.
 00000319,-0.00000903,0.00000205,-0.00000223,-0.00000819,0.00000249,-0.
 00000125,-0.00000993,0.00000726,-0.00000060,-0.00000575,-0.00000150,-0
 .00000002,-0.00000458,-0.00000032,0.00000056,-0.00000673,-0.00000088,0
 .00000350,0.00000099,-0.00000524,0.00000325,-0.00000239,-0.00000779,-0
 .00000110,0.00000165,-0.00000102,-0.00000049,0.00000087,0.00000650,-0.
 00000442,0.00000272,0.00000447,-0.00000422,0.00000083,0.00000247,-0.00
 000624,0.00000552,0.00000304,-0.00000441,0.00000444,0.00000184,0.00000
 311,0.00000434,-0.00000051,-0.00000148,0.00000490,0.00000726,0.0000123
 5,-0.00000456,0.00000319,-0.00000404,0.00000851,0.00000153,-0.00000272
 ,0.00000702,-0.00000234,-0.00000136,0.00001120,0.00000084,0.00000027,0
 .00000996,-0.00000004,0.00000039,0.00000781,0.00000114,0.00000089,0.00
 000396,-0.00000157,0.00000168,0.00000469,-0.00000228,0.00000235,0.0000
 0472,-0.00000482,0.00000089,0.00000359,-0.00000174,-0.00000094,0.00000
 817,-0.00000454,-0.00000137,0.00000384,0.00000400,0.00001187,-0.000000
 03,-0.00000140,-0.00000044,0.00000026,0.00000687,-0.00000448,0.0000013
 7,0.00000781,-0.00000540,-0.00000339,0.00000627,-0.00000637,-0.0000058
 2\\\@


 CHARLIE BROWN -- WHICH DO YOU THINK LASTS LONGER IN LIFE, THE GOOD THINGS 
                  OR THE BAD THINGS?
 LINUS --         GOOD THINGS LAST EIGHT SECONDS ..
                  BAD THINGS LAST THREE WEEKS
 CHARLIE BROWN -- WHAT ABOUT IN BETWEEN?
 SNOOPY --        IN BETWEEN YOU SHOULD TAKE A NAP ...
 Job cpu time:      21 days 20 hours 34 minutes  6.9 seconds.
 File lengths (MBytes):  RWF=  17325 Int=      0 D2E=      0 Chk=     97 Scr=      1
 Normal termination of Gaussian 09 at Fri Mar 25 11:39:51 2016.
