 Entering Gaussian System, Link 0=g16
 Input=input.com
 Output=input.log
 Initial command:
 /home/matma/Programs/gaussian/G16_x86_SSE4/tar/g16/l1.exe "/scratch-data/gaussian/Gau-25239.inp" -scrdir="/scratch-data/gaussian/"
 Entering Link 1 = /home/matma/Programs/gaussian/G16_x86_SSE4/tar/g16/l1.exe PID=     25241.
  
 Copyright (c) 1988-2017, Gaussian, Inc.  All Rights Reserved.
  
 This is part of the Gaussian(R) 16 program.  It is based on
 the Gaussian(R) 09 system (copyright 2009, Gaussian, Inc.),
 the Gaussian(R) 03 system (copyright 2003, Gaussian, Inc.),
 the Gaussian(R) 98 system (copyright 1998, Gaussian, Inc.),
 the Gaussian(R) 94 system (copyright 1995, Gaussian, Inc.),
 the Gaussian 92(TM) system (copyright 1992, Gaussian, Inc.),
 the Gaussian 90(TM) system (copyright 1990, Gaussian, Inc.),
 the Gaussian 88(TM) system (copyright 1988, Gaussian, Inc.),
 the Gaussian 86(TM) system (copyright 1986, Carnegie Mellon
 University), and the Gaussian 82(TM) system (copyright 1983,
 Carnegie Mellon University). Gaussian is a federally registered
 trademark of Gaussian, Inc.
  
 This software contains proprietary and confidential information,
 including trade secrets, belonging to Gaussian, Inc.
  
 This software is provided under written license and may be
 used, copied, transmitted, or stored only in accord with that
 written license.
  
 The following legend is applicable only to US Government
 contracts under FAR:
  
                    RESTRICTED RIGHTS LEGEND
  
 Use, reproduction and disclosure by the US Government is
 subject to restrictions as set forth in subparagraphs (a)
 and (c) of the Commercial Computer Software - Restricted
 Rights clause in FAR 52.227-19.
  
 Gaussian, Inc.
 340 Quinnipiac St., Bldg. 40, Wallingford CT 06492
  
  
 ---------------------------------------------------------------
 Warning -- This program may not be used in any manner that
 competes with the business of Gaussian, Inc. or will provide
 assistance to any competitor of Gaussian, Inc.  The licensee
 of this program is prohibited from giving any competitor of
 Gaussian, Inc. access to this program.  By using this program,
 the user acknowledges that Gaussian, Inc. is engaged in the
 business of creating and licensing software in the field of
 computational chemistry and represents and warrants to the
 licensee that it is not a competitor of Gaussian, Inc. and that
 it will not use this program in any manner prohibited above.
 ---------------------------------------------------------------
  

 Cite this work as:
 Gaussian 16, Revision B.01,
 M. J. Frisch, G. W. Trucks, H. B. Schlegel, G. E. Scuseria, 
 M. A. Robb, J. R. Cheeseman, G. Scalmani, V. Barone, 
 G. A. Petersson, H. Nakatsuji, X. Li, M. Caricato, A. V. Marenich, 
 J. Bloino, B. G. Janesko, R. Gomperts, B. Mennucci, H. P. Hratchian, 
 J. V. Ortiz, A. F. Izmaylov, J. L. Sonnenberg, D. Williams-Young, 
 F. Ding, F. Lipparini, F. Egidi, J. Goings, B. Peng, A. Petrone, 
 T. Henderson, D. Ranasinghe, V. G. Zakrzewski, J. Gao, N. Rega, 
 G. Zheng, W. Liang, M. Hada, M. Ehara, K. Toyota, R. Fukuda, 
 J. Hasegawa, M. Ishida, T. Nakajima, Y. Honda, O. Kitao, H. Nakai, 
 T. Vreven, K. Throssell, J. A. Montgomery, Jr., J. E. Peralta, 
 F. Ogliaro, M. J. Bearpark, J. J. Heyd, E. N. Brothers, K. N. Kudin, 
 V. N. Staroverov, T. A. Keith, R. Kobayashi, J. Normand, 
 K. Raghavachari, A. P. Rendell, J. C. Burant, S. S. Iyengar, 
 J. Tomasi, M. Cossi, J. M. Millam, M. Klene, C. Adamo, R. Cammi, 
 J. W. Ochterski, R. L. Martin, K. Morokuma, O. Farkas, 
 J. B. Foresman, and D. J. Fox, Gaussian, Inc., Wallingford CT, 2016.
 
 ******************************************
 Gaussian 16:  ES64L-G16RevB.01 20-Dec-2017
                22-Jun-2021 
 ******************************************
 %nproc=12
 Will use up to   12 processors via shared memory.
 %mem=16GB
 --------------------------------------
 #P pm6 opt=loose freq int=(grid=99590)
 --------------------------------------
 1/7=-1,18=20,19=15,26=1,38=1/1,3;
 2/9=110,12=2,17=6,18=5,40=1/2;
 3/5=2,25=1,41=3900000,71=1,75=99590/1,2,3;
 4/35=1/1;
 5/5=2,35=1,38=5/2;
 6/7=2,8=2,9=2,10=2,28=1/1;
 7//1,2,3,16;
 1/7=-1,18=20,19=15,26=1/3(2);
 2/9=110/2;
 99//99;
 2/9=110/2;
 3/5=2,25=1,41=3900000,71=1,75=99590,135=20/1,2,3;
 4/5=5,16=3,35=1/1;
 5/5=2,35=1,38=5/2;
 7//1,2,3,16;
 1/7=-1,18=20,19=15,26=1/3(-5);
 2/9=110/2;
 6/7=2,8=2,9=2,10=2,19=2,28=1/1;
 99/9=1/99;
 Leave Link    1 at Tue Jun 22 14:18:22 2021, MaxMem=  2147483648 cpu:               0.2 elap:               0.0
 (Enter /home/matma/Programs/gaussian/G16_x86_SSE4/tar/g16/l101.exe)
 ----------
 initial-04
 ----------
 Symbolic Z-matrix:
 Charge =  0 Multiplicity = 1
 O                     2.661     2.109    -0.056 
 C                     2.764     2.782     1.222 
 C                     2.872     1.758     2.371 
 O                     4.068     0.978     2.209 
 C                     1.619     0.848     2.368 
 C                     0.271     1.661     2.255 
 O                     0.31      2.703     1.263 
 C                     1.452     3.57      1.443 
 C                     1.301     4.725     0.434 
 O                     2.491     5.522     0.544 
 O                    -3.356    -3.206     3.549 
 C                    -2.857    -2.249     2.581 
 C                    -2.227    -0.931     3.112 
 C                    -1.686    -0.114     1.913 
 C                    -0.725    -0.956     1.034 
 O                    -1.332    -2.187     0.627 
 C                    -1.802    -3.005     1.704 
 C                    -2.4      -4.209     0.961 
 O                    -3.436    -3.748     0.058 
 O                    -0.52     -0.242    -0.17 
 O                    -1.048     1.038     2.472 
 O                    -3.231    -0.148     3.773 
 O                     1.668     0.084     3.58 
 H                     3.63      3.467     1.225 
 H                     2.898     2.316     3.329 
 H                     4.006     0.293     2.935 
 H                     1.708     0.189     1.487 
 H                     0.056     2.101     3.254 
 H                     1.459     3.985     2.471 
 H                     1.184     4.296    -0.58 
 H                     0.384     5.29      0.681 
 H                     2.266     6.39      0.11 
 H                    -3.693    -1.953     1.923 
 H                    -1.383    -1.175     3.79 
 H                    -2.549     0.168     1.275 
 H                     0.225    -1.147     1.585 
 H                    -0.979    -3.346     2.36 
 H                    -1.623    -4.677     0.338 
 H                    -2.78     -4.952     1.679 
 H                    -4.249    -3.616     0.622 
 H                    -3.146    -0.531     4.585 
 H                    -4.436    -3.516     3.295 
 H                     1.086    -0.708     3.393 
 H                     0.228    -0.577    -0.671 
 H                     3.47      1.657    -0.308 
 
 Add virtual bond connecting atoms H42        and O11        Dist= 2.18D+00.
 ITRead=  0  0  0  0  0  0  0  0  0  0  0  0  0  0  0  0  0  0  0  0
 ITRead=  0  0  0  0  0  0  0  0  0  0  0  0  0  0  0  0  0  0  0  0
 ITRead=  0  0  0  0  0
 MicOpt= -1 -1 -1 -1 -1 -1 -1 -1 -1 -1 -1 -1 -1 -1 -1 -1 -1 -1 -1 -1
 MicOpt= -1 -1 -1 -1 -1 -1 -1 -1 -1 -1 -1 -1 -1 -1 -1 -1 -1 -1 -1 -1
 MicOpt= -1 -1 -1 -1 -1
 NAtoms=     45 NQM=       45 NQMF=       0 NMMI=      0 NMMIF=      0
                NMic=       0 NMicF=      0.
                    Isotopes and Nuclear Properties:
 (Nuclear quadrupole moments (NQMom) in fm**2, nuclear magnetic moments (NMagM)
  in nuclear magnetons)

  Atom         1           2           3           4           5           6           7           8           9          10
 IAtWgt=          16          12          12          16          12          12          16          12          12          16
 AtmWgt=  15.9949146  12.0000000  12.0000000  15.9949146  12.0000000  12.0000000  15.9949146  12.0000000  12.0000000  15.9949146
 NucSpn=           0           0           0           0           0           0           0           0           0           0
 AtZEff=  -0.0000000  -0.0000000  -0.0000000  -0.0000000  -0.0000000  -0.0000000  -0.0000000  -0.0000000  -0.0000000  -0.0000000
 NQMom=    0.0000000   0.0000000   0.0000000   0.0000000   0.0000000   0.0000000   0.0000000   0.0000000   0.0000000   0.0000000
 NMagM=    0.0000000   0.0000000   0.0000000   0.0000000   0.0000000   0.0000000   0.0000000   0.0000000   0.0000000   0.0000000
 AtZNuc=   8.0000000   6.0000000   6.0000000   8.0000000   6.0000000   6.0000000   8.0000000   6.0000000   6.0000000   8.0000000

  Atom        11          12          13          14          15          16          17          18          19          20
 IAtWgt=          16          12          12          12          12          16          12          12          16          16
 AtmWgt=  15.9949146  12.0000000  12.0000000  12.0000000  12.0000000  15.9949146  12.0000000  12.0000000  15.9949146  15.9949146
 NucSpn=           0           0           0           0           0           0           0           0           0           0
 AtZEff=  -0.0000000  -0.0000000  -0.0000000  -0.0000000  -0.0000000  -0.0000000  -0.0000000  -0.0000000  -0.0000000  -0.0000000
 NQMom=    0.0000000   0.0000000   0.0000000   0.0000000   0.0000000   0.0000000   0.0000000   0.0000000   0.0000000   0.0000000
 NMagM=    0.0000000   0.0000000   0.0000000   0.0000000   0.0000000   0.0000000   0.0000000   0.0000000   0.0000000   0.0000000
 AtZNuc=   8.0000000   6.0000000   6.0000000   6.0000000   6.0000000   8.0000000   6.0000000   6.0000000   8.0000000   8.0000000

  Atom        21          22          23          24          25          26          27          28          29          30
 IAtWgt=          16          16          16           1           1           1           1           1           1           1
 AtmWgt=  15.9949146  15.9949146  15.9949146   1.0078250   1.0078250   1.0078250   1.0078250   1.0078250   1.0078250   1.0078250
 NucSpn=           0           0           0           1           1           1           1           1           1           1
 AtZEff=  -0.0000000  -0.0000000  -0.0000000  -0.0000000  -0.0000000  -0.0000000  -0.0000000  -0.0000000  -0.0000000  -0.0000000
 NQMom=    0.0000000   0.0000000   0.0000000   0.0000000   0.0000000   0.0000000   0.0000000   0.0000000   0.0000000   0.0000000
 NMagM=    0.0000000   0.0000000   0.0000000   2.7928460   2.7928460   2.7928460   2.7928460   2.7928460   2.7928460   2.7928460
 AtZNuc=   8.0000000   8.0000000   8.0000000   1.0000000   1.0000000   1.0000000   1.0000000   1.0000000   1.0000000   1.0000000

  Atom        31          32          33          34          35          36          37          38          39          40
 IAtWgt=           1           1           1           1           1           1           1           1           1           1
 AtmWgt=   1.0078250   1.0078250   1.0078250   1.0078250   1.0078250   1.0078250   1.0078250   1.0078250   1.0078250   1.0078250
 NucSpn=           1           1           1           1           1           1           1           1           1           1
 AtZEff=  -0.0000000  -0.0000000  -0.0000000  -0.0000000  -0.0000000  -0.0000000  -0.0000000  -0.0000000  -0.0000000  -0.0000000
 NQMom=    0.0000000   0.0000000   0.0000000   0.0000000   0.0000000   0.0000000   0.0000000   0.0000000   0.0000000   0.0000000
 NMagM=    2.7928460   2.7928460   2.7928460   2.7928460   2.7928460   2.7928460   2.7928460   2.7928460   2.7928460   2.7928460
 AtZNuc=   1.0000000   1.0000000   1.0000000   1.0000000   1.0000000   1.0000000   1.0000000   1.0000000   1.0000000   1.0000000

  Atom        41          42          43          44          45
 IAtWgt=           1           1           1           1           1
 AtmWgt=   1.0078250   1.0078250   1.0078250   1.0078250   1.0078250
 NucSpn=           1           1           1           1           1
 AtZEff=  -0.0000000  -0.0000000  -0.0000000  -0.0000000  -0.0000000
 NQMom=    0.0000000   0.0000000   0.0000000   0.0000000   0.0000000
 NMagM=    2.7928460   2.7928460   2.7928460   2.7928460   2.7928460
 AtZNuc=   1.0000000   1.0000000   1.0000000   1.0000000   1.0000000
 Leave Link  101 at Tue Jun 22 14:18:22 2021, MaxMem=  2147483648 cpu:               2.6 elap:               0.2
 (Enter /home/matma/Programs/gaussian/G16_x86_SSE4/tar/g16/l103.exe)

 GradGradGradGradGradGradGradGradGradGradGradGradGradGradGradGradGradGrad
 Berny optimization.
 Initialization pass.
                           ----------------------------
                           !    Initial Parameters    !
                           ! (Angstroms and Degrees)  !
 --------------------------                            --------------------------
 ! Name  Definition              Value          Derivative Info.                !
 --------------------------------------------------------------------------------
 ! R1    R(1,2)                  1.448          estimate D2E/DX2                !
 ! R2    R(1,45)                 0.9604         estimate D2E/DX2                !
 ! R3    R(2,3)                  1.5429         estimate D2E/DX2                !
 ! R4    R(2,8)                  1.5463         estimate D2E/DX2                !
 ! R5    R(2,24)                 1.1042         estimate D2E/DX2                !
 ! R6    R(3,4)                  1.437          estimate D2E/DX2                !
 ! R7    R(3,5)                  1.5486         estimate D2E/DX2                !
 ! R8    R(3,25)                 1.109          estimate D2E/DX2                !
 ! R9    R(4,26)                 1.0001         estimate D2E/DX2                !
 ! R10   R(5,6)                  1.5782         estimate D2E/DX2                !
 ! R11   R(5,23)                 1.4335         estimate D2E/DX2                !
 ! R12   R(5,27)                 1.1038         estimate D2E/DX2                !
 ! R13   R(6,7)                  1.4392         estimate D2E/DX2                !
 ! R14   R(6,21)                 1.4748         estimate D2E/DX2                !
 ! R15   R(6,28)                 1.1126         estimate D2E/DX2                !
 ! R16   R(7,8)                  1.4451         estimate D2E/DX2                !
 ! R17   R(8,9)                  1.5411         estimate D2E/DX2                !
 ! R18   R(8,29)                 1.1086         estimate D2E/DX2                !
 ! R19   R(9,10)                 1.4365         estimate D2E/DX2                !
 ! R20   R(9,30)                 1.1072         estimate D2E/DX2                !
 ! R21   R(9,31)                 1.105          estimate D2E/DX2                !
 ! R22   R(10,32)                0.9962         estimate D2E/DX2                !
 ! R23   R(11,12)                1.4498         estimate D2E/DX2                !
 ! R24   R(11,42)                1.152          estimate D2E/DX2                !
 ! R25   R(12,13)                1.5543         estimate D2E/DX2                !
 ! R26   R(12,17)                1.5664         estimate D2E/DX2                !
 ! R27   R(12,33)                1.1043         estimate D2E/DX2                !
 ! R28   R(13,14)                1.5485         estimate D2E/DX2                !
 ! R29   R(13,22)                1.4346         estimate D2E/DX2                !
 ! R30   R(13,34)                1.1098         estimate D2E/DX2                !
 ! R31   R(14,15)                1.5508         estimate D2E/DX2                !
 ! R32   R(14,21)                1.4306         estimate D2E/DX2                !
 ! R33   R(14,35)                1.1097         estimate D2E/DX2                !
 ! R34   R(15,16)                1.4316         estimate D2E/DX2                !
 ! R35   R(15,20)                1.4147         estimate D2E/DX2                !
 ! R36   R(15,36)                1.1147         estimate D2E/DX2                !
 ! R37   R(16,17)                1.4318         estimate D2E/DX2                !
 ! R38   R(17,18)                1.536          estimate D2E/DX2                !
 ! R39   R(17,37)                1.1063         estimate D2E/DX2                !
 ! R40   R(18,19)                1.4496         estimate D2E/DX2                !
 ! R41   R(18,38)                1.1004         estimate D2E/DX2                !
 ! R42   R(18,39)                1.1009         estimate D2E/DX2                !
 ! R43   R(19,40)                0.9982         estimate D2E/DX2                !
 ! R44   R(20,44)                0.9606         estimate D2E/DX2                !
 ! R45   R(22,41)                0.9018         estimate D2E/DX2                !
 ! R46   R(23,43)                1.0005         estimate D2E/DX2                !
 ! A1    A(2,1,45)             112.9803         estimate D2E/DX2                !
 ! A2    A(1,2,3)              110.7187         estimate D2E/DX2                !
 ! A3    A(1,2,8)              107.6155         estimate D2E/DX2                !
 ! A4    A(1,2,24)             110.2743         estimate D2E/DX2                !
 ! A5    A(3,2,8)              106.9283         estimate D2E/DX2                !
 ! A6    A(3,2,24)             110.7823         estimate D2E/DX2                !
 ! A7    A(8,2,24)             110.4213         estimate D2E/DX2                !
 ! A8    A(2,3,4)              109.5452         estimate D2E/DX2                !
 ! A9    A(2,3,5)              109.386          estimate D2E/DX2                !
 ! A10   A(2,3,25)             108.121          estimate D2E/DX2                !
 ! A11   A(4,3,5)              110.7465         estimate D2E/DX2                !
 ! A12   A(4,3,25)             110.5477         estimate D2E/DX2                !
 ! A13   A(5,3,25)             108.4408         estimate D2E/DX2                !
 ! A14   A(3,4,26)             103.789          estimate D2E/DX2                !
 ! A15   A(3,5,6)              112.8623         estimate D2E/DX2                !
 ! A16   A(3,5,23)             106.492          estimate D2E/DX2                !
 ! A17   A(3,5,27)             106.6869         estimate D2E/DX2                !
 ! A18   A(6,5,23)             111.3624         estimate D2E/DX2                !
 ! A19   A(6,5,27)             108.6188         estimate D2E/DX2                !
 ! A20   A(23,5,27)            110.724          estimate D2E/DX2                !
 ! A21   A(5,6,7)              113.5258         estimate D2E/DX2                !
 ! A22   A(5,6,21)             122.3949         estimate D2E/DX2                !
 ! A23   A(5,6,28)             107.7273         estimate D2E/DX2                !
 ! A24   A(7,6,21)             115.5627         estimate D2E/DX2                !
 ! A25   A(7,6,28)             109.7434         estimate D2E/DX2                !
 ! A26   A(21,6,28)             82.0743         estimate D2E/DX2                !
 ! A27   A(6,7,8)              111.7118         estimate D2E/DX2                !
 ! A28   A(2,8,7)              110.3021         estimate D2E/DX2                !
 ! A29   A(2,8,9)              111.8076         estimate D2E/DX2                !
 ! A30   A(2,8,29)             108.5376         estimate D2E/DX2                !
 ! A31   A(7,8,9)              106.8983         estimate D2E/DX2                !
 ! A32   A(7,8,29)             110.1867         estimate D2E/DX2                !
 ! A33   A(9,8,29)             109.0978         estimate D2E/DX2                !
 ! A34   A(8,9,10)             106.5306         estimate D2E/DX2                !
 ! A35   A(8,9,30)             108.6375         estimate D2E/DX2                !
 ! A36   A(8,9,31)             108.5519         estimate D2E/DX2                !
 ! A37   A(10,9,30)            111.879          estimate D2E/DX2                !
 ! A38   A(10,9,31)            112.7465         estimate D2E/DX2                !
 ! A39   A(30,9,31)            108.3679         estimate D2E/DX2                !
 ! A40   A(9,10,32)            105.2463         estimate D2E/DX2                !
 ! A41   A(12,11,42)           110.6773         estimate D2E/DX2                !
 ! A42   A(11,12,13)           118.1081         estimate D2E/DX2                !
 ! A43   A(11,12,17)           106.6815         estimate D2E/DX2                !
 ! A44   A(11,12,33)           108.3133         estimate D2E/DX2                !
 ! A45   A(13,12,17)           109.1186         estimate D2E/DX2                !
 ! A46   A(13,12,33)           106.446          estimate D2E/DX2                !
 ! A47   A(17,12,33)           107.7964         estimate D2E/DX2                !
 ! A48   A(12,13,14)           108.9338         estimate D2E/DX2                !
 ! A49   A(12,13,22)           109.6672         estimate D2E/DX2                !
 ! A50   A(12,13,34)           109.301          estimate D2E/DX2                !
 ! A51   A(14,13,22)           108.2589         estimate D2E/DX2                !
 ! A52   A(14,13,34)           108.8661         estimate D2E/DX2                !
 ! A53   A(22,13,34)           111.7628         estimate D2E/DX2                !
 ! A54   A(13,14,15)           111.6482         estimate D2E/DX2                !
 ! A55   A(13,14,21)           106.1479         estimate D2E/DX2                !
 ! A56   A(13,14,35)           107.9123         estimate D2E/DX2                !
 ! A57   A(15,14,21)           112.4773         estimate D2E/DX2                !
 ! A58   A(15,14,35)           107.0989         estimate D2E/DX2                !
 ! A59   A(21,14,35)           111.5217         estimate D2E/DX2                !
 ! A60   A(14,15,16)           111.4232         estimate D2E/DX2                !
 ! A61   A(14,15,20)           107.3462         estimate D2E/DX2                !
 ! A62   A(14,15,36)           109.9357         estimate D2E/DX2                !
 ! A63   A(16,15,20)           104.6826         estimate D2E/DX2                !
 ! A64   A(16,15,36)           110.7655         estimate D2E/DX2                !
 ! A65   A(20,15,36)           112.5603         estimate D2E/DX2                !
 ! A66   A(15,16,17)           114.6202         estimate D2E/DX2                !
 ! A67   A(12,17,16)           111.5            estimate D2E/DX2                !
 ! A68   A(12,17,18)           112.7632         estimate D2E/DX2                !
 ! A69   A(12,17,37)           108.5303         estimate D2E/DX2                !
 ! A70   A(16,17,18)           102.2261         estimate D2E/DX2                !
 ! A71   A(16,17,37)           112.2056         estimate D2E/DX2                !
 ! A72   A(18,17,37)           109.563          estimate D2E/DX2                !
 ! A73   A(17,18,19)           109.2869         estimate D2E/DX2                !
 ! A74   A(17,18,38)           109.4106         estimate D2E/DX2                !
 ! A75   A(17,18,39)           110.3607         estimate D2E/DX2                !
 ! A76   A(19,18,38)           106.6919         estimate D2E/DX2                !
 ! A77   A(19,18,39)           111.9765         estimate D2E/DX2                !
 ! A78   A(38,18,39)           109.0224         estimate D2E/DX2                !
 ! A79   A(18,19,40)           105.7932         estimate D2E/DX2                !
 ! A80   A(15,20,44)           112.3769         estimate D2E/DX2                !
 ! A81   A(6,21,14)            132.9635         estimate D2E/DX2                !
 ! A82   A(13,22,41)            96.7251         estimate D2E/DX2                !
 ! A83   A(5,23,43)            104.1217         estimate D2E/DX2                !
 ! D1    D(45,1,2,3)           -68.6105         estimate D2E/DX2                !
 ! D2    D(45,1,2,8)           174.8559         estimate D2E/DX2                !
 ! D3    D(45,1,2,24)           54.3547         estimate D2E/DX2                !
 ! D4    D(1,2,3,4)             62.2123         estimate D2E/DX2                !
 ! D5    D(1,2,3,5)            -59.3488         estimate D2E/DX2                !
 ! D6    D(1,2,3,25)          -177.2527         estimate D2E/DX2                !
 ! D7    D(8,2,3,4)            179.1698         estimate D2E/DX2                !
 ! D8    D(8,2,3,5)             57.6087         estimate D2E/DX2                !
 ! D9    D(8,2,3,25)           -60.2952         estimate D2E/DX2                !
 ! D10   D(24,2,3,4)           -60.458          estimate D2E/DX2                !
 ! D11   D(24,2,3,5)           177.9809         estimate D2E/DX2                !
 ! D12   D(24,2,3,25)           60.077          estimate D2E/DX2                !
 ! D13   D(1,2,8,7)             52.0281         estimate D2E/DX2                !
 ! D14   D(1,2,8,9)            -66.7778         estimate D2E/DX2                !
 ! D15   D(1,2,8,29)           172.8338         estimate D2E/DX2                !
 ! D16   D(3,2,8,7)            -66.9606         estimate D2E/DX2                !
 ! D17   D(3,2,8,9)            174.2334         estimate D2E/DX2                !
 ! D18   D(3,2,8,29)            53.8451         estimate D2E/DX2                !
 ! D19   D(24,2,8,7)           172.4366         estimate D2E/DX2                !
 ! D20   D(24,2,8,9)            53.6307         estimate D2E/DX2                !
 ! D21   D(24,2,8,29)          -66.7577         estimate D2E/DX2                !
 ! D22   D(2,3,4,26)          -174.594          estimate D2E/DX2                !
 ! D23   D(5,3,4,26)           -53.8552         estimate D2E/DX2                !
 ! D24   D(25,3,4,26)           66.3585         estimate D2E/DX2                !
 ! D25   D(2,3,5,6)            -47.7909         estimate D2E/DX2                !
 ! D26   D(2,3,5,23)          -170.2783         estimate D2E/DX2                !
 ! D27   D(2,3,5,27)            71.4259         estimate D2E/DX2                !
 ! D28   D(4,3,5,6)           -168.6242         estimate D2E/DX2                !
 ! D29   D(4,3,5,23)            68.8883         estimate D2E/DX2                !
 ! D30   D(4,3,5,27)           -49.4074         estimate D2E/DX2                !
 ! D31   D(25,3,5,6)            69.9127         estimate D2E/DX2                !
 ! D32   D(25,3,5,23)          -52.5747         estimate D2E/DX2                !
 ! D33   D(25,3,5,27)         -170.8705         estimate D2E/DX2                !
 ! D34   D(3,5,6,7)             44.642          estimate D2E/DX2                !
 ! D35   D(3,5,6,21)          -168.8897         estimate D2E/DX2                !
 ! D36   D(3,5,6,28)           -77.0912         estimate D2E/DX2                !
 ! D37   D(23,5,6,7)           164.3601         estimate D2E/DX2                !
 ! D38   D(23,5,6,21)          -49.1716         estimate D2E/DX2                !
 ! D39   D(23,5,6,28)           42.6269         estimate D2E/DX2                !
 ! D40   D(27,5,6,7)           -73.4496         estimate D2E/DX2                !
 ! D41   D(27,5,6,21)           73.0187         estimate D2E/DX2                !
 ! D42   D(27,5,6,28)          164.8171         estimate D2E/DX2                !
 ! D43   D(3,5,23,43)         -158.8029         estimate D2E/DX2                !
 ! D44   D(6,5,23,43)           77.7696         estimate D2E/DX2                !
 ! D45   D(27,5,23,43)         -43.1962         estimate D2E/DX2                !
 ! D46   D(5,6,7,8)            -52.1652         estimate D2E/DX2                !
 ! D47   D(21,6,7,8)           158.9689         estimate D2E/DX2                !
 ! D48   D(28,6,7,8)            68.4374         estimate D2E/DX2                !
 ! D49   D(5,6,21,14)          -53.0934         estimate D2E/DX2                !
 ! D50   D(7,6,21,14)           92.7511         estimate D2E/DX2                !
 ! D51   D(28,6,21,14)        -159.1001         estimate D2E/DX2                !
 ! D52   D(6,7,8,2)             64.4501         estimate D2E/DX2                !
 ! D53   D(6,7,8,9)           -173.79           estimate D2E/DX2                !
 ! D54   D(6,7,8,29)           -55.3642         estimate D2E/DX2                !
 ! D55   D(2,8,9,10)           -54.6548         estimate D2E/DX2                !
 ! D56   D(2,8,9,30)            66.0306         estimate D2E/DX2                !
 ! D57   D(2,8,9,31)          -176.3256         estimate D2E/DX2                !
 ! D58   D(7,8,9,10)          -175.4609         estimate D2E/DX2                !
 ! D59   D(7,8,9,30)           -54.7754         estimate D2E/DX2                !
 ! D60   D(7,8,9,31)            62.8684         estimate D2E/DX2                !
 ! D61   D(29,8,9,10)           65.4058         estimate D2E/DX2                !
 ! D62   D(29,8,9,30)         -173.9087         estimate D2E/DX2                !
 ! D63   D(29,8,9,31)          -56.2649         estimate D2E/DX2                !
 ! D64   D(8,9,10,32)         -163.2281         estimate D2E/DX2                !
 ! D65   D(30,9,10,32)          78.1899         estimate D2E/DX2                !
 ! D66   D(31,9,10,32)         -44.2611         estimate D2E/DX2                !
 ! D67   D(42,11,12,13)        128.8044         estimate D2E/DX2                !
 ! D68   D(42,11,12,17)       -107.9869         estimate D2E/DX2                !
 ! D69   D(42,11,12,33)          7.8154         estimate D2E/DX2                !
 ! D70   D(11,12,13,14)        176.3617         estimate D2E/DX2                !
 ! D71   D(11,12,13,22)        -65.3209         estimate D2E/DX2                !
 ! D72   D(11,12,13,34)         57.5228         estimate D2E/DX2                !
 ! D73   D(17,12,13,14)         54.3843         estimate D2E/DX2                !
 ! D74   D(17,12,13,22)        172.7016         estimate D2E/DX2                !
 ! D75   D(17,12,13,34)        -64.4546         estimate D2E/DX2                !
 ! D76   D(33,12,13,14)        -61.6943         estimate D2E/DX2                !
 ! D77   D(33,12,13,22)         56.6231         estimate D2E/DX2                !
 ! D78   D(33,12,13,34)        179.4669         estimate D2E/DX2                !
 ! D79   D(11,12,17,16)        174.498          estimate D2E/DX2                !
 ! D80   D(11,12,17,18)         60.1599         estimate D2E/DX2                !
 ! D81   D(11,12,17,37)        -61.4159         estimate D2E/DX2                !
 ! D82   D(13,12,17,16)        -56.8621         estimate D2E/DX2                !
 ! D83   D(13,12,17,18)       -171.2002         estimate D2E/DX2                !
 ! D84   D(13,12,17,37)         67.224          estimate D2E/DX2                !
 ! D85   D(33,12,17,16)         58.35           estimate D2E/DX2                !
 ! D86   D(33,12,17,18)        -55.9881         estimate D2E/DX2                !
 ! D87   D(33,12,17,37)       -177.564          estimate D2E/DX2                !
 ! D88   D(12,13,14,15)        -53.5332         estimate D2E/DX2                !
 ! D89   D(12,13,14,21)       -176.4311         estimate D2E/DX2                !
 ! D90   D(12,13,14,35)         63.9015         estimate D2E/DX2                !
 ! D91   D(22,13,14,15)       -172.7324         estimate D2E/DX2                !
 ! D92   D(22,13,14,21)         64.3697         estimate D2E/DX2                !
 ! D93   D(22,13,14,35)        -55.2976         estimate D2E/DX2                !
 ! D94   D(34,13,14,15)         65.5774         estimate D2E/DX2                !
 ! D95   D(34,13,14,21)        -57.3205         estimate D2E/DX2                !
 ! D96   D(34,13,14,35)       -176.9879         estimate D2E/DX2                !
 ! D97   D(12,13,22,41)         86.7062         estimate D2E/DX2                !
 ! D98   D(14,13,22,41)       -154.5587         estimate D2E/DX2                !
 ! D99   D(34,13,22,41)        -34.6682         estimate D2E/DX2                !
 ! D100  D(13,14,15,16)         53.3546         estimate D2E/DX2                !
 ! D101  D(13,14,15,20)        167.4215         estimate D2E/DX2                !
 ! D102  D(13,14,15,36)        -69.8373         estimate D2E/DX2                !
 ! D103  D(21,14,15,16)        172.5665         estimate D2E/DX2                !
 ! D104  D(21,14,15,20)        -73.3666         estimate D2E/DX2                !
 ! D105  D(21,14,15,36)         49.3746         estimate D2E/DX2                !
 ! D106  D(35,14,15,16)        -64.5692         estimate D2E/DX2                !
 ! D107  D(35,14,15,20)         49.4977         estimate D2E/DX2                !
 ! D108  D(35,14,15,36)        172.2389         estimate D2E/DX2                !
 ! D109  D(13,14,21,6)         130.8476         estimate D2E/DX2                !
 ! D110  D(15,14,21,6)           8.4744         estimate D2E/DX2                !
 ! D111  D(35,14,21,6)        -111.8705         estimate D2E/DX2                !
 ! D112  D(14,15,16,17)        -56.122          estimate D2E/DX2                !
 ! D113  D(20,15,16,17)       -171.8367         estimate D2E/DX2                !
 ! D114  D(36,15,16,17)         66.5951         estimate D2E/DX2                !
 ! D115  D(14,15,20,44)        165.3567         estimate D2E/DX2                !
 ! D116  D(16,15,20,44)        -76.1266         estimate D2E/DX2                !
 ! D117  D(36,15,20,44)         44.2539         estimate D2E/DX2                !
 ! D118  D(15,16,17,12)         58.5523         estimate D2E/DX2                !
 ! D119  D(15,16,17,18)        179.2738         estimate D2E/DX2                !
 ! D120  D(15,16,17,37)        -63.4351         estimate D2E/DX2                !
 ! D121  D(12,17,18,19)         61.6068         estimate D2E/DX2                !
 ! D122  D(12,17,18,38)        178.0907         estimate D2E/DX2                !
 ! D123  D(12,17,18,39)        -61.9504         estimate D2E/DX2                !
 ! D124  D(16,17,18,19)        -58.2348         estimate D2E/DX2                !
 ! D125  D(16,17,18,38)         58.2491         estimate D2E/DX2                !
 ! D126  D(16,17,18,39)        178.208          estimate D2E/DX2                !
 ! D127  D(37,17,18,19)       -177.4041         estimate D2E/DX2                !
 ! D128  D(37,17,18,38)        -60.9202         estimate D2E/DX2                !
 ! D129  D(37,17,18,39)         59.0387         estimate D2E/DX2                !
 ! D130  D(17,18,19,40)        -80.5085         estimate D2E/DX2                !
 ! D131  D(38,18,19,40)        161.2937         estimate D2E/DX2                !
 ! D132  D(39,18,19,40)         42.088          estimate D2E/DX2                !
 --------------------------------------------------------------------------------
 Trust Radius=3.00D-01 FncErr=1.00D-07 GrdErr=1.00D-07 EigMax=2.50D+02 EigMin=1.00D-04
 Number of steps in this run=    270 maximum allowed number of steps=    270.
 GradGradGradGradGradGradGradGradGradGradGradGradGradGradGradGradGradGrad

 Leave Link  103 at Tue Jun 22 14:18:22 2021, MaxMem=  2147483648 cpu:               0.1 elap:               0.0
 (Enter /home/matma/Programs/gaussian/G16_x86_SSE4/tar/g16/l202.exe)
                          Input orientation:                          
 ---------------------------------------------------------------------
 Center     Atomic      Atomic             Coordinates (Angstroms)
 Number     Number       Type             X           Y           Z
 ---------------------------------------------------------------------
      1          8           0        2.661000    2.109000   -0.056000
      2          6           0        2.764000    2.782000    1.222000
      3          6           0        2.872000    1.758000    2.371000
      4          8           0        4.068000    0.978000    2.209000
      5          6           0        1.619000    0.848000    2.368000
      6          6           0        0.271000    1.661000    2.255000
      7          8           0        0.310000    2.703000    1.263000
      8          6           0        1.452000    3.570000    1.443000
      9          6           0        1.301000    4.725000    0.434000
     10          8           0        2.491000    5.522000    0.544000
     11          8           0       -3.356000   -3.206000    3.549000
     12          6           0       -2.857000   -2.249000    2.581000
     13          6           0       -2.227000   -0.931000    3.112000
     14          6           0       -1.686000   -0.114000    1.913000
     15          6           0       -0.725000   -0.956000    1.034000
     16          8           0       -1.332000   -2.187000    0.627000
     17          6           0       -1.802000   -3.005000    1.704000
     18          6           0       -2.400000   -4.209000    0.961000
     19          8           0       -3.436000   -3.748000    0.058000
     20          8           0       -0.520000   -0.242000   -0.170000
     21          8           0       -1.048000    1.038000    2.472000
     22          8           0       -3.231000   -0.148000    3.773000
     23          8           0        1.668000    0.084000    3.580000
     24          1           0        3.630000    3.467000    1.225000
     25          1           0        2.898000    2.316000    3.329000
     26          1           0        4.006000    0.293000    2.935000
     27          1           0        1.708000    0.189000    1.487000
     28          1           0        0.056000    2.101000    3.254000
     29          1           0        1.459000    3.985000    2.471000
     30          1           0        1.184000    4.296000   -0.580000
     31          1           0        0.384000    5.290000    0.681000
     32          1           0        2.266000    6.390000    0.110000
     33          1           0       -3.693000   -1.953000    1.923000
     34          1           0       -1.383000   -1.175000    3.790000
     35          1           0       -2.549000    0.168000    1.275000
     36          1           0        0.225000   -1.147000    1.585000
     37          1           0       -0.979000   -3.346000    2.360000
     38          1           0       -1.623000   -4.677000    0.338000
     39          1           0       -2.780000   -4.952000    1.679000
     40          1           0       -4.249000   -3.616000    0.622000
     41          1           0       -3.146000   -0.531000    4.585000
     42          1           0       -4.436000   -3.516000    3.295000
     43          1           0        1.086000   -0.708000    3.393000
     44          1           0        0.228000   -0.577000   -0.671000
     45          1           0        3.470000    1.657000   -0.308000
 ---------------------------------------------------------------------
                    Distance matrix (angstroms):
                    1          2          3          4          5
     1  O    0.000000
     2  C    1.448041   0.000000
     3  C    2.461311   1.542868   0.000000
     4  O    2.896383   2.434954   1.437032   0.000000
     5  C    2.924322   2.522835   1.548586   2.457597   0.000000
     6  C    3.354627   2.922119   2.605392   3.858214   1.578240
     7  O    2.760398   2.455614   2.946953   4.241828   2.524981
     8  C    2.417272   1.546328   2.482122   3.761473   2.879722
     9  C    2.988839   2.556670   3.875964   4.984669   4.344262
    10  O    3.469506   2.835809   4.201284   5.089901   5.092508
    11  O    8.800542   8.872738   8.050898   8.626542   6.525358
    12  C    7.509611   7.665082   6.994397   7.649022   5.447142
    13  C    6.570416   6.501427   5.812022   6.639783   4.302336
    14  C    5.264513   5.354138   4.948688   5.864179   3.472102
    15  C    4.695457   5.116748   4.700189   5.300361   3.244735
    16  O    5.904757   6.467009   6.023137   6.456001   4.577194
    17  C    7.012059   7.387154   6.706514   7.111696   5.195166
    18  C    8.158746   8.695349   8.086234   8.384360   6.610995
    19  O    8.455226   9.079416   8.686591   9.125343   7.211958
    20  O    3.957140   4.676205   4.686400   5.310159   3.493546
    21  O    4.614597   4.374401   3.986854   5.123107   2.675781
    22  O    7.380444   7.143705   6.545613   7.549131   5.146702
    23  O    4.278688   3.747077   2.390308   2.904975   1.433541
    24  H    2.103351   1.104169   2.192843   2.712051   3.494243
    25  H    3.399595   2.162073   1.108965   2.100844   2.171264
    26  H    3.748728   3.266811   1.936563   1.000072   2.515409
    27  H    2.641109   2.812296   2.144321   2.591024   1.103795
    28  H    4.212148   3.453411   2.971059   4.295265   2.190428
    29  H    3.368963   2.170308   2.639337   3.989683   3.142766
    30  H    2.690553   2.834749   4.242545   5.206256   4.557262
    31  H    3.980786   3.499592   4.639102   5.873669   4.909436
    32  H    4.302388   3.808177   5.189873   6.078055   6.019214
    33  H    7.796769   8.037691   7.554565   8.300944   6.021708
    34  H    6.475362   6.280930   5.359205   6.070286   3.889295
    35  H    5.716917   5.921467   5.754699   6.731504   4.362255
    36  H    4.385033   4.692050   4.007921   4.435499   2.556629
    37  H    6.988825   7.270315   6.393836   6.647705   4.933488
    38  H    8.034780   8.698500   8.108473   8.238152   6.719902
    39  H    9.081433   9.526780   8.800458   9.074189   7.312040
    40  H    8.999078   9.511917   9.091068   9.633063   7.576888
    41  H    7.888582   7.563983   6.808645   7.743659   5.433411
    42  H    9.655943   9.787856   9.059565   9.679538   7.521094
    43  H    4.723528   4.439485   3.211765   3.624469   1.938002
    44  H    3.675909   4.614935   4.657974   5.045595   3.633322
    45  H    0.960359   2.026070   2.746788   2.674684   3.352858
                    6          7          8          9         10
     6  C    0.000000
     7  O    1.439218   0.000000
     8  C    2.387129   1.445079   0.000000
     9  C    3.710126   2.399543   1.541073   0.000000
    10  O    4.771084   3.635998   2.387054   1.436457   0.000000
    11  O    6.206227   7.319948   8.571247   9.710388  10.926821
    12  C    5.017844   6.024062   7.329617   8.398527   9.650850
    13  C    3.700394   4.802200   6.048107   7.183927   8.396151
    14  C    2.664102   3.513119   4.862078   5.875843   7.147446
    15  C    3.054758   3.809455   5.038977   6.061224   7.248948
    16  O    4.475164   5.197380   6.446671   7.399033   8.605283
    17  C    5.135415   6.102154   7.340794   8.425818   9.616921
    18  C    6.577657   7.430414   8.693852   9.684600  10.898997
    19  O    6.915630   7.556450   8.908641   9.714539  11.013556
    20  O    3.182407   3.378670   4.584964   5.324655   6.542141
    21  O    1.474781   2.465374   3.704034   4.823403   6.028927
    22  O    4.223838   5.192974   6.417391   7.445406   8.678515
    23  O    2.488808   3.751242   4.094584   5.618798   6.282234
    24  H    3.950369   3.406984   2.191305   2.762695   2.446243
    25  H    2.912667   3.334047   2.687085   4.090809   4.266182
    26  H    4.035350   4.718485   4.414489   5.763215   5.945969
    27  H    2.195809   2.885269   3.390963   4.674372   5.472040
    28  H    1.112576   2.095472   2.717811   4.048185   4.997656
    29  H    2.618965   2.103090   1.108629   2.173001   2.672213
    30  H    3.976684   2.588083   2.165971   1.107215   2.115349
    31  H    3.957257   2.652691   2.163254   1.105044   2.124157
    32  H    5.562777   4.330048   3.223645   1.951519   0.996195
    33  H    5.374432   6.175593   7.563396   8.470705   9.798935
    34  H    3.624202   4.928576   6.005053   7.299082   8.390125
    35  H    3.337941   3.821027   5.254506   6.024619   7.389268
    36  H    2.887192   3.864377   4.876042   6.079717   7.119972
    37  H    5.161741   6.281348   7.387943   8.605168   9.694338
    38  H    6.887116   7.684824   8.870719   9.846654  10.999411
    39  H    7.305624   8.265602   9.517878  10.575865  11.780337
    40  H    7.137494   7.818256   9.209454  10.020485  11.355031
    41  H    4.680775   5.782592   6.916066   8.039412   9.205665
    42  H    7.073809   8.082667   9.397332  10.440909  11.714810
    43  H    2.751623   4.095607   4.715691   6.190266   6.993120
    44  H    3.684015   3.808606   4.812980   5.521192   6.617794
    45  H    4.099096   3.680728   3.286015   3.829850   4.077079
                   11         12         13         14         15
    11  O    0.000000
    12  C    1.449784   0.000000
    13  C    2.577059   1.554344   0.000000
    14  C    3.876320   2.525013   1.548474   0.000000
    15  C    4.279005   2.934362   2.564120   1.550847   0.000000
    16  O    3.697705   2.479432   2.924686   2.465044   1.431593
    17  C    2.420608   1.566426   2.542551   2.900865   2.409819
    18  C    2.935590   2.583573   3.924540   4.264402   3.659640
    19  O    3.533730   2.991283   4.327134   4.439536   4.012152
    20  O    5.537071   4.130087   3.762990   2.390571   1.414722
    21  O    4.949579   3.753496   2.382562   1.430604   2.479558
    22  O    3.068740   2.444369   1.434582   2.418219   3.799345
    23  O    6.005467   5.188113   4.052194   3.750654   3.645568
    24  H    9.936503   8.751718   7.563572   6.446453   6.210107
    25  H    8.345861   7.383682   6.070891   5.378012   5.394362
    26  H    8.174291   7.327199   6.354510   5.797327   5.249396
    27  H    6.435990   5.289603   4.402187   3.434024   2.726852
    28  H    6.316092   5.278352   3.798062   3.120748   3.857928
    29  H    8.721054   7.583054   6.177745   5.196556   5.590018
    30  H    9.692278   8.316167   7.251711   5.822375   5.816595
    31  H    9.715711   8.423218   7.171326   5.916582   6.353503
    32  H   11.641169  10.343273   9.099236   7.821197   7.985210
    33  H    2.080253   1.104299   2.146476   2.722144   3.254743
    34  H    2.841790   2.188112   1.109755   2.177305   2.841912
    35  H    4.148036   2.764487   2.164730   1.109656   2.156022
    36  H    4.573876   3.421278   2.896669   2.196951   1.114712
    37  H    2.661475   2.186123   2.820502   3.338485   2.744976
    38  H    3.934165   3.528312   4.700256   4.827584   3.890586
    39  H    2.622440   2.850569   4.304386   4.965666   4.539501
    40  H    3.087536   2.764785   4.183038   4.527654   4.434402
    41  H    2.876286   2.655383   1.781654   3.073284   4.318734
    42  H    1.151962   2.146701   3.405201   4.587595   5.043535
    43  H    5.098598   4.310600   3.332365   3.198003   2.984310
    44  H    6.129037   4.784173   4.523652   3.248818   1.989692
    45  H    9.226023   7.977098   7.130915   5.886732   5.121207
                   16         17         18         19         20
    16  O    0.000000
    17  C    1.431766   0.000000
    18  C    2.310988   1.535991   0.000000
    19  O    2.680914   2.435430   1.449561   0.000000
    20  O    2.253348   3.576251   4.533282   4.565860   0.000000
    21  O    3.726299   4.183801   5.625125   5.868197   2.982842
    22  O    4.202504   3.805949   5.008955   5.177186   4.785980
    23  O    4.783059   5.010209   6.468202   7.289686   4.353863
    24  H    7.546308   8.463028   9.764813  10.165947   5.738049
    25  H    6.743198   7.283108   8.732231   9.359011   5.519881
    26  H    6.322302   6.791541   8.074746   8.943723   5.514701
    27  H    3.953046   4.750666   6.041088   6.633457   2.809874
    28  H    5.216763   5.650301   7.148838   7.524578   4.188699
    29  H    7.020228   7.751291   9.182245   9.464823   5.362728
    30  H    7.058073   8.212031   9.357070   9.298246   4.864685
    31  H    7.671577   8.638990   9.902528   9.831886   5.669607
    32  H    9.315461  10.361249  11.611828  11.631619   7.198862
    33  H    2.703459   2.174982   2.772513   2.601211   4.168465
    34  H    3.321342   2.806396   4.271146   4.976240   4.158949
    35  H    2.728922   3.287853   4.390777   4.195583   2.524473
    36  H    2.103239   2.752282   4.081157   4.743401   2.110468
    37  H    2.114516   1.106321   2.172835   3.390820   4.030682
    38  H    2.523549   2.166467   1.100401   2.056310   4.598249
    39  H    3.293726   2.178972   1.100896   2.123109   5.541706
    40  H    3.248223   2.744422   1.971134   0.998243   5.090833
    41  H    4.658186   4.028297   5.217047   5.561198   5.439616
    42  H    4.303403   3.119352   3.173815   3.395879   6.169308
    43  H    3.960419   4.058260   5.506707   6.388451   3.935907
    44  H    2.590464   3.956856   4.770873   4.900161   0.960588
    45  H    6.221717   7.319588   8.395071   8.777290   4.421012
                   21         22         23         24         25
    21  O    0.000000
    22  O    2.804405   0.000000
    23  O    3.084548   4.908286   0.000000
    24  H    5.416524   8.162956   4.565102   0.000000
    25  H    4.235404   6.620655   2.560806   2.507477   0.000000
    26  H    5.129553   7.298691   2.434327   3.624880   2.339963
    27  H    3.047386   5.452805   2.096014   3.808938   3.055027
    28  H    1.720555   4.016433   2.602520   4.330851   2.851108
    29  H    3.869090   6.385373   4.060956   2.556185   2.364835
    30  H    4.991101   7.628235   5.939764   3.150902   4.705154
    31  H    4.830922   7.224994   6.095514   3.762417   4.709222
    32  H    6.723507   9.294085   7.222475   3.412865   5.230570
    33  H    4.030323   2.625637   5.969534   9.137283   7.977624
    34  H    2.597445   2.114266   3.307232   7.297778   5.543155
    35  H    2.107774   2.608636   4.806576   7.004709   6.205049
    36  H    2.679836   4.210615   2.752750   5.745661   4.709441
    37  H    4.385973   4.158759   4.501101   8.303498   6.930248
    38  H    6.127463   5.907345   6.633880   9.731676   8.848026
    39  H    6.285600   5.259910   6.982822  10.591212   9.369419
    40  H    5.943788   4.795013   7.579621  10.611840   9.674507
    41  H    3.365729   0.901808   4.956092   8.554986   6.798006
    42  H    5.735398   3.608869   7.092252  10.867730   9.370215
    43  H    2.907011   4.369724   1.000478   5.348157   3.525906
    44  H    3.756974   5.647819   4.536686   5.614477   5.612339
    45  H    5.340776   8.050838   4.564874   2.377349   3.740218
                   26         27         28         29         30
    26  H    0.000000
    27  H    2.718147   0.000000
    28  H    4.355815   3.083365   0.000000
    29  H    4.509254   3.929360   2.476076   0.000000
    30  H    6.028509   4.627582   4.559601   3.079115   0.000000
    31  H    6.570343   5.331305   4.110673   2.462265   1.793922
    32  H    6.941299   6.376511   5.758850   3.465486   2.455944
    33  H    8.083518   5.826582   5.679919   7.880562   8.312649
    34  H    5.650431   4.088837   3.618037   6.036748   7.457763
    35  H    6.763080   4.262327   3.799862   5.662506   5.866575
    36  H    4.265215   1.998447   3.655629   5.352119   5.935752
    37  H    6.198643   4.525298   5.616072   7.726560   8.468904
    38  H    7.945499   6.007805   7.567257   9.438149   9.446518
    39  H    8.668181   6.827070   7.763268   9.923021  10.312220
    40  H    9.422063   7.121243   7.625257   9.683763   9.672747
    41  H    7.385972   5.803216   4.353365   6.787435   8.290118
    42  H    9.268519   7.398961   7.192387   9.575751  10.374361
    43  H    3.120603   2.196436   2.995113   4.797235   6.390176
    44  H    5.294660   2.726558   4.754671   5.674449   4.966724
    45  H    3.558770   2.912335   4.953824   4.145666   3.502014
                   31         32         33         34         35
    31  H    0.000000
    32  H    2.253434   0.000000
    33  H    8.403900  10.411642   0.000000
    34  H    7.388125   9.169887   3.070354   0.000000
    35  H    5.932134   7.953284   2.495452   3.080330   0.000000
    36  H    6.502112   7.946551   4.014300   2.729189   3.085515
    37  H    8.902657  10.506294   3.081755   2.630847   3.998790
    38  H   10.172846  11.732638   3.770584   4.923201   5.020903
    39  H   10.765940  12.512587   3.144377   4.546830   5.141107
    40  H   10.039174  11.951042   2.183416   4.920230   4.199412
    41  H    7.847685   9.859798   3.067171   2.038365   3.435274
    42  H   10.373574  12.376989   2.208484   3.878932   4.605760
    43  H    6.619951   7.908988   5.152647   2.543946   4.297269
    44  H    6.022784   7.300856   4.898617   4.780528   3.471840
    45  H    4.868286   4.901595   8.325745   6.954526   6.399326
                   36         37         38         39         40
    36  H    0.000000
    37  H    2.624089   0.000000
    38  H    4.175046   2.504951   0.000000
    39  H    4.849421   2.507309   1.792360   0.000000
    40  H    5.200001   3.713010   2.846446   2.249468   0.000000
    41  H    4.554459   4.191747   6.127467   5.303210   5.141907
    42  H    5.501016   3.585244   4.243199   2.723213   2.681399
    43  H    2.050099   3.505761   5.694266   5.991268   6.678108
    44  H    2.326896   4.279155   4.610237   5.806134   5.563353
    45  H    4.687845   7.207068   8.153252   9.310722   9.394274
                   41         42         43         44         45
    41  H    0.000000
    42  H    3.498346   0.000000
    43  H    4.400229   6.195720   0.000000
    44  H    6.245921   6.791154   4.155649   0.000000
    45  H    8.514708  10.111695   4.997408   3.953870   0.000000
 Stoichiometry    C12H22O11
 Framework group  C1[X(C12H22O11)]
 Deg. of freedom   129
 Full point group                 C1      NOp   1
 Largest Abelian subgroup         C1      NOp   1
 Largest concise Abelian subgroup C1      NOp   1
                         Standard orientation:                         
 ---------------------------------------------------------------------
 Center     Atomic      Atomic             Coordinates (Angstroms)
 Number     Number       Type             X           Y           Z
 ---------------------------------------------------------------------
      1          8           0        3.339118   -1.473198   -0.972888
      2          6           0        3.807629   -0.631589    0.108321
      3          6           0        2.991966   -0.888230    1.392561
      4          8           0        3.171928   -2.250809    1.812144
      5          6           0        1.496812   -0.591141    1.119849
      6          6           0        1.269323    0.788741    0.388401
      7          8           0        2.178715    1.016923   -0.703519
      8          6           0        3.554639    0.838370   -0.299533
      9          6           0        4.430842    1.259648   -1.495234
     10          8           0        5.789951    0.977852   -1.125337
     11          8           0       -4.881780    0.781831    1.213713
     12          6           0       -3.746214    0.651910    0.321815
     13          6           0       -2.382453    1.238472    0.782345
     14          6           0       -1.306963    0.903604   -0.280178
     15          6           0       -1.261351   -0.615494   -0.589025
     16          8           0       -2.554752   -1.115949   -0.944154
     17          6           0       -3.575022   -0.877869    0.031715
     18          6           0       -4.812521   -1.498779   -0.633369
     19          8           0       -5.041075   -0.857096   -1.912913
     20          8           0       -0.478505   -0.785525   -1.755078
     21          8           0       -0.067597    1.393416    0.240096
     22          8           0       -2.481496    2.665778    0.887297
     23          8           0        0.836969   -0.622778    2.392109
     24          1           0        4.883813   -0.802050    0.287097
     25          1           0        3.351464   -0.189331    2.174932
     26          1           0        2.544430   -2.347124    2.584876
     27          1           0        1.126593   -1.400993    0.467590
     28          1           0        1.381237    1.596083    1.145699
     29          1           0        3.786439    1.489536    0.567248
     30          1           0        4.116954    0.680677   -2.385286
     31          1           0        4.256793    2.331869   -1.698142
     32          1           0        6.348845    1.497190   -1.765907
     33          1           0       -3.995015    1.150469   -0.631607
     34          1           0       -2.090511    0.774233    1.747129
     35          1           0       -1.585452    1.419834   -1.222138
     36          1           0       -0.850105   -1.169207    0.286681
     37          1           0       -3.368772   -1.396000    0.987198
     38          1           0       -4.620501   -2.561874   -0.842745
     39          1           0       -5.686483   -1.416058    0.030950
     40          1           0       -5.508006    0.000856   -1.707039
     41          1           0       -2.791690    2.688156    1.733782
     42          1           0       -5.785408    1.231932    0.658842
     43          1           0       -0.123845   -0.784427    2.164817
     44          1           0       -0.213907   -1.699356   -1.887863
     45          1           0        3.531214   -2.403824   -0.833879
 ---------------------------------------------------------------------
 Rotational constants (GHZ):           0.4988341           0.1212248           0.1197087
 Leave Link  202 at Tue Jun 22 14:18:22 2021, MaxMem=  2147483648 cpu:               0.0 elap:               0.0
 (Enter /home/matma/Programs/gaussian/G16_x86_SSE4/tar/g16/l301.exe)
 Standard basis: VSTO-6G (5D, 7F)
 Ernie: Thresh=  0.10000D-02 Tol=  0.10000D-05 Strict=F.
  NNHCO=     0 NNPyr=     0 NCTC=     0               EPep=         0.000000000
    EC=      1151.952167666  ECS=         8.962290987   EG=         0.751005223
   EHC=         0.003245563  EAt=      -175.965002454  AtH=         6.138669069
 EPDDG=         0.000000000  ECC=      1161.668709438 EAtT=       182.103671523
 There are   114 symmetry adapted cartesian basis functions of A   symmetry.
 There are   114 symmetry adapted basis functions of A   symmetry.
   114 basis functions,   684 primitive gaussians,   114 cartesian basis functions
    68 alpha electrons       68 beta electrons
       nuclear repulsion energy      1343.7723809614 Hartrees.
 IExCor=    0 DFT=F Ex=HF Corr=None ExCW=0 ScaHFX=  1.000000
 ScaDFX=  1.000000  1.000000  1.000000  1.000000 ScalE2=  1.000000  1.000000
 IRadAn=  99590 IRanWt=     -1 IRanGd=            0 ICorTp=0 IEmpDi=  4
 Integral buffers will be    131072 words long.
 Regular integral format.
 Two-electron integral symmetry is turned off.
 Leave Link  301 at Tue Jun 22 14:18:22 2021, MaxMem=  2147483648 cpu:               0.2 elap:               0.0
 (Enter /home/matma/Programs/gaussian/G16_x86_SSE4/tar/g16/l302.exe)
 Do NDO integrals.
 NPDir=0 NMtPBC=     1 NCelOv=     1 NCel=       1 NClECP=     1 NCelD=      1
         NCelK=      1 NCelE2=     1 NClLst=     1 CellRange=     0.0.
 One-electron integrals computed using PRISM.
 NBasis=   114 RedAO= F EigKep=  0.00D+00  NBF=   114
 NBsUse=   114 1.00D-04 EigRej=  0.00D+00 NBFU=   114
 Leave Link  302 at Tue Jun 22 14:18:22 2021, MaxMem=  2147483648 cpu:               0.6 elap:               0.1
 (Enter /home/matma/Programs/gaussian/G16_x86_SSE4/tar/g16/l303.exe)
 DipDrv:  MaxL=1.
 Leave Link  303 at Tue Jun 22 14:18:22 2021, MaxMem=  2147483648 cpu:               0.1 elap:               0.0
 (Enter /home/matma/Programs/gaussian/G16_x86_SSE4/tar/g16/l401.exe)
 Simple Huckel Guess.
 JPrj=0 DoOrth=F DoCkMO=F.
 Leave Link  401 at Tue Jun 22 14:18:22 2021, MaxMem=  2147483648 cpu:               0.2 elap:               0.0
 (Enter /home/matma/Programs/gaussian/G16_x86_SSE4/tar/g16/l502.exe)
 Keep J ints in memory in canonical form, NReq=892272.
 FoFCou: FMM=F IPFlag=           0 FMFlag=           0 FMFlg1=           0
         NFxFlg=           0 DoJE=F BraDBF=F KetDBF=F FulRan=T
         wScrn=  0.000000 ICntrl=       600 IOpCl=  2 I1Cent=           0 NGrid=           0
         NMat0=    1 NMatS0=    252 NMatT0=    0 NMatD0=    1 NMtDS0=    0 NMtDT0=    0
 Symmetry not used in FoFCou.
 Two-electron integral symmetry not used.
 Closed shell SCF:
 Using DIIS extrapolation, IDIIS=  1040.
 Overlap will be assumed to be unity.
 NGot=  2147483648 LenX=  2147363403 LenY=  2147349966
 Requested convergence on RMS density matrix=1.00D-08 within 128 cycles.
 Requested convergence on MAX density matrix=1.00D-06.
 Requested convergence on             energy=1.00D-06.
 No special actions if energy rises.

 Cycle   1  Pass 1  IDiag  1:
 E= 0.582981775773988    
 DIIS: error= 5.50D-02 at cycle   1 NSaved=   1.
 NSaved= 1 IEnMin= 1 EnMin= 0.582981775773988     IErMin= 1 ErrMin= 5.50D-02
 ErrMax= 5.50D-02  0.00D+00 EMaxC= 1.00D-01 BMatC= 3.06D-01 BMatP= 3.06D-01
 IDIUse=3 WtCom= 4.50D-01 WtEn= 5.50D-01
 Coeff-Com:  0.100D+01
 Coeff-En:   0.100D+01
 Coeff:      0.100D+01
 GapD=    2.000 DampG=2.000 DampE=0.500 DampFc=1.0000 IDamp=-1.
 RMSDP=8.18D-03 MaxDP=1.24D-01              OVMax= 0.00D+00

 Cycle   2  Pass 1  IDiag  1:
 E=-0.402056893963163     Delta-E=       -0.985038669737 Rises=F Damp=F
 DIIS: error= 1.69D-02 at cycle   2 NSaved=   2.
 NSaved= 2 IEnMin= 2 EnMin=-0.402056893963163     IErMin= 2 ErrMin= 1.69D-02
 ErrMax= 1.69D-02  0.00D+00 EMaxC= 1.00D-01 BMatC= 4.74D-02 BMatP= 3.06D-01
 IDIUse=3 WtCom= 8.31D-01 WtEn= 1.69D-01
 Coeff-Com: -0.441D+00 0.144D+01
 Coeff-En:   0.000D+00 0.100D+01
 Coeff:     -0.367D+00 0.137D+01
 RMSDP=5.00D-03 MaxDP=6.43D-02 DE=-9.85D-01 OVMax= 0.00D+00

 Cycle   3  Pass 1  IDiag  3:
 E=-0.625481749304527     Delta-E=       -0.223424855341 Rises=F Damp=F
 DIIS: error= 5.85D-03 at cycle   3 NSaved=   3.
 NSaved= 3 IEnMin= 3 EnMin=-0.625481749304527     IErMin= 3 ErrMin= 5.85D-03
 ErrMax= 5.85D-03  0.00D+00 EMaxC= 1.00D-01 BMatC= 5.27D-03 BMatP= 4.74D-02
 IDIUse=3 WtCom= 9.42D-01 WtEn= 5.85D-02
 Coeff-Com:  0.242D+00-0.100D+01 0.176D+01
 Coeff-En:   0.000D+00 0.000D+00 0.100D+01
 Coeff:      0.228D+00-0.943D+00 0.172D+01
 Gap=     0.375 Goal=   None    Shift=    0.000
 RMSDP=2.58D-03 MaxDP=4.20D-02 DE=-2.23D-01 OVMax= 3.12D-02

 Cycle   4  Pass 1  IDiag  3:
 E=-0.660465857378995     Delta-E=       -0.034984108074 Rises=F Damp=F
 DIIS: error= 1.21D-03 at cycle   4 NSaved=   4.
 NSaved= 4 IEnMin= 4 EnMin=-0.660465857378995     IErMin= 4 ErrMin= 1.21D-03
 ErrMax= 1.21D-03  0.00D+00 EMaxC= 1.00D-01 BMatC= 2.39D-04 BMatP= 5.27D-03
 IDIUse=3 WtCom= 9.88D-01 WtEn= 1.21D-02
 Coeff-Com: -0.457D-01 0.224D+00-0.577D+00 0.140D+01
 Coeff-En:   0.000D+00 0.000D+00 0.000D+00 0.100D+01
 Coeff:     -0.451D-01 0.221D+00-0.570D+00 0.139D+01
 Gap=     0.377 Goal=   None    Shift=    0.000
 RMSDP=5.99D-04 MaxDP=1.24D-02 DE=-3.50D-02 OVMax= 1.20D-02

 Cycle   5  Pass 1  IDiag  3:
 E=-0.662176934592253     Delta-E=       -0.001711077213 Rises=F Damp=F
 DIIS: error= 3.51D-04 at cycle   5 NSaved=   5.
 NSaved= 5 IEnMin= 5 EnMin=-0.662176934592253     IErMin= 5 ErrMin= 3.51D-04
 ErrMax= 3.51D-04  0.00D+00 EMaxC= 1.00D-01 BMatC= 1.65D-05 BMatP= 2.39D-04
 IDIUse=3 WtCom= 9.96D-01 WtEn= 3.51D-03
 Coeff-Com:  0.492D-02-0.272D-01 0.106D+00-0.502D+00 0.142D+01
 Coeff-En:   0.000D+00 0.000D+00 0.000D+00 0.000D+00 0.100D+01
 Coeff:      0.490D-02-0.271D-01 0.106D+00-0.500D+00 0.142D+01
 Gap=     0.377 Goal=   None    Shift=    0.000
 RMSDP=1.56D-04 MaxDP=3.48D-03 DE=-1.71D-03 OVMax= 4.79D-03

 Cycle   6  Pass 1  IDiag  3:
 E=-0.662295776180145     Delta-E=       -0.000118841588 Rises=F Damp=F
 DIIS: error= 1.03D-04 at cycle   6 NSaved=   6.
 NSaved= 6 IEnMin= 6 EnMin=-0.662295776180145     IErMin= 6 ErrMin= 1.03D-04
 ErrMax= 1.03D-04  0.00D+00 EMaxC= 1.00D-01 BMatC= 1.52D-06 BMatP= 1.65D-05
 IDIUse=3 WtCom= 9.99D-01 WtEn= 1.03D-03
 Coeff-Com:  0.135D-02-0.403D-02-0.674D-02 0.130D+00-0.665D+00 0.154D+01
 Coeff-En:   0.000D+00 0.000D+00 0.000D+00 0.000D+00 0.000D+00 0.100D+01
 Coeff:      0.135D-02-0.403D-02-0.674D-02 0.130D+00-0.664D+00 0.154D+01
 Gap=     0.377 Goal=   None    Shift=    0.000
 RMSDP=5.25D-05 MaxDP=1.20D-03 DE=-1.19D-04 OVMax= 2.07D-03

 Cycle   7  Pass 1  IDiag  3:
 E=-0.662307550887590     Delta-E=       -0.000011774707 Rises=F Damp=F
 DIIS: error= 2.89D-05 at cycle   7 NSaved=   7.
 NSaved= 7 IEnMin= 7 EnMin=-0.662307550887590     IErMin= 7 ErrMin= 2.89D-05
 ErrMax= 2.89D-05  0.00D+00 EMaxC= 1.00D-01 BMatC= 1.20D-07 BMatP= 1.52D-06
 IDIUse=1 WtCom= 1.00D+00 WtEn= 0.00D+00
 Coeff-Com: -0.449D-03 0.171D-02-0.102D-02-0.210D-01 0.148D+00-0.544D+00
 Coeff-Com:  0.142D+01
 Coeff:     -0.449D-03 0.171D-02-0.102D-02-0.210D-01 0.148D+00-0.544D+00
 Coeff:      0.142D+01
 Gap=     0.377 Goal=   None    Shift=    0.000
 RMSDP=1.40D-05 MaxDP=3.35D-04 DE=-1.18D-05 OVMax= 6.37D-04

 Cycle   8  Pass 1  IDiag  3:
 E=-0.662308455807988     Delta-E=       -0.000000904920 Rises=F Damp=F
 DIIS: error= 9.47D-06 at cycle   8 NSaved=   8.
 NSaved= 8 IEnMin= 8 EnMin=-0.662308455807988     IErMin= 8 ErrMin= 9.47D-06
 ErrMax= 9.47D-06  0.00D+00 EMaxC= 1.00D-01 BMatC= 1.35D-08 BMatP= 1.20D-07
 IDIUse=1 WtCom= 1.00D+00 WtEn= 0.00D+00
 Coeff-Com: -0.420D-04 0.138D-03-0.296D-03 0.124D-02-0.848D-02 0.595D-01
 Coeff-Com: -0.449D+00 0.140D+01
 Coeff:     -0.420D-04 0.138D-03-0.296D-03 0.124D-02-0.848D-02 0.595D-01
 Coeff:     -0.449D+00 0.140D+01
 Gap=     0.377 Goal=   None    Shift=    0.000
 RMSDP=4.76D-06 MaxDP=1.01D-04 DE=-9.05D-07 OVMax= 2.24D-04

 Cycle   9  Pass 1  IDiag  3:
 E=-0.662308558431278     Delta-E=       -0.000000102623 Rises=F Damp=F
 DIIS: error= 3.93D-06 at cycle   9 NSaved=   9.
 NSaved= 9 IEnMin= 9 EnMin=-0.662308558431278     IErMin= 9 ErrMin= 3.93D-06
 ErrMax= 3.93D-06  0.00D+00 EMaxC= 1.00D-01 BMatC= 1.66D-09 BMatP= 1.35D-08
 IDIUse=1 WtCom= 1.00D+00 WtEn= 0.00D+00
 Coeff-Com:  0.955D-05-0.299D-04 0.570D-04-0.772D-04 0.558D-03-0.353D-02
 Coeff-Com:  0.638D-01-0.481D+00 0.142D+01
 Coeff:      0.955D-05-0.299D-04 0.570D-04-0.772D-04 0.558D-03-0.353D-02
 Coeff:      0.638D-01-0.481D+00 0.142D+01
 Gap=     0.377 Goal=   None    Shift=    0.000
 RMSDP=1.63D-06 MaxDP=3.14D-05 DE=-1.03D-07 OVMax= 7.10D-05

 Cycle  10  Pass 1  IDiag  3:
 E=-0.662308570888399     Delta-E=       -0.000000012457 Rises=F Damp=F
 DIIS: error= 1.92D-06 at cycle  10 NSaved=  10.
 NSaved=10 IEnMin=10 EnMin=-0.662308570888399     IErMin=10 ErrMin= 1.92D-06
 ErrMax= 1.92D-06  0.00D+00 EMaxC= 1.00D-01 BMatC= 2.23D-10 BMatP= 1.66D-09
 IDIUse=1 WtCom= 1.00D+00 WtEn= 0.00D+00
 Coeff-Com:  0.579D-05-0.244D-04 0.407D-04-0.599D-04-0.938D-04 0.295D-03
 Coeff-Com: -0.215D-02 0.735D-01-0.544D+00 0.147D+01
 Coeff:      0.579D-05-0.244D-04 0.407D-04-0.599D-04-0.938D-04 0.295D-03
 Coeff:     -0.215D-02 0.735D-01-0.544D+00 0.147D+01
 Gap=     0.377 Goal=   None    Shift=    0.000
 RMSDP=6.01D-07 MaxDP=1.29D-05 DE=-1.25D-08 OVMax= 2.06D-05

 Cycle  11  Pass 1  IDiag  3:
 E=-0.662308572592565     Delta-E=       -0.000000001704 Rises=F Damp=F
 DIIS: error= 7.48D-07 at cycle  11 NSaved=  11.
 NSaved=11 IEnMin=11 EnMin=-0.662308572592565     IErMin=11 ErrMin= 7.48D-07
 ErrMax= 7.48D-07  0.00D+00 EMaxC= 1.00D-01 BMatC= 2.67D-11 BMatP= 2.23D-10
 IDIUse=1 WtCom= 1.00D+00 WtEn= 0.00D+00
 Coeff-Com:  0.855D-07 0.294D-08 0.950D-06 0.153D-04-0.105D-03 0.333D-03
 Coeff-Com:  0.129D-03-0.951D-02 0.110D+00-0.609D+00 0.151D+01
 Coeff:      0.855D-07 0.294D-08 0.950D-06 0.153D-04-0.105D-03 0.333D-03
 Coeff:      0.129D-03-0.951D-02 0.110D+00-0.609D+00 0.151D+01
 Gap=     0.377 Goal=   None    Shift=    0.000
 RMSDP=2.20D-07 MaxDP=5.13D-06 DE=-1.70D-09 OVMax= 4.17D-06

 Cycle  12  Pass 1  IDiag  3:
 E=-0.662308572819711     Delta-E=       -0.000000000227 Rises=F Damp=F
 DIIS: error= 2.09D-07 at cycle  12 NSaved=  12.
 NSaved=12 IEnMin=12 EnMin=-0.662308572819711     IErMin=12 ErrMin= 2.09D-07
 ErrMax= 2.09D-07  0.00D+00 EMaxC= 1.00D-01 BMatC= 2.52D-12 BMatP= 2.67D-11
 IDIUse=1 WtCom= 1.00D+00 WtEn= 0.00D+00
 Coeff-Com: -0.294D-06 0.683D-06 0.134D-06-0.170D-04 0.936D-04-0.237D-03
 Coeff-Com: -0.477D-04 0.264D-02-0.235D-01 0.163D+00-0.671D+00 0.153D+01
 Coeff:     -0.294D-06 0.683D-06 0.134D-06-0.170D-04 0.936D-04-0.237D-03
 Coeff:     -0.477D-04 0.264D-02-0.235D-01 0.163D+00-0.671D+00 0.153D+01
 Gap=     0.377 Goal=   None    Shift=    0.000
 RMSDP=6.91D-08 MaxDP=1.68D-06 DE=-2.27D-10 OVMax= 7.92D-07

 Cycle  13  Pass 1  IDiag  3:
 E=-0.662308572816301     Delta-E=        0.000000000003 Rises=F Damp=F
 DIIS: error= 5.33D-08 at cycle  13 NSaved=  13.
 NSaved=13 IEnMin=12 EnMin=-0.662308572819711     IErMin=13 ErrMin= 5.33D-08
 ErrMax= 5.33D-08  0.00D+00 EMaxC= 1.00D-01 BMatC= 2.06D-13 BMatP= 2.52D-12
 IDIUse=1 WtCom= 1.00D+00 WtEn= 0.00D+00
 Coeff-Com: -0.563D-07 0.378D-06-0.875D-06 0.474D-05-0.187D-04 0.513D-04
 Coeff-Com: -0.330D-04-0.812D-03 0.779D-02-0.509D-01 0.238D+00-0.782D+00
 Coeff-Com:  0.159D+01
 Coeff:     -0.563D-07 0.378D-06-0.875D-06 0.474D-05-0.187D-04 0.513D-04
 Coeff:     -0.330D-04-0.812D-03 0.779D-02-0.509D-01 0.238D+00-0.782D+00
 Coeff:      0.159D+01
 Gap=     0.377 Goal=   None    Shift=    0.000
 RMSDP=1.99D-08 MaxDP=4.74D-07 DE= 3.41D-12 OVMax= 4.15D-07

 Cycle  14  Pass 1  IDiag  3:
 E=-0.662308572830852     Delta-E=       -0.000000000015 Rises=F Damp=F
 DIIS: error= 1.15D-08 at cycle  14 NSaved=  14.
 NSaved=14 IEnMin=14 EnMin=-0.662308572830852     IErMin=14 ErrMin= 1.15D-08
 ErrMax= 1.15D-08  0.00D+00 EMaxC= 1.00D-01 BMatC= 1.37D-14 BMatP= 2.06D-13
 IDIUse=1 WtCom= 1.00D+00 WtEn= 0.00D+00
 Coeff-Com:  0.162D-07-0.127D-06 0.248D-06-0.170D-05 0.773D-05-0.211D-04
 Coeff-Com:  0.205D-04 0.237D-03-0.254D-02 0.165D-01-0.778D-01 0.283D+00
 Coeff-Com: -0.765D+00 0.155D+01
 Coeff:      0.162D-07-0.127D-06 0.248D-06-0.170D-05 0.773D-05-0.211D-04
 Coeff:      0.205D-04 0.237D-03-0.254D-02 0.165D-01-0.778D-01 0.283D+00
 Coeff:     -0.765D+00 0.155D+01
 Gap=     0.377 Goal=   None    Shift=    0.000
 RMSDP=4.94D-09 MaxDP=9.21D-08 DE=-1.46D-11 OVMax= 1.81D-07

 Cycle  15  Pass 2  IDiag  1:
 SCF Done:  E(RPM6) = -0.662308572831     A.U. after   15 cycles
            NFock= 14  Conv=0.49D-08     -V/T= 0.9978
 KE=-3.034334835873D+02 PE=-2.291430611457D+03 EE= 1.250429405510D+03
 Leave Link  502 at Tue Jun 22 14:18:22 2021, MaxMem=  2147483648 cpu:               0.5 elap:               0.0
 (Enter /home/matma/Programs/gaussian/G16_x86_SSE4/tar/g16/l601.exe)
 Copying SCF densities to generalized density rwf, IOpCl= 0 IROHF=0.

 **********************************************************************

            Population analysis using the SCF Density.

 **********************************************************************

 Orbital symmetries:
       Occupied  (A) (A) (A) (A) (A) (A) (A) (A) (A) (A) (A) (A)
                 (A) (A) (A) (A) (A) (A) (A) (A) (A) (A) (A) (A)
                 (A) (A) (A) (A) (A) (A) (A) (A) (A) (A) (A) (A)
                 (A) (A) (A) (A) (A) (A) (A) (A) (A) (A) (A) (A)
                 (A) (A) (A) (A) (A) (A) (A) (A) (A) (A) (A) (A)
                 (A) (A) (A) (A) (A) (A) (A) (A)
       Virtual   (A) (A) (A) (A) (A) (A) (A) (A) (A) (A) (A) (A)
                 (A) (A) (A) (A) (A) (A) (A) (A) (A) (A) (A) (A)
                 (A) (A) (A) (A) (A) (A) (A) (A) (A) (A) (A) (A)
                 (A) (A) (A) (A) (A) (A) (A) (A) (A) (A)
 The electronic state is 1-A.
 Alpha  occ. eigenvalues --   -1.17252  -1.16244  -1.14906  -1.13520  -1.12929
 Alpha  occ. eigenvalues --   -1.11131  -1.10840  -1.09920  -1.08698  -1.08548
 Alpha  occ. eigenvalues --   -1.07165  -1.02629  -1.01184  -0.99197  -0.98761
 Alpha  occ. eigenvalues --   -0.92032  -0.90473  -0.87544  -0.83598  -0.80895
 Alpha  occ. eigenvalues --   -0.79076  -0.77879  -0.77174  -0.71659  -0.70500
 Alpha  occ. eigenvalues --   -0.69990  -0.69100  -0.68806  -0.67350  -0.66332
 Alpha  occ. eigenvalues --   -0.65892  -0.64511  -0.63600  -0.63363  -0.61471
 Alpha  occ. eigenvalues --   -0.60096  -0.59631  -0.58601  -0.57407  -0.57001
 Alpha  occ. eigenvalues --   -0.56536  -0.55917  -0.54267  -0.53427  -0.52989
 Alpha  occ. eigenvalues --   -0.52738  -0.51174  -0.50949  -0.50241  -0.49894
 Alpha  occ. eigenvalues --   -0.49375  -0.48338  -0.48043  -0.47561  -0.46540
 Alpha  occ. eigenvalues --   -0.45688  -0.44491  -0.43657  -0.43065  -0.42506
 Alpha  occ. eigenvalues --   -0.41322  -0.40482  -0.40154  -0.39652  -0.39428
 Alpha  occ. eigenvalues --   -0.39382  -0.38086  -0.37456
 Alpha virt. eigenvalues --   -0.00001   0.02949   0.04256   0.05098   0.05742
 Alpha virt. eigenvalues --    0.06122   0.06626   0.06951   0.07453   0.07869
 Alpha virt. eigenvalues --    0.08064   0.08724   0.09011   0.09121   0.09468
 Alpha virt. eigenvalues --    0.09900   0.10474   0.10691   0.11035   0.11357
 Alpha virt. eigenvalues --    0.11452   0.13079   0.13406   0.13428   0.14312
 Alpha virt. eigenvalues --    0.15145   0.15780   0.16208   0.16469   0.16684
 Alpha virt. eigenvalues --    0.16921   0.16935   0.17398   0.17972   0.18023
 Alpha virt. eigenvalues --    0.18051   0.18190   0.18495   0.18736   0.19171
 Alpha virt. eigenvalues --    0.19383   0.19818   0.20082   0.20119   0.20929
 Alpha virt. eigenvalues --    0.21125
          Condensed to atoms (all electrons):
               1          2          3          4          5          6
     1  O    6.540731   0.000000   0.000000   0.000000   0.000000   0.000000
     2  C    0.000000   3.910059   0.000000   0.000000   0.000000   0.000000
     3  C    0.000000   0.000000   3.934461   0.000000   0.000000   0.000000
     4  O    0.000000   0.000000   0.000000   6.522427   0.000000   0.000000
     5  C    0.000000   0.000000   0.000000   0.000000   4.057253   0.000000
     6  C    0.000000   0.000000   0.000000   0.000000   0.000000   3.645785
     7  O    0.000000   0.000000   0.000000   0.000000   0.000000   0.000000
     8  C    0.000000   0.000000   0.000000   0.000000   0.000000   0.000000
     9  C    0.000000   0.000000   0.000000   0.000000   0.000000   0.000000
    10  O    0.000000   0.000000   0.000000   0.000000   0.000000   0.000000
    11  O    0.000000   0.000000   0.000000   0.000000   0.000000   0.000000
    12  C    0.000000   0.000000   0.000000   0.000000   0.000000   0.000000
    13  C    0.000000   0.000000   0.000000   0.000000   0.000000   0.000000
    14  C    0.000000   0.000000   0.000000   0.000000   0.000000   0.000000
    15  C    0.000000   0.000000   0.000000   0.000000   0.000000   0.000000
    16  O    0.000000   0.000000   0.000000   0.000000   0.000000   0.000000
    17  C    0.000000   0.000000   0.000000   0.000000   0.000000   0.000000
    18  C    0.000000   0.000000   0.000000   0.000000   0.000000   0.000000
    19  O    0.000000   0.000000   0.000000   0.000000   0.000000   0.000000
    20  O    0.000000   0.000000   0.000000   0.000000   0.000000   0.000000
    21  O    0.000000   0.000000   0.000000   0.000000   0.000000   0.000000
    22  O    0.000000   0.000000   0.000000   0.000000   0.000000   0.000000
    23  O    0.000000   0.000000   0.000000   0.000000   0.000000   0.000000
    24  H    0.000000   0.000000   0.000000   0.000000   0.000000   0.000000
    25  H    0.000000   0.000000   0.000000   0.000000   0.000000   0.000000
    26  H    0.000000   0.000000   0.000000   0.000000   0.000000   0.000000
    27  H    0.000000   0.000000   0.000000   0.000000   0.000000   0.000000
    28  H    0.000000   0.000000   0.000000   0.000000   0.000000   0.000000
    29  H    0.000000   0.000000   0.000000   0.000000   0.000000   0.000000
    30  H    0.000000   0.000000   0.000000   0.000000   0.000000   0.000000
    31  H    0.000000   0.000000   0.000000   0.000000   0.000000   0.000000
    32  H    0.000000   0.000000   0.000000   0.000000   0.000000   0.000000
    33  H    0.000000   0.000000   0.000000   0.000000   0.000000   0.000000
    34  H    0.000000   0.000000   0.000000   0.000000   0.000000   0.000000
    35  H    0.000000   0.000000   0.000000   0.000000   0.000000   0.000000
    36  H    0.000000   0.000000   0.000000   0.000000   0.000000   0.000000
    37  H    0.000000   0.000000   0.000000   0.000000   0.000000   0.000000
    38  H    0.000000   0.000000   0.000000   0.000000   0.000000   0.000000
    39  H    0.000000   0.000000   0.000000   0.000000   0.000000   0.000000
    40  H    0.000000   0.000000   0.000000   0.000000   0.000000   0.000000
    41  H    0.000000   0.000000   0.000000   0.000000   0.000000   0.000000
    42  H    0.000000   0.000000   0.000000   0.000000   0.000000   0.000000
    43  H    0.000000   0.000000   0.000000   0.000000   0.000000   0.000000
    44  H    0.000000   0.000000   0.000000   0.000000   0.000000   0.000000
    45  H    0.000000   0.000000   0.000000   0.000000   0.000000   0.000000
               7          8          9         10         11         12
     1  O    0.000000   0.000000   0.000000   0.000000   0.000000   0.000000
     2  C    0.000000   0.000000   0.000000   0.000000   0.000000   0.000000
     3  C    0.000000   0.000000   0.000000   0.000000   0.000000   0.000000
     4  O    0.000000   0.000000   0.000000   0.000000   0.000000   0.000000
     5  C    0.000000   0.000000   0.000000   0.000000   0.000000   0.000000
     6  C    0.000000   0.000000   0.000000   0.000000   0.000000   0.000000
     7  O    6.442719   0.000000   0.000000   0.000000   0.000000   0.000000
     8  C    0.000000   3.890053   0.000000   0.000000   0.000000   0.000000
     9  C    0.000000   0.000000   4.049434   0.000000   0.000000   0.000000
    10  O    0.000000   0.000000   0.000000   6.530593   0.000000   0.000000
    11  O    0.000000   0.000000   0.000000   0.000000   6.548900   0.000000
    12  C    0.000000   0.000000   0.000000   0.000000   0.000000   3.984403
    13  C    0.000000   0.000000   0.000000   0.000000   0.000000   0.000000
    14  C    0.000000   0.000000   0.000000   0.000000   0.000000   0.000000
    15  C    0.000000   0.000000   0.000000   0.000000   0.000000   0.000000
    16  O    0.000000   0.000000   0.000000   0.000000   0.000000   0.000000
    17  C    0.000000   0.000000   0.000000   0.000000   0.000000   0.000000
    18  C    0.000000   0.000000   0.000000   0.000000   0.000000   0.000000
    19  O    0.000000   0.000000   0.000000   0.000000   0.000000   0.000000
    20  O    0.000000   0.000000   0.000000   0.000000   0.000000   0.000000
    21  O    0.000000   0.000000   0.000000   0.000000   0.000000   0.000000
    22  O    0.000000   0.000000   0.000000   0.000000   0.000000   0.000000
    23  O    0.000000   0.000000   0.000000   0.000000   0.000000   0.000000
    24  H    0.000000   0.000000   0.000000   0.000000   0.000000   0.000000
    25  H    0.000000   0.000000   0.000000   0.000000   0.000000   0.000000
    26  H    0.000000   0.000000   0.000000   0.000000   0.000000   0.000000
    27  H    0.000000   0.000000   0.000000   0.000000   0.000000   0.000000
    28  H    0.000000   0.000000   0.000000   0.000000   0.000000   0.000000
    29  H    0.000000   0.000000   0.000000   0.000000   0.000000   0.000000
    30  H    0.000000   0.000000   0.000000   0.000000   0.000000   0.000000
    31  H    0.000000   0.000000   0.000000   0.000000   0.000000   0.000000
    32  H    0.000000   0.000000   0.000000   0.000000   0.000000   0.000000
    33  H    0.000000   0.000000   0.000000   0.000000   0.000000   0.000000
    34  H    0.000000   0.000000   0.000000   0.000000   0.000000   0.000000
    35  H    0.000000   0.000000   0.000000   0.000000   0.000000   0.000000
    36  H    0.000000   0.000000   0.000000   0.000000   0.000000   0.000000
    37  H    0.000000   0.000000   0.000000   0.000000   0.000000   0.000000
    38  H    0.000000   0.000000   0.000000   0.000000   0.000000   0.000000
    39  H    0.000000   0.000000   0.000000   0.000000   0.000000   0.000000
    40  H    0.000000   0.000000   0.000000   0.000000   0.000000   0.000000
    41  H    0.000000   0.000000   0.000000   0.000000   0.000000   0.000000
    42  H    0.000000   0.000000   0.000000   0.000000   0.000000   0.000000
    43  H    0.000000   0.000000   0.000000   0.000000   0.000000   0.000000
    44  H    0.000000   0.000000   0.000000   0.000000   0.000000   0.000000
    45  H    0.000000   0.000000   0.000000   0.000000   0.000000   0.000000
              13         14         15         16         17         18
     1  O    0.000000   0.000000   0.000000   0.000000   0.000000   0.000000
     2  C    0.000000   0.000000   0.000000   0.000000   0.000000   0.000000
[...]
 .00024886,0.00052676,-0.17110457,0.01419642,0.08482564,-0.00015932,-0.
 00002775,-0.00013712,-0.00018625,-0.00020971,-0.00019085,-0.00027234,-
 0.00002642,-0.00034838,0.00083012,0.00101462,-0.00208668,-0.00013026,-
 0.00006254,-0.00010476,-0.00005460,-0.00006443,0.00004406,-0.00000795,
 0.00002706,0.00002489,0.00007761,0.00002804,-0.00001516,0.00010117,-0.
 00006757,0.00003480,-0.00004203,0.00001551,0.00002038,-0.00013978,-0.0
 0035221,-0.00041742,-0.00010903,-0.00010335,-0.00030117,0.00010103,0.0
 0005993,0.00004336,0.00030055,0.00017215,0.00012747,0.00002386,0.00001
 213,-0.00001483,0.00001846,0.00003003,0.00000752,0.00012826,0.00012327
 ,0.00007002,-0.00013306,-0.00019969,-0.00020944,0.00018761,0.00008382,
 -0.00010998,0.16794336,-0.00003274,-0.00028144,0.00020318,0.00017818,0
 .00018584,-0.00003803,-0.00057464,0.00037431,-0.00109104,-0.00021170,-
 0.00031497,0.00047800,0.00810381,-0.00502596,-0.00681253,-0.00051370,0
 .00120376,0.00358033,0.00052489,-0.00060291,-0.00054989,-0.00049823,0.
 00006375,0.00004760,0.00010327,-0.00005302,-0.00005368,0.00001509,-0.0
 0004367,-0.00004818,0.00028009,0.00001829,0.00044748,-0.00017422,0.000
 11134,-0.00011051,-0.00016549,-0.00002251,0.00020320,0.00082073,0.0008
 8435,0.00007483,-0.00017895,0.00016073,0.00021393,0.00014945,-0.000415
 66,0.00000208,-0.00014682,0.00016784,-0.00016484,-0.00004146,-0.000026
 53,0.00004677,0.00003426,-0.00001876,0.00013715,0.00001497,-0.00013343
 ,-0.00009567,-0.00089614,-0.00087348,-0.00111620,0.00038510,-0.0001043
 8,0.00012049,0.00683971,-0.00210165,-0.01157002,0.00001622,-0.00000982
 ,-0.00001892,-0.00013688,0.00014592,0.00005622,0.00033011,0.00023921,-
 0.00023985,-0.00000406,0.00004745,-0.00241838,-0.00003582,-0.00020414,
 0.00053544,0.00001545,0.00002330,0.00003456,-0.00002122,0.00003034,-0.
 00001287,0.00001454,0.00003410,0.00000884,-0.00000614,0.00002249,0.000
 04191,-0.00000673,-0.00003045,0.00000147,-0.00073691,-0.00005693,-0.00
 051974,-0.00006380,-0.00000750,0.00000077,0.00003773,0.00004371,0.0000
 1685,0.00004136,0.00007788,-0.00000043,-0.00000370,0.00000178,-0.00002
 442,-0.00000057,0.00002084,-0.00001443,0.00001638,0.00001316,-0.000055
 94,-0.00016478,-0.00002929,-0.00008523,0.00005593,-0.00004503,-0.00012
 188,-0.01337850,0.00637575,-0.00010325,0.00011595,0.00012547,0.0009169
 6,-0.00008884,-0.00036206,0.00009106,-0.00201998,-0.00647507,-0.000534
 36,0.00071615,0.00007271,0.03995310,-0.00465301,-0.03921408,-0.0012862
 8,0.00201801,-0.00550795,-0.00030746,-0.00022080,0.00199761,0.00078177
 ,-0.00013144,-0.00009237,-0.00014643,0.00020602,-0.00008238,0.00003077
 ,-0.00017326,0.00017447,0.00016560,0.00044171,-0.00001894,0.00003363,-
 0.00002830,-0.00006043,-0.00039142,-0.00009004,0.00028454,-0.00040078,
 -0.00060965,-0.00045413,-0.00037196,0.00000258,-0.00022870,0.00008286,
 0.00008853,0.00012137,0.00002869,0.00002425,-0.00000386,0.00009668,-0.
 00003088,-0.00001735,-0.00003725,0.00010315,0.00007374,0.00037025,0.00
 006192,0.00007133,0.00145794,-0.00030345,0.00069427,0.00030384,0.00028
 367,-0.00051407,0.04633346,-0.01259104,-0.06544670,0.00001044,0.000048
 16,-0.00022865,-0.00033113,0.00002816,0.00000941,0.00026945,-0.0003606
 7,0.00017935,-0.00009658,-0.00171785,-0.00029067,0.00028141,0.00040682
 ,-0.00015817,-0.00000056,0.00004764,-0.00002699,0.00004224,-0.00004092
 ,0.00000060,-0.00001687,-0.00003551,-0.00002201,-0.00004630,0.00005354
 ,-0.00005790,-0.00004190,-0.00002635,0.00000878,-0.00031953,-0.0002945
 4,0.00016140,-0.00010319,0.00016540,0.00020554,-0.00003402,0.00000874,
 0.00000325,-0.00005537,-0.00008553,-0.00006237,-0.00003101,-0.00002215
 ,-0.00000112,-0.00001514,-0.00000017,-0.00002011,0.00000110,-0.0000511
 4,-0.00006084,0.00006816,-0.00008799,0.00026569,-0.00000629,-0.0001355
 3,-0.00001857,-0.08659631,0.01913312,0.11506273,0.00017282,0.00002204,
 -0.00002120,0.00001755,-0.00005915,-0.00001061,-0.00009846,0.00008902,
 0.00000701,0.00013746,-0.00007485,0.00009517,0.00006623,-0.00000469,-0
 .00017742,-0.00063103,0.00016546,0.00033194,0.00011129,0.00007118,-0.0
 0011858,-0.00021054,0.00001530,-0.00000109,0.00009414,-0.00011739,0.00
 005264,0.00002420,0.00013168,-0.00007612,0.00023104,-0.00040142,0.0002
 2372,-0.00030843,0.00017322,-0.00017614,0.00053059,0.00050894,-0.00002
 963,-0.00079226,-0.00121544,-0.00144600,-0.05170810,-0.03686043,-0.001
 17636,0.00128603,0.00004978,0.00233954,-0.00098740,0.00047197,-0.00124
 817,-0.00012678,0.00008910,0.00030016,0.00046780,-0.00037190,-0.000184
 81,-0.07895778,-0.05760211,-0.00325940,0.00113407,0.00045810,0.0005756
 2,-0.00084073,-0.00060258,0.00047732,0.00002017,0.00001530,0.00019365,
 -0.00003603,-0.00000260,0.00001618,-0.00001454,-0.00002983,-0.00001805
 ,-0.00004854,0.00001217,-0.00006769,-0.00004401,-0.00002895,-0.0000166
 6,0.00005515,-0.00008086,-0.00007048,-0.00002089,-0.00002714,0.0000115
 2,-0.00003805,0.00001446,0.00001796,-0.00008634,-0.00001918,0.00001952
 ,-0.00001920,-0.00004376,0.00002618,0.00017646,0.00012074,0.00000149,-
 0.00011455,-0.00007693,-0.00002570,0.00029957,-0.00019372,-0.00069505,
 -0.00618136,0.00064015,-0.00103531,-0.00014673,-0.00022214,0.00002381,
 0.00012193,0.00011474,0.00000838,0.00002165,-0.00000545,0.00010404,-0.
 00015211,-0.00003332,0.00009541,0.00008798,0.00020530,-0.00012031,-0.0
 0002861,0.00018435,0.00001749,-0.00000026,0.00000377,-0.00008837,0.136
 62394,0.00003409,-0.00023345,-0.00000899,0.00010703,0.00013464,-0.0000
 0774,-0.00013751,0.00009607,-0.00002753,0.00011044,-0.00016191,0.00010
 899,0.00004048,-0.00007402,-0.00015642,-0.00068212,0.00038691,-0.00003
 453,0.00066677,-0.00013227,-0.00028702,-0.00035100,0.00011519,0.000287
 93,0.00011965,-0.00014824,0.00004443,0.00001900,0.00007733,-0.00012241
 ,-0.00032525,-0.00015560,-0.00005981,0.00000174,-0.00006139,0.00021266
 ,0.00070193,0.00045841,-0.00001741,0.00116943,-0.00011526,-0.00122660,
 -0.00443599,0.00971296,-0.00021366,-0.00147812,-0.00317685,0.00089514,
 0.00009379,0.00014212,-0.00120200,0.00008052,-0.00013364,0.00022181,-0
 .00010760,-0.00022759,-0.00009411,-0.09362307,-0.15341756,0.00963139,0
 .00081361,-0.00020653,0.00086804,-0.00072987,-0.00074397,-0.00052449,0
 .00002429,-0.00008560,0.00023554,-0.00003078,-0.00003140,0.00002126,-0
 .00001511,-0.00001741,-0.00001814,-0.00001534,0.00003716,-0.00006758,0
 .00004555,0.00011283,0.00001839,0.00008278,-0.00009976,-0.00003194,0.0
 0003790,-0.00004043,-0.00002971,-0.00002990,0.00005561,0.00002887,-0.0
 0007080,0.00005426,0.00006700,-0.00002706,-0.00002216,0.00006553,0.000
 29895,-0.00001997,0.00009609,-0.00003124,-0.00011950,-0.00002404,0.000
 14179,0.00014873,-0.00054744,0.00262689,-0.00086309,0.00136986,-0.0000
 1083,0.00013298,0.00007060,0.00021007,0.00001723,-0.00004266,0.0000781
 6,0.00003453,0.00000712,0.00003544,0.00010062,0.00002300,0.00001024,0.
 00017252,0.00014944,0.00007233,0.00007791,-0.00003954,0.00001887,0.000
 07118,-0.00008828,0.09448902,0.14805663,-0.00008146,-0.00010209,-0.000
 08903,0.00004347,0.00010225,0.00005694,-0.00005957,0.00002636,0.000009
 76,0.00004794,-0.00004876,-0.00004103,0.00004885,-0.00001491,-0.000031
 29,-0.00054456,0.00031371,0.00070892,0.00002586,-0.00014021,-0.0004249
 2,-0.00017630,-0.00002903,0.00001810,-0.00000668,-0.00003028,0.0000333
 6,-0.00007297,-0.00004077,-0.00010115,0.00014863,-0.00001952,-0.000396
 01,-0.00011430,0.00004401,0.00009284,-0.00083072,0.00016576,0.00037046
 ,-0.00276270,-0.00029178,-0.00086423,-0.00239019,-0.00776558,-0.001010
 53,-0.00034233,0.00212870,-0.00070148,0.00052628,-0.00132917,0.0004805
 3,0.00020610,-0.00009034,-0.00017678,-0.00034164,0.00011484,-0.0000921
 8,0.00008711,0.01600046,-0.00466840,0.00074549,-0.00007022,-0.00059181
 ,0.00078322,-0.00041116,0.00040767,0.00008393,-0.00002928,-0.00007631,
 -0.00000692,-0.00001171,-0.00000254,0.00000341,0.00000135,-0.00000884,
 -0.00002458,0.00000449,0.00001457,-0.00001726,0.00002645,0.00004669,0.
 00011872,-0.00005033,-0.00007162,0.00000245,0.00000628,0.00000367,0.00
 002016,0.00001202,-0.00000274,0.00012865,0.00005924,0.00000732,0.00004
 517,0.00004322,0.00006358,-0.00002450,0.00003482,0.00000921,0.00000576
 ,-0.00001119,-0.00006329,-0.00104365,-0.00010343,-0.00064608,0.0003799
 1,0.00076276,0.00110776,0.00001920,0.00021736,-0.00005667,0.00002664,-
 0.00006787,0.00005656,0.00006920,-0.00005196,-0.00000702,0.00009913,0.
 00007065,0.00000880,0.00016458,0.00009577,-0.00003287,-0.00003796,-0.0
 0001974,0.00019542,-0.00009211,0.00001317,0.00000432,0.00512801,-0.009
 52684,0.00641197,-0.03719440,0.04855172,-0.05581758,0.00344040,-0.0069
 5005,0.00959236,0.00268965,-0.00176124,0.00035548,-0.00302434,0.000380
 47,-0.00039512,-0.00049968,0.00015180,0.00059434,-0.00037348,0.0002609
 8,0.00010384,-0.00007658,-0.00032408,0.00008453,-0.00100454,-0.0006010
 3,-0.00081865,-0.00010092,0.00027612,-0.00019521,-0.00002964,-0.000177
 06,0.00014607,0.00127417,0.00034960,-0.00073856,-0.00046146,0.00021326
 ,-0.00001769,-0.00029090,-0.00004598,0.00019943,0.00016539,0.00000111,
 -0.00007803,-0.00036305,0.00032981,0.00017931,0.00043601,-0.00057133,0
 .00004006,-0.00037374,0.00030619,-0.00012965,-0.00012825,0.00007268,-0
 .00011424,0.00047014,0.00065295,0.00109971,0.00032699,-0.00007663,-0.0
 0001216,0.00007877,-0.00007392,-0.00005085,0.00027630,0.00010052,-0.00
 023467,0.00002477,-0.00015936,-0.00064121,-0.00033209,-0.00300958,-0.0
 0129716,-0.00012097,0.00045497,-0.00011495,0.00070044,0.00105777,0.000
 65942,-0.00017092,0.00050507,0.00056850,0.00004929,0.00002588,0.000061
 78,0.00028298,-0.00005976,0.00000757,0.00013039,-0.00006215,-0.0000532
 1,0.00003899,0.00002475,0.00001038,-0.00001709,0.00003911,-0.00002826,
 -0.00005374,-0.00005288,-0.00001502,0.00000941,-0.00001180,0.00005564,
 -0.00005857,0.00003494,0.00004371,0.00003875,0.00004496,-0.00003047,-0
 .00047700,0.00032275,-0.00036058,-0.00006857,-0.00006384,-0.00004593,-
 0.00002682,0.00001925,-0.00011150,0.00008544,-0.00059823,-0.00171651,-
 0.00002827,-0.00007924,0.00010961,-0.00071944,-0.00082775,0.00042249,-
 0.00014115,0.00001204,0.00004200,-0.00008753,-0.00002984,0.00001252,0.
 03570447,0.03116273,-0.10952630,0.05761352,0.01092314,-0.05251246,0.01
 885576,0.00012292,-0.00244268,-0.00443543,-0.00222766,-0.00476061,-0.0
 0447288,0.00030466,-0.00044565,-0.00048857,0.00090531,-0.00039922,-0.0
 0074941,-0.00120773,0.00066581,0.00064527,-0.00064529,-0.00499271,-0.0
 0131120,-0.00022886,-0.00036025,0.00050468,-0.00028182,0.00059182,-0.0
 0042401,0.00119264,-0.00110257,-0.00025277,-0.00065282,0.00042304,-0.0
 0030353,0.00008308,0.00004019,0.00000151,0.00019460,0.00036471,0.00011
 312,0.00022010,0.00020181,0.00019428,-0.00005131,-0.00047113,-0.000059
 85,-0.00025102,-0.00006319,-0.00014616,-0.00096247,0.00059081,0.000122
 20,0.00176453,-0.00039054,0.00070551,-0.00015257,-0.00016371,-0.000056
 52,-0.00081445,-0.00021845,0.00013231,-0.00002410,-0.00019714,0.000013
 71,-0.00044470,-0.00007678,0.00068213,-0.00134756,-0.00071082,0.000699
 33,-0.00008110,-0.00052945,0.00058301,0.00021685,0.00092046,-0.0003775
 1,0.00029499,0.00056608,-0.00014281,-0.00006799,-0.00004427,-0.0000151
 1,0.00035276,-0.00049950,0.00020859,0.00006308,-0.00002110,0.00023846,
 0.00019227,0.00005939,0.00000763,0.00022737,-0.00010726,0.00001139,0.0
 0003611,-0.00002530,0.00005941,0.00003088,0.00003743,-0.00001318,0.000
 00882,-0.00005471,-0.00004044,0.00008453,0.00003603,-0.00003442,0.0010
 6521,0.00040187,0.00004533,0.00006124,-0.00008755,-0.00002182,0.000095
 81,0.00002877,-0.00005207,-0.00065962,0.00081162,-0.00084840,-0.000027
 83,0.00009011,-0.00000601,-0.00109258,0.00032927,0.00043765,0.00024188
 ,0.00008445,-0.00006638,0.00002801,0.00009254,0.00001266,-0.03865291,0
 .17386759,-0.05410995,0.08014954,-0.09047115,0.00722972,-0.00343755,0.
 00950438,0.00144077,-0.00875486,0.00020575,-0.00102749,0.00249158,-0.0
 0017843,-0.00038113,0.00033912,-0.00032645,0.00023476,-0.00038339,0.00
 217011,0.00102232,0.00021529,-0.00197339,-0.00304211,-0.00397015,-0.00
 039417,0.00002783,0.00042218,-0.00081862,0.00021146,-0.00039197,0.0002
 8763,-0.00149405,0.00016257,-0.00011873,0.00065887,-0.00050062,0.00027
 376,0.00002410,0.00003838,-0.00013169,0.00004380,-0.00009218,0.0000881
 7,-0.00004424,0.00003278,0.00022633,0.00004975,0.00014728,-0.00030266,
 0.00017114,-0.00003501,0.00020750,-0.00018101,0.00042807,-0.00007916,0
 .00081978,0.00002196,-0.00053409,0.00003440,0.00005148,-0.00010562,-0.
 00012020,0.00031513,-0.00047110,-0.00013082,-0.00000619,-0.00002555,-0
 .00025490,0.00068328,-0.00005305,0.00041205,-0.00045635,-0.00006811,-0
 .00026979,0.00042915,-0.00025301,0.00064658,0.00124266,-0.00043911,0.0
 0050767,-0.00050201,-0.00022999,-0.00010743,0.00007928,-0.00010190,0.0
 0077628,-0.00033027,0.00038245,-0.00012619,0.00005784,-0.00003977,-0.0
 0015975,-0.00004883,0.00004891,-0.00019304,0.00012981,-0.00004397,-0.0
 0003750,0.00007151,-0.00003997,0.00011378,-0.00002656,0.00003649,0.000
 00754,-0.00000725,0.00000994,-0.00006294,-0.00005569,0.00001787,-0.000
 52420,-0.00015091,0.00020917,0.00001139,-0.00008466,0.00003532,-0.0000
 6775,-0.00006375,0.00000103,-0.00154280,-0.00069394,-0.00029579,0.0000
 4256,0.00000640,0.00002118,0.00058731,0.00030606,0.00037749,0.00017921
 ,-0.00023478,-0.00009122,-0.00000386,-0.00002467,0.00004873,0.04862867
 ,-0.06757008,0.08343541\\0.00003029,0.00000664,0.00002736,0.00000893,0
 .00002870,-0.00000483,0.00010314,-0.00001607,-0.00003767,-0.00004188,0
 .00000773,-0.00001539,-0.00015316,-0.00005013,-0.00001866,-0.00002296,
 0.00003662,0.00010987,-0.00001261,-0.00004269,-0.00008450,0.00002339,-
 0.00002428,-0.00004452,0.00001609,-0.00012088,0.00005802,-0.00003746,0
 .00014820,-0.00000239,-0.00001396,0.00000168,-0.00001967,0.00006008,0.
 00006112,0.00008553,0.00008366,-0.00012901,-0.00009050,-0.00007765,-0.
 00007209,0.00013024,0.00000775,0.00007808,-0.00008696,0.00000446,-0.00
 008119,0.00008381,-0.00003568,0.00010597,-0.00016486,-0.00004988,0.000
 04237,0.00003627,0.00004146,-0.00000395,0.00001649,0.00003560,0.000026
 17,-0.00001940,0.00010693,0.00009214,-0.00002776,-0.00002286,0.0000907
 6,0.00007130,-0.00005695,-0.00003211,0.00003822,-0.00001065,-0.0000286
 0,0.00000129,-0.00001733,-0.00000376,-0.00000653,0.00000317,0.00003197
 ,-0.00002474,0.00003977,0.00001112,0.00001912,-0.00001611,-0.00002603,
 -0.00000943,-0.00000976,-0.00001184,-0.00000298,-0.00001450,-0.0000161
 3,0.00004045,0.00001780,-0.00002426,0.00002668,0.00002967,0.00002734,-
 0.00004025,-0.00000355,-0.00003430,0.00000253,-0.00002844,0.00002686,0
 .00001131,0.00004702,-0.00002343,-0.00002942,0.00000624,0.00000408,0.0
 0002571,-0.00004425,-0.00003562,0.00003912,-0.00000829,-0.00003587,-0.
 00002543,-0.00002705,-0.00000540,-0.00000794,0.00001610,-0.00002536,0.
 00002614,-0.00000977,-0.00006381,-0.00003293,-0.00001798,0.00002343,-0
 .00001431,0.00004905,0.00002232,-0.00003168,0.00000362,-0.00002349,-0.
 00001573,-0.00000154,0.00005700,0.00000902\\\@


                                                                                    A
                                                                                  AA
                                                                                 AAA
                                                                                AAAA
                                                                               AAAAA
                                                                              AAAAAA   KKKKKKKK
                                                                             AAAAAAA   KKKKKKKK
                                                                            AAAAAAAA   KKKKKKKK
                                       ZZZZZZZZZZZZZZZZZZZZ                AAAA  AAA   KKKKKKKK
                                       ZZZZZZZZZZZZZZZZZZZ                AAAA   AAA   KKKKKKKK          K
                                       ZZZZZZZZZZZZZZZZZZ                AAAA    AAA   KKKKKKKK         KKK
                                       ZZZZZZZZZZZZZZZZZ                AAAA     AAA   KKKKKKKK        KKKKK
                                       ZZZZZZZZZZZZZZZZ                AAAA      AAA   KKKKKKKK       KKKKKKK
                                                ZZZZZZ                AAAA       AAA   KKKKKKKK      KKKKKKK
                                               ZZZZZZ                AAAA        AAA   KKKKKKKK     KKKKKKK
                                              ZZZZZZ                AAAA         AAA   KKKKKKKK    KKKKKKK
                                             ZZZZZZ                AAAA          AAA   KKKKKKKK   KKKKKKK
                                            ZZZZZZ                AAAAAAAAAAAAAAAAAA   KKKKKKKK  KKKKKKK
                                           ZZZZZZ                AAAAAAAAAAAAAAAAAAA   KKKKKKKK KKKKKKK
                                          ZZZZZZ                AAAAAAAAAAAAAAAAAAAA   KKKKKKKKKKKKKKK
                                         ZZZZZZ                AAAAAAAAAAAAAAAAAAAAA   KKKKKKKKKKKKKK
                                        ZZZZZZ                AAAAAA        AAAAAAAA   KKKKKKKKKKKKK
                                       ZZZZZZ                AAAAAA         AAAAAAAA   KKKKKKKKKKKK
                                      ZZZZZZ                AAAAAA          AAAAAAAA   KKKKKKKKKKK
                                     ZZZZZZ                AAAAAA           AAAAAAAA   KKKKKKKKKKKK
                                    ZZZZZZ                AAAAAA            AAAAAAAA   KKKKKKKKKKKKK
                                   ZZZZZZ                AAAAAA             AAAAAAAA   KKKKKKKKKKKKKK
                                  ZZZZZZ                AAAAAA              AAAAAAAA   KKKKKKKKKKKKKKK
                                 ZZZZZZ                AAAAAA               AAAAAAAA   KKKKK KKKKKKKKKK
                                ZZZZZZ                AAAAAA                AAAAAAAA   KKKKK  KKKKKKKKKK
                               ZZZZZZ                AAAAAA                            KKKKK   KKKKKKKKKK
                              ZZZZZZ                AAAAAA                             KKKKK    KKKKKKKKKK
                             ZZZZZZ                                                    KKKKK     KKKKKKKKKK
                            ZZZZZZ                                                     KKKKK      KKKKKKKKKK
                           ZZZZZZ                                                      KKKKK       KKKKKKKKKK
                          ZZZZZZ                                                       KKKKK        KKKKKKKKKK
                         ZZZZZZZZZZZZZZZZZZZZZZZZZZZZZZZZZZZZZZZZ                      KKKKK         KKKKKKKKKK
                        ZZZZZZZZZZZZZZZZZZZZZZZZZZZZZZZZZZZZZZZZZ                      KKKKK          KKKKKKKKKK
                       ZZZZZZZZZZZZZZZZZZZZZZZZZZZZZZZZZZZZZZZZZZ                      KKKKK           KKKKKKKKKK
                       ZZZZZZZZZZZZZZZZZZZZZZZZZZZZZZZZZZZZZZZZZZ                      KKKKK            KKKKKKKKKK
                       ZZZZZZZZZZZZZZZZZZZZZZZZZZZZZZZZZZZZZZZZZZ                      KKKKK             KKKKKKKKKK
                       ZZZZZZZZZZZZZZZZZZZZZZZZZZZZZZZZZZZZZZZZZZ                      KKKKK              KKKKKKKKKK
                       ZZZZZZZZZZZZZZZZZZZZZZZZZZZZZZZZZZZZZZZZZZ                      KKKKK               KKKKKKKKKK
                       ZZZZZZZZZZZZZZZZZZZZZZZZZZZZZZZZZZZZZZZZZZ                      KKKKK                KKKKKKKKKK
                       ZZZZZZZZZZZZZZZZZZZZZZZZZZZZZZZZZZZZZZZZZZ                      KKKKK
                                                                                       KKKKK
                                                                                          (J.P.)
 Job cpu time:       0 days  0 hours  0 minutes 11.3 seconds.
 Elapsed time:       0 days  0 hours  0 minutes  1.0 seconds.
 File lengths (MBytes):  RWF=    217 Int=      0 D2E=      0 Chk=      4 Scr=      1
 Normal termination of Gaussian 16 at Tue Jun 22 14:18:35 2021.
