 Entering Gaussian System, Link 0=g09
 Initial command:
 /share/apps//g09/l1.exe "/scratch/Gau-42367.inp" -scrdir="/scratch/"
 Entering Link 1 = /share/apps//g09/l1.exe PID=     42368.
  
 Copyright (c) 1988,1990,1992,1993,1995,1998,2003,2009,2013,
            Gaussian, Inc.  All Rights Reserved.
  
 This is part of the Gaussian(R) 09 program.  It is based on
 the Gaussian(R) 03 system (copyright 2003, Gaussian, Inc.),
 the Gaussian(R) 98 system (copyright 1998, Gaussian, Inc.),
 the Gaussian(R) 94 system (copyright 1995, Gaussian, Inc.),
 the Gaussian 92(TM) system (copyright 1992, Gaussian, Inc.),
 the Gaussian 90(TM) system (copyright 1990, Gaussian, Inc.),
 the Gaussian 88(TM) system (copyright 1988, Gaussian, Inc.),
 the Gaussian 86(TM) system (copyright 1986, Carnegie Mellon
 University), and the Gaussian 82(TM) system (copyright 1983,
 Carnegie Mellon University). Gaussian is a federally registered
 trademark of Gaussian, Inc.
  
 This software contains proprietary and confidential information,
 including trade secrets, belonging to Gaussian, Inc.
  
 This software is provided under written license and may be
 used, copied, transmitted, or stored only in accord with that
 written license.
  
 The following legend is applicable only to US Government
 contracts under FAR:
  
                    RESTRICTED RIGHTS LEGEND
  
 Use, reproduction and disclosure by the US Government is
 subject to restrictions as set forth in subparagraphs (a)
 and (c) of the Commercial Computer Software - Restricted
 Rights clause in FAR 52.227-19.
  
 Gaussian, Inc.
 340 Quinnipiac St., Bldg. 40, Wallingford CT 06492
  
  
 ---------------------------------------------------------------
 Warning -- This program may not be used in any manner that
 competes with the business of Gaussian, Inc. or will provide
 assistance to any competitor of Gaussian, Inc.  The licensee
 of this program is prohibited from giving any competitor of
 Gaussian, Inc. access to this program.  By using this program,
 the user acknowledges that Gaussian, Inc. is engaged in the
 business of creating and licensing software in the field of
 computational chemistry and represents and warrants to the
 licensee that it is not a competitor of Gaussian, Inc. and that
 it will not use this program in any manner prohibited above.
 ---------------------------------------------------------------
  

 Cite this work as:
 Gaussian 09, Revision D.01,
 M. J. Frisch, G. W. Trucks, H. B. Schlegel, G. E. Scuseria, 
 M. A. Robb, J. R. Cheeseman, G. Scalmani, V. Barone, B. Mennucci, 
 G. A. Petersson, H. Nakatsuji, M. Caricato, X. Li, H. P. Hratchian, 
 A. F. Izmaylov, J. Bloino, G. Zheng, J. L. Sonnenberg, M. Hada, 
 M. Ehara, K. Toyota, R. Fukuda, J. Hasegawa, M. Ishida, T. Nakajima, 
 Y. Honda, O. Kitao, H. Nakai, T. Vreven, J. A. Montgomery, Jr., 
 J. E. Peralta, F. Ogliaro, M. Bearpark, J. J. Heyd, E. Brothers, 
 K. N. Kudin, V. N. Staroverov, T. Keith, R. Kobayashi, J. Normand, 
 K. Raghavachari, A. Rendell, J. C. Burant, S. S. Iyengar, J. Tomasi, 
 M. Cossi, N. Rega, J. M. Millam, M. Klene, J. E. Knox, J. B. Cross, 
 V. Bakken, C. Adamo, J. Jaramillo, R. Gomperts, R. E. Stratmann, 
 O. Yazyev, A. J. Austin, R. Cammi, C. Pomelli, J. W. Ochterski, 
 R. L. Martin, K. Morokuma, V. G. Zakrzewski, G. A. Voth, 
 P. Salvador, J. J. Dannenberg, S. Dapprich, A. D. Daniels, 
 O. Farkas, J. B. Foresman, J. V. Ortiz, J. Cioslowski, 
 and D. J. Fox, Gaussian, Inc., Wallingford CT, 2013.
 
 ******************************************
 Gaussian 09:  EM64L-G09RevD.01 24-Apr-2013
                 7-Apr-2016 
 ******************************************
 %nproc=20
 Will use up to   20 processors via shared memory.
 %mem=80GB
 %chk=Tri_A131_of.chk
 ----------------------------------------------------------------------
 #P PBE1PBE/6-311+G(d,p) opt=ModRedundant freq optcyc=999 EmpiricalDisp
 ersion=GD3
 ----------------------------------------------------------------------
 1/6=999,14=-1,18=120,19=15,26=3,38=1/1,3;
 2/9=110,12=2,17=6,18=5,40=1/2;
 3/5=4,6=6,7=111,11=2,16=1,25=1,30=1,71=1,74=-13,124=31/1,2,3;
 4//1;
 5/5=2,38=5/2;
 6/7=2,8=2,9=2,10=2,28=1/1;
 7//1,2,3,16;
 1/6=999,14=-1,18=20,19=15,26=3/3(2);
 2/9=110/2;
 99//99;
 2/9=110/2;
 3/5=4,6=6,7=111,11=2,16=1,25=1,30=1,71=1,74=-13,124=31/1,2,3;
 4/5=5,16=3,69=1/1;
 5/5=2,38=5/2;
 7//1,2,3,16;
 1/6=999,14=-1,18=20,19=15,26=3/3(-5);
 2/9=110/2;
 6/7=2,8=2,9=2,10=2,19=2,28=1/1;
 99/9=1/99;
 Leave Link    1 at Thu Apr  7 06:10:49 2016, MaxMem= 10737418240 cpu:         1.7
 (Enter /share/apps//g09/l101.exe)
 -------
 disacch
 -------
 Symbolic Z-matrix:
 Charge =  1 Multiplicity = 1
 O                     3.07751  -1.83886   5.58658 
 C                     2.27348  -1.51198   6.72405 
 C                     3.16286  -1.00573   7.86109 
 C                     4.03367   0.17561   7.40513 
 C                     4.78503  -0.17543   6.1 
 C                     3.77984  -0.67258   5.05827 
 H                     1.78852  -2.45753   7.00647 
 H                     3.82333  -1.84752   8.1469 
 H                     3.37907   1.0428    7.22087 
 H                     5.28148   0.73566   5.73037 
 H                     3.03899   0.12429   4.87544 
 O                     5.84602  -1.1062    6.35812 
 O                     4.92505   0.55761   8.44601 
 O                     2.30804  -0.67696   8.95439 
 O                     1.33068  -0.49746   6.42726 
 C                     4.35866  -1.09035   3.72156 
 H                     4.95699  -0.25389   3.32073 
 H                     5.01967  -1.96503   3.84093 
 O                     3.24041  -1.39371   2.87346 
 H                     3.58192  -1.68593   2.01228 
 H                     5.45553  -1.99905   6.41592 
 H                     5.71077  -0.02084   8.36248 
 H                     2.84941  -0.20476   9.61429 
 O                    -2.25019  -2.47919   5.33793 
 C                    -2.14353  -1.93072   6.67327 
 C                    -0.66368  -1.78428   7.04875 
 C                     0.01274  -0.88558   6.0142 
 C                    -0.05627  -1.53536   4.61961 
 C                    -1.5307   -1.81893   4.27118 
 H                    -2.65162  -0.95148   6.7348 
 H                    -0.21419  -2.79292   7.01345 
 H                    -0.5212    0.0793    5.97078 
 H                     0.33127  -0.82074   3.87216 
 H                    -2.01311  -0.84371   4.06338 
 O                     0.70154  -2.75504   4.54751 
 O                    -0.61196  -1.25665   8.36914 
 O                    -2.87369  -2.76269   7.53697 
 C                    -1.69738  -2.69137   3.01963 
 H                    -2.76739  -2.82733   2.80604 
 H                    -1.25372  -2.15088   2.16476 
 O                    -1.1168   -3.9971    3.14373 
 H                    -0.22077  -3.82607   3.53116 
 H                     1.65877  -2.51168   4.51556 
 H                     0.29614  -0.91818   8.54334 
 O                    -3.49884  -6.32223   6.96287 
 C                    -2.48051  -7.01936   7.70677 
 C                    -1.39407  -6.14159   8.36194 
 C                    -1.81421  -4.70335   8.70208 
 C                    -2.54958  -4.16747   7.47073 
 C                    -3.84835  -4.98621   7.3495 
 H                    -2.96414  -7.6404    8.48349 
 H                    -0.57839  -6.04377   7.61727 
 H                    -2.50088  -4.6973    9.57011 
 H                    -4.3719   -4.9888    8.32658 
 H                    -1.93555  -4.34794   6.5744 
 O                    -0.59992  -4.03898   9.02732 
 O                    -0.94546  -6.85933   9.50094 
 O                    -1.81225  -7.82953   6.76335 
 C                    -4.84364  -4.47118   6.31583 
 H                    -5.66803  -5.19165   6.23068 
 H                    -5.25385  -3.50989   6.65714 
 O                    -4.28165  -4.33097   4.99839 
 H                    -3.66738  -3.55738   5.03281 
 H                    -0.78176  -3.08793   9.19928 
 H                    -0.23342  -6.33083   9.9062 
 C                    -2.55003  -8.9994    6.33393 
 H                    -2.75354  -9.63512   7.21198 
 H                    -3.52129  -8.68976   5.91515 
 C                    -1.69564  -9.76192   5.32309 
 H                    -2.31654  -10.57216   4.90663 
 H                    -0.88017  -10.25309   5.87544 
 C                    -1.04964  -8.94678   4.18614 
 H                    -0.45916  -8.12618   4.6261 
 H                    -0.30185  -9.59868   3.71002 
 C                    -1.94084  -8.41684   3.04663 
 H                    -1.28218  -7.98479   2.2753 
 H                    -2.45857  -9.25837   2.55877 
 C                    -3.01649  -7.38763   3.39818 
 H                    -3.82682  -7.8286    3.99203 
 H                    -3.46641  -6.97114   2.48725 
 N                    -2.48943  -6.23739   4.1986 
 H                    -2.0365   -6.58971   5.06197 
 H                    -3.27348  -5.59775   4.52537 
 H                    -1.8398   -5.60412   3.67882 
 
 The following ModRedundant input section has been read:
 B      41      84 B                                                           
 B      62      83 B                                                           
 B      24      63 B                                                           
 B       1      43 B                                                           
 B      58      82 B                                                           
 
 NAtoms=     84 NQM=       84 NQMF=       0 NMMI=      0 NMMIF=      0
                NMic=       0 NMicF=      0.
                    Isotopes and Nuclear Properties:
 (Nuclear quadrupole moments (NQMom) in fm**2, nuclear magnetic moments (NMagM)
  in nuclear magnetons)

  Atom         1           2           3           4           5           6           7           8           9          10
 IAtWgt=          16          12          12          12          12          12           1           1           1           1
 AtmWgt=  15.9949146  12.0000000  12.0000000  12.0000000  12.0000000  12.0000000   1.0078250   1.0078250   1.0078250   1.0078250
 NucSpn=           0           0           0           0           0           0           1           1           1           1
 AtZEff=   0.0000000   0.0000000   0.0000000   0.0000000   0.0000000   0.0000000   0.0000000   0.0000000   0.0000000   0.0000000
 NQMom=    0.0000000   0.0000000   0.0000000   0.0000000   0.0000000   0.0000000   0.0000000   0.0000000   0.0000000   0.0000000
 NMagM=    0.0000000   0.0000000   0.0000000   0.0000000   0.0000000   0.0000000   2.7928460   2.7928460   2.7928460   2.7928460
 AtZNuc=   8.0000000   6.0000000   6.0000000   6.0000000   6.0000000   6.0000000   1.0000000   1.0000000   1.0000000   1.0000000

  Atom        11          12          13          14          15          16          17          18          19          20
 IAtWgt=           1          16          16          16          16          12           1           1          16           1
 AtmWgt=   1.0078250  15.9949146  15.9949146  15.9949146  15.9949146  12.0000000   1.0078250   1.0078250  15.9949146   1.0078250
 NucSpn=           1           0           0           0           0           0           1           1           0           1
 AtZEff=   0.0000000   0.0000000   0.0000000   0.0000000   0.0000000   0.0000000   0.0000000   0.0000000   0.0000000   0.0000000
 NQMom=    0.0000000   0.0000000   0.0000000   0.0000000   0.0000000   0.0000000   0.0000000   0.0000000   0.0000000   0.0000000
 NMagM=    2.7928460   0.0000000   0.0000000   0.0000000   0.0000000   0.0000000   2.7928460   2.7928460   0.0000000   2.7928460
 AtZNuc=   1.0000000   8.0000000   8.0000000   8.0000000   8.0000000   6.0000000   1.0000000   1.0000000   8.0000000   1.0000000

  Atom        21          22          23          24          25          26          27          28          29          30
 IAtWgt=           1           1           1          16          12          12          12          12          12           1
 AtmWgt=   1.0078250   1.0078250   1.0078250  15.9949146  12.0000000  12.0000000  12.0000000  12.0000000  12.0000000   1.0078250
 NucSpn=           1           1           1           0           0           0           0           0           0           1
 AtZEff=   0.0000000   0.0000000   0.0000000   0.0000000   0.0000000   0.0000000   0.0000000   0.0000000   0.0000000   0.0000000
 NQMom=    0.0000000   0.0000000   0.0000000   0.0000000   0.0000000   0.0000000   0.0000000   0.0000000   0.0000000   0.0000000
 NMagM=    2.7928460   2.7928460   2.7928460   0.0000000   0.0000000   0.0000000   0.0000000   0.0000000   0.0000000   2.7928460
 AtZNuc=   1.0000000   1.0000000   1.0000000   8.0000000   6.0000000   6.0000000   6.0000000   6.0000000   6.0000000   1.0000000

  Atom        31          32          33          34          35          36          37          38          39          40
 IAtWgt=           1           1           1           1          16          16          16          12           1           1
 AtmWgt=   1.0078250   1.0078250   1.0078250   1.0078250  15.9949146  15.9949146  15.9949146  12.0000000   1.0078250   1.0078250
 NucSpn=           1           1           1           1           0           0           0           0           1           1
 AtZEff=   0.0000000   0.0000000   0.0000000   0.0000000   0.0000000   0.0000000   0.0000000   0.0000000   0.0000000   0.0000000
 NQMom=    0.0000000   0.0000000   0.0000000   0.0000000   0.0000000   0.0000000   0.0000000   0.0000000   0.0000000   0.0000000
 NMagM=    2.7928460   2.7928460   2.7928460   2.7928460   0.0000000   0.0000000   0.0000000   0.0000000   2.7928460   2.7928460
 AtZNuc=   1.0000000   1.0000000   1.0000000   1.0000000   8.0000000   8.0000000   8.0000000   6.0000000   1.0000000   1.0000000

  Atom        41          42          43          44          45          46          47          48          49          50
 IAtWgt=          16           1           1           1          16          12          12          12          12          12
 AtmWgt=  15.9949146   1.0078250   1.0078250   1.0078250  15.9949146  12.0000000  12.0000000  12.0000000  12.0000000  12.0000000
 NucSpn=           0           1           1           1           0           0           0           0           0           0
 AtZEff=   0.0000000   0.0000000   0.0000000   0.0000000   0.0000000   0.0000000   0.0000000   0.0000000   0.0000000   0.0000000
 NQMom=    0.0000000   0.0000000   0.0000000   0.0000000   0.0000000   0.0000000   0.0000000   0.0000000   0.0000000   0.0000000
 NMagM=    0.0000000   2.7928460   2.7928460   2.7928460   0.0000000   0.0000000   0.0000000   0.0000000   0.0000000   0.0000000
 AtZNuc=   8.0000000   1.0000000   1.0000000   1.0000000   8.0000000   6.0000000   6.0000000   6.0000000   6.0000000   6.0000000

  Atom        51          52          53          54          55          56          57          58          59          60
 IAtWgt=           1           1           1           1           1          16          16          16          12           1
 AtmWgt=   1.0078250   1.0078250   1.0078250   1.0078250   1.0078250  15.9949146  15.9949146  15.9949146  12.0000000   1.0078250
 NucSpn=           1           1           1           1           1           0           0           0           0           1
 AtZEff=   0.0000000   0.0000000   0.0000000   0.0000000   0.0000000   0.0000000   0.0000000   0.0000000   0.0000000   0.0000000
 NQMom=    0.0000000   0.0000000   0.0000000   0.0000000   0.0000000   0.0000000   0.0000000   0.0000000   0.0000000   0.0000000
 NMagM=    2.7928460   2.7928460   2.7928460   2.7928460   2.7928460   0.0000000   0.0000000   0.0000000   0.0000000   2.7928460
 AtZNuc=   1.0000000   1.0000000   1.0000000   1.0000000   1.0000000   8.0000000   8.0000000   8.0000000   6.0000000   1.0000000

  Atom        61          62          63          64          65          66          67          68          69          70
 IAtWgt=           1          16           1           1           1          12           1           1          12           1
 AtmWgt=   1.0078250  15.9949146   1.0078250   1.0078250   1.0078250  12.0000000   1.0078250   1.0078250  12.0000000   1.0078250
 NucSpn=           1           0           1           1           1           0           1           1           0           1
 AtZEff=   0.0000000   0.0000000   0.0000000   0.0000000   0.0000000   0.0000000   0.0000000   0.0000000   0.0000000   0.0000000
 NQMom=    0.0000000   0.0000000   0.0000000   0.0000000   0.0000000   0.0000000   0.0000000   0.0000000   0.0000000   0.0000000
 NMagM=    2.7928460   0.0000000   2.7928460   2.7928460   2.7928460   0.0000000   2.7928460   2.7928460   0.0000000   2.7928460
 AtZNuc=   1.0000000   8.0000000   1.0000000   1.0000000   1.0000000   6.0000000   1.0000000   1.0000000   6.0000000   1.0000000

  Atom        71          72          73          74          75          76          77          78          79          80
 IAtWgt=           1          12           1           1          12           1           1          12           1           1
 AtmWgt=   1.0078250  12.0000000   1.0078250   1.0078250  12.0000000   1.0078250   1.0078250  12.0000000   1.0078250   1.0078250
 NucSpn=           1           0           1           1           0           1           1           0           1           1
 AtZEff=   0.0000000   0.0000000   0.0000000   0.0000000   0.0000000   0.0000000   0.0000000   0.0000000   0.0000000   0.0000000
 NQMom=    0.0000000   0.0000000   0.0000000   0.0000000   0.0000000   0.0000000   0.0000000   0.0000000   0.0000000   0.0000000
 NMagM=    2.7928460   0.0000000   2.7928460   2.7928460   0.0000000   2.7928460   2.7928460   0.0000000   2.7928460   2.7928460
 AtZNuc=   1.0000000   6.0000000   1.0000000   1.0000000   6.0000000   1.0000000   1.0000000   6.0000000   1.0000000   1.0000000

  Atom        81          82          83          84
 IAtWgt=          14           1           1           1
 AtmWgt=  14.0030740   1.0078250   1.0078250   1.0078250
 NucSpn=           2           1           1           1
 AtZEff=   0.0000000   0.0000000   0.0000000   0.0000000
 NQMom=    2.0440000   0.0000000   0.0000000   0.0000000
 NMagM=    0.4037610   2.7928460   2.7928460   2.7928460
 AtZNuc=   7.0000000   1.0000000   1.0000000   1.0000000
 Leave Link  101 at Thu Apr  7 06:10:50 2016, MaxMem= 10737418240 cpu:         5.7
 (Enter /share/apps//g09/l103.exe)

 GradGradGradGradGradGradGradGradGradGradGradGradGradGradGradGradGradGrad
 Berny optimization.
 Initialization pass.
                           ----------------------------
                           !    Initial Parameters    !
                           ! (Angstroms and Degrees)  !
 --------------------------                            --------------------------
 ! Name  Definition              Value          Derivative Info.                !
 --------------------------------------------------------------------------------
 ! R1    R(1,2)                  1.4308         estimate D2E/DX2                !
 ! R2    R(1,6)                  1.4603         estimate D2E/DX2                !
 ! R3    R(1,43)                 1.9007         estimate D2E/DX2                !
 ! R4    R(2,3)                  1.5298         estimate D2E/DX2                !
 ! R5    R(2,7)                  1.0996         estimate D2E/DX2                !
 ! R6    R(2,15)                 1.4164         estimate D2E/DX2                !
 ! R7    R(3,4)                  1.5368         estimate D2E/DX2                !
 ! R8    R(3,8)                  1.1075         estimate D2E/DX2                !
 ! R9    R(3,14)                 1.4262         estimate D2E/DX2                !
 ! R10   R(4,5)                  1.5463         estimate D2E/DX2                !
 ! R11   R(4,9)                  1.102          estimate D2E/DX2                !
 ! R12   R(4,13)                 1.4226         estimate D2E/DX2                !
 ! R13   R(5,6)                  1.5306         estimate D2E/DX2                !
 ! R14   R(5,10)                 1.1014         estimate D2E/DX2                !
 ! R15   R(5,12)                 1.4348         estimate D2E/DX2                !
 ! R16   R(6,11)                 1.1033         estimate D2E/DX2                !
 ! R17   R(6,16)                 1.5154         estimate D2E/DX2                !
 ! R18   R(12,21)                0.9762         estimate D2E/DX2                !
 ! R19   R(13,22)                0.9793         estimate D2E/DX2                !
 ! R20   R(14,23)                0.9755         estimate D2E/DX2                !
 ! R21   R(15,27)                1.4347         estimate D2E/DX2                !
 ! R22   R(16,17)                1.1038         estimate D2E/DX2                !
 ! R23   R(16,18)                1.1028         estimate D2E/DX2                !
 ! R24   R(16,19)                1.4359         estimate D2E/DX2                !
 ! R25   R(19,20)                0.9714         estimate D2E/DX2                !
 ! R26   R(24,25)                1.4475         estimate D2E/DX2                !
 ! R27   R(24,29)                1.4462         estimate D2E/DX2                !
 ! R28   R(24,63)                1.8067         estimate D2E/DX2                !
 ! R29   R(25,26)                1.5337         estimate D2E/DX2                !
 ! R30   R(25,30)                1.1049         estimate D2E/DX2                !
 ! R31   R(25,37)                1.404          estimate D2E/DX2                !
 ! R32   R(26,27)                1.5282         estimate D2E/DX2                !
 ! R33   R(26,31)                1.1048         estimate D2E/DX2                !
 ! R34   R(26,36)                1.4228         estimate D2E/DX2                !
 ! R35   R(27,28)                1.5401         estimate D2E/DX2                !
 ! R36   R(27,32)                1.1036         estimate D2E/DX2                !
 ! R37   R(28,29)                1.5413         estimate D2E/DX2                !
 ! R38   R(28,33)                1.1043         estimate D2E/DX2                !
 ! R39   R(28,35)                1.4377         estimate D2E/DX2                !
 ! R40   R(29,34)                1.1077         estimate D2E/DX2                !
 ! R41   R(29,38)                1.5347         estimate D2E/DX2                !
 ! R42   R(35,43)                0.9882         estimate D2E/DX2                !
 ! R43   R(36,44)                0.9847         estimate D2E/DX2                !
 ! R44   R(37,49)                1.4432         estimate D2E/DX2                !
 ! R45   R(38,39)                1.0996         estimate D2E/DX2                !
 ! R46   R(38,40)                1.1044         estimate D2E/DX2                !
 ! R47   R(38,41)                1.4344         estimate D2E/DX2                !
 ! R48   R(41,42)                0.9911         estimate D2E/DX2                !
 ! R49   R(41,84)                1.8416         estimate D2E/DX2                !
 ! R50   R(45,46)                1.441          estimate D2E/DX2                !
 ! R51   R(45,50)                1.4341         estimate D2E/DX2                !
 ! R52   R(46,47)                1.5428         estimate D2E/DX2                !
 ! R53   R(46,51)                1.1058         estimate D2E/DX2                !
 ! R54   R(46,58)                1.4117         estimate D2E/DX2                !
 ! R55   R(47,48)                1.5365         estimate D2E/DX2                !
 ! R56   R(47,52)                1.1088         estimate D2E/DX2                !
 ! R57   R(47,57)                1.4191         estimate D2E/DX2                !
 ! R58   R(48,49)                1.5311         estimate D2E/DX2                !
 ! R59   R(48,53)                1.1068         estimate D2E/DX2                !
 ! R60   R(48,56)                1.4219         estimate D2E/DX2                !
 ! R61   R(49,50)                1.5401         estimate D2E/DX2                !
 ! R62   R(49,55)                1.1014         estimate D2E/DX2                !
 ! R63   R(50,54)                1.1085         estimate D2E/DX2                !
 ! R64   R(50,59)                1.5246         estimate D2E/DX2                !
 ! R65   R(56,64)                0.9834         estimate D2E/DX2                !
 ! R66   R(57,65)                0.975          estimate D2E/DX2                !
 ! R67   R(58,66)                1.4482         estimate D2E/DX2                !
 ! R68   R(58,82)                2.1171         estimate D2E/DX2                !
 ! R69   R(59,60)                1.0982         estimate D2E/DX2                !
 ! R70   R(59,61)                1.0995         estimate D2E/DX2                !
 ! R71   R(59,62)                1.4391         estimate D2E/DX2                !
 ! R72   R(62,63)                0.9884         estimate D2E/DX2                !
 ! R73   R(62,83)                1.6867         estimate D2E/DX2                !
 ! R74   R(66,67)                1.103          estimate D2E/DX2                !
 ! R75   R(66,68)                1.1021         estimate D2E/DX2                !
 ! R76   R(66,69)                1.5275         estimate D2E/DX2                !
 ! R77   R(69,70)                1.1025         estimate D2E/DX2                !
 ! R78   R(69,71)                1.1006         estimate D2E/DX2                !
 ! R79   R(69,72)                1.5409         estimate D2E/DX2                !
 ! R80   R(72,73)                1.1025         estimate D2E/DX2                !
 ! R81   R(72,74)                1.1004         estimate D2E/DX2                !
 ! R82   R(72,75)                1.5406         estimate D2E/DX2                !
 ! R83   R(75,76)                1.1025         estimate D2E/DX2                !
 ! R84   R(75,77)                1.1019         estimate D2E/DX2                !
 ! R85   R(75,78)                1.5297         estimate D2E/DX2                !
 ! R86   R(78,79)                1.0972         estimate D2E/DX2                !
 ! R87   R(78,80)                1.098          estimate D2E/DX2                !
 ! R88   R(78,81)                1.4972         estimate D2E/DX2                !
 ! R89   R(81,82)                1.0367         estimate D2E/DX2                !
 ! R90   R(81,83)                1.0633         estimate D2E/DX2                !
 ! R91   R(81,84)                1.0456         estimate D2E/DX2                !
 ! A1    A(2,1,6)              112.0498         estimate D2E/DX2                !
 ! A2    A(2,1,43)              96.28           estimate D2E/DX2                !
 ! A3    A(6,1,43)             115.9662         estimate D2E/DX2                !
 ! A4    A(1,2,3)              109.8648         estimate D2E/DX2                !
 ! A5    A(1,2,7)              104.808          estimate D2E/DX2                !
 ! A6    A(1,2,15)             111.7839         estimate D2E/DX2                !
 ! A7    A(3,2,7)              110.4932         estimate D2E/DX2                !
 ! A8    A(3,2,15)             107.8001         estimate D2E/DX2                !
 ! A9    A(7,2,15)             112.0977         estimate D2E/DX2                !
 ! A10   A(2,3,4)              111.3029         estimate D2E/DX2                !
 ! A11   A(2,3,8)              106.6785         estimate D2E/DX2                !
 ! A12   A(2,3,14)             107.3138         estimate D2E/DX2                !
 ! A13   A(4,3,8)              108.8399         estimate D2E/DX2                !
 ! A14   A(4,3,14)             112.9455         estimate D2E/DX2                !
 ! A15   A(8,3,14)             109.5619         estimate D2E/DX2                !
 ! A16   A(3,4,5)              110.563          estimate D2E/DX2                !
 ! A17   A(3,4,9)              108.5371         estimate D2E/DX2                !
 ! A18   A(3,4,13)             110.143          estimate D2E/DX2                !
 ! A19   A(5,4,9)              109.0346         estimate D2E/DX2                !
 ! A20   A(5,4,13)             111.9648         estimate D2E/DX2                !
 ! A21   A(9,4,13)             106.4522         estimate D2E/DX2                !
 ! A22   A(4,5,6)              109.2124         estimate D2E/DX2                !
 ! A23   A(4,5,10)             108.3287         estimate D2E/DX2                !
 ! A24   A(4,5,12)             110.7772         estimate D2E/DX2                !
 ! A25   A(6,5,10)             109.6502         estimate D2E/DX2                !
 ! A26   A(6,5,12)             113.4134         estimate D2E/DX2                !
 ! A27   A(10,5,12)            105.2881         estimate D2E/DX2                !
 ! A28   A(1,6,5)              109.2095         estimate D2E/DX2                !
 ! A29   A(1,6,11)             108.2902         estimate D2E/DX2                !
 ! A30   A(1,6,16)             106.4182         estimate D2E/DX2                !
 ! A31   A(5,6,11)             108.6127         estimate D2E/DX2                !
 ! A32   A(5,6,16)             116.0435         estimate D2E/DX2                !
 ! A33   A(11,6,16)            108.0246         estimate D2E/DX2                !
 ! A34   A(5,12,21)            107.9491         estimate D2E/DX2                !
 ! A35   A(4,13,22)            106.3625         estimate D2E/DX2                !
 ! A36   A(3,14,23)            107.3097         estimate D2E/DX2                !
 ! A37   A(2,15,27)            118.5572         estimate D2E/DX2                !
 ! A38   A(6,16,17)            108.5699         estimate D2E/DX2                !
 ! A39   A(6,16,18)            110.6167         estimate D2E/DX2                !
 ! A40   A(6,16,19)            106.3666         estimate D2E/DX2                !
 ! A41   A(17,16,18)           108.3873         estimate D2E/DX2                !
 ! A42   A(17,16,19)           111.5784         estimate D2E/DX2                !
 ! A43   A(18,16,19)           111.2938         estimate D2E/DX2                !
 ! A44   A(16,19,20)           108.2632         estimate D2E/DX2                !
 ! A45   A(25,24,29)           118.0864         estimate D2E/DX2                !
 ! A46   A(25,24,63)           116.0861         estimate D2E/DX2                !
 ! A47   A(29,24,63)           122.5566         estimate D2E/DX2                !
 ! A48   A(24,25,26)           109.4577         estimate D2E/DX2                !
 ! A49   A(24,25,30)           110.6887         estimate D2E/DX2                !
 ! A50   A(24,25,37)           107.7367         estimate D2E/DX2                !
 ! A51   A(26,25,30)           110.2082         estimate D2E/DX2                !
 ! A52   A(26,25,37)           114.0636         estimate D2E/DX2                !
 ! A53   A(30,25,37)           104.5818         estimate D2E/DX2                !
 ! A54   A(25,26,27)           108.5107         estimate D2E/DX2                !
 ! A55   A(25,26,31)           107.3109         estimate D2E/DX2                !
 ! A56   A(25,26,36)           107.3172         estimate D2E/DX2                !
 ! A57   A(27,26,31)           109.5825         estimate D2E/DX2                !
 ! A58   A(27,26,36)           113.2068         estimate D2E/DX2                !
 ! A59   A(31,26,36)           110.6956         estimate D2E/DX2                !
 ! A60   A(15,27,26)           111.7644         estimate D2E/DX2                !
 ! A61   A(15,27,28)           114.5837         estimate D2E/DX2                !
 ! A62   A(15,27,32)           102.6653         estimate D2E/DX2                !
 ! A63   A(26,27,28)           110.1855         estimate D2E/DX2                !
 ! A64   A(26,27,32)           109.0644         estimate D2E/DX2                !
 ! A65   A(28,27,32)           108.1537         estimate D2E/DX2                !
 ! A66   A(27,28,29)           108.9768         estimate D2E/DX2                !
 ! A67   A(27,28,33)           108.9139         estimate D2E/DX2                !
 ! A68   A(27,28,35)           112.316          estimate D2E/DX2                !
 ! A69   A(29,28,33)           107.5622         estimate D2E/DX2                !
 ! A70   A(29,28,35)           109.6816         estimate D2E/DX2                !
 ! A71   A(33,28,35)           109.2718         estimate D2E/DX2                !
 ! A72   A(24,29,28)           113.1505         estimate D2E/DX2                !
 ! A73   A(24,29,34)           108.8841         estimate D2E/DX2                !
 ! A74   A(24,29,38)           106.7357         estimate D2E/DX2                !
 ! A75   A(28,29,34)           107.2798         estimate D2E/DX2                !
 ! A76   A(28,29,38)           113.1304         estimate D2E/DX2                !
 ! A77   A(34,29,38)           107.4701         estimate D2E/DX2                !
 ! A78   A(28,35,43)           107.6543         estimate D2E/DX2                !
 ! A79   A(26,36,44)           108.9757         estimate D2E/DX2                !
 ! A80   A(25,37,49)           115.5792         estimate D2E/DX2                !
 ! A81   A(29,38,39)           109.5356         estimate D2E/DX2                !
 ! A82   A(29,38,40)           108.0229         estimate D2E/DX2                !
 ! A83   A(29,38,41)           113.7644         estimate D2E/DX2                !
 ! A84   A(39,38,40)           107.5218         estimate D2E/DX2                !
 ! A85   A(39,38,41)           107.3455         estimate D2E/DX2                !
 ! A86   A(40,38,41)           110.4791         estimate D2E/DX2                !
 ! A87   A(38,41,42)           104.0445         estimate D2E/DX2                !
 ! A88   A(38,41,84)           131.3447         estimate D2E/DX2                !
 ! A89   A(42,41,84)           113.0756         estimate D2E/DX2                !
 ! A90   A(1,43,35)            142.3731         estimate D2E/DX2                !
 ! A91   A(46,45,50)           118.9317         estimate D2E/DX2                !
 ! A92   A(45,46,47)           116.2094         estimate D2E/DX2                !
 ! A93   A(45,46,51)           108.9798         estimate D2E/DX2                !
 ! A94   A(45,46,58)           105.496          estimate D2E/DX2                !
 ! A95   A(47,46,51)           109.2222         estimate D2E/DX2                !
 ! A96   A(47,46,58)           106.0792         estimate D2E/DX2                !
 ! A97   A(51,46,58)           110.7388         estimate D2E/DX2                !
 ! A98   A(46,47,48)           115.724          estimate D2E/DX2                !
 ! A99   A(46,47,52)           106.4416         estimate D2E/DX2                !
 ! A100  A(46,47,57)           106.0048         estimate D2E/DX2                !
 ! A101  A(48,47,52)           105.5009         estimate D2E/DX2                !
 ! A102  A(48,47,57)           112.4705         estimate D2E/DX2                !
 ! A103  A(52,47,57)           110.5557         estimate D2E/DX2                !
 ! A104  A(47,48,49)           106.3152         estimate D2E/DX2                !
 ! A105  A(47,48,53)           110.3883         estimate D2E/DX2                !
 ! A106  A(47,48,56)           104.7436         estimate D2E/DX2                !
 ! A107  A(49,48,53)           109.3201         estimate D2E/DX2                !
 ! A108  A(49,48,56)           115.5062         estimate D2E/DX2                !
 ! A109  A(53,48,56)           110.3582         estimate D2E/DX2                !
 ! A110  A(37,49,48)           114.3077         estimate D2E/DX2                !
 ! A111  A(37,49,50)           109.3715         estimate D2E/DX2                !
 ! A112  A(37,49,55)           108.7873         estimate D2E/DX2                !
 ! A113  A(48,49,50)           106.3964         estimate D2E/DX2                !
 ! A114  A(48,49,55)           109.232          estimate D2E/DX2                !
 ! A115  A(50,49,55)           108.6017         estimate D2E/DX2                !
 ! A116  A(45,50,49)           108.1173         estimate D2E/DX2                !
 ! A117  A(45,50,54)           110.522          estimate D2E/DX2                !
 ! A118  A(45,50,59)           106.9199         estimate D2E/DX2                !
 ! A119  A(49,50,54)           109.2783         estimate D2E/DX2                !
 ! A120  A(49,50,59)           115.1077         estimate D2E/DX2                !
 ! A121  A(54,50,59)           106.8624         estimate D2E/DX2                !
 ! A122  A(48,56,64)           109.5092         estimate D2E/DX2                !
 ! A123  A(47,57,65)           106.8784         estimate D2E/DX2                !
 ! A124  A(46,58,66)           114.8718         estimate D2E/DX2                !
 ! A125  A(46,58,82)            98.6749         estimate D2E/DX2                !
 ! A126  A(66,58,82)           100.4171         estimate D2E/DX2                !
 ! A127  A(50,59,60)           108.7247         estimate D2E/DX2                !
 ! A128  A(50,59,61)           109.1751         estimate D2E/DX2                !
 ! A129  A(50,59,62)           113.4937         estimate D2E/DX2                !
 ! A130  A(60,59,61)           108.5179         estimate D2E/DX2                !
 ! A131  A(60,59,62)           106.6239         estimate D2E/DX2                !
 ! A132  A(61,59,62)           110.163          estimate D2E/DX2                !
 ! A133  A(59,62,63)           106.682          estimate D2E/DX2                !
 ! A134  A(59,62,83)           114.6434         estimate D2E/DX2                !
 ! A135  A(63,62,83)           103.0684         estimate D2E/DX2                !
 ! A136  A(24,63,62)           163.8346         estimate D2E/DX2                !
 ! A137  A(58,66,67)           108.8773         estimate D2E/DX2                !
 ! A138  A(58,66,68)           109.5531         estimate D2E/DX2                !
 ! A139  A(58,66,69)           108.3322         estimate D2E/DX2                !
 ! A140  A(67,66,68)           107.5675         estimate D2E/DX2                !
 ! A141  A(67,66,69)           110.0171         estimate D2E/DX2                !
 ! A142  A(68,66,69)           112.4412         estimate D2E/DX2                !
 ! A143  A(66,69,70)           107.5684         estimate D2E/DX2                !
 ! A144  A(66,69,71)           107.7641         estimate D2E/DX2                !
 ! A145  A(66,69,72)           117.3031         estimate D2E/DX2                !
 ! A146  A(70,69,71)           106.1935         estimate D2E/DX2                !
 ! A147  A(70,69,72)           110.2527         estimate D2E/DX2                !
 ! A148  A(71,69,72)           107.2025         estimate D2E/DX2                !
 ! A149  A(69,72,73)           108.8938         estimate D2E/DX2                !
 ! A150  A(69,72,74)           106.9032         estimate D2E/DX2                !
 ! A151  A(69,72,75)           119.0246         estimate D2E/DX2                !
 ! A152  A(73,72,74)           104.456          estimate D2E/DX2                !
 ! A153  A(73,72,75)           110.422          estimate D2E/DX2                !
 ! A154  A(74,72,75)           106.0727         estimate D2E/DX2                !
 ! A155  A(72,75,76)           107.8593         estimate D2E/DX2                !
 ! A156  A(72,75,77)           109.6674         estimate D2E/DX2                !
 ! A157  A(72,75,78)           117.9191         estimate D2E/DX2                !
 ! A158  A(76,75,77)           105.6782         estimate D2E/DX2                !
 ! A159  A(76,75,78)           108.4953         estimate D2E/DX2                !
 ! A160  A(77,75,78)           106.5707         estimate D2E/DX2                !
 ! A161  A(75,78,79)           111.921          estimate D2E/DX2                !
 ! A162  A(75,78,80)           110.6514         estimate D2E/DX2                !
 ! A163  A(75,78,81)           113.0939         estimate D2E/DX2                !
 ! A164  A(79,78,80)           107.3887         estimate D2E/DX2                !
 ! A165  A(79,78,81)           106.2257         estimate D2E/DX2                !
 ! A166  A(80,78,81)           107.239          estimate D2E/DX2                !
 ! A167  A(78,81,82)           109.7522         estimate D2E/DX2                !
 ! A168  A(78,81,83)           111.5229         estimate D2E/DX2                !
 ! A169  A(78,81,84)           114.7256         estimate D2E/DX2                !
 ! A170  A(82,81,83)           105.7037         estimate D2E/DX2                !
 ! A171  A(82,81,84)           110.3897         estimate D2E/DX2                !
 ! A172  A(83,81,84)           104.2744         estimate D2E/DX2                !
 ! A173  A(58,82,81)           156.1487         estimate D2E/DX2                !
 ! A174  A(41,84,81)           156.4737         estimate D2E/DX2                !
 ! A175  L(62,83,81,1,-1)      168.873          estimate D2E/DX2                !
 ! A176  L(62,83,81,1,-2)      184.1341         estimate D2E/DX2                !
 ! D1    D(6,1,2,3)            -62.4952         estimate D2E/DX2                !
 ! D2    D(6,1,2,7)            178.7837         estimate D2E/DX2                !
 ! D3    D(6,1,2,15)            57.1367         estimate D2E/DX2                !
 ! D4    D(43,1,2,3)           176.1848         estimate D2E/DX2                !
 ! D5    D(43,1,2,7)            57.4636         estimate D2E/DX2                !
 ! D6    D(43,1,2,15)          -64.1834         estimate D2E/DX2                !
 ! D7    D(2,1,6,5)             65.0106         estimate D2E/DX2                !
 ! D8    D(2,1,6,11)           -53.0974         estimate D2E/DX2                !
 ! D9    D(2,1,6,16)          -169.0187         estimate D2E/DX2                !
 ! D10   D(43,1,6,5)           174.1899         estimate D2E/DX2                !
 ! D11   D(43,1,6,11)           56.0819         estimate D2E/DX2                !
 ! D12   D(43,1,6,16)          -59.8395         estimate D2E/DX2                !
 ! D13   D(2,1,43,35)           -8.3537         estimate D2E/DX2                !
 ! D14   D(6,1,43,35)         -126.627          estimate D2E/DX2                !
 ! D15   D(1,2,3,4)             55.0372         estimate D2E/DX2                !
 ! D16   D(1,2,3,8)            -63.5606         estimate D2E/DX2                !
 ! D17   D(1,2,3,14)           179.0836         estimate D2E/DX2                !
 ! D18   D(7,2,3,4)            170.1971         estimate D2E/DX2                !
 ! D19   D(7,2,3,8)             51.5993         estimate D2E/DX2                !
 ! D20   D(7,2,3,14)           -65.7565         estimate D2E/DX2                !
 ! D21   D(15,2,3,4)           -66.9971         estimate D2E/DX2                !
 ! D22   D(15,2,3,8)           174.4051         estimate D2E/DX2                !
 ! D23   D(15,2,3,14)           57.0493         estimate D2E/DX2                !
 ! D24   D(1,2,15,27)           93.3832         estimate D2E/DX2                !
 ! D25   D(3,2,15,27)         -145.7766         estimate D2E/DX2                !
 ! D26   D(7,2,15,27)          -23.9598         estimate D2E/DX2                !
 ! D27   D(2,3,4,5)            -51.117          estimate D2E/DX2                !
 ! D28   D(2,3,4,9)             68.4331         estimate D2E/DX2                !
 ! D29   D(2,3,4,13)          -175.3885         estimate D2E/DX2                !
 ! D30   D(8,3,4,5)             66.1758         estimate D2E/DX2                !
 ! D31   D(8,3,4,9)           -174.2742         estimate D2E/DX2                !
 ! D32   D(8,3,4,13)           -58.0958         estimate D2E/DX2                !
 ! D33   D(14,3,4,5)          -171.9115         estimate D2E/DX2                !
 ! D34   D(14,3,4,9)           -52.3614         estimate D2E/DX2                !
 ! D35   D(14,3,4,13)           63.817          estimate D2E/DX2                !
 ! D36   D(2,3,14,23)         -169.8356         estimate D2E/DX2                !
 ! D37   D(4,3,14,23)          -46.7966         estimate D2E/DX2                !
 ! D38   D(8,3,14,23)           74.7092         estimate D2E/DX2                !
 ! D39   D(3,4,5,6)             52.7265         estimate D2E/DX2                !
 ! D40   D(3,4,5,10)           172.1054         estimate D2E/DX2                !
 ! D41   D(3,4,5,12)           -72.8848         estimate D2E/DX2                !
 ! D42   D(9,4,5,6)            -66.5232         estimate D2E/DX2                !
 ! D43   D(9,4,5,10)            52.8557         estimate D2E/DX2                !
 ! D44   D(9,4,5,12)           167.8655         estimate D2E/DX2                !
 ! D45   D(13,4,5,6)           175.9483         estimate D2E/DX2                !
 ! D46   D(13,4,5,10)          -64.6728         estimate D2E/DX2                !
 ! D47   D(13,4,5,12)           50.337          estimate D2E/DX2                !
 ! D48   D(3,4,13,22)           85.4712         estimate D2E/DX2                !
 ! D49   D(5,4,13,22)          -37.9875         estimate D2E/DX2                !
 ! D50   D(9,4,13,22)         -157.051          estimate D2E/DX2                !
 ! D51   D(4,5,6,1)            -58.4946         estimate D2E/DX2                !
 ! D52   D(4,5,6,11)            59.4111         estimate D2E/DX2                !
 ! D53   D(4,5,6,16)          -178.7199         estimate D2E/DX2                !
 ! D54   D(10,5,6,1)          -177.052          estimate D2E/DX2                !
 ! D55   D(10,5,6,11)          -59.1464         estimate D2E/DX2                !
 ! D56   D(10,5,6,16)           62.7226         estimate D2E/DX2                !
 ! D57   D(12,5,6,1)            65.5792         estimate D2E/DX2                !
 ! D58   D(12,5,6,11)         -176.5152         estimate D2E/DX2                !
 ! D59   D(12,5,6,16)          -54.6462         estimate D2E/DX2                !
 ! D60   D(4,5,12,21)           80.5509         estimate D2E/DX2                !
 ! D61   D(6,5,12,21)          -42.6674         estimate D2E/DX2                !
 ! D62   D(10,5,12,21)        -162.552          estimate D2E/DX2                !
 ! D63   D(1,6,16,17)         -176.2011         estimate D2E/DX2                !
 ! D64   D(1,6,16,18)          -57.3901         estimate D2E/DX2                !
 ! D65   D(1,6,16,19)           63.5988         estimate D2E/DX2                !
 ! D66   D(5,6,16,17)          -54.4812         estimate D2E/DX2                !
 ! D67   D(5,6,16,18)           64.3298         estimate D2E/DX2                !
 ! D68   D(5,6,16,19)         -174.6813         estimate D2E/DX2                !
 ! D69   D(11,6,16,17)          67.6991         estimate D2E/DX2                !
 ! D70   D(11,6,16,18)        -173.4899         estimate D2E/DX2                !
 ! D71   D(11,6,16,19)         -52.501          estimate D2E/DX2                !
 ! D72   D(2,15,27,26)          56.8816         estimate D2E/DX2                !
 ! D73   D(2,15,27,28)         -69.3631         estimate D2E/DX2                !
 ! D74   D(2,15,27,32)         173.6377         estimate D2E/DX2                !
 ! D75   D(6,16,19,20)        -178.6849         estimate D2E/DX2                !
 ! D76   D(17,16,19,20)         63.0811         estimate D2E/DX2                !
 ! D77   D(18,16,19,20)        -58.1315         estimate D2E/DX2                !
 ! D78   D(29,24,25,26)        -53.0659         estimate D2E/DX2                !
 ! D79   D(29,24,25,30)         68.604          estimate D2E/DX2                !
 ! D80   D(29,24,25,37)       -177.6092         estimate D2E/DX2                !
 ! D81   D(63,24,25,26)        146.8128         estimate D2E/DX2                !
 ! D82   D(63,24,25,30)        -91.5172         estimate D2E/DX2                !
 ! D83   D(63,24,25,37)         22.2696         estimate D2E/DX2                !
 ! D84   D(25,24,29,28)         48.8471         estimate D2E/DX2                !
 ! D85   D(25,24,29,34)        -70.3417         estimate D2E/DX2                !
 ! D86   D(25,24,29,38)        173.9254         estimate D2E/DX2                !
 ! D87   D(63,24,29,28)       -152.3962         estimate D2E/DX2                !
 ! D88   D(63,24,29,34)         88.4149         estimate D2E/DX2                !
 ! D89   D(63,24,29,38)        -27.318          estimate D2E/DX2                !
 ! D90   D(25,24,63,62)        -78.9641         estimate D2E/DX2                !
 ! D91   D(29,24,63,62)        121.8856         estimate D2E/DX2                !
 ! D92   D(24,25,26,27)         57.9235         estimate D2E/DX2                !
 ! D93   D(24,25,26,31)        -60.4077         estimate D2E/DX2                !
 ! D94   D(24,25,26,36)       -179.4153         estimate D2E/DX2                !
 ! D95   D(30,25,26,27)        -64.0353         estimate D2E/DX2                !
 ! D96   D(30,25,26,31)        177.6335         estimate D2E/DX2                !
 ! D97   D(30,25,26,36)         58.6259         estimate D2E/DX2                !
 ! D98   D(37,25,26,27)        178.6947         estimate D2E/DX2                !
 ! D99   D(37,25,26,31)         60.3635         estimate D2E/DX2                !
 ! D100  D(37,25,26,36)        -58.6441         estimate D2E/DX2                !
 ! D101  D(24,25,37,49)         52.2353         estimate D2E/DX2                !
 ! D102  D(26,25,37,49)        -69.4903         estimate D2E/DX2                !
 ! D103  D(30,25,37,49)        170.0409         estimate D2E/DX2                !
 ! D104  D(25,26,27,15)        169.1627         estimate D2E/DX2                !
 ! D105  D(25,26,27,28)        -62.2249         estimate D2E/DX2                !
 ! D106  D(25,26,27,32)         56.3476         estimate D2E/DX2                !
 ! D107  D(31,26,27,15)        -73.9551         estimate D2E/DX2                !
 ! D108  D(31,26,27,28)         54.6573         estimate D2E/DX2                !
 ! D109  D(31,26,27,32)        173.2298         estimate D2E/DX2                !
 ! D110  D(36,26,27,15)         50.1451         estimate D2E/DX2                !
 ! D111  D(36,26,27,28)        178.7574         estimate D2E/DX2                !
 ! D112  D(36,26,27,32)        -62.6701         estimate D2E/DX2                !
 ! D113  D(25,26,36,44)       -164.3164         estimate D2E/DX2                !
 ! D114  D(27,26,36,44)        -44.6129         estimate D2E/DX2                !
 ! D115  D(31,26,36,44)         78.8773         estimate D2E/DX2                !
 ! D116  D(15,27,28,29)       -176.5102         estimate D2E/DX2                !
 ! D117  D(15,27,28,33)        -59.4374         estimate D2E/DX2                !
 ! D118  D(15,27,28,35)         61.7457         estimate D2E/DX2                !
 ! D119  D(26,27,28,29)         56.4315         estimate D2E/DX2                !
 ! D120  D(26,27,28,33)        173.5043         estimate D2E/DX2                !
 ! D121  D(26,27,28,35)        -65.3126         estimate D2E/DX2                !
 ! D122  D(32,27,28,29)        -62.6976         estimate D2E/DX2                !
 ! D123  D(32,27,28,33)         54.3752         estimate D2E/DX2                !
 ! D124  D(32,27,28,35)        175.5583         estimate D2E/DX2                !
 ! D125  D(27,28,29,24)        -48.0842         estimate D2E/DX2                !
 ! D126  D(27,28,29,34)         72.0249         estimate D2E/DX2                !
 ! D127  D(27,28,29,38)       -169.6312         estimate D2E/DX2                !
 ! D128  D(33,28,29,24)       -166.0126         estimate D2E/DX2                !
 ! D129  D(33,28,29,34)        -45.9034         estimate D2E/DX2                !
 ! D130  D(33,28,29,38)         72.4404         estimate D2E/DX2                !
 ! D131  D(35,28,29,24)         75.2451         estimate D2E/DX2                !
 ! D132  D(35,28,29,34)       -164.6457         estimate D2E/DX2                !
 ! D133  D(35,28,29,38)        -46.3019         estimate D2E/DX2                !
 ! D134  D(27,28,35,43)        -74.6613         estimate D2E/DX2                !
 ! D135  D(29,28,35,43)        163.9973         estimate D2E/DX2                !
 ! D136  D(33,28,35,43)         46.3162         estimate D2E/DX2                !
 ! D137  D(24,29,38,39)         56.8453         estimate D2E/DX2                !
 ! D138  D(24,29,38,40)        173.678          estimate D2E/DX2                !
 ! D139  D(24,29,38,41)        -63.2793         estimate D2E/DX2                !
 ! D140  D(28,29,38,39)       -178.0643         estimate D2E/DX2                !
 ! D141  D(28,29,38,40)        -61.2316         estimate D2E/DX2                !
 ! D142  D(28,29,38,41)         61.8112         estimate D2E/DX2                !
 ! D143  D(34,29,38,39)        -59.831          estimate D2E/DX2                !
 ! D144  D(34,29,38,40)         57.0017         estimate D2E/DX2                !
 ! D145  D(34,29,38,41)       -179.9556         estimate D2E/DX2                !
 ! D146  D(28,35,43,1)          72.4612         estimate D2E/DX2                !
 ! D147  D(25,37,49,48)        109.5173         estimate D2E/DX2                !
 ! D148  D(25,37,49,50)       -131.3302         estimate D2E/DX2                !
 ! D149  D(25,37,49,55)        -12.8558         estimate D2E/DX2                !
 ! D150  D(29,38,41,42)        -46.3463         estimate D2E/DX2                !
 ! D151  D(29,38,41,84)         92.9656         estimate D2E/DX2                !
 ! D152  D(39,38,41,42)       -167.699          estimate D2E/DX2                !
 ! D153  D(39,38,41,84)        -28.387          estimate D2E/DX2                !
 ! D154  D(40,38,41,42)         75.3428         estimate D2E/DX2                !
 ! D155  D(40,38,41,84)       -145.3452         estimate D2E/DX2                !
 ! D156  D(38,41,84,81)        -28.7232         estimate D2E/DX2                !
 ! D157  D(42,41,84,81)        107.8477         estimate D2E/DX2                !
 ! D158  D(50,45,46,47)        -29.028          estimate D2E/DX2                !
 ! D159  D(50,45,46,51)         94.8457         estimate D2E/DX2                !
 ! D160  D(50,45,46,58)       -146.2108         estimate D2E/DX2                !
 ! D161  D(46,45,50,49)         50.4328         estimate D2E/DX2                !
 ! D162  D(46,45,50,54)        -69.1308         estimate D2E/DX2                !
 ! D163  D(46,45,50,59)        174.9174         estimate D2E/DX2                !
 ! D164  D(45,46,47,48)         26.4737         estimate D2E/DX2                !
 ! D165  D(45,46,47,52)        -90.3648         estimate D2E/DX2                !
 ! D166  D(45,46,47,57)        151.8928         estimate D2E/DX2                !
 ! D167  D(51,46,47,48)        -97.2747         estimate D2E/DX2                !
 ! D168  D(51,46,47,52)        145.8868         estimate D2E/DX2                !
 ! D169  D(51,46,47,57)         28.1444         estimate D2E/DX2                !
 ! D170  D(58,46,47,48)        143.3331         estimate D2E/DX2                !
 ! D171  D(58,46,47,52)         26.4946         estimate D2E/DX2                !
 ! D172  D(58,46,47,57)        -91.2478         estimate D2E/DX2                !
 ! D173  D(45,46,58,66)        -74.4306         estimate D2E/DX2                !
 ! D174  D(45,46,58,82)         31.3726         estimate D2E/DX2                !
 ! D175  D(47,46,58,66)        161.7286         estimate D2E/DX2                !
 ! D176  D(47,46,58,82)        -92.4682         estimate D2E/DX2                !
 ! D177  D(51,46,58,66)         43.3356         estimate D2E/DX2                !
 ! D178  D(51,46,58,82)        149.1388         estimate D2E/DX2                !
 ! D179  D(46,47,48,49)        -45.8193         estimate D2E/DX2                !
 ! D180  D(46,47,48,53)         72.6414         estimate D2E/DX2                !
 ! D181  D(46,47,48,56)       -168.5698         estimate D2E/DX2                !
 ! D182  D(52,47,48,49)         71.5453         estimate D2E/DX2                !
 ! D183  D(52,47,48,53)       -169.994          estimate D2E/DX2                !
 ! D184  D(52,47,48,56)        -51.2052         estimate D2E/DX2                !
 ! D185  D(57,47,48,49)       -167.8562         estimate D2E/DX2                !
 ! D186  D(57,47,48,53)        -49.3954         estimate D2E/DX2                !
 ! D187  D(57,47,48,56)         69.3933         estimate D2E/DX2                !
 ! D188  D(46,47,57,65)        177.885          estimate D2E/DX2                !
 ! D189  D(48,47,57,65)        -54.7223         estimate D2E/DX2                !
 ! D190  D(52,47,57,65)         62.9218         estimate D2E/DX2                !
 ! D191  D(47,48,49,37)       -172.4549         estimate D2E/DX2                !
 ! D192  D(47,48,49,50)         66.7284         estimate D2E/DX2                !
 ! D193  D(47,48,49,55)        -50.3247         estimate D2E/DX2                !
 ! D194  D(53,48,49,37)         68.383          estimate D2E/DX2                !
 ! D195  D(53,48,49,50)        -52.4336         estimate D2E/DX2                !
 ! D196  D(53,48,49,55)       -169.4867         estimate D2E/DX2                !
 ! D197  D(56,48,49,37)        -56.7675         estimate D2E/DX2                !
 ! D198  D(56,48,49,50)       -177.5841         estimate D2E/DX2                !
 ! D199  D(56,48,49,55)         65.3628         estimate D2E/DX2                !
 ! D200  D(47,48,56,64)        176.1797         estimate D2E/DX2                !
 ! D201  D(49,48,56,64)         59.6021         estimate D2E/DX2                !
 ! D202  D(53,48,56,64)        -65.0112         estimate D2E/DX2                !
 ! D203  D(37,49,50,45)        166.212          estimate D2E/DX2                !
 ! D204  D(37,49,50,54)        -73.4431         estimate D2E/DX2                !
 ! D205  D(37,49,50,59)         46.7737         estimate D2E/DX2                !
 ! D206  D(48,49,50,45)        -69.8502         estimate D2E/DX2                !
 ! D207  D(48,49,50,54)         50.4947         estimate D2E/DX2                !
 ! D208  D(48,49,50,59)        170.7115         estimate D2E/DX2                !
 ! D209  D(55,49,50,45)         47.6221         estimate D2E/DX2                !
 ! D210  D(55,49,50,54)        167.967          estimate D2E/DX2                !
 ! D211  D(55,49,50,59)        -71.8162         estimate D2E/DX2                !
 ! D212  D(45,50,59,60)         53.214          estimate D2E/DX2                !
 ! D213  D(45,50,59,61)        171.4382         estimate D2E/DX2                !
 ! D214  D(45,50,59,62)        -65.2575         estimate D2E/DX2                !
 ! D215  D(49,50,59,60)        173.3131         estimate D2E/DX2                !
 ! D216  D(49,50,59,61)        -68.4627         estimate D2E/DX2                !
 ! D217  D(49,50,59,62)         54.8416         estimate D2E/DX2                !
 ! D218  D(54,50,59,60)        -65.1517         estimate D2E/DX2                !
 ! D219  D(54,50,59,61)         53.0725         estimate D2E/DX2                !
 ! D220  D(54,50,59,62)        176.3768         estimate D2E/DX2                !
 ! D221  D(46,58,66,67)        -60.3524         estimate D2E/DX2                !
 ! D222  D(46,58,66,68)         57.0316         estimate D2E/DX2                !
 ! D223  D(46,58,66,69)       -179.9824         estimate D2E/DX2                !
 ! D224  D(82,58,66,67)       -165.0821         estimate D2E/DX2                !
 ! D225  D(82,58,66,68)        -47.6982         estimate D2E/DX2                !
 ! D226  D(82,58,66,69)         75.2878         estimate D2E/DX2                !
 ! D227  D(46,58,82,81)        -92.4022         estimate D2E/DX2                !
 ! D228  D(66,58,82,81)         25.0259         estimate D2E/DX2                !
 ! D229  D(50,59,62,63)        -71.4579         estimate D2E/DX2                !
 ! D230  D(50,59,62,83)         41.9439         estimate D2E/DX2                !
 ! D231  D(60,59,62,63)        168.8665         estimate D2E/DX2                !
 ! D232  D(60,59,62,83)        -77.7317         estimate D2E/DX2                !
 ! D233  D(61,59,62,63)         51.3033         estimate D2E/DX2                !
 ! D234  D(61,59,62,83)        164.7051         estimate D2E/DX2                !
 ! D235  D(59,62,63,24)         75.7048         estimate D2E/DX2                !
 ! D236  D(83,62,63,24)        -45.3879         estimate D2E/DX2                !
 ! D237  D(59,62,81,78)         94.8729         estimate D2E/DX2                !
 ! D238  D(59,62,81,82)        -28.3499         estimate D2E/DX2                !
 ! D239  D(59,62,81,84)       -142.194          estimate D2E/DX2                !
 ! D240  D(63,62,81,78)       -151.3699         estimate D2E/DX2                !
 ! D241  D(63,62,81,82)         85.4073         estimate D2E/DX2                !
 ! D242  D(63,62,81,84)        -28.4368         estimate D2E/DX2                !
 ! D243  D(58,66,69,70)       -172.7125         estimate D2E/DX2                !
 ! D244  D(58,66,69,71)         73.1702         estimate D2E/DX2                !
 ! D245  D(58,66,69,72)        -47.8187         estimate D2E/DX2                !
 ! D246  D(67,66,69,70)         68.3754         estimate D2E/DX2                !
 ! D247  D(67,66,69,71)        -45.7418         estimate D2E/DX2                !
 ! D248  D(67,66,69,72)       -166.7307         estimate D2E/DX2                !
 ! D249  D(68,66,69,70)        -51.4936         estimate D2E/DX2                !
 ! D250  D(68,66,69,71)       -165.6108         estimate D2E/DX2                !
 ! D251  D(68,66,69,72)         73.4003         estimate D2E/DX2                !
 ! D252  D(66,69,72,73)         54.8027         estimate D2E/DX2                !
 ! D253  D(66,69,72,74)        167.1223         estimate D2E/DX2                !
 ! D254  D(66,69,72,75)        -72.9085         estimate D2E/DX2                !
 ! D255  D(70,69,72,73)        178.3441         estimate D2E/DX2                !
 ! D256  D(70,69,72,74)        -69.3363         estimate D2E/DX2                !
 ! D257  D(70,69,72,75)         50.6329         estimate D2E/DX2                !
 ! D258  D(71,69,72,73)        -66.479          estimate D2E/DX2                !
 ! D259  D(71,69,72,74)         45.8406         estimate D2E/DX2                !
 ! D260  D(71,69,72,75)        165.8098         estimate D2E/DX2                !
 ! D261  D(69,72,75,76)       -172.5211         estimate D2E/DX2                !
 ! D262  D(69,72,75,77)        -57.897          estimate D2E/DX2                !
 ! D263  D(69,72,75,78)         64.254          estimate D2E/DX2                !
 ! D264  D(73,72,75,76)         60.483          estimate D2E/DX2                !
 ! D265  D(73,72,75,77)        175.1071         estimate D2E/DX2                !
 ! D266  D(73,72,75,78)        -62.7419         estimate D2E/DX2                !
 ! D267  D(74,72,75,76)        -52.1293         estimate D2E/DX2                !
 ! D268  D(74,72,75,77)         62.4949         estimate D2E/DX2                !
 ! D269  D(74,72,75,78)       -175.3541         estimate D2E/DX2                !
 ! D270  D(72,75,78,79)        -69.5687         estimate D2E/DX2                !
 ! D271  D(72,75,78,80)        170.6997         estimate D2E/DX2                !
 ! D272  D(72,75,78,81)         50.3674         estimate D2E/DX2                !
 ! D273  D(76,75,78,79)        167.5272         estimate D2E/DX2                !
 ! D274  D(76,75,78,80)         47.7957         estimate D2E/DX2                !
 ! D275  D(76,75,78,81)        -72.5366         estimate D2E/DX2                !
 ! D276  D(77,75,78,79)         54.1469         estimate D2E/DX2                !
 ! D277  D(77,75,78,80)        -65.5847         estimate D2E/DX2                !
 ! D278  D(77,75,78,81)        174.083          estimate D2E/DX2                !
 ! D279  D(75,78,81,82)        -56.5619         estimate D2E/DX2                !
 ! D280  D(75,78,81,83)       -173.3537         estimate D2E/DX2                !
 ! D281  D(75,78,81,84)         68.3909         estimate D2E/DX2                !
 ! D282  D(79,78,81,82)         66.5843         estimate D2E/DX2                !
 ! D283  D(79,78,81,83)        -50.2075         estimate D2E/DX2                !
 ! D284  D(79,78,81,84)       -168.4629         estimate D2E/DX2                !
 ! D285  D(80,78,81,82)       -178.8214         estimate D2E/DX2                !
 ! D286  D(80,78,81,83)         64.3868         estimate D2E/DX2                !
 ! D287  D(80,78,81,84)        -53.8686         estimate D2E/DX2                !
 ! D288  D(78,81,82,58)        -39.8722         estimate D2E/DX2                !
 ! D289  D(83,81,82,58)         80.5176         estimate D2E/DX2                !
 ! D290  D(84,81,82,58)       -167.2881         estimate D2E/DX2                !
 ! D291  D(78,81,84,41)        138.0772         estimate D2E/DX2                !
 ! D292  D(82,81,84,41)        -97.3054         estimate D2E/DX2                !
 ! D293  D(83,81,84,41)         15.806          estimate D2E/DX2                !
 --------------------------------------------------------------------------------
 Trust Radius=3.00D-01 FncErr=1.00D-07 GrdErr=1.00D-06
 Number of steps in this run=    504 maximum allowed number of steps=    504.
 GradGradGradGradGradGradGradGradGradGradGradGradGradGradGradGradGradGrad

 Leave Link  103 at Thu Apr  7 06:10:50 2016, MaxMem= 10737418240 cpu:         0.5
 (Enter /share/apps//g09/l202.exe)
 Stoichiometry    C23H44NO16(1+)
 Framework group  C1[X(C23H44NO16)]
 Deg. of freedom   246
 Full point group                 C1      NOp   1
 Largest Abelian subgroup         C1      NOp   1
 Largest concise Abelian subgroup C1      NOp   1
                         Standard orientation:                         
 ---------------------------------------------------------------------
 Center     Atomic      Atomic             Coordinates (Angstroms)
 Number     Number       Type             X           Y           Z
 ---------------------------------------------------------------------
      1          8           0        3.544182    1.034666   -0.875254
      2          6           0        3.286484   -0.301609   -0.433535
      3          6           0        4.335927   -1.252039   -1.012757
      4          6           0        5.759941   -0.789175   -0.666756
      5          6           0        5.953641    0.698458   -1.041673
      6          6           0        4.835800    1.527968   -0.405188
      7          1           0        2.289360   -0.541318   -0.830140
      8          1           0        4.210612   -1.231515   -2.112936
      9          1           0        5.913599   -0.909432    0.417863
     10          1           0        6.928884    1.029847   -0.651474
     11          1           0        4.879196    1.396353    0.689381
     12          8           0        6.041826    0.857342   -2.464922
     13          8           0        6.716124   -1.627532   -1.304553
     14          8           0        4.041578   -2.558757   -0.522901
     15          8           0        3.338174   -0.407816    0.977938
     16          6           0        4.859758    3.014181   -0.700070
     17          1           0        5.850663    3.412072   -0.420573
     18          1           0        4.701314    3.199272   -1.775656
     19          8           0        3.813454    3.600269    0.089572
     20          1           0        3.790528    4.553731   -0.094915
     21          1           0        5.134706    0.847328   -2.825531
     22          1           0        6.844260   -1.264515   -2.204963
     23          1           0        4.795805   -3.132306   -0.754644
     24          8           0       -0.637618    0.071929    2.356143
     25          6           0       -0.090967   -1.266106    2.277639
     26          6           0        1.066475   -1.286921    1.271518
     27          6           0        2.118292   -0.273409    1.720935
     28          6           0        1.521822    1.146478    1.721914
     29          6           0        0.271670    1.164343    2.623336
     30          1           0        0.259573   -1.603401    3.269711
     31          1           0        0.655681   -0.984406    0.291531
     32          1           0        2.434274   -0.514339    2.750536
     33          1           0        2.258052    1.843722    2.159369
     34          1           0        0.621071    1.091653    3.671949
     35          8           0        1.172476    1.592779    0.400601
     36          8           0        1.559076   -2.620790    1.220169
     37          8           0       -1.142693   -2.139790    1.958525
     38          6           0       -0.543511    2.458591    2.497992
     39          1           0       -1.398450    2.422979    3.188527
     40          1           0        0.100776    3.299763    2.809587
     41          8           0       -1.066036    2.687427    1.181935
     42          1           0       -0.296704    2.508678    0.583269
     43          1           0        2.011024    1.818852   -0.070845
     44          1           0        2.443819   -2.618952    0.787990
     45          8           0       -4.158797   -1.182335    0.120829
     46          6           0       -3.904051   -1.535487   -1.252765
     47          6           0       -2.480518   -2.035256   -1.575045
     48          6           0       -1.723686   -2.689967   -0.409152
     49          6           0       -1.926024   -1.775882    0.802321
     50          6           0       -3.423140   -1.848167    1.156235
     51          1           0       -4.638471   -2.298956   -1.569979
     52          1           0       -1.887339   -1.138891   -1.847266
     53          1           0       -2.145355   -3.689214   -0.188407
     54          1           0       -3.730901   -2.910543    1.229962
     55          1           0       -1.681399   -0.739820    0.519933
     56          8           0       -0.383591   -2.809197   -0.869150
     57          8           0       -2.613442   -2.902379   -2.690461
     58          8           0       -4.074987   -0.341899   -1.987011
     59          6           0       -3.809487   -1.183437    2.472747
     60          1           0       -4.903905   -1.189838    2.563053
     61          1           0       -3.386884   -1.761689    3.306938
     62          8           0       -3.396909    0.192307    2.563569
     63          1           0       -2.413802    0.187544    2.665697
     64          1           0        0.180514   -3.168008   -0.147921
     65          1           0       -1.715388   -3.199462   -2.926658
     66          6           0       -5.451246    0.073072   -2.163153
     67          1           0       -5.995095   -0.716605   -2.708283
     68          1           0       -5.930954    0.187700   -1.177587
     69          6           0       -5.462562    1.369131   -2.971434
     70          1           0       -6.499399    1.743589   -2.985360
     71          1           0       -5.213168    1.117245   -4.013397
     72          6           0       -4.497838    2.486355   -2.529234
     73          1           0       -3.473357    2.080348   -2.494405
     74          1           0       -4.472179    3.227315   -3.342360
     75          6           0       -4.807400    3.275433   -1.242733
     76          1           0       -4.086017    4.106284   -1.173857
     77          1           0       -5.799081    3.748343   -1.327294
     78          6           0       -4.798830    2.514116    0.083994
     79          1           0       -5.642814    1.817434    0.161920
     80          1           0       -4.868667    3.210166    0.930353
     81          7           0       -3.561071    1.695782    0.283489
     82          1           0       -3.446082    1.035863   -0.507692
     83          1           0       -3.629693    1.090796    1.155231
     84          1           0       -2.686945    2.252034    0.423877
 ---------------------------------------------------------------------
 Rotational constants (GHZ):      0.1350209      0.0525357      0.0495965
 Leave Link  202 at Thu Apr  7 06:10:51 2016, MaxMem= 10737418240 cpu:         4.9
 (Enter /share/apps//g09/l301.exe)
 Standard basis: 6-311+G(d,p) (5D, 7F)
 Ernie: Thresh=  0.10000D-02 Tol=  0.10000D-05 Strict=F.
 There are  1184 symmetry adapted cartesian basis functions of A   symmetry.
 There are  1144 symmetry adapted basis functions of A   symmetry.
  1144 basis functions,  1792 primitive gaussians,  1184 cartesian basis functions
   158 alpha electrons      158 beta electrons
       nuclear repulsion energy      5767.6093315221 Hartrees.
 IExCor= 1009 DFT=T Ex+Corr=PBE1PBE ExCW=0 ScaHFX=  0.250000
 ScaDFX=  0.750000  0.750000  1.000000  1.000000 ScalE2=  1.000000  1.000000
 IRadAn=      0 IRanWt=     -1 IRanGd=            0 ICorTp=0 IEmpDi=131
 NAtoms=   84 NActive=   84 NUniq=   84 SFac= 1.00D+00 NAtFMM=   60 NAOKFM=T Big=T
 Integral buffers will be    131072 words long.
 Raffenetti 2 integral format.
 Two-electron integral symmetry is turned on.
 R6Disp:  Grimme-D3 Dispersion energy=       -0.0825746596 Hartrees.
 Nuclear repulsion after empirical dispersion term =     5767.5267568625 Hartrees.
 Leave Link  301 at Thu Apr  7 06:10:52 2016, MaxMem= 10737418240 cpu:         2.8
 (Enter /share/apps//g09/l302.exe)
 NPDir=0 NMtPBC=     1 NCelOv=     1 NCel=       1 NClECP=     1 NCelD=      1
         NCelK=      1 NCelE2=     1 NClLst=     1 CellRange=     0.0.
 One-electron integrals computed using PRISM.
 NBasis=  1144 RedAO= T EigKep=  1.31D-06  NBF=  1144
 NBsUse=  1144 1.00D-06 EigRej= -1.00D+00 NBFU=  1144
 Precomputing XC quadrature grid using
 IXCGrd= 4 IRadAn=           0 IRanWt=          -1 IRanGd=           0 AccXCQ= 0.00D+00.
 Generated NRdTot=       0 NPtTot=           0 NUsed=           0 NTot=          32
 NSgBfM=  1032  1039  1051  1058  1071 MxSgAt=    84 MxSgA2=    84.
 Leave Link  302 at Thu Apr  7 06:10:55 2016, MaxMem= 10737418240 cpu:        51.1
 (Enter /share/apps//g09/l303.exe)
 DipDrv:  MaxL=1.
 Leave Link  303 at Thu Apr  7 06:10:58 2016, MaxMem= 10737418240 cpu:        37.0
 (Enter /share/apps//g09/l401.exe)
 ExpMin= 4.38D-02 ExpMax= 8.59D+03 ExpMxC= 1.30D+03 IAcc=2 IRadAn=         4 AccDes= 0.00D+00
 Harris functional with IExCor= 1009 and IRadAn=       4 diagonalized for initial guess.
 HarFok:  IExCor= 1009 AccDes= 0.00D+00 IRadAn=         4 IDoV= 1 UseB2=F ITyADJ=14
 ICtDFT=  3500011 ScaDFX=  1.000000  1.000000  1.000000  1.000000
 FoFCou: FMM=F IPFlag=           0 FMFlag=      100000 FMFlg1=        2001
         NFxFlg=           0 DoJE=T BraDBF=F KetDBF=T FulRan=T
         wScrn=  0.000000 ICntrl=     500 IOpCl=  0 I1Cent=   200000004 NGrid=           0
         NMat0=    1 NMatS0=      1 NMatT0=    0 NMatD0=    1 NMtDS0=    0 NMtDT0=    0
 Petite list used in FoFCou.
 Harris En= -2159.70502451366    
 JPrj=0 DoOrth=F DoCkMO=F.
 Leave Link  401 at Thu Apr  7 06:11:11 2016, MaxMem= 10737418240 cpu:       215.5
 (Enter /share/apps//g09/l502.exe)
 Closed shell SCF:
 Using DIIS extrapolation, IDIIS=  1040.
 Integral symmetry usage will be decided dynamically.
 IVT=     4256630 IEndB=     4256630 NGot= 10737418240 MDV= 10734581291
 LenX= 10734581291 LenY= 10733178251
 Requested convergence on RMS density matrix=1.00D-08 within 128 cycles.
 Requested convergence on MAX density matrix=1.00D-06.
 Requested convergence on             energy=1.00D-06.
 No special actions if energy rises.
 Fock matrices will be formed incrementally for  20 cycles.

 Cycle   1  Pass 1  IDiag  1:
 FoFJK:  IHMeth= 1 ICntrl=       0 DoSepK=F KAlg= 0 I1Cent=   0 FoldK=F
 IRaf= 750000000 NMat=   1 IRICut=       1 DoRegI=T DoRafI=F ISym2E= 0.
 FoFCou: FMM=T IPFlag=           0 FMFlag=      100000 FMFlg1=        2001
         NFxFlg=           0 DoJE=F BraDBF=F KetDBF=F FulRan=T
         wScrn=  0.000000 ICntrl=       0 IOpCl=  0 I1Cent=           0 NGrid=           0
         NMat0=    1 NMatS0=      1 NMatT0=    0 NMatD0=    1 NMtDS0=    0 NMtDT0=    0
 Symmetry not used in FoFCou.
 FMM levels:  10  Number of levels for PrismC:   9
 E= -2158.69195643581    
 DIIS: error= 1.62D-02 at cycle   1 NSaved=   1.
 NSaved= 1 IEnMin= 1 EnMin= -2158.69195643581     IErMin= 1 ErrMin= 1.62D-02
 ErrMax= 1.62D-02  0.00D+00 EMaxC= 1.00D-01 BMatC= 1.02D+00 BMatP= 1.02D+00
 IDIUse=3 WtCom= 8.38D-01 WtEn= 1.62D-01
 Coeff-Com:  0.100D+01
 Coeff-En:   0.100D+01
 Coeff:      0.100D+01
 Gap=     0.278 Goal=   None    Shift=    0.000
 GapD=    0.278 DampG=1.000 DampE=0.500 DampFc=0.5000 IDamp=-1.
 Damping current iteration by 5.00D-01
 RMSDP=1.20D-02 MaxDP=3.17D+00              OVMax= 1.36D-01

 Cycle   2  Pass 1  IDiag  1:
 RMSU=  5.73D-03    CP:  1.03D+00
 E= -2158.97250648881     Delta-E=       -0.280550052998 Rises=F Damp=T
 DIIS: error= 3.06D-03 at cycle   2 NSaved=   2.
 NSaved= 2 IEnMin= 2 EnMin= -2158.97250648881     IErMin= 2 ErrMin= 3.06D-03
 ErrMax= 3.06D-03  0.00D+00 EMaxC= 1.00D-01 BMatC= 8.20D-02 BMatP= 1.02D+00
 IDIUse=3 WtCom= 9.69D-01 WtEn= 3.06D-02
 Coeff-Com:  0.613D-01 0.939D+00
 Coeff-En:   0.158D+00 0.842D+00
 Coeff:      0.643D-01 0.936D+00
 Gap=     0.306 Goal=   None    Shift=    0.000
 RMSDP=5.38D-03 MaxDP=1.67D+00 DE=-2.81D-01 OVMax= 8.74D-02

 Cycle   3  Pass 1  IDiag  1:
 RMSU=  2.95D-03    CP:  9.49D-01  7.94D-01
 E= -2159.33838892221     Delta-E=       -0.365882433402 Rises=F Damp=F
 DIIS: error= 3.64D-03 at cycle   3 NSaved=   3.
 NSaved= 3 IEnMin= 3 EnMin= -2159.33838892221     IErMin= 2 ErrMin= 3.06D-03
 ErrMax= 3.64D-03  0.00D+00 EMaxC= 1.00D-01 BMatC= 4.70D-02 BMatP= 8.20D-02
 IDIUse=3 WtCom= 9.64D-01 WtEn= 3.64D-02
 Coeff-Com: -0.668D-01 0.415D+00 0.652D+00
 Coeff-En:   0.000D+00 0.000D+00 0.100D+01
 Coeff:     -0.643D-01 0.400D+00 0.664D+00
 Gap=     0.283 Goal=   None    Shift=    0.000
 RMSDP=1.81D-03 MaxDP=5.64D-01 DE=-3.66D-01 OVMax= 1.68D-02

 Cycle   4  Pass 1  IDiag  1:
 RMSU=  1.23D-03    CP:  9.65D-01  9.57D-01  8.55D-01
 E= -2159.36772881400     Delta-E=       -0.029339891789 Rises=F Damp=F
 DIIS: error= 1.13D-03 at cycle   4 NSaved=   4.
 NSaved= 4 IEnMin= 4 EnMin= -2159.36772881400     IErMin= 4 ErrMin= 1.13D-03
 ErrMax= 1.13D-03  0.00D+00 EMaxC= 1.00D-01 BMatC= 6.15D-03 BMatP= 4.70D-02
 IDIUse=3 WtCom= 9.89D-01 WtEn= 1.13D-02
 Coeff-Com: -0.357D-01 0.124D+00 0.339D+00 0.572D+00
 Coeff-En:   0.000D+00 0.000D+00 0.791D-01 0.921D+00
 Coeff:     -0.353D-01 0.123D+00 0.336D+00 0.576D+00
 Gap=     0.275 Goal=   None    Shift=    0.000
 RMSDP=1.32D-03 MaxDP=4.81D-01 DE=-2.93D-02 OVMax= 6.80D-03

 Cycle   5  Pass 1  IDiag  1:
 RMSU=  3.40D-04    CP:  9.43D-01  9.03D-01  8.52D-01  5.95D-01
 E= -2159.37296521176     Delta-E=       -0.005236397762 Rises=F Damp=F
 DIIS: error= 3.83D-04 at cycle   5 NSaved=   5.
 NSaved= 5 IEnMin= 5 EnMin= -2159.37296521176     IErMin= 5 ErrMin= 3.83D-04
 ErrMax= 3.83D-04  0.00D+00 EMaxC= 1.00D-01 BMatC= 2.70D-04 BMatP= 6.15D-03
 IDIUse=3 WtCom= 9.96D-01 WtEn= 3.83D-03
 Coeff-Com: -0.112D-01 0.258D-01 0.101D+00 0.251D+00 0.634D+00
 Coeff-En:   0.000D+00 0.000D+00 0.000D+00 0.000D+00 0.100D+01
 Coeff:     -0.112D-01 0.257D-01 0.101D+00 0.250D+00 0.635D+00
 Gap=     0.275 Goal=   None    Shift=    0.000
 RMSDP=2.13D-04 MaxDP=6.71D-02 DE=-5.24D-03 OVMax= 1.77D-03

 Cycle   6  Pass 1  IDiag  1:
 RMSU=  9.43D-05    CP:  9.46D-01  9.14D-01  8.68D-01  6.02D-01  6.96D-01
 E= -2159.37316689995     Delta-E=       -0.000201688185 Rises=F Damp=F
 DIIS: error= 6.85D-05 at cycle   6 NSaved=   6.
 NSaved= 6 IEnMin= 6 EnMin= -2159.37316689995     IErMin= 6 ErrMin= 6.85D-05
 ErrMax= 6.85D-05  0.00D+00 EMaxC= 1.00D-01 BMatC= 2.70D-05 BMatP= 2.70D-04
 IDIUse=1 WtCom= 1.00D+00 WtEn= 0.00D+00
 Coeff-Com: -0.415D-02 0.747D-02 0.367D-01 0.104D+00 0.336D+00 0.519D+00
 Coeff:     -0.415D-02 0.747D-02 0.367D-01 0.104D+00 0.336D+00 0.519D+00
 Gap=     0.275 Goal=   None    Shift=    0.000
 RMSDP=4.49D-05 MaxDP=9.50D-03 DE=-2.02D-04 OVMax= 4.31D-04

 Cycle   7  Pass 1  IDiag  1:
[...]
 -0.00137024,0.00001525,0.00000339,-0.00003724,-0.00001205,-0.00000303,
 -0.00004462,0.00000177,0.00003265,0.00002614,-0.00013830,0.00004255,-0
 .00000098,-0.00003044,0.00002923,0.00025387,-0.00003950,0.00062054,0.0
 0032745,-0.00028210,-0.00008339,-0.00008997,-0.00085285,0.00023451,-0.
 00002257,0.00182518,-0.00191265,0.00030525,-0.00019184,0.00018403,-0.0
 0029582,-0.00025241,0.00049408,-0.00008824,-0.00018281,0.00329672,-0.0
 0094988,-0.00060109,-0.00028584,-0.00025848,-0.00002762,-0.00000823,-0
 .00004208,0.00011604,0.00004509,-0.00000048,-0.00348028,0.00246790,0.0
 0131609,0.00154138,-0.00198265,-0.00083353,0.00034898,0.00004299,-0.00
 045238,0.00007350,-0.00035348,0.00032049,0.00108925,0.00023478,-0.0005
 9172,0.00217746,-0.00169279,-0.00021858,-0.00018549,0.00007742,0.00004
 408,-0.00022818,-0.00005210,0.00010658,-0.00005128,0.00002940,0.000128
 73,-0.00053723,0.00052504,-0.00032639,-0.00027199,-0.00032766,0.000145
 31,-0.00047525,0.00013595,-0.00022862,-0.00029577,0.00018016,0.0001250
 6,-0.00047698,0.00078128,0.00161990,-0.00449317,-0.00302260,0.00840863
 ,0.00006996,0.00033905,-0.00035192,0.00091748,0.00006362,-0.00212187,-
 0.00605755,-0.00975411,-0.00518132,0.00890074,-0.00012735,-0.00223647,
 0.00007959,-0.00000185,0.00007651,0.00005379,-0.00008272,-0.00006422,-
 0.00006688,-0.00018438,-0.00014157,0.00002738,-0.00002446,0.00015110,0
 .00013287,-0.00003002,-0.00017389,0.00016714,0.00013457,-0.00018913,-0
 .00006501,0.00003475,-0.00000090,-0.00002268,-0.00005369,0.00017379,-0
 .00048145,0.00047569,-0.00047439,-0.00009264,0.00021009,0.00004843,0.0
 0008554,-0.00012789,0.00011122,-0.00569500,-0.00434956,-0.00160715,-0.
 00000435,0.00034791,0.00007528,0.00110732,-0.00195497,-0.00061970,0.02
 160541,-0.01431610,-0.00490154,-0.00012480,-0.00111933,0.00033090,-0.0
 0001304,-0.00038358,-0.00090883,-0.14676610,0.10275834,0.03982893,-0.0
 1088396,0.01255015,0.00282365,0.15754833,0.00033601,0.00000399,-0.0001
 4761,-0.00050387,0.00029861,0.00006277,-0.00005712,0.00003595,0.000016
 92,-0.00007884,-0.00004513,-0.00003419,-0.00007329,0.00006956,-0.00000
 209,-0.00010712,-0.00008171,0.00005251,-0.00002851,0.00002254,-0.00000
 471,0.00004191,-0.00001002,0.00001868,-0.00000660,-0.00002451,-0.00000
 295,0.00001504,0.,-0.00000065,-0.00001125,-0.00001462,0.00000959,0.000
 11377,-0.00007258,-0.00000506,0.00011655,0.00003743,0.00004260,0.00016
 598,0.00000066,0.00002019,0.00072454,-0.00004825,0.00016361,-0.0000296
 1,0.00003062,0.00000993,0.00000545,0.00000489,-0.00000865,0.00001785,-
 0.00001238,0.00000715,0.00006584,-0.00006117,-0.00005703,0.00000232,0.
 00005788,0.00002280,-0.00005395,0.00004145,0.00000970,-0.00003652,0.00
 000193,-0.00000381,-0.00001380,-0.00000481,-0.00003359,0.00239957,0.00
 223894,0.00078334,-0.00035678,-0.00050423,-0.00163159,-0.00020633,0.00
 005790,-0.00011891,-0.00040292,-0.00029953,-0.00006750,-0.00033649,0.0
 0051183,-0.00007118,-0.00073909,-0.00090117,0.00150992,-0.00000845,0.0
 0005171,0.00016015,-0.00002855,0.00004115,0.00001518,0.00000735,-0.000
 04515,-0.00001991,0.00014573,-0.00002772,0.00000595,0.00005258,0.00009
 571,-0.00023191,0.00059756,-0.00039833,-0.00005790,0.00045302,0.000148
 83,0.00039133,0.00073125,-0.00044177,0.00053365,-0.00141068,0.00014285
 ,-0.00011643,0.00022143,-0.00026101,0.00049835,0.00031167,-0.00006528,
 -0.00001399,0.00202926,-0.00228346,-0.00069549,-0.00021266,0.00071096,
 -0.00013532,-0.00022525,0.00004372,0.00003827,-0.00021493,-0.00006875,
 -0.00004246,0.00256960,-0.00341550,-0.00195935,-0.00120200,0.00189772,
 0.00119666,-0.00029712,0.00043340,0.00040638,-0.00047299,0.00068351,-0
 .00028041,-0.00024877,-0.00030266,-0.00022245,-0.00227823,0.00361617,0
 .00075982,0.00015028,-0.00004093,-0.00018442,0.00018175,0.00008287,-0.
 00006789,0.00010692,-0.00011686,0.00000259,0.00064813,-0.00095758,0.00
 034093,-0.00047783,0.00021753,-0.00020822,0.00057929,-0.00041094,0.000
 35663,0.00021835,-0.00053979,-0.00019451,0.00044033,-0.00098088,-0.002
 40344,0.00418454,0.00840144,-0.01119120,-0.00084625,-0.00044882,0.0008
 9754,-0.00163837,-0.00042646,0.00346063,-0.01329059,0.00073086,0.01167
 720,-0.00243207,-0.00785386,-0.00066675,-0.00010623,0.00008876,-0.0001
 8941,-0.00010896,0.00018337,0.00004883,0.00040999,0.00008267,0.0002487
 5,-0.00009950,0.00007575,-0.00023772,-0.00032670,-0.00004199,0.0002362
 2,-0.00007141,-0.00012766,0.00024893,0.00012788,0.00000570,-0.00008809
 ,-0.00001902,0.00007335,-0.00014987,-0.00052898,-0.00001832,0.00031256
 ,0.00055725,0.00011566,0.00024488,-0.00003353,0.00034681,-0.00013424,-
 0.00150256,-0.00060000,-0.00058604,-0.00014018,-0.00011369,-0.00031610
 ,0.00035697,0.00026390,-0.00015687,0.00558942,-0.02142017,-0.00789651,
 0.00089979,0.00094328,0.00070427,0.00067406,0.00157655,0.00041571,0.10
 545575,-0.19064002,-0.04814324,0.00504047,-0.00639247,0.00168349,-0.09
 618469,0.19899031,0.00009973,-0.00000034,-0.00015348,-0.00022114,0.000
 06855,0.00012788,-0.00004217,0.00001775,0.00005414,-0.00003114,-0.0000
 1791,-0.00000278,-0.00001676,0.00002862,0.00001362,-0.00003073,-0.0000
 3607,0.00002178,-0.00001583,0.00001526,0.00001395,0.00001260,-0.000008
 21,0.00000260,-0.00000306,-0.00000686,0.00000058,0.00000690,0.00000127
 ,-0.00000274,-0.00000349,-0.00000061,0.00000851,0.00003591,-0.00002596
 ,-0.00002929,0.00004623,0.00001752,-0.00001053,0.00010019,0.00001685,-
 0.00004407,0.00027416,0.00000845,-0.00008194,0.00003224,0.00002951,0.0
 0005550,-0.00000538,-0.00000376,-0.00000862,-0.00000067,-0.00000319,-0
 .00000176,-0.00003470,-0.00005262,-0.00007500,0.00002056,0.00002908,0.
 00001509,-0.00001749,0.00001232,0.00002069,-0.00001654,-0.00000191,0.0
 0000795,-0.00000828,-0.00001273,-0.00000601,0.00117062,0.00103606,-0.0
 0058467,-0.00047011,-0.00061692,0.00029041,-0.00001475,-0.00002769,-0.
 00006195,-0.00018685,-0.00011434,0.00014056,-0.00007515,0.00034241,-0.
 00006665,-0.00051307,-0.00047786,0.00113002,0.00001851,0.00006637,-0.0
 0001780,-0.00005917,-0.00000037,0.00004942,0.00000642,-0.00000151,-0.0
 0002075,0.00010129,-0.00000892,-0.00001108,0.00004406,0.00003386,-0.00
 018937,-0.00004460,-0.00041230,-0.00033835,0.00020106,0.00018313,0.000
 01186,0.00048882,0.00091171,0.00003447,-0.00061761,0.00124176,-0.00008
 485,0.00001262,0.00013454,0.00012247,0.00007389,-0.00025947,0.00000666
 ,-0.00070741,-0.00188607,-0.00060923,0.00032208,-0.00010591,0.00050190
 ,0.00002038,0.00000700,0.00004354,-0.00012226,-0.00006526,-0.00001231,
 0.00177493,-0.00229407,0.00082879,-0.00286245,0.00344795,0.00005191,-0
 .00032414,-0.00009715,0.00006662,-0.00052019,0.00010304,-0.00026822,0.
 00004169,-0.00066412,-0.00037040,0.00076636,-0.00127602,-0.00227240,0.
 00044285,-0.00039173,0.00025320,0.00009702,0.00007515,0.00000958,0.000
 07585,-0.00007443,0.00003825,0.00004349,-0.00001978,0.00042447,-0.0005
 9308,-0.00018209,0.00018369,0.00054244,0.00017078,0.00026084,0.0004552
 9,-0.00017421,0.00023637,0.00054606,-0.00121231,-0.00203012,0.00431705
 ,-0.00247066,-0.00527895,-0.00020428,-0.00009308,0.00045847,-0.0002643
 1,0.00025819,0.00034827,-0.00458129,0.01066613,-0.00581137,-0.00262685
 ,-0.00238149,0.00055942,-0.00007351,-0.00013977,-0.00006193,-0.0000707
 5,0.00003660,0.00001405,0.00021161,0.00042549,0.00019704,-0.00002645,-
 0.00001057,-0.00010398,-0.00009659,0.00006426,0.00013223,-0.00002144,-
 0.00008520,0.00023646,0.00008993,0.00000655,-0.00010869,0.00002332,0.0
 0002810,-0.00010218,-0.00045846,-0.00007506,0.00030149,0.00055744,0.00
 019981,0.00017288,0.00007044,0.00028201,-0.00005822,-0.00123723,-0.000
 41254,-0.00040750,-0.00015481,0.00018541,0.00008758,0.00018009,-0.0000
 8556,0.00020601,0.00319532,-0.00985348,-0.00441122,0.00045890,0.001293
 12,0.00056175,0.00031396,-0.00009841,-0.00052161,0.04086482,-0.0483058
 2,-0.08096679,-0.01826139,0.02326692,0.01254899,-0.03832782,0.04785321
 ,0.09181678,0.00003953,0.00005754,0.00008458,0.00003583,-0.00003127,-0
 .00009035,0.00001780,-0.00000216,-0.00004769,-0.00001420,-0.00001729,-
 0.00001729,-0.00001128,-0.00000549,-0.00001213,-0.00003005,-0.00003359
 ,0.00001669,0.00000894,-0.00000487,-0.00001904,-0.00000293,0.00000381,
 0.00000026,0.00000042,-0.00000147,-0.00000141,0.00000283,0.00000133,0.
 00000189,-0.00000113,0.00000194,-0.00000411,0.00001117,0.00001069,0.00
 002901,0.00001978,0.00001574,0.00003804,-0.00002394,0.00001034,0.00005
 590,-0.00002427,0.00000978,0.00006644,-0.00004923,-0.00003584,-0.00005
 729,0.00001191,0.00001284,0.00000484,-0.00000212,-0.00000310,0.0000034
 6,0.00006488,0.00008883,0.00004485,-0.00002216,-0.00004709,0.00001123,
 -0.00000984,-0.00000688,-0.00002060,-0.00000478,-0.00000383,-0.0000125
 5,0.00000158,-0.00000160,-0.00001185,-0.00029573,-0.00018875,0.0002794
 9,0.00016832,0.00014086,-0.00028233,0.00000633,-0.00002742,-0.00004752
 ,-0.00001488,0.00002536,-0.00007386,0.00011727,-0.00027431,-0.00004870
 ,-0.00003727,0.00052084,-0.00043881,-0.00000675,-0.00001056,0.00001746
 ,0.00001398,0.00001700,-0.00003506,0.00000074,0.00000403,0.00001630,-0
 .00004260,0.00003374,0.00000395,-0.00000838,0.00007047,0.00017905,-0.0
 0005215,0.00034927,0.00016190,-0.00003988,-0.00003060,0.00010376,-0.00
 016294,-0.00030758,0.00010878,0.00112035,-0.00084850,0.00085635,-0.000
 17887,0.00025916,-0.00004139,-0.00002743,0.00017874,-0.00004137,-0.003
 90381,0.00104075,-0.00061903,-0.00038380,-0.00178818,-0.00032460,-0.00
 009340,-0.00007129,-0.00006879,0.00001952,0.00001030,-0.00001747,0.000
 55030,-0.00048400,-0.00073187,-0.00001560,0.00014275,0.00086378,0.0001
 5620,0.00005299,-0.00002990,0.00008905,0.00006423,0.00006078,0.0000369
 4,0.00017830,-0.00003529,-0.00004441,0.00043096,-0.00000719,0.00003307
 ,-0.00002298,-0.00009149,-0.00000303,0.00001211,0.00001945,-0.00001987
 ,0.00000179,0.00001624,-0.00000611,-0.00006166,-0.00007319,0.00008132,
 0.00004789,-0.00000141,-0.00015665,-0.00015309,-0.00002512,-0.00011678
 ,-0.00003882,-0.00004568,-0.00008154,0.00068657,-0.00110485,-0.0001662
 8,-0.00044517,0.00039214,0.00000043,0.00002115,-0.00002026,0.00007807,
 0.00000824,-0.00012126,0.00063184,0.00031691,-0.00094981,0.00020312,0.
 00063579,0.00012791,0.00001599,0.00006847,-0.00001812,0.00003150,0.000
 00601,-0.00001370,-0.00022034,-0.00053706,0.00001690,0.00003905,0.0000
 7790,-0.00000945,-0.00000289,-0.00002266,0.00003045,-0.00011941,-0.000
 12642,-0.00005880,-0.00002688,-0.00001311,0.00007363,-0.00000158,0.000
 02317,-0.00002998,0.00023484,0.00016507,0.00031732,-0.00005966,-0.0001
 3719,-0.00026821,-0.00006128,0.00008127,-0.00000473,0.00162332,0.00060
 859,-0.00095184,0.00029243,-0.00046448,0.00017317,-0.00027134,0.000377
 96,0.00007071,-0.01213732,-0.00528190,0.01121162,-0.00081812,-0.002192
 23,-0.00216578,-0.00029436,0.00050758,0.00000705,-0.19651908,-0.079927
 06,0.15181481,0.01753547,0.00802614,-0.01291491,-0.01321539,-0.0092968
 5,0.01580623,0.20650759,0.00030792,0.00007939,0.00011054,-0.00022052,0
 .00015830,-0.00016084,0.00000304,0.00001487,-0.00008276,-0.00005816,-0
 .00004668,-0.00004397,-0.00006564,0.00003853,-0.00002782,-0.00010674,-
 0.00009066,0.00005756,-0.00000304,0.00000258,-0.00003777,0.00002093,0.
 00000180,0.00001657,-0.00000245,-0.00001698,-0.00000528,0.00001233,0.0
 0000068,0.00000469,-0.00000853,-0.00001145,-0.00000577,0.00008830,-0.0
 0003535,0.00004748,0.00008687,0.00003791,0.00008463,0.00003149,0.00000
 527,0.00010869,0.00035077,-0.00004690,0.00031199,-0.00011426,-0.000027
 54,-0.00010314,0.00002428,0.00002012,0.00000456,0.00002032,-0.00001124
 ,0.00001516,0.00017343,0.00006555,0.00005883,-0.00004249,-0.00000207,0
 .00001679,-0.00004730,0.00002379,-0.00002561,-0.00002442,-0.00000076,-
 0.00002095,-0.00000390,-0.00000026,-0.00003393,-0.00043511,-0.00009539
 ,0.00126870,0.00025739,0.00019660,-0.00124577,-0.00005117,0.00001797,-
 0.00016064,-0.00017376,-0.00010682,-0.00029170,-0.00012841,-0.00046478
 ,-0.00002749,-0.00003968,0.00084511,-0.00112812,0.00000042,0.00000575,
 0.00009851,0.00000975,0.00004879,-0.00006368,0.00000877,-0.00002311,0.
 00002385,-0.00007796,0.00002193,0.00001553,-0.00001471,0.00020504,0.00
 040599,0.00097702,0.00073061,0.00072676,0.00006900,-0.00004172,0.00037
 824,-0.00025207,-0.00074962,0.00044639,0.00306172,-0.00312668,0.001229
 42,-0.00018674,0.00009248,-0.00002553,-0.00008987,0.00091039,-0.000162
 07,-0.00161159,0.00284687,0.00002810,-0.00191149,0.00033495,-0.0009617
 1,-0.00042535,0.00006893,-0.00002986,-0.00005117,0.00000694,-0.0000612
 6,0.00020863,-0.00036087,-0.00126488,0.00014458,0.00016482,0.00041153,
 0.00003829,0.00012479,0.00009241,0.00007088,0.00017341,0.00001992,0.00
 007169,0.00040149,-0.00015871,-0.00019316,0.00082239,0.00035256,-0.000
 01406,0.00001833,-0.00008808,0.00001698,0.00004986,0.00000143,-0.00000
 931,-0.00003285,0.00003364,0.00002088,-0.00013911,-0.00007003,0.000021
 98,0.00013580,-0.00009472,-0.00014559,-0.00035026,0.00003803,-0.000046
 21,-0.00016860,-0.00010559,0.00012859,-0.00025765,-0.00036787,-0.00018
 072,0.00023993,0.00003180,-0.00010345,-0.00000686,0.00003092,0.0000603
 3,-0.00004277,-0.00001187,0.00031067,-0.00351896,0.00045293,0.00116767
 ,0.00014447,-0.00064813,0.00001364,0.00018153,-0.00009213,-0.00000743,
 0.00006925,0.00001400,-0.00007740,0.00018148,0.00009497,0.00003138,-0.
 00004013,-0.00007976,0.00002260,-0.00003272,0.00000741,-0.00009858,0.0
 0012224,0.00014647,0.00007091,0.00003538,-0.00008140,0.00002187,0.0000
 4500,-0.00011833,0.00003210,-0.00039093,-0.00001721,0.00039394,0.00004
 826,0.00036401,0.00006646,0.00016445,-0.00001889,0.00018116,0.00049057
 ,0.00125737,0.00044008,-0.00049950,-0.00096572,0.00017451,0.00059463,-
 0.00035871,-0.01571195,-0.00885853,0.01797138,-0.00190825,-0.00258362,
 -0.00238852,0.00067617,0.00140349,0.00003510,-0.07982285,-0.10091195,0
 .09082509,-0.00635610,-0.00445148,0.00575454,0.01339070,0.01706143,-0.
 01802040,0.08754113,0.09809065,0.00002446,0.00002568,-0.00005356,-0.00
 003586,-0.00003223,0.00005045,-0.00000496,0.00000036,0.00001192,-0.000
 01066,-0.00000613,0.00000503,0.00000622,0.00000464,0.00000517,-0.00001
 867,-0.00002535,0.00001902,0.00000105,0.00000041,-0.00000526,-0.000002
 46,-0.00000170,-0.00000170,-0.00000035,0.00000091,0.00000036,0.0000030
 4,0.00000230,0.00000011,-0.00000076,0.00000460,0.00000199,0.00000206,0
 .00000134,-0.00001694,0.00001050,0.00000825,-0.00001022,0.00001954,0.0
 0001286,-0.00001624,0.00001569,0.00001893,-0.00005583,0.00003366,0.000
 01085,0.00004095,-0.00000455,-0.00000182,-0.00000484,-0.00000608,-0.00
 000026,-0.00000133,-0.00003731,-0.00002078,-0.00006091,0.00002383,0.00
 001605,0.00001879,-0.00000415,-0.00000438,0.00001063,-0.00000383,-0.00
 000274,0.00000482,-0.00000182,-0.00000683,0.00000090,0.00009352,0.0001
 9311,-0.00019948,-0.00006213,-0.00012609,0.00013109,0.00002215,-0.0000
 6277,-0.00001265,-0.00004321,-0.00000580,0.00005640,0.00008667,0.00001
 674,-0.00002248,-0.00003563,-0.00035306,0.00033594,-0.00000118,0.00001
 883,-0.00000140,-0.00001882,-0.00000552,-0.00000115,0.00000126,0.00001
 139,0.00000105,0.00001095,0.00002266,-0.00000528,-0.00000757,-0.000021
 41,-0.00008499,-0.00012892,0.00000481,-0.00015933,0.00002025,0.0000720
 8,-0.00001322,-0.00001084,0.00022892,-0.00000138,0.00014284,0.00048817
 ,-0.00092401,-0.00006755,0.00003532,0.00008135,-0.00005996,0.00027021,
 -0.00001089,-0.00045679,0.00083441,-0.00188938,0.00015924,-0.00088476,
 0.00063489,0.00000403,-0.00001588,0.00002936,-0.00002232,-0.00002176,0
 .00000101,0.00029690,-0.00022028,-0.00108943,0.00034061,-0.00023950,0.
 00011903,0.00014197,0.00011443,-0.00022575,-0.00011925,-0.00002194,0.0
 0001301,0.00023778,-0.00015681,-0.00020380,0.00001709,0.00031454,-0.00
 008176,-0.00005791,0.00003038,-0.00006903,-0.00009699,-0.00002466,0.00
 005112,0.00000855,0.00000819,0.00004016,0.00001855,-0.00012063,-0.0000
 2577,-0.00005676,-0.00004521,0.00002059,0.00005353,0.00008107,0.000042
 90,-0.00002279,-0.00005318,0.00013767,-0.00012205,0.00038033,-0.000182
 19,0.00001634,0.00017434,-0.00033857,0.00000458,-0.00002551,0.00000972
 ,-0.00002514,-0.00000738,0.00009385,-0.00061124,0.00044985,0.00042677,
 0.00001994,-0.00041256,0.00007729,-0.00001614,-0.00005690,-0.00000448,
 -0.00001337,-0.00000993,-0.00003416,-0.00024734,-0.00017594,-0.0000367
 7,0.00007353,0.00000789,0.00002742,0.00008732,-0.00001456,-0.00006552,
 -0.00016524,-0.00005270,-0.00012740,-0.00004122,-0.00000780,0.00006451
 ,0.00002870,0.00001007,-0.00001832,0.00045374,0.00026689,-0.00005765,-
 0.00030313,-0.00001400,-0.00017246,-0.00000386,-0.00015916,0.00002913,
 -0.00080990,0.00059508,0.00134636,0.00054834,0.00011113,-0.00071834,0.
 00016333,-0.00001185,-0.00030434,-0.00978065,-0.00319533,0.01602978,-0
 .00253520,-0.00365958,-0.00069245,-0.00050393,0.00011912,0.00042732,0.
 14703904,0.08894719,-0.23198110,0.02156764,0.00679638,-0.01579570,0.00
 586035,0.00331184,-0.00748198,-0.16108031,-0.09373786,0.24286159\\0.00
 001745,-0.00000349,0.00000385,-0.00000969,0.00000371,0.00000660,0.0000
 0168,-0.00000027,0.00000137,-0.00000110,-0.00000288,0.00000221,0.00000
 871,-0.00000506,0.00000609,-0.00001075,-0.00001164,0.00000007,0.000002
 53,-0.00000229,0.00000117,-0.00000122,-0.00000381,0.00000344,0.0000019
 8,-0.00000173,0.00000129,0.00000266,-0.00000256,0.00000536,0.00000337,
 -0.00000029,0.00000354,0.00000144,0.00000151,0.00000128,-0.00000059,-0
 .00000312,0.00000823,0.00000079,-0.00000701,0.00000423,0.00001179,-0.0
 0000093,-0.00000270,0.00000166,-0.00000854,0.00000381,0.00000384,-0.00
 000018,0.00000542,0.00000493,-0.00000150,0.00000307,0.00000376,0.00000
 654,0.00000290,0.00000535,-0.00000789,0.00000338,-0.00000101,-0.000005
 58,0.00000692,0.00000342,-0.00000446,0.00000426,0.00000021,0.00000178,
 0.00000365,-0.00000443,-0.00001818,0.00001806,0.00000728,0.00001940,-0
 .00001975,0.00000321,0.00000017,0.00000778,-0.00001150,-0.00000422,-0.
 00000386,0.00000644,-0.00000266,0.00000051,0.00000415,0.00001248,-0.00
 000580,-0.00000025,0.00000055,-0.00000179,-0.00000039,-0.00000170,-0.0
 0000026,0.00000270,0.00000043,0.00000165,0.00000363,0.00000156,0.00000
 142,0.00000311,0.00000050,0.00000059,-0.00000426,-0.00000150,-0.000001
 73,-0.00000976,0.00000195,-0.00000680,0.00000123,-0.00001709,0.0000115
 7,0.00000239,-0.00000530,-0.00000487,0.00000215,0.00000236,-0.00000197
 ,0.00000382,0.00000158,-0.00000124,-0.00000221,-0.00000448,0.00000112,
 0.00000693,0.00000432,0.00000152,-0.00000119,0.00000491,0.00000249,0.0
 0000617,-0.00000302,0.00000298,-0.00000330,0.00000609,-0.00000429,-0.0
 0000430,-0.00000074,0.00000395,0.00000038,-0.00000144,-0.00000014,-0.0
 0000607,-0.00000208,-0.00000150,-0.00000949,0.00002263,-0.00000496,0.0
 0000109,-0.00000652,0.00000150,-0.00000325,0.00000188,-0.00000127,-0.0
 0000193,-0.00000082,0.00000016,-0.00000162,-0.00000217,0.00000075,-0.0
 0000351,0.00000112,-0.00000459,-0.00000089,-0.00000328,-0.00000066,-0.
 00000147,-0.00000151,0.00000488,-0.00000326,-0.00000370,-0.00000486,-0
 .00000952,0.00001018,-0.00001377,0.00000016,0.00000512,-0.00000815,-0.
 00000186,0.00000359,-0.00000436,-0.00000082,0.00000368,-0.00000361,-0.
 00000204,-0.00001169,0.00000713,0.00002023,0.00000739,-0.00002176,-0.0
 0000016,0.00000347,-0.00000239,-0.00000465,0.00000240,0.00000288,-0.00
 000517,-0.00000310,0.00000002,-0.00000420,0.00000193,-0.00000144,-0.00
 000407,0.00000302,-0.00000405,0.00000106,0.00000096,-0.00000257,-0.000
 00419,0.00000183,-0.00000236,-0.00000340,0.00000016,-0.00000222,-0.000
 00798,-0.00000015,0.00000231,-0.00000102,0.00000026,-0.00000160,-0.000
 00191,-0.00000031,-0.00000247,0.00000389,0.00000051,0.00000059,0.00000
 093,0.00000214,-0.00000106,-0.00000209,0.00000213,-0.00000292,-0.00000
 111,0.00000362,-0.00000088,-0.00000221,0.00000247,-0.00000192,0.000001
 32,0.00000152,-0.00000432,0.00000479,-0.00001412,-0.00000559,0.0000098
 2,-0.00000092,0.00000154,-0.00001499,0.00002381,0.00000508,-0.00000362
 ,0.00000831,-0.00000217\\\@


0EVERYBODY IS IGNORANT, ONLY ON DIFFERENT SUBJECTS.
0          WILL ROGERS
 Job cpu time:      16 days 10 hours 32 minutes 55.1 seconds.
 File lengths (MBytes):  RWF=  17337 Int=      0 D2E=      0 Chk=     98 Scr=      1
 Normal termination of Gaussian 09 at Sat Apr  9 10:21:11 2016.
