 Entering Gaussian System, Link 0=g09
 Initial command:
 /share/apps//g09/l1.exe "/scratch/Gau-13192.inp" -scrdir="/scratch/"
 Entering Link 1 = /share/apps//g09/l1.exe PID=     13193.
  
 Copyright (c) 1988,1990,1992,1993,1995,1998,2003,2009,2013,
            Gaussian, Inc.  All Rights Reserved.
  
 This is part of the Gaussian(R) 09 program.  It is based on
 the Gaussian(R) 03 system (copyright 2003, Gaussian, Inc.),
 the Gaussian(R) 98 system (copyright 1998, Gaussian, Inc.),
 the Gaussian(R) 94 system (copyright 1995, Gaussian, Inc.),
 the Gaussian 92(TM) system (copyright 1992, Gaussian, Inc.),
 the Gaussian 90(TM) system (copyright 1990, Gaussian, Inc.),
 the Gaussian 88(TM) system (copyright 1988, Gaussian, Inc.),
 the Gaussian 86(TM) system (copyright 1986, Carnegie Mellon
 University), and the Gaussian 82(TM) system (copyright 1983,
 Carnegie Mellon University). Gaussian is a federally registered
 trademark of Gaussian, Inc.
  
 This software contains proprietary and confidential information,
 including trade secrets, belonging to Gaussian, Inc.
  
 This software is provided under written license and may be
 used, copied, transmitted, or stored only in accord with that
 written license.
  
 The following legend is applicable only to US Government
 contracts under FAR:
  
                    RESTRICTED RIGHTS LEGEND
  
 Use, reproduction and disclosure by the US Government is
 subject to restrictions as set forth in subparagraphs (a)
 and (c) of the Commercial Computer Software - Restricted
 Rights clause in FAR 52.227-19.
  
 Gaussian, Inc.
 340 Quinnipiac St., Bldg. 40, Wallingford CT 06492
  
  
 ---------------------------------------------------------------
 Warning -- This program may not be used in any manner that
 competes with the business of Gaussian, Inc. or will provide
 assistance to any competitor of Gaussian, Inc.  The licensee
 of this program is prohibited from giving any competitor of
 Gaussian, Inc. access to this program.  By using this program,
 the user acknowledges that Gaussian, Inc. is engaged in the
 business of creating and licensing software in the field of
 computational chemistry and represents and warrants to the
 licensee that it is not a competitor of Gaussian, Inc. and that
 it will not use this program in any manner prohibited above.
 ---------------------------------------------------------------
  

 Cite this work as:
 Gaussian 09, Revision D.01,
 M. J. Frisch, G. W. Trucks, H. B. Schlegel, G. E. Scuseria, 
 M. A. Robb, J. R. Cheeseman, G. Scalmani, V. Barone, B. Mennucci, 
 G. A. Petersson, H. Nakatsuji, M. Caricato, X. Li, H. P. Hratchian, 
 A. F. Izmaylov, J. Bloino, G. Zheng, J. L. Sonnenberg, M. Hada, 
 M. Ehara, K. Toyota, R. Fukuda, J. Hasegawa, M. Ishida, T. Nakajima, 
 Y. Honda, O. Kitao, H. Nakai, T. Vreven, J. A. Montgomery, Jr., 
 J. E. Peralta, F. Ogliaro, M. Bearpark, J. J. Heyd, E. Brothers, 
 K. N. Kudin, V. N. Staroverov, T. Keith, R. Kobayashi, J. Normand, 
 K. Raghavachari, A. Rendell, J. C. Burant, S. S. Iyengar, J. Tomasi, 
 M. Cossi, N. Rega, J. M. Millam, M. Klene, J. E. Knox, J. B. Cross, 
 V. Bakken, C. Adamo, J. Jaramillo, R. Gomperts, R. E. Stratmann, 
 O. Yazyev, A. J. Austin, R. Cammi, C. Pomelli, J. W. Ochterski, 
 R. L. Martin, K. Morokuma, V. G. Zakrzewski, G. A. Voth, 
 P. Salvador, J. J. Dannenberg, S. Dapprich, A. D. Daniels, 
 O. Farkas, J. B. Foresman, J. V. Ortiz, J. Cioslowski, 
 and D. J. Fox, Gaussian, Inc., Wallingford CT, 2013.
 
 ******************************************
 Gaussian 09:  EM64L-G09RevD.01 24-Apr-2013
                24-Mar-2016 
 ******************************************
 %nproc=20
 Will use up to   20 processors via shared memory.
 %mem=80GB
 %chk=Tri_A154_of.chk
 -------------------------------------------------------------------
 #P PBE1PBE/6-311+G(d,p) opt optcyc=999 freq EmpiricalDispersion=GD3
 -------------------------------------------------------------------
 1/6=999,14=-1,18=20,19=15,26=3,38=1/1,3;
 2/9=110,12=2,17=6,18=5,40=1/2;
 3/5=4,6=6,7=111,11=2,16=1,25=1,30=1,71=1,74=-13,124=31/1,2,3;
 4//1;
 5/5=2,38=5/2;
 6/7=2,8=2,9=2,10=2,28=1/1;
 7//1,2,3,16;
 1/6=999,14=-1,18=20,19=15,26=3/3(2);
 2/9=110/2;
 99//99;
 2/9=110/2;
 3/5=4,6=6,7=111,11=2,16=1,25=1,30=1,71=1,74=-13,124=31/1,2,3;
 4/5=5,16=3,69=1/1;
 5/5=2,38=5/2;
 7//1,2,3,16;
 1/6=999,14=-1,18=20,19=15,26=3/3(-5);
 2/9=110/2;
 6/7=2,8=2,9=2,10=2,19=2,28=1/1;
 99/9=1/99;
 Leave Link    1 at Thu Mar 24 16:57:47 2016, MaxMem= 10737418240 cpu:         1.9
 (Enter /share/apps//g09/l101.exe)
 -------
 disacch
 -------
 Symbolic Z-matrix:
 Charge =  1 Multiplicity = 1
 O                    -3.24324   0.35918   0.28812 
 C                    -3.05251   0.12785   1.66126 
 C                    -3.11597   1.43558   2.43641 
 C                    -4.4429    2.11879   2.18919 
 C                    -4.67743   2.3035    0.70345 
 C                    -4.46202   0.98884  -0.03675 
 C                    -4.47385   1.16769  -1.54269 
 O                    -3.37203   1.92425  -2.01203 
 O                    -3.80217   3.29225   0.19119 
 O                    -4.47833   3.39752   2.77286 
 O                    -3.01013   1.2379    3.81639 
 O                    -1.77773  -0.41478   1.74681 
 C                    -1.54486  -1.47992   2.64609 
 C                    -0.32541  -1.14792   3.48006 
 O                    -0.56997  -0.01329   4.27713 
 C                     0.84513  -0.89983   2.55329 
 C                     1.06377  -2.08932   1.61706 
 O                    -0.14106  -2.47203   0.9673 
 C                    -1.22006  -2.73542   1.84823 
 C                    -2.3807   -3.20574   0.99721 
 O                    -3.47094  -3.41799   1.86229 
 O                     2.0192   -1.84474   0.64036 
 C                     1.77386  -0.76908  -0.2399 
 C                     2.8815    0.26506  -0.14322 
 C                     2.65282   1.36973  -1.16014 
 C                     2.48316   0.80424  -2.55946 
 O                     1.484    -0.19204  -2.54132 
 C                     1.73463  -1.28406  -1.67703 
 C                     0.65967  -2.31414  -1.94523 
 O                    -0.64163  -1.81782  -1.70216 
 O                     2.04779   1.82017  -3.38042 
 C                     2.25806   1.69088  -4.79104 
 C                     0.95096   1.46993  -5.532 
 C                     0.44251   0.0296   -5.46656 
 C                    -1.06949  -0.15465  -5.52073 
 C                    -1.85649   0.62684  -4.48576 
 N                    -1.33163   0.51269  -3.09967 
 O                     3.75119   2.2371   -1.06695 
 O                     2.92086   0.81611   1.1531 
 O                     1.97847  -0.66371   3.33869 
 H                    -3.8029   -0.58301   2.04202 
 H                    -2.30746   2.07105   2.05283 
 H                    -5.24128   1.48435   2.59856 
 H                    -5.71634   2.61569   0.54144 
 H                    -5.30768   0.33524   0.22726 
 H                    -5.41616   1.63846  -1.84007 
 H                    -4.42024   0.18774  -2.02068 
 H                    -3.29009   2.68502  -1.41299 
 H                    -3.76272   3.99777   0.84631 
 H                    -4.12988   3.31731   3.6654 
 H                    -2.11783   0.92333   4.03378 
 H                    -2.41014  -1.65786   3.28735 
 H                    -0.10318  -2.0095    4.12325 
 H                     0.27893   0.2891    4.61393 
 H                     0.59602  -0.0161    1.96023 
 H                     1.4547   -2.93511   2.19351 
 H                    -0.94836  -3.53788   2.54606 
 H                    -2.61526  -2.43873   0.24854 
 H                    -2.08456  -4.11955   0.4742 
 H                    -4.10354  -4.00189   1.44536 
 H                     0.81303  -0.2934   -0.02165 
 H                     3.83603  -0.23205  -0.36409 
 H                     1.71773   1.88582  -0.90213 
 H                     3.4306    0.37445  -2.91974 
 H                     2.70504  -1.74323  -1.91468 
 H                     0.7064   -2.60012  -2.99691 
 H                     0.85349  -3.19942  -1.33817 
 H                    -0.76628  -1.83844  -0.74146 
 H                     2.96481   0.87792  -4.98388 
 H                     2.72058   2.62386  -5.11566 
 H                     1.08875   1.77402  -6.57234 
 H                     0.22876   2.1788   -5.11595 
 H                     0.81092  -0.43314  -4.55227 
 H                     0.88442  -0.5428   -6.28468 
 H                    -1.29381  -1.2197   -5.41701 
 H                    -1.46338   0.14321  -6.496 
 H                    -1.87167   1.69185  -4.71329 
 H                    -2.89373   0.29602  -4.46055 
 H                    -1.25132  -0.45188  -2.72704 
 H                    -1.97638   1.05463  -2.47998 
 H                    -0.38169   0.88036  -3.02616 
 H                     3.58313   3.01547  -1.60139 
 H                     3.5487    1.54433   1.13518 
 H                     2.60282  -0.18017   2.78209 
 
 NAtoms=     84 NQM=       84 NQMF=       0 NMMI=      0 NMMIF=      0
                NMic=       0 NMicF=      0.
                    Isotopes and Nuclear Properties:
 (Nuclear quadrupole moments (NQMom) in fm**2, nuclear magnetic moments (NMagM)
  in nuclear magnetons)

  Atom         1           2           3           4           5           6           7           8           9          10
 IAtWgt=          16          12          12          12          12          12          12          16          16          16
 AtmWgt=  15.9949146  12.0000000  12.0000000  12.0000000  12.0000000  12.0000000  12.0000000  15.9949146  15.9949146  15.9949146
 NucSpn=           0           0           0           0           0           0           0           0           0           0
 AtZEff=   0.0000000   0.0000000   0.0000000   0.0000000   0.0000000   0.0000000   0.0000000   0.0000000   0.0000000   0.0000000
 NQMom=    0.0000000   0.0000000   0.0000000   0.0000000   0.0000000   0.0000000   0.0000000   0.0000000   0.0000000   0.0000000
 NMagM=    0.0000000   0.0000000   0.0000000   0.0000000   0.0000000   0.0000000   0.0000000   0.0000000   0.0000000   0.0000000
 AtZNuc=   8.0000000   6.0000000   6.0000000   6.0000000   6.0000000   6.0000000   6.0000000   8.0000000   8.0000000   8.0000000

  Atom        11          12          13          14          15          16          17          18          19          20
 IAtWgt=          16          16          12          12          16          12          12          16          12          12
 AtmWgt=  15.9949146  15.9949146  12.0000000  12.0000000  15.9949146  12.0000000  12.0000000  15.9949146  12.0000000  12.0000000
 NucSpn=           0           0           0           0           0           0           0           0           0           0
 AtZEff=   0.0000000   0.0000000   0.0000000   0.0000000   0.0000000   0.0000000   0.0000000   0.0000000   0.0000000   0.0000000
 NQMom=    0.0000000   0.0000000   0.0000000   0.0000000   0.0000000   0.0000000   0.0000000   0.0000000   0.0000000   0.0000000
 NMagM=    0.0000000   0.0000000   0.0000000   0.0000000   0.0000000   0.0000000   0.0000000   0.0000000   0.0000000   0.0000000
 AtZNuc=   8.0000000   8.0000000   6.0000000   6.0000000   8.0000000   6.0000000   6.0000000   8.0000000   6.0000000   6.0000000

  Atom        21          22          23          24          25          26          27          28          29          30
 IAtWgt=          16          16          12          12          12          12          16          12          12          16
 AtmWgt=  15.9949146  15.9949146  12.0000000  12.0000000  12.0000000  12.0000000  15.9949146  12.0000000  12.0000000  15.9949146
 NucSpn=           0           0           0           0           0           0           0           0           0           0
 AtZEff=   0.0000000   0.0000000   0.0000000   0.0000000   0.0000000   0.0000000   0.0000000   0.0000000   0.0000000   0.0000000
 NQMom=    0.0000000   0.0000000   0.0000000   0.0000000   0.0000000   0.0000000   0.0000000   0.0000000   0.0000000   0.0000000
 NMagM=    0.0000000   0.0000000   0.0000000   0.0000000   0.0000000   0.0000000   0.0000000   0.0000000   0.0000000   0.0000000
 AtZNuc=   8.0000000   8.0000000   6.0000000   6.0000000   6.0000000   6.0000000   8.0000000   6.0000000   6.0000000   8.0000000

  Atom        31          32          33          34          35          36          37          38          39          40
 IAtWgt=          16          12          12          12          12          12          14          16          16          16
 AtmWgt=  15.9949146  12.0000000  12.0000000  12.0000000  12.0000000  12.0000000  14.0030740  15.9949146  15.9949146  15.9949146
 NucSpn=           0           0           0           0           0           0           2           0           0           0
 AtZEff=   0.0000000   0.0000000   0.0000000   0.0000000   0.0000000   0.0000000   0.0000000   0.0000000   0.0000000   0.0000000
 NQMom=    0.0000000   0.0000000   0.0000000   0.0000000   0.0000000   0.0000000   2.0440000   0.0000000   0.0000000   0.0000000
 NMagM=    0.0000000   0.0000000   0.0000000   0.0000000   0.0000000   0.0000000   0.4037610   0.0000000   0.0000000   0.0000000
 AtZNuc=   8.0000000   6.0000000   6.0000000   6.0000000   6.0000000   6.0000000   7.0000000   8.0000000   8.0000000   8.0000000

  Atom        41          42          43          44          45          46          47          48          49          50
 IAtWgt=           1           1           1           1           1           1           1           1           1           1
 AtmWgt=   1.0078250   1.0078250   1.0078250   1.0078250   1.0078250   1.0078250   1.0078250   1.0078250   1.0078250   1.0078250
 NucSpn=           1           1           1           1           1           1           1           1           1           1
 AtZEff=   0.0000000   0.0000000   0.0000000   0.0000000   0.0000000   0.0000000   0.0000000   0.0000000   0.0000000   0.0000000
 NQMom=    0.0000000   0.0000000   0.0000000   0.0000000   0.0000000   0.0000000   0.0000000   0.0000000   0.0000000   0.0000000
 NMagM=    2.7928460   2.7928460   2.7928460   2.7928460   2.7928460   2.7928460   2.7928460   2.7928460   2.7928460   2.7928460
 AtZNuc=   1.0000000   1.0000000   1.0000000   1.0000000   1.0000000   1.0000000   1.0000000   1.0000000   1.0000000   1.0000000

  Atom        51          52          53          54          55          56          57          58          59          60
 IAtWgt=           1           1           1           1           1           1           1           1           1           1
 AtmWgt=   1.0078250   1.0078250   1.0078250   1.0078250   1.0078250   1.0078250   1.0078250   1.0078250   1.0078250   1.0078250
 NucSpn=           1           1           1           1           1           1           1           1           1           1
 AtZEff=   0.0000000   0.0000000   0.0000000   0.0000000   0.0000000   0.0000000   0.0000000   0.0000000   0.0000000   0.0000000
 NQMom=    0.0000000   0.0000000   0.0000000   0.0000000   0.0000000   0.0000000   0.0000000   0.0000000   0.0000000   0.0000000
 NMagM=    2.7928460   2.7928460   2.7928460   2.7928460   2.7928460   2.7928460   2.7928460   2.7928460   2.7928460   2.7928460
 AtZNuc=   1.0000000   1.0000000   1.0000000   1.0000000   1.0000000   1.0000000   1.0000000   1.0000000   1.0000000   1.0000000

  Atom        61          62          63          64          65          66          67          68          69          70
 IAtWgt=           1           1           1           1           1           1           1           1           1           1
 AtmWgt=   1.0078250   1.0078250   1.0078250   1.0078250   1.0078250   1.0078250   1.0078250   1.0078250   1.0078250   1.0078250
 NucSpn=           1           1           1           1           1           1           1           1           1           1
 AtZEff=   0.0000000   0.0000000   0.0000000   0.0000000   0.0000000   0.0000000   0.0000000   0.0000000   0.0000000   0.0000000
 NQMom=    0.0000000   0.0000000   0.0000000   0.0000000   0.0000000   0.0000000   0.0000000   0.0000000   0.0000000   0.0000000
 NMagM=    2.7928460   2.7928460   2.7928460   2.7928460   2.7928460   2.7928460   2.7928460   2.7928460   2.7928460   2.7928460
 AtZNuc=   1.0000000   1.0000000   1.0000000   1.0000000   1.0000000   1.0000000   1.0000000   1.0000000   1.0000000   1.0000000

  Atom        71          72          73          74          75          76          77          78          79          80
 IAtWgt=           1           1           1           1           1           1           1           1           1           1
 AtmWgt=   1.0078250   1.0078250   1.0078250   1.0078250   1.0078250   1.0078250   1.0078250   1.0078250   1.0078250   1.0078250
 NucSpn=           1           1           1           1           1           1           1           1           1           1
 AtZEff=   0.0000000   0.0000000   0.0000000   0.0000000   0.0000000   0.0000000   0.0000000   0.0000000   0.0000000   0.0000000
 NQMom=    0.0000000   0.0000000   0.0000000   0.0000000   0.0000000   0.0000000   0.0000000   0.0000000   0.0000000   0.0000000
 NMagM=    2.7928460   2.7928460   2.7928460   2.7928460   2.7928460   2.7928460   2.7928460   2.7928460   2.7928460   2.7928460
 AtZNuc=   1.0000000   1.0000000   1.0000000   1.0000000   1.0000000   1.0000000   1.0000000   1.0000000   1.0000000   1.0000000

  Atom        81          82          83          84
 IAtWgt=           1           1           1           1
 AtmWgt=   1.0078250   1.0078250   1.0078250   1.0078250
 NucSpn=           1           1           1           1
 AtZEff=   0.0000000   0.0000000   0.0000000   0.0000000
 NQMom=    0.0000000   0.0000000   0.0000000   0.0000000
 NMagM=    2.7928460   2.7928460   2.7928460   2.7928460
 AtZNuc=   1.0000000   1.0000000   1.0000000   1.0000000
 Leave Link  101 at Thu Mar 24 16:57:48 2016, MaxMem= 10737418240 cpu:         4.4
 (Enter /share/apps//g09/l103.exe)

 GradGradGradGradGradGradGradGradGradGradGradGradGradGradGradGradGradGrad
 Berny optimization.
 Initialization pass.
                           ----------------------------
                           !    Initial Parameters    !
                           ! (Angstroms and Degrees)  !
 --------------------------                            --------------------------
 ! Name  Definition              Value          Derivative Info.                !
 --------------------------------------------------------------------------------
 ! R1    R(1,2)                  1.4055         estimate D2E/DX2                !
 ! R2    R(1,6)                  1.4098         estimate D2E/DX2                !
 ! R3    R(2,3)                  1.5215         estimate D2E/DX2                !
 ! R4    R(2,12)                 1.3881         estimate D2E/DX2                !
 ! R5    R(2,41)                 1.1015         estimate D2E/DX2                !
 ! R6    R(3,4)                  1.5128         estimate D2E/DX2                !
 ! R7    R(3,11)                 1.3981         estimate D2E/DX2                !
 ! R8    R(3,42)                 1.0976         estimate D2E/DX2                !
 ! R9    R(4,5)                  1.5154         estimate D2E/DX2                !
 ! R10   R(4,10)                 1.4061         estimate D2E/DX2                !
 ! R11   R(4,43)                 1.0989         estimate D2E/DX2                !
 ! R12   R(5,6)                  1.524          estimate D2E/DX2                !
 ! R13   R(5,9)                  1.4164         estimate D2E/DX2                !
 ! R14   R(5,44)                 1.0968         estimate D2E/DX2                !
 ! R15   R(6,7)                  1.5166         estimate D2E/DX2                !
 ! R16   R(6,45)                 1.1009         estimate D2E/DX2                !
 ! R17   R(7,8)                  1.4166         estimate D2E/DX2                !
 ! R18   R(7,46)                 1.0945         estimate D2E/DX2                !
 ! R19   R(7,47)                 1.0916         estimate D2E/DX2                !
 ! R20   R(8,48)                 0.9718         estimate D2E/DX2                !
 ! R21   R(9,49)                 0.9636         estimate D2E/DX2                !
 ! R22   R(10,50)                0.9615         estimate D2E/DX2                !
 ! R23   R(11,51)                0.9708         estimate D2E/DX2                !
 ! R24   R(12,13)                1.4133         estimate D2E/DX2                !
 ! R25   R(13,14)                1.5142         estimate D2E/DX2                !
 ! R26   R(13,19)                1.5226         estimate D2E/DX2                !
 ! R27   R(13,52)                1.0916         estimate D2E/DX2                !
 ! R28   R(14,15)                1.408          estimate D2E/DX2                !
 ! R29   R(14,16)                1.5135         estimate D2E/DX2                !
 ! R30   R(14,53)                1.0979         estimate D2E/DX2                !
 ! R31   R(15,54)                0.962          estimate D2E/DX2                !
 ! R32   R(16,17)                1.5294         estimate D2E/DX2                !
 ! R33   R(16,40)                1.399          estimate D2E/DX2                !
 ! R34   R(16,55)                1.093          estimate D2E/DX2                !
 ! R35   R(17,18)                1.4214         estimate D2E/DX2                !
 ! R36   R(17,22)                1.388          estimate D2E/DX2                !
 ! R37   R(17,56)                1.0957         estimate D2E/DX2                !
 ! R38   R(18,19)                1.4176         estimate D2E/DX2                !
 ! R39   R(19,20)                1.5141         estimate D2E/DX2                !
 ! R40   R(19,57)                1.0976         estimate D2E/DX2                !
 ! R41   R(20,21)                1.4078         estimate D2E/DX2                !
 ! R42   R(20,58)                1.0972         estimate D2E/DX2                !
 ! R43   R(20,59)                1.0937         estimate D2E/DX2                !
 ! R44   R(21,60)                0.9565         estimate D2E/DX2                !
 ! R45   R(22,23)                1.4114         estimate D2E/DX2                !
 ! R46   R(23,24)                1.5184         estimate D2E/DX2                !
 ! R47   R(23,28)                1.5271         estimate D2E/DX2                !
 ! R48   R(23,61)                1.0941         estimate D2E/DX2                !
 ! R49   R(24,25)                1.5188         estimate D2E/DX2                !
 ! R50   R(24,39)                1.4091         estimate D2E/DX2                !
 ! R51   R(24,62)                1.0986         estimate D2E/DX2                !
 ! R52   R(25,26)                1.5188         estimate D2E/DX2                !
 ! R53   R(25,38)                1.4027         estimate D2E/DX2                !
 ! R54   R(25,63)                1.0988         estimate D2E/DX2                !
 ! R55   R(26,27)                1.4111         estimate D2E/DX2                !
 ! R56   R(26,31)                1.3768         estimate D2E/DX2                !
 ! R57   R(26,64)                1.101          estimate D2E/DX2                !
 ! R58   R(27,28)                1.415          estimate D2E/DX2                !
 ! R59   R(28,29)                1.5128         estimate D2E/DX2                !
 ! R60   R(28,65)                1.0995         estimate D2E/DX2                !
 ! R61   R(29,30)                1.4138         estimate D2E/DX2                !
 ! R62   R(29,66)                1.0909         estimate D2E/DX2                !
 ! R63   R(29,67)                1.0908         estimate D2E/DX2                !
 ! R64   R(30,68)                0.969          estimate D2E/DX2                !
 ! R65   R(31,32)                1.4321         estimate D2E/DX2                !
 ! R66   R(32,33)                1.5187         estimate D2E/DX2                !
 ! R67   R(32,69)                1.0943         estimate D2E/DX2                !
 ! R68   R(32,70)                1.0908         estimate D2E/DX2                !
 ! R69   R(33,34)                1.5288         estimate D2E/DX2                !
 ! R70   R(33,71)                1.0926         estimate D2E/DX2                !
 ! R71   R(33,72)                1.0942         estimate D2E/DX2                !
 ! R72   R(34,35)                1.5241         estimate D2E/DX2                !
 ! R73   R(34,73)                1.0889         estimate D2E/DX2                !
 ! R74   R(34,74)                1.0919         estimate D2E/DX2                !
 ! R75   R(35,36)                1.517          estimate D2E/DX2                !
 ! R76   R(35,75)                1.0933         estimate D2E/DX2                !
 ! R77   R(35,76)                1.0932         estimate D2E/DX2                !
 ! R78   R(36,37)                1.4865         estimate D2E/DX2                !
 ! R79   R(36,77)                1.0891         estimate D2E/DX2                !
 ! R80   R(36,78)                1.089          estimate D2E/DX2                !
 ! R81   R(37,79)                1.0372         estimate D2E/DX2                !
 ! R82   R(37,80)                1.0457         estimate D2E/DX2                !
 ! R83   R(37,81)                1.0213         estimate D2E/DX2                !
 ! R84   R(38,82)                0.959          estimate D2E/DX2                !
 ! R85   R(39,83)                0.9617         estimate D2E/DX2                !
 ! R86   R(40,84)                0.9661         estimate D2E/DX2                !
 ! A1    A(2,1,6)              114.5805         estimate D2E/DX2                !
 ! A2    A(1,2,3)              110.5244         estimate D2E/DX2                !
 ! A3    A(1,2,12)             104.4289         estimate D2E/DX2                !
 ! A4    A(1,2,41)             110.5777         estimate D2E/DX2                !
 ! A5    A(3,2,12)             110.0531         estimate D2E/DX2                !
 ! A6    A(3,2,41)             110.4961         estimate D2E/DX2                !
 ! A7    A(12,2,41)            110.6117         estimate D2E/DX2                !
 ! A8    A(2,3,4)              109.9673         estimate D2E/DX2                !
 ! A9    A(2,3,11)             112.2208         estimate D2E/DX2                !
 ! A10   A(2,3,42)             106.7896         estimate D2E/DX2                !
 ! A11   A(4,3,11)             106.9512         estimate D2E/DX2                !
 ! A12   A(4,3,42)             109.1193         estimate D2E/DX2                !
 ! A13   A(11,3,42)            111.7808         estimate D2E/DX2                !
 ! A14   A(3,4,5)              110.5487         estimate D2E/DX2                !
 ! A15   A(3,4,10)             111.406          estimate D2E/DX2                !
 ! A16   A(3,4,43)             108.4001         estimate D2E/DX2                !
 ! A17   A(5,4,10)             106.9911         estimate D2E/DX2                !
 ! A18   A(5,4,43)             108.8547         estimate D2E/DX2                !
 ! A19   A(10,4,43)            110.6168         estimate D2E/DX2                !
 ! A20   A(4,5,6)              110.4357         estimate D2E/DX2                !
 ! A21   A(4,5,9)              110.1228         estimate D2E/DX2                !
 ! A22   A(4,5,44)             109.0318         estimate D2E/DX2                !
 ! A23   A(6,5,9)              109.8272         estimate D2E/DX2                !
 ! A24   A(6,5,44)             107.9187         estimate D2E/DX2                !
 ! A25   A(9,5,44)             109.4636         estimate D2E/DX2                !
 ! A26   A(1,6,5)              113.3007         estimate D2E/DX2                !
 ! A27   A(1,6,7)              106.7529         estimate D2E/DX2                !
 ! A28   A(1,6,45)             110.0994         estimate D2E/DX2                !
 ! A29   A(5,6,7)              112.2998         estimate D2E/DX2                !
 ! A30   A(5,6,45)             106.6835         estimate D2E/DX2                !
 ! A31   A(7,6,45)             107.5867         estimate D2E/DX2                !
 ! A32   A(6,7,8)              112.7006         estimate D2E/DX2                !
 ! A33   A(6,7,46)             109.1007         estimate D2E/DX2                !
 ! A34   A(6,7,47)             109.1809         estimate D2E/DX2                !
 ! A35   A(8,7,46)             110.4813         estimate D2E/DX2                !
 ! A36   A(8,7,47)             107.2275         estimate D2E/DX2                !
 ! A37   A(46,7,47)            108.0243         estimate D2E/DX2                !
 ! A38   A(7,8,48)             106.2279         estimate D2E/DX2                !
 ! A39   A(5,9,49)             106.8899         estimate D2E/DX2                !
 ! A40   A(4,10,50)            107.4777         estimate D2E/DX2                !
 ! A41   A(3,11,51)            109.6599         estimate D2E/DX2                !
 ! A42   A(2,12,13)            119.0219         estimate D2E/DX2                !
 ! A43   A(12,13,14)           108.536          estimate D2E/DX2                !
 ! A44   A(12,13,19)           108.8542         estimate D2E/DX2                !
 ! A45   A(12,13,52)           111.4712         estimate D2E/DX2                !
 ! A46   A(14,13,19)           107.3138         estimate D2E/DX2                !
 ! A47   A(14,13,52)           110.522          estimate D2E/DX2                !
 ! A48   A(19,13,52)           110.0297         estimate D2E/DX2                !
 ! A49   A(13,14,15)           110.4011         estimate D2E/DX2                !
 ! A50   A(13,14,16)           108.7563         estimate D2E/DX2                !
 ! A51   A(13,14,53)           108.2768         estimate D2E/DX2                !
 ! A52   A(15,14,16)           110.4192         estimate D2E/DX2                !
 ! A53   A(15,14,53)           109.6272         estimate D2E/DX2                !
 ! A54   A(16,14,53)           109.3185         estimate D2E/DX2                !
 ! A55   A(14,15,54)           107.3503         estimate D2E/DX2                !
 ! A56   A(14,16,17)           110.9722         estimate D2E/DX2                !
 ! A57   A(14,16,40)           108.0864         estimate D2E/DX2                !
 ! A58   A(14,16,55)           106.7687         estimate D2E/DX2                !
 ! A59   A(17,16,40)           111.0462         estimate D2E/DX2                !
 ! A60   A(17,16,55)           109.2227         estimate D2E/DX2                !
 ! A61   A(40,16,55)           110.6577         estimate D2E/DX2                !
 ! A62   A(16,17,18)           111.5961         estimate D2E/DX2                !
 ! A63   A(16,17,22)           113.085          estimate D2E/DX2                !
 ! A64   A(16,17,56)           109.2268         estimate D2E/DX2                !
 ! A65   A(18,17,22)           108.014          estimate D2E/DX2                !
 ! A66   A(18,17,56)           109.5787         estimate D2E/DX2                !
 ! A67   A(22,17,56)           105.1077         estimate D2E/DX2                !
 ! A68   A(17,18,19)           114.2762         estimate D2E/DX2                !
 ! A69   A(13,19,18)           109.5595         estimate D2E/DX2                !
 ! A70   A(13,19,20)           112.7764         estimate D2E/DX2                !
 ! A71   A(13,19,57)           108.814          estimate D2E/DX2                !
 ! A72   A(18,19,20)           106.9711         estimate D2E/DX2                !
 ! A73   A(18,19,57)           110.0297         estimate D2E/DX2                !
 ! A74   A(20,19,57)           108.6628         estimate D2E/DX2                !
 ! A75   A(19,20,21)           107.1623         estimate D2E/DX2                !
 ! A76   A(19,20,58)           109.2839         estimate D2E/DX2                !
 ! A77   A(19,20,59)           108.7077         estimate D2E/DX2                !
 ! A78   A(21,20,58)           111.0464         estimate D2E/DX2                !
 ! A79   A(21,20,59)           112.1816         estimate D2E/DX2                !
 ! A80   A(58,20,59)           108.4003         estimate D2E/DX2                !
 ! A81   A(20,21,60)           109.6544         estimate D2E/DX2                !
 ! A82   A(17,22,23)           116.9681         estimate D2E/DX2                !
 ! A83   A(22,23,24)           110.6423         estimate D2E/DX2                !
 ! A84   A(22,23,28)           109.5351         estimate D2E/DX2                !
 ! A85   A(22,23,61)           111.0744         estimate D2E/DX2                !
 ! A86   A(24,23,28)           107.9583         estimate D2E/DX2                !
 ! A87   A(24,23,61)           109.3779         estimate D2E/DX2                !
 ! A88   A(28,23,61)           108.1661         estimate D2E/DX2                !
 ! A89   A(23,24,25)           110.0531         estimate D2E/DX2                !
 ! A90   A(23,24,39)           110.1989         estimate D2E/DX2                !
 ! A91   A(23,24,62)           108.2287         estimate D2E/DX2                !
 ! A92   A(25,24,39)           109.6171         estimate D2E/DX2                !
 ! A93   A(25,24,62)           108.9844         estimate D2E/DX2                !
 ! A94   A(39,24,62)           109.7318         estimate D2E/DX2                !
 ! A95   A(24,25,26)           111.2789         estimate D2E/DX2                !
 ! A96   A(24,25,38)           106.7012         estimate D2E/DX2                !
 ! A97   A(24,25,63)           108.2124         estimate D2E/DX2                !
 ! A98   A(26,25,38)           112.2676         estimate D2E/DX2                !
 ! A99   A(26,25,63)           107.2273         estimate D2E/DX2                !
 ! A100  A(38,25,63)           111.1224         estimate D2E/DX2                !
 ! A101  A(25,26,27)           109.2768         estimate D2E/DX2                !
 ! A102  A(25,26,31)           108.0569         estimate D2E/DX2                !
 ! A103  A(25,26,64)           110.5311         estimate D2E/DX2                !
 ! A104  A(27,26,31)           107.7418         estimate D2E/DX2                !
 ! A105  A(27,26,64)           109.75           estimate D2E/DX2                !
 ! A106  A(31,26,64)           111.41           estimate D2E/DX2                !
 ! A107  A(26,27,28)           115.2963         estimate D2E/DX2                !
 ! A108  A(23,28,27)           108.6088         estimate D2E/DX2                !
 ! A109  A(23,28,29)           114.5014         estimate D2E/DX2                !
 ! A110  A(23,28,65)           108.7567         estimate D2E/DX2                !
 ! A111  A(27,28,29)           106.938          estimate D2E/DX2                !
 ! A112  A(27,28,65)           110.278          estimate D2E/DX2                !
 ! A113  A(29,28,65)           107.7256         estimate D2E/DX2                !
 ! A114  A(28,29,30)           112.6141         estimate D2E/DX2                !
 ! A115  A(28,29,66)           108.6016         estimate D2E/DX2                !
 ! A116  A(28,29,67)           109.1292         estimate D2E/DX2                !
 ! A117  A(30,29,66)           107.2903         estimate D2E/DX2                !
 ! A118  A(30,29,67)           110.6577         estimate D2E/DX2                !
 ! A119  A(66,29,67)           108.431          estimate D2E/DX2                !
 ! A120  A(29,30,68)           106.3435         estimate D2E/DX2                !
 ! A121  A(26,31,32)           118.3138         estimate D2E/DX2                !
 ! A122  A(31,32,33)           111.5528         estimate D2E/DX2                !
 ! A123  A(31,32,69)           109.6013         estimate D2E/DX2                !
 ! A124  A(31,32,70)           106.1524         estimate D2E/DX2                !
 ! A125  A(33,32,69)           111.2105         estimate D2E/DX2                !
 ! A126  A(33,32,70)           110.1331         estimate D2E/DX2                !
 ! A127  A(69,32,70)           108.0064         estimate D2E/DX2                !
 ! A128  A(32,33,34)           113.7298         estimate D2E/DX2                !
 ! A129  A(32,33,71)           108.3928         estimate D2E/DX2                !
 ! A130  A(32,33,72)           106.7574         estimate D2E/DX2                !
 ! A131  A(34,33,71)           110.1759         estimate D2E/DX2                !
 ! A132  A(34,33,72)           111.9979         estimate D2E/DX2                !
 ! A133  A(71,33,72)           105.3663         estimate D2E/DX2                !
 ! A134  A(33,34,35)           116.25           estimate D2E/DX2                !
 ! A135  A(33,34,73)           108.8909         estimate D2E/DX2                !
 ! A136  A(33,34,74)           109.0993         estimate D2E/DX2                !
 ! A137  A(35,34,73)           108.3062         estimate D2E/DX2                !
 ! A138  A(35,34,74)           108.149          estimate D2E/DX2                !
 ! A139  A(73,34,74)           105.6287         estimate D2E/DX2                !
 ! A140  A(34,35,36)           115.349          estimate D2E/DX2                !
 ! A141  A(34,35,75)           108.5372         estimate D2E/DX2                !
 ! A142  A(34,35,76)           110.868          estimate D2E/DX2                !
 ! A143  A(36,35,75)           109.3091         estimate D2E/DX2                !
 ! A144  A(36,35,76)           106.3422         estimate D2E/DX2                !
 ! A145  A(75,35,76)           106.0293         estimate D2E/DX2                !
 ! A146  A(35,36,37)           114.4201         estimate D2E/DX2                !
 ! A147  A(35,36,77)           111.6197         estimate D2E/DX2                !
 ! A148  A(35,36,78)           110.697          estimate D2E/DX2                !
 ! A149  A(37,36,77)           105.9501         estimate D2E/DX2                !
 ! A150  A(37,36,78)           106.9407         estimate D2E/DX2                !
 ! A151  A(77,36,78)           106.7747         estimate D2E/DX2                !
 ! A152  A(36,37,79)           115.7065         estimate D2E/DX2                !
 ! A153  A(36,37,80)           107.1626         estimate D2E/DX2                !
 ! A154  A(36,37,81)           111.5857         estimate D2E/DX2                !
 ! A155  A(79,37,80)           108.471          estimate D2E/DX2                !
 ! A156  A(79,37,81)           103.7056         estimate D2E/DX2                !
 ! A157  A(80,37,81)           110.1384         estimate D2E/DX2                !
 ! A158  A(25,38,82)           109.1258         estimate D2E/DX2                !
 ! A159  A(24,39,83)           107.2907         estimate D2E/DX2                !
 ! A160  A(16,40,84)           106.5332         estimate D2E/DX2                !
 ! D1    D(6,1,2,3)            -58.2318         estimate D2E/DX2                !
 ! D2    D(6,1,2,12)          -176.5508         estimate D2E/DX2                !
 ! D3    D(6,1,2,41)            64.4455         estimate D2E/DX2                !
 ! D4    D(2,1,6,5)             55.0977         estimate D2E/DX2                !
 ! D5    D(2,1,6,7)            179.23           estimate D2E/DX2                !
 ! D6    D(2,1,6,45)           -64.2726         estimate D2E/DX2                !
 ! D7    D(1,2,3,4)             57.5158         estimate D2E/DX2                !
 ! D8    D(1,2,3,11)           176.431          estimate D2E/DX2                !
 ! D9    D(1,2,3,42)           -60.7539         estimate D2E/DX2                !
 ! D10   D(12,2,3,4)           172.3435         estimate D2E/DX2                !
 ! D11   D(12,2,3,11)          -68.7413         estimate D2E/DX2                !
 ! D12   D(12,2,3,42)           54.0737         estimate D2E/DX2                !
 ! D13   D(41,2,3,4)           -65.2091         estimate D2E/DX2                !
 ! D14   D(41,2,3,11)           53.7061         estimate D2E/DX2                !
 ! D15   D(41,2,3,42)          176.5211         estimate D2E/DX2                !
 ! D16   D(1,2,12,13)         -139.8355         estimate D2E/DX2                !
 ! D17   D(3,2,12,13)          101.5244         estimate D2E/DX2                !
 ! D18   D(41,2,12,13)         -20.8548         estimate D2E/DX2                !
 ! D19   D(2,3,4,5)            -54.7354         estimate D2E/DX2                !
 ! D20   D(2,3,4,10)          -173.5614         estimate D2E/DX2                !
 ! D21   D(2,3,4,43)            64.5014         estimate D2E/DX2                !
 ! D22   D(11,3,4,5)          -176.8342         estimate D2E/DX2                !
 ! D23   D(11,3,4,10)           64.3398         estimate D2E/DX2                !
 ! D24   D(11,3,4,43)          -57.5974         estimate D2E/DX2                !
 ! D25   D(42,3,4,5)            62.0868         estimate D2E/DX2                !
 ! D26   D(42,3,4,10)          -56.7392         estimate D2E/DX2                !
 ! D27   D(42,3,4,43)         -178.6764         estimate D2E/DX2                !
 ! D28   D(2,3,11,51)           67.7573         estimate D2E/DX2                !
 ! D29   D(4,3,11,51)         -171.5689         estimate D2E/DX2                !
 ! D30   D(42,3,11,51)         -52.1934         estimate D2E/DX2                !
 ! D31   D(3,4,5,6)             50.6174         estimate D2E/DX2                !
 ! D32   D(3,4,5,9)            -70.8504         estimate D2E/DX2                !
 ! D33   D(3,4,5,44)           169.0319         estimate D2E/DX2                !
 ! D34   D(10,4,5,6)           172.0909         estimate D2E/DX2                !
 ! D35   D(10,4,5,9)            50.6232         estimate D2E/DX2                !
 ! D36   D(10,4,5,44)          -69.4946         estimate D2E/DX2                !
 ! D37   D(43,4,5,6)           -68.3441         estimate D2E/DX2                !
 ! D38   D(43,4,5,9)           170.1881         estimate D2E/DX2                !
 ! D39   D(43,4,5,44)           50.0704         estimate D2E/DX2                !
 ! D40   D(3,4,10,50)          -46.0023         estimate D2E/DX2                !
 ! D41   D(5,4,10,50)         -166.9331         estimate D2E/DX2                !
 ! D42   D(43,4,10,50)          74.6427         estimate D2E/DX2                !
 ! D43   D(4,5,6,1)            -50.0812         estimate D2E/DX2                !
 ! D44   D(4,5,6,7)           -171.1351         estimate D2E/DX2                !
 ! D45   D(4,5,6,45)            71.2298         estimate D2E/DX2                !
 ! D46   D(9,5,6,1)             71.5615         estimate D2E/DX2                !
 ! D47   D(9,5,6,7)            -49.4924         estimate D2E/DX2                !
 ! D48   D(9,5,6,45)          -167.1274         estimate D2E/DX2                !
 ! D49   D(44,5,6,1)          -169.1735         estimate D2E/DX2                !
 ! D50   D(44,5,6,7)            69.7726         estimate D2E/DX2                !
 ! D51   D(44,5,6,45)          -47.8625         estimate D2E/DX2                !
 ! D52   D(4,5,9,49)           -40.4596         estimate D2E/DX2                !
 ! D53   D(6,5,9,49)          -162.2893         estimate D2E/DX2                !
 ! D54   D(44,5,9,49)           79.3969         estimate D2E/DX2                !
 ! D55   D(1,6,7,8)            -57.9493         estimate D2E/DX2                !
 ! D56   D(1,6,7,46)           178.9409         estimate D2E/DX2                !
 ! D57   D(1,6,7,47)            61.091          estimate D2E/DX2                !
 ! D58   D(5,6,7,8)             66.7966         estimate D2E/DX2                !
 ! D59   D(5,6,7,46)           -56.3131         estimate D2E/DX2                !
 ! D60   D(5,6,7,47)          -174.1631         estimate D2E/DX2                !
 ! D61   D(45,6,7,8)          -176.1063         estimate D2E/DX2                !
 ! D62   D(45,6,7,46)           60.7839         estimate D2E/DX2                !
 ! D63   D(45,6,7,47)          -57.0661         estimate D2E/DX2                !
 ! D64   D(6,7,8,48)           -44.82           estimate D2E/DX2                !
 ! D65   D(46,7,8,48)           77.5165         estimate D2E/DX2                !
 ! D66   D(47,7,8,48)         -164.9909         estimate D2E/DX2                !
 ! D67   D(2,12,13,14)        -130.0619         estimate D2E/DX2                !
 ! D68   D(2,12,13,19)         113.4391         estimate D2E/DX2                !
 ! D69   D(2,12,13,52)          -8.1102         estimate D2E/DX2                !
 ! D70   D(12,13,14,15)         64.2157         estimate D2E/DX2                !
 ! D71   D(12,13,14,16)        -57.0768         estimate D2E/DX2                !
 ! D72   D(12,13,14,53)       -175.7678         estimate D2E/DX2                !
 ! D73   D(19,13,14,15)       -178.2978         estimate D2E/DX2                !
 ! D74   D(19,13,14,16)         60.4098         estimate D2E/DX2                !
 ! D75   D(19,13,14,53)        -58.2812         estimate D2E/DX2                !
 ! D76   D(52,13,14,15)        -58.3136         estimate D2E/DX2                !
 ! D77   D(52,13,14,16)       -179.606          estimate D2E/DX2                !
 ! D78   D(52,13,14,53)         61.703          estimate D2E/DX2                !
 ! D79   D(12,13,19,18)         54.4707         estimate D2E/DX2                !
 ! D80   D(12,13,19,20)        -64.5508         estimate D2E/DX2                !
 ! D81   D(12,13,19,57)        174.8051         estimate D2E/DX2                !
 ! D82   D(14,13,19,18)        -62.808          estimate D2E/DX2                !
 ! D83   D(14,13,19,20)        178.1704         estimate D2E/DX2                !
 ! D84   D(14,13,19,57)         57.5263         estimate D2E/DX2                !
 ! D85   D(52,13,19,18)        176.8945         estimate D2E/DX2                !
 ! D86   D(52,13,19,20)         57.873          estimate D2E/DX2                !
 ! D87   D(52,13,19,57)        -62.7711         estimate D2E/DX2                !
 ! D88   D(13,14,15,54)       -166.0979         estimate D2E/DX2                !
 ! D89   D(16,14,15,54)        -45.7983         estimate D2E/DX2                !
 ! D90   D(53,14,15,54)         74.7016         estimate D2E/DX2                !
 ! D91   D(13,14,16,17)        -54.9614         estimate D2E/DX2                !
 ! D92   D(13,14,16,40)       -176.9516         estimate D2E/DX2                !
 ! D93   D(13,14,16,55)         63.9697         estimate D2E/DX2                !
 ! D94   D(15,14,16,17)       -176.2428         estimate D2E/DX2                !
 ! D95   D(15,14,16,40)         61.7671         estimate D2E/DX2                !
 ! D96   D(15,14,16,55)        -57.3117         estimate D2E/DX2                !
 ! D97   D(53,14,16,17)         63.0728         estimate D2E/DX2                !
 ! D98   D(53,14,16,40)        -58.9174         estimate D2E/DX2                !
 ! D99   D(53,14,16,55)       -177.9961         estimate D2E/DX2                !
 ! D100  D(14,16,17,18)         50.561          estimate D2E/DX2                !
 ! D101  D(14,16,17,22)        172.5848         estimate D2E/DX2                !
 ! D102  D(14,16,17,56)        -70.7543         estimate D2E/DX2                !
 ! D103  D(40,16,17,18)        170.8084         estimate D2E/DX2                !
 ! D104  D(40,16,17,22)        -67.1679         estimate D2E/DX2                !
 ! D105  D(40,16,17,56)         49.493          estimate D2E/DX2                !
 ! D106  D(55,16,17,18)        -66.8824         estimate D2E/DX2                !
 ! D107  D(55,16,17,22)         55.1413         estimate D2E/DX2                !
 ! D108  D(55,16,17,56)        171.8022         estimate D2E/DX2                !
 ! D109  D(14,16,40,84)       -158.2263         estimate D2E/DX2                !
 ! D110  D(17,16,40,84)         79.8291         estimate D2E/DX2                !
 ! D111  D(55,16,40,84)        -41.6434         estimate D2E/DX2                !
 ! D112  D(16,17,18,19)        -54.1816         estimate D2E/DX2                !
 ! D113  D(22,17,18,19)       -179.0828         estimate D2E/DX2                !
 ! D114  D(56,17,18,19)         66.9291         estimate D2E/DX2                !
 ! D115  D(16,17,22,23)        -59.7042         estimate D2E/DX2                !
 ! D116  D(18,17,22,23)         64.3051         estimate D2E/DX2                !
 ! D117  D(56,17,22,23)       -178.7727         estimate D2E/DX2                !
 ! D118  D(17,18,19,13)         60.8513         estimate D2E/DX2                !
 ! D119  D(17,18,19,20)       -176.6027         estimate D2E/DX2                !
 ! D120  D(17,18,19,57)        -58.7395         estimate D2E/DX2                !
 ! D121  D(13,19,20,21)        -57.2097         estimate D2E/DX2                !
 ! D122  D(13,19,20,58)         63.205          estimate D2E/DX2                !
 ! D123  D(13,19,20,59)       -178.6599         estimate D2E/DX2                !
 ! D124  D(18,19,20,21)       -177.725          estimate D2E/DX2                !
 ! D125  D(18,19,20,58)        -57.3103         estimate D2E/DX2                !
 ! D126  D(18,19,20,59)         60.8247         estimate D2E/DX2                !
 ! D127  D(57,19,20,21)         63.5208         estimate D2E/DX2                !
 ! D128  D(57,19,20,58)       -176.0645         estimate D2E/DX2                !
 ! D129  D(57,19,20,59)        -57.9294         estimate D2E/DX2                !
 ! D130  D(19,20,21,60)       -159.4076         estimate D2E/DX2                !
 ! D131  D(58,20,21,60)         81.3056         estimate D2E/DX2                !
 ! D132  D(59,20,21,60)        -40.17           estimate D2E/DX2                !
 ! D133  D(17,22,23,24)        120.0339         estimate D2E/DX2                !
 ! D134  D(17,22,23,28)       -121.0672         estimate D2E/DX2                !
 ! D135  D(17,22,23,61)         -1.6441         estimate D2E/DX2                !
 ! D136  D(22,23,24,25)        176.2569         estimate D2E/DX2                !
 ! D137  D(22,23,24,39)        -62.738          estimate D2E/DX2                !
 ! D138  D(22,23,24,62)         57.2564         estimate D2E/DX2                !
 ! D139  D(28,23,24,25)         56.4073         estimate D2E/DX2                !
 ! D140  D(28,23,24,39)        177.4124         estimate D2E/DX2                !
 ! D141  D(28,23,24,62)        -62.5932         estimate D2E/DX2                !
 ! D142  D(61,23,24,25)        -61.0715         estimate D2E/DX2                !
 ! D143  D(61,23,24,39)         59.9336         estimate D2E/DX2                !
 ! D144  D(61,23,24,62)        179.928          estimate D2E/DX2                !
 ! D145  D(22,23,28,27)        179.8304         estimate D2E/DX2                !
 ! D146  D(22,23,28,29)         60.4053         estimate D2E/DX2                !
 ! D147  D(22,23,28,65)        -60.1335         estimate D2E/DX2                !
 ! D148  D(24,23,28,27)        -59.6242         estimate D2E/DX2                !
 ! D149  D(24,23,28,29)       -179.0493         estimate D2E/DX2                !
 ! D150  D(24,23,28,65)         60.412          estimate D2E/DX2                !
 ! D151  D(61,23,28,27)         58.6336         estimate D2E/DX2                !
 ! D152  D(61,23,28,29)        -60.7915         estimate D2E/DX2                !
 ! D153  D(61,23,28,65)        178.6697         estimate D2E/DX2                !
 ! D154  D(23,24,25,26)        -53.7033         estimate D2E/DX2                !
 ! D155  D(23,24,25,38)       -176.4835         estimate D2E/DX2                !
 ! D156  D(23,24,25,63)         63.8604         estimate D2E/DX2                !
 ! D157  D(39,24,25,26)       -175.0566         estimate D2E/DX2                !
 ! D158  D(39,24,25,38)         62.1632         estimate D2E/DX2                !
 ! D159  D(39,24,25,63)        -57.4929         estimate D2E/DX2                !
 ! D160  D(62,24,25,26)         64.8338         estimate D2E/DX2                !
 ! D161  D(62,24,25,38)        -57.9464         estimate D2E/DX2                !
 ! D162  D(62,24,25,63)       -177.6025         estimate D2E/DX2                !
 ! D163  D(23,24,39,83)       -172.3694         estimate D2E/DX2                !
 ! D164  D(25,24,39,83)        -51.1039         estimate D2E/DX2                !
 ! D165  D(62,24,39,83)         68.5486         estimate D2E/DX2                !
 ! D166  D(24,25,26,27)         52.511          estimate D2E/DX2                !
 ! D167  D(24,25,26,31)        169.4841         estimate D2E/DX2                !
 ! D168  D(24,25,26,64)        -68.3693         estimate D2E/DX2                !
 ! D169  D(38,25,26,27)        172.0312         estimate D2E/DX2                !
 ! D170  D(38,25,26,31)        -70.9957         estimate D2E/DX2                !
 ! D171  D(38,25,26,64)         51.1509         estimate D2E/DX2                !
 ! D172  D(63,25,26,27)        -65.6481         estimate D2E/DX2                !
 ! D173  D(63,25,26,31)         51.325          estimate D2E/DX2                !
 ! D174  D(63,25,26,64)        173.4715         estimate D2E/DX2                !
 ! D175  D(24,25,38,82)       -171.7939         estimate D2E/DX2                !
 ! D176  D(26,25,38,82)         66.0465         estimate D2E/DX2                !
 ! D177  D(63,25,38,82)        -54.0373         estimate D2E/DX2                !
 ! D178  D(25,26,27,28)        -59.2566         estimate D2E/DX2                !
 ! D179  D(31,26,27,28)       -176.4288         estimate D2E/DX2                !
 ! D180  D(64,26,27,28)         62.0983         estimate D2E/DX2                !
 ! D181  D(25,26,31,32)        158.3132         estimate D2E/DX2                !
 ! D182  D(27,26,31,32)        -83.7252         estimate D2E/DX2                !
 ! D183  D(64,26,31,32)         36.7084         estimate D2E/DX2                !
 ! D184  D(26,27,28,23)         63.6334         estimate D2E/DX2                !
 ! D185  D(26,27,28,29)       -172.3121         estimate D2E/DX2                !
 ! D186  D(26,27,28,65)        -55.4519         estimate D2E/DX2                !
 ! D187  D(23,28,29,30)         60.3138         estimate D2E/DX2                !
 ! D188  D(23,28,29,66)        178.9934         estimate D2E/DX2                !
 ! D189  D(23,28,29,67)        -62.9836         estimate D2E/DX2                !
 ! D190  D(27,28,29,30)        -60.0431         estimate D2E/DX2                !
 ! D191  D(27,28,29,66)         58.6365         estimate D2E/DX2                !
 ! D192  D(27,28,29,67)        176.6595         estimate D2E/DX2                !
 ! D193  D(65,28,29,30)       -178.5779         estimate D2E/DX2                !
 ! D194  D(65,28,29,66)        -59.8983         estimate D2E/DX2                !
 ! D195  D(65,28,29,67)         58.1247         estimate D2E/DX2                !
 ! D196  D(28,29,30,68)        -78.4026         estimate D2E/DX2                !
 ! D197  D(66,29,30,68)        162.1535         estimate D2E/DX2                !
 ! D198  D(67,29,30,68)         44.0387         estimate D2E/DX2                !
 ! D199  D(26,31,32,33)        110.1075         estimate D2E/DX2                !
 ! D200  D(26,31,32,69)        -13.5053         estimate D2E/DX2                !
 ! D201  D(26,31,32,70)       -129.9135         estimate D2E/DX2                !
 ! D202  D(31,32,33,34)        -79.5952         estimate D2E/DX2                !
 ! D203  D(31,32,33,71)        157.5023         estimate D2E/DX2                !
 ! D204  D(31,32,33,72)         44.4381         estimate D2E/DX2                !
 ! D205  D(69,32,33,34)         43.1012         estimate D2E/DX2                !
 ! D206  D(69,32,33,71)        -79.8013         estimate D2E/DX2                !
 ! D207  D(69,32,33,72)        167.1345         estimate D2E/DX2                !
 ! D208  D(70,32,33,34)        162.7999         estimate D2E/DX2                !
 ! D209  D(70,32,33,71)         39.8974         estimate D2E/DX2                !
 ! D210  D(70,32,33,72)        -73.1668         estimate D2E/DX2                !
 ! D211  D(32,33,34,35)        149.9615         estimate D2E/DX2                !
 ! D212  D(32,33,34,73)         27.3525         estimate D2E/DX2                !
 ! D213  D(32,33,34,74)        -87.4707         estimate D2E/DX2                !
 ! D214  D(71,33,34,35)        -88.1188         estimate D2E/DX2                !
 ! D215  D(71,33,34,73)        149.2722         estimate D2E/DX2                !
 ! D216  D(71,33,34,74)         34.4491         estimate D2E/DX2                !
 ! D217  D(72,33,34,35)         28.8126         estimate D2E/DX2                !
 ! D218  D(72,33,34,73)        -93.7964         estimate D2E/DX2                !
 ! D219  D(72,33,34,74)        151.3805         estimate D2E/DX2                !
 ! D220  D(33,34,35,36)        -54.3015         estimate D2E/DX2                !
 ! D221  D(33,34,35,75)       -177.3106         estimate D2E/DX2                !
 ! D222  D(33,34,35,76)         66.6165         estimate D2E/DX2                !
 ! D223  D(73,34,35,36)         68.6132         estimate D2E/DX2                !
 ! D224  D(73,34,35,75)        -54.3958         estimate D2E/DX2                !
 ! D225  D(73,34,35,76)       -170.4687         estimate D2E/DX2                !
 ! D226  D(74,34,35,36)       -177.366          estimate D2E/DX2                !
 ! D227  D(74,34,35,75)         59.625          estimate D2E/DX2                !
 ! D228  D(74,34,35,76)        -56.4479         estimate D2E/DX2                !
 ! D229  D(34,35,36,37)        -47.9517         estimate D2E/DX2                !
 ! D230  D(34,35,36,77)         72.3523         estimate D2E/DX2                !
 ! D231  D(34,35,36,78)       -168.8576         estimate D2E/DX2                !
 ! D232  D(75,35,36,37)         74.6467         estimate D2E/DX2                !
 ! D233  D(75,35,36,77)       -165.0493         estimate D2E/DX2                !
 ! D234  D(75,35,36,78)        -46.2592         estimate D2E/DX2                !
 ! D235  D(76,35,36,37)       -171.2965         estimate D2E/DX2                !
 ! D236  D(76,35,36,77)        -50.9924         estimate D2E/DX2                !
 ! D237  D(76,35,36,78)         67.7977         estimate D2E/DX2                !
 ! D238  D(35,36,37,79)        -56.4445         estimate D2E/DX2                !
 ! D239  D(35,36,37,80)       -177.5549         estimate D2E/DX2                !
 ! D240  D(35,36,37,81)         61.8013         estimate D2E/DX2                !
 ! D241  D(77,36,37,79)       -179.8537         estimate D2E/DX2                !
 ! D242  D(77,36,37,80)         59.0359         estimate D2E/DX2                !
 ! D243  D(77,36,37,81)        -61.6079         estimate D2E/DX2                !
 ! D244  D(78,36,37,79)         66.5159         estimate D2E/DX2                !
 ! D245  D(78,36,37,80)        -54.5945         estimate D2E/DX2                !
 ! D246  D(78,36,37,81)       -175.2383         estimate D2E/DX2                !
 --------------------------------------------------------------------------------
 Trust Radius=3.00D-01 FncErr=1.00D-07 GrdErr=1.00D-06
 Number of steps in this run=    504 maximum allowed number of steps=    504.
 GradGradGradGradGradGradGradGradGradGradGradGradGradGradGradGradGradGrad

 Leave Link  103 at Thu Mar 24 16:57:48 2016, MaxMem= 10737418240 cpu:         0.4
 (Enter /share/apps//g09/l202.exe)
 Stoichiometry    C23H44NO16(1+)
 Framework group  C1[X(C23H44NO16)]
 Deg. of freedom   246
 Full point group                 C1      NOp   1
 Largest Abelian subgroup         C1      NOp   1
 Largest concise Abelian subgroup C1      NOp   1
                         Standard orientation:                         
 ---------------------------------------------------------------------
 Center     Atomic      Atomic             Coordinates (Angstroms)
 Number     Number       Type             X           Y           Z
 ---------------------------------------------------------------------
      1          8           0        1.916270    1.738373    0.437278
      2          6           0        2.914893    0.777884    0.201444
      3          6           0        3.522851    0.968621   -1.180240
      4          6           0        4.085860    2.366920   -1.308370
      5          6           0        3.024711    3.399314   -0.984838
      6          6           0        2.354763    3.075032    0.345064
      7          6           0        1.145230    3.951068    0.608828
      8          8           0        0.083015    3.702992   -0.294957
      9          8           0        2.053434    3.439078   -2.014963
     10          8           0        4.524536    2.625410   -2.619027
     11          8           0        4.576090    0.081433   -1.421509
     12          8           0        2.247431   -0.437599    0.264099
     13          6           0        2.873786   -1.531656    0.902984
     14          6           0        2.805299   -2.730987   -0.018809
     15          8           0        3.545447   -2.490994   -1.192308
     16          6           0        1.355200   -3.003712   -0.355633
     17          6           0        0.520896   -3.174517    0.914791
     18          8           0        0.730658   -2.104234    1.826254
     19          6           0        2.090133   -1.881477    2.160708
     20          6           0        2.115495   -0.774952    3.193897
     21          8           0        3.466879   -0.513992    3.490037
     22          8           0       -0.841276   -3.263566    0.663465
     23          6           0       -1.445364   -2.165863    0.013681
     24          6           0       -2.067569   -2.598818   -1.302019
     25          6           0       -2.792472   -1.429327   -1.945077
     26          6           0       -3.792786   -0.806651   -0.986794
     27          8           0       -3.144375   -0.498240    0.227977
     28          6           0       -2.555604   -1.598352    0.895376
     29          6           0       -2.090737   -1.097634    2.245085
     30          8           0       -1.141743   -0.054890    2.140712
     31          8           0       -4.233888    0.375057   -1.538729
     32          6           0       -5.486589    0.906966   -1.093094
     33          6           0       -5.295738    2.168965   -0.270120
     34          6           0       -4.883315    1.902765    1.177775
     35          6           0       -4.020559    2.970460    1.840124
     36          6           0       -2.752750    3.337137    1.092149
     37          7           0       -1.947054    2.172433    0.640406
     38          8           0       -3.405301   -1.923926   -3.105786
     39          8           0       -1.071933   -3.077171   -2.176969
     40          8           0        1.302734   -4.154326   -1.149610
     41          1           0        3.695215    0.832211    0.977028
     42          1           0        2.708726    0.841053   -1.905203
     43          1           0        4.914633    2.473879   -0.594785
     44          1           0        3.499757    4.383591   -0.892241
     45          1           0        3.095673    3.285271    1.131758
     46          1           0        1.447790    5.002042    0.565026
     47          1           0        0.768669    3.749572    1.613444
     48          1           0        0.484969    3.648278   -1.178005
     49          1           0        2.527896    3.362964   -2.850181
     50          1           0        5.037384    1.864858   -2.907170
     51          1           0        4.232775   -0.824668   -1.480900
     52          1           0        3.910309   -1.304712    1.159311
     53          1           0        3.224176   -3.596683    0.510825
     54          1           0        3.299163   -3.167658   -1.830254
     55          1           0        0.991678   -2.135179   -0.910843
     56          1           0        0.785250   -4.123078    1.395240
     57          1           0        2.521117   -2.787517    2.605763
     58          1           0        1.623019    0.115438    2.783405
     59          1           0        1.555949   -1.104039    4.074179
     60          1           0        3.531475   -0.073683    4.336741
     61          1           0       -0.717889   -1.370275   -0.173184
     62          1           0       -2.792546   -3.397412   -1.093006
     63          1           0       -2.049985   -0.656620   -2.187867
     64          1           0       -4.628200   -1.498311   -0.797443
     65          1           0       -3.305015   -2.383854    1.069680
     66          1           0       -2.951683   -0.699737    2.784017
     67          1           0       -1.683038   -1.933339    2.815337
     68          1           0       -0.295278   -0.476678    1.929761
     69          1           0       -6.029119    0.143475   -0.527117
     70          1           0       -6.059566    1.129434   -1.994182
     71          1           0       -6.225307    2.742462   -0.297808
     72          1           0       -4.560601    2.782602   -0.799450
     73          1           0       -4.349572    0.954721    1.223714
     74          1           0       -5.780175    1.765148    1.785188
     75          1           0       -3.761316    2.632499    2.847092
     76          1           0       -4.581534    3.899863    1.968725
     77          1           0       -2.969038    3.917103    0.195987
     78          1           0       -2.102630    3.950580    1.714224
     79          1           0       -1.656973    1.510413    1.384234
     80          1           0       -1.087745    2.551384    0.180622
     81          1           0       -2.467465    1.587107   -0.014984
     82          1           0       -3.765718   -1.190519   -3.607726
     83          1           0       -1.488697   -3.224445   -3.031034
     84          1           0        0.465216   -4.118944   -1.629964
 ---------------------------------------------------------------------
 Rotational constants (GHZ):      0.1057798      0.0747465      0.0594110
 Leave Link  202 at Thu Mar 24 16:57:48 2016, MaxMem= 10737418240 cpu:         0.4
 (Enter /share/apps//g09/l301.exe)
 Standard basis: 6-311+G(d,p) (5D, 7F)
 Ernie: Thresh=  0.10000D-02 Tol=  0.10000D-05 Strict=F.
 There are  1184 symmetry adapted cartesian basis functions of A   symmetry.
 There are  1144 symmetry adapted basis functions of A   symmetry.
  1144 basis functions,  1792 primitive gaussians,  1184 cartesian basis functions
   158 alpha electrons      158 beta electrons
       nuclear repulsion energy      5921.3654933834 Hartrees.
 IExCor= 1009 DFT=T Ex+Corr=PBE1PBE ExCW=0 ScaHFX=  0.250000
 ScaDFX=  0.750000  0.750000  1.000000  1.000000 ScalE2=  1.000000  1.000000
 IRadAn=      0 IRanWt=     -1 IRanGd=            0 ICorTp=0 IEmpDi=131
 NAtoms=   84 NActive=   84 NUniq=   84 SFac= 1.00D+00 NAtFMM=   60 NAOKFM=T Big=T
 Integral buffers will be    131072 words long.
 Raffenetti 2 integral format.
 Two-electron integral symmetry is turned on.
 R6Disp:  Grimme-D3 Dispersion energy=       -0.0830661396 Hartrees.
 Nuclear repulsion after empirical dispersion term =     5921.2824272438 Hartrees.
 Leave Link  301 at Thu Mar 24 16:57:48 2016, MaxMem= 10737418240 cpu:         2.3
 (Enter /share/apps//g09/l302.exe)
 NPDir=0 NMtPBC=     1 NCelOv=     1 NCel=       1 NClECP=     1 NCelD=      1
         NCelK=      1 NCelE2=     1 NClLst=     1 CellRange=     0.0.
 One-electron integrals computed using PRISM.
 NBasis=  1144 RedAO= T EigKep=  1.50D-06  NBF=  1144
 NBsUse=  1144 1.00D-06 EigRej= -1.00D+00 NBFU=  1144
 Precomputing XC quadrature grid using
 IXCGrd= 4 IRadAn=           0 IRanWt=          -1 IRanGd=           0 AccXCQ= 0.00D+00.
 Generated NRdTot=       0 NPtTot=           0 NUsed=           0 NTot=          32
 NSgBfM=  1120  1120  1122  1123  1123 MxSgAt=    84 MxSgA2=    84.
 Leave Link  302 at Thu Mar 24 16:57:50 2016, MaxMem= 10737418240 cpu:        33.3
 (Enter /share/apps//g09/l303.exe)
 DipDrv:  MaxL=1.
 Leave Link  303 at Thu Mar 24 16:57:53 2016, MaxMem= 10737418240 cpu:        31.2
 (Enter /share/apps//g09/l401.exe)
 ExpMin= 4.38D-02 ExpMax= 8.59D+03 ExpMxC= 1.30D+03 IAcc=2 IRadAn=         4 AccDes= 0.00D+00
 Harris functional with IExCor= 1009 and IRadAn=       4 diagonalized for initial guess.
 HarFok:  IExCor= 1009 AccDes= 0.00D+00 IRadAn=         4 IDoV= 1 UseB2=F ITyADJ=14
 ICtDFT=  3500011 ScaDFX=  1.000000  1.000000  1.000000  1.000000
 FoFCou: FMM=F IPFlag=           0 FMFlag=      100000 FMFlg1=        2001
         NFxFlg=           0 DoJE=T BraDBF=F KetDBF=T FulRan=T
         wScrn=  0.000000 ICntrl=     500 IOpCl=  0 I1Cent=   200000004 NGrid=           0
         NMat0=    1 NMatS0=      1 NMatT0=    0 NMatD0=    1 NMtDS0=    0 NMtDT0=    0
 Petite list used in FoFCou.
 Harris En= -2159.74257839263    
 JPrj=0 DoOrth=F DoCkMO=F.
 Leave Link  401 at Thu Mar 24 16:57:59 2016, MaxMem= 10737418240 cpu:       120.3
 (Enter /share/apps//g09/l502.exe)
 Closed shell SCF:
 Using DIIS extrapolation, IDIIS=  1040.
 Integral symmetry usage will be decided dynamically.
 IVT=     4256630 IEndB=     4256630 NGot= 10737418240 MDV= 10734581291
 LenX= 10734581291 LenY= 10733178251
 Requested convergence on RMS density matrix=1.00D-08 within 128 cycles.
 Requested convergence on MAX density matrix=1.00D-06.
 Requested convergence on             energy=1.00D-06.
 No special actions if energy rises.
 Fock matrices will be formed incrementally for  20 cycles.

 Cycle   1  Pass 1  IDiag  1:
 FoFJK:  IHMeth= 1 ICntrl=       0 DoSepK=F KAlg= 0 I1Cent=   0 FoldK=F
 IRaf= 780000000 NMat=   1 IRICut=       1 DoRegI=T DoRafI=F ISym2E= 0.
 FoFCou: FMM=T IPFlag=           0 FMFlag=      100000 FMFlg1=        2001
         NFxFlg=           0 DoJE=F BraDBF=F KetDBF=F FulRan=T
         wScrn=  0.000000 ICntrl=       0 IOpCl=  0 I1Cent=           0 NGrid=           0
         NMat0=    1 NMatS0=      1 NMatT0=    0 NMatD0=    1 NMtDS0=    0 NMtDT0=    0
 Symmetry not used in FoFCou.
 FMM levels:  10  Number of levels for PrismC:   9
 E= -2158.68116891131    
 DIIS: error= 1.34D-02 at cycle   1 NSaved=   1.
 NSaved= 1 IEnMin= 1 EnMin= -2158.68116891131     IErMin= 1 ErrMin= 1.34D-02
 ErrMax= 1.34D-02  0.00D+00 EMaxC= 1.00D-01 BMatC= 1.06D+00 BMatP= 1.06D+00
 IDIUse=3 WtCom= 8.66D-01 WtEn= 1.34D-01
 Coeff-Com:  0.100D+01
 Coeff-En:   0.100D+01
 Coeff:      0.100D+01
 Gap=     0.257 Goal=   None    Shift=    0.000
 GapD=    0.257 DampG=1.000 DampE=0.500 DampFc=0.5000 IDamp=-1.
 Damping current iteration by 5.00D-01
 RMSDP=1.08D-02 MaxDP=3.11D+00              OVMax= 1.39D-01

 Cycle   2  Pass 1  IDiag  1:
 RMSU=  5.34D-03    CP:  9.79D-01
 E= -2158.98348991979     Delta-E=       -0.302321008486 Rises=F Damp=T
 DIIS: error= 3.02D-03 at cycle   2 NSaved=   2.
 NSaved= 2 IEnMin= 2 EnMin= -2158.98348991979     IErMin= 2 ErrMin= 3.02D-03
 ErrMax= 3.02D-03  0.00D+00 EMaxC= 1.00D-01 BMatC= 7.88D-02 BMatP= 1.06D+00
 IDIUse=3 WtCom= 9.70D-01 WtEn= 3.02D-02
 Coeff-Com:  0.473D-01 0.953D+00
 Coeff-En:   0.135D+00 0.865D+00
 Coeff:      0.500D-01 0.950D+00
 Gap=     0.279 Goal=   None    Shift=    0.000
 RMSDP=4.53D-03 MaxDP=1.32D+00 DE=-3.02D-01 OVMax= 7.83D-02

 Cycle   3  Pass 1  IDiag  1:
 RMSU=  2.97D-03    CP:  8.96D-01  8.12D-01
 E= -2159.36468179063     Delta-E=       -0.381191870839 Rises=F Damp=F
 DIIS: error= 3.07D-03 at cycle   3 NSaved=   3.
 NSaved= 3 IEnMin= 3 EnMin= -2159.36468179063     IErMin= 2 ErrMin= 3.02D-03
 ErrMax= 3.07D-03  0.00D+00 EMaxC= 1.00D-01 BMatC= 4.20D-02 BMatP= 7.88D-02
 IDIUse=3 WtCom= 9.69D-01 WtEn= 3.07D-02
 Coeff-Com: -0.690D-01 0.404D+00 0.665D+00
 Coeff-En:   0.000D+00 0.000D+00 0.100D+01
 Coeff:     -0.669D-01 0.391D+00 0.676D+00
 Gap=     0.265 Goal=   None    Shift=    0.000
 RMSDP=1.48D-03 MaxDP=3.82D-01 DE=-3.81D-01 OVMax= 1.61D-02

 Cycle   4  Pass 1  IDiag  1:
 RMSU=  1.14D-03    CP:  9.10D-01  9.48D-01  9.12D-01
 E= -2159.39033711452     Delta-E=       -0.025655323890 Rises=F Damp=F
 DIIS: error= 1.00D-03 at cycle   4 NSaved=   4.
 NSaved= 4 IEnMin= 4 EnMin= -2159.39033711452     IErMin= 4 ErrMin= 1.00D-03
 ErrMax= 1.00D-03  0.00D+00 EMaxC= 1.00D-01 BMatC= 5.56D-03 BMatP= 4.20D-02
 IDIUse=3 WtCom= 9.90D-01 WtEn= 1.00D-02
 Coeff-Com: -0.363D-01 0.123D+00 0.342D+00 0.572D+00
 Coeff-En:   0.000D+00 0.000D+00 0.688D-01 0.931D+00
 Coeff:     -0.359D-01 0.122D+00 0.339D+00 0.575D+00
 Gap=     0.258 Goal=   None    Shift=    0.000
 RMSDP=1.09D-03 MaxDP=3.35D-01 DE=-2.57D-02 OVMax= 5.30D-03

 Cycle   5  Pass 1  IDiag  1:
 RMSU=  3.08D-04    CP:  8.87D-01  9.03D-01  8.88D-01  5.77D-01
 E= -2159.39499716406     Delta-E=       -0.004660049538 Rises=F Damp=F
 DIIS: error= 3.19D-04 at cycle   5 NSaved=   5.
 NSaved= 5 IEnMin= 5 EnMin= -2159.39499716406     IErMin= 5 ErrMin= 3.19D-04
 ErrMax= 3.19D-04  0.00D+00 EMaxC= 1.00D-01 BMatC= 2.54D-04 BMatP= 5.56D-03
 IDIUse=3 WtCom= 9.97D-01 WtEn= 3.19D-03
 Coeff-Com: -0.114D-01 0.266D-01 0.102D+00 0.250D+00 0.633D+00
 Coeff-En:   0.000D+00 0.000D+00 0.000D+00 0.000D+00 0.100D+01
 Coeff:     -0.114D-01 0.265D-01 0.101D+00 0.249D+00 0.634D+00
 Gap=     0.258 Goal=   None    Shift=    0.000
 RMSDP=1.47D-04 MaxDP=4.26D-02 DE=-4.66D-03 OVMax= 1.50D-03

 Cycle   6  Pass 1  IDiag  1:
 RMSU=  7.85D-05    CP:  8.89D-01  9.11D-01  9.04D-01  5.99D-01  7.55D-01
 E= -2159.39518122569     Delta-E=       -0.000184061629 Rises=F Damp=F
 DIIS: error= 8.26D-05 at cycle   6 NSaved=   6.
 NSaved= 6 IEnMin= 6 EnMin= -2159.39518122569     IErMin= 6 ErrMin= 8.26D-05
 ErrMax= 8.26D-05  0.00D+00 EMaxC= 1.00D-01 BMatC= 2.50D-05 BMatP= 2.54D-04
 IDIUse=1 WtCom= 1.00D+00 WtEn= 0.00D+00
 Coeff-Com: -0.403D-02 0.734D-02 0.351D-01 0.101D+00 0.331D+00 0.530D+00
 Coeff:     -0.403D-02 0.734D-02 0.351D-01 0.101D+00 0.331D+00 0.530D+00
 Gap=     0.258 Goal=   None    Shift=    0.000
 RMSDP=3.45D-05 MaxDP=1.06D-02 DE=-1.84D-04 OVMax= 5.72D-04

 Cycle   7  Pass 1  IDiag  1:
 RMSU=  1.48D-05    CP:  8.90D-01  9.11D-01  9.04D-01  6.10D-01  7.70D-01
                    CP:  7.22D-01
 E= -2159.39519884234     Delta-E=       -0.000017616658 Rises=F Damp=F
 DIIS: error= 2.42D-05 at cycle   7 NSaved=   7.
 NSaved= 7 IEnMin= 7 EnMin= -2159.39519884234     IErMin= 7 ErrMin= 2.42D-05
 ErrMax= 2.42D-05  0.00D+00 EMaxC= 1.00D-01 BMatC= 1.76D-06 BMatP= 2.50D-05
 IDIUse=1 WtCom= 1.00D+00 WtEn= 0.00D+00
 Coeff-Com: -0.106D-02 0.153D-02 0.956D-02 0.316D-01 0.118D+00 0.268D+00
 Coeff-Com:  0.572D+00
 Coeff:     -0.106D-02 0.153D-02 0.956D-02 0.316D-01 0.118D+00 0.268D+00
 Coeff:      0.572D+00
 Gap=     0.258 Goal=   None    Shift=    0.000
 RMSDP=6.83D-06 MaxDP=1.82D-03 DE=-1.76D-05 OVMax= 1.59D-04

 Cycle   8  Pass 1  IDiag  1:
 RMSU=  5.97D-06    CP:  8.90D-01  9.11D-01  9.05D-01  6.11D-01  7.74D-01
                    CP:  7.06D-01  8.94D-01
 E= -2159.39519998219     Delta-E=       -0.000001139845 Rises=F Damp=F
 DIIS: error= 5.47D-06 at cycle   8 NSaved=   8.
 NSaved= 8 IEnMin= 8 EnMin= -2159.39519998219     IErMin= 8 ErrMin= 5.47D-06
 ErrMax= 5.47D-06  0.00D+00 EMaxC= 1.00D-01 BMatC= 1.31D-07 BMatP= 1.76D-06
 IDIUse=1 WtCom= 1.00D+00 WtEn= 0.00D+00
 Coeff-Com:  0.720D-05-0.193D-03 0.172D-03 0.233D-02 0.122D-01 0.525D-01
 Coeff-Com:  0.253D+00 0.680D+00
 Coeff:      0.720D-05-0.193D-03 0.172D-03 0.233D-02 0.122D-01 0.525D-01
 Coeff:      0.253D+00 0.680D+00
 Gap=     0.258 Goal=   None    Shift=    0.000
 RMSDP=3.65D-06 MaxDP=1.23D-03 DE=-1.14D-06 OVMax= 3.61D-05

 Cycle   9  Pass 1  IDiag  1:
 RMSU=  1.98D-06    CP:  8.89D-01  9.10D-01  9.05D-01  6.11D-01  7.76D-01
                    CP:  7.12D-01  9.13D-01  9.28D-01
 E= -2159.39520007631     Delta-E=       -0.000000094118 Rises=F Damp=F
 DIIS: error= 1.52D-06 at cycle   9 NSaved=   9.
 NSaved= 9 IEnMin= 9 EnMin= -2159.39520007631     IErMin= 9 ErrMin= 1.52D-06
 ErrMax= 1.52D-06  0.00D+00 EMaxC= 1.00D-01 BMatC= 1.10D-08 BMatP= 1.31D-07
 IDIUse=1 WtCom= 1.00D+00 WtEn= 0.00D+00
 Coeff-Com:  0.660D-04-0.177D-03-0.525D-03-0.882D-03-0.203D-02 0.577D-02
 Coeff-Com:  0.770D-01 0.313D+00 0.608D+00
 Coeff:      0.660D-04-0.177D-03-0.525D-03-0.882D-03-0.203D-02 0.577D-02
 Coeff:      0.770D-01 0.313D+00 0.608D+00
 Gap=     0.258 Goal=   None    Shift=    0.000
 RMSDP=9.54D-07 MaxDP=2.25D-04 DE=-9.41D-08 OVMax= 1.07D-05

 Cycle  10  Pass 1  IDiag  1:
 RMSU=  6.39D-07    CP:  8.89D-01  9.11D-01  9.05D-01  6.11D-01  7.76D-01
                    CP:  7.18D-01  9.16D-01  9.20D-01  7.98D-01
 E= -2159.39520008479     Delta-E=       -0.000000008479 Rises=F Damp=F
 DIIS: error= 6.38D-07 at cycle  10 NSaved=  10.
 NSaved=10 IEnMin=10 EnMin= -2159.39520008479     IErMin=10 ErrMin= 6.38D-07
 ErrMax= 6.38D-07  0.00D+00 EMaxC= 1.00D-01 BMatC= 1.37D-09 BMatP= 1.10D-08
 IDIUse=1 WtCom= 1.00D+00 WtEn= 0.00D+00
 Coeff-Com:  0.296D-04-0.687D-04-0.274D-03-0.602D-03-0.195D-02-0.126D-02
 Coeff-Com:  0.191D-01 0.102D+00 0.318D+00 0.565D+00
 Coeff:      0.296D-04-0.687D-04-0.274D-03-0.602D-03-0.195D-02-0.126D-02
 Coeff:      0.191D-01 0.102D+00 0.318D+00 0.565D+00
 Gap=     0.258 Goal=   None    Shift=    0.000
 RMSDP=3.61D-07 MaxDP=7.48D-05 DE=-8.48D-09 OVMax= 3.33D-06

 Cycle  11  Pass 1  IDiag  1:
 RMSU=  1.58D-07    CP:  8.89D-01  9.10D-01  9.05D-01  6.11D-01  7.76D-01
                    CP:  7.16D-01  9.24D-01  9.31D-01  8.09D-01  6.74D-01
 E= -2159.39520008561     Delta-E=       -0.000000000823 Rises=F Damp=F
 DIIS: error= 1.84D-07 at cycle  11 NSaved=  11.
 NSaved=11 IEnMin=11 EnMin= -2159.39520008561     IErMin=11 ErrMin= 1.84D-07
 ErrMax= 1.84D-07  0.00D+00 EMaxC= 1.00D-01 BMatC= 1.07D-10 BMatP= 1.37D-09
 IDIUse=1 WtCom= 1.00D+00 WtEn= 0.00D+00
 Coeff-Com:  0.796D-05-0.171D-04-0.897D-04-0.209D-03-0.739D-03-0.107D-02
 Coeff-Com:  0.279D-02 0.229D-01 0.104D+00 0.278D+00 0.594D+00
 Coeff:      0.796D-05-0.171D-04-0.897D-04-0.209D-03-0.739D-03-0.107D-02
 Coeff:      0.279D-02 0.229D-01 0.104D+00 0.278D+00 0.594D+00
 Gap=     0.258 Goal=   None    Shift=    0.000
 RMSDP=5.87D-08 MaxDP=2.04D-05 DE=-8.23D-10 OVMax= 9.53D-07

 Cycle  12  Pass 1  IDiag  1:
 RMSU=  3.43D-08    CP:  8.89D-01  9.10D-01  9.05D-01  6.11D-01  7.76D-01
                    CP:  7.16D-01  9.24D-01  9.32D-01  8.20D-01  6.87D-01
                    CP:  7.91D-01
 E= -2159.39520008585     Delta-E=       -0.000000000243 Rises=F Damp=F
 DIIS: error= 3.58D-08 at cycle  12 NSaved=  12.
 NSaved=12 IEnMin=12 EnMin= -2159.39520008585     IErMin=12 ErrMin= 3.58D-08
 ErrMax= 3.58D-08  0.00D+00 EMaxC= 1.00D-01 BMatC= 5.78D-12 BMatP= 1.07D-10
 IDIUse=1 WtCom= 1.00D+00 WtEn= 0.00D+00
 Coeff-Com:  0.220D-06-0.235D-06-0.113D-04-0.284D-04-0.117D-03-0.305D-03
 Coeff-Com: -0.743D-03-0.838D-03 0.107D-01 0.590D-01 0.235D+00 0.698D+00
 Coeff:      0.220D-06-0.235D-06-0.113D-04-0.284D-04-0.117D-03-0.305D-03
 Coeff:     -0.743D-03-0.838D-03 0.107D-01 0.590D-01 0.235D+00 0.698D+00
 Gap=     0.258 Goal=   None    Shift=    0.000
 RMSDP=1.92D-08 MaxDP=4.43D-06 DE=-2.43D-10 OVMax= 2.17D-07

 Cycle  13  Pass 1  IDiag  1:
 RMSU=  1.36D-08    CP:  8.89D-01  9.10D-01  9.05D-01  6.11D-01  7.76D-01
                    CP:  7.16D-01  9.24D-01  9.32D-01  8.21D-01  6.95D-01
                    CP:  7.67D-01  8.65D-01
 E= -2159.39520008595     Delta-E=       -0.000000000097 Rises=F Damp=F
 DIIS: error= 1.42D-08 at cycle  13 NSaved=  13.
 NSaved=13 IEnMin=13 EnMin= -2159.39520008595     IErMin=13 ErrMin= 1.42D-08
 ErrMax= 1.42D-08  0.00D+00 EMaxC= 1.00D-01 BMatC= 5.41D-13 BMatP= 5.78D-12
 IDIUse=1 WtCom= 1.00D+00 WtEn= 0.00D+00
 Coeff-Com: -0.358D-06 0.879D-06 0.149D-06-0.176D-06-0.736D-05-0.651D-04
 Coeff-Com: -0.488D-03-0.172D-02-0.168D-02 0.901D-02 0.666D-01 0.316D+00
 Coeff-Com:  0.612D+00
 Coeff:     -0.358D-06 0.879D-06 0.149D-06-0.176D-06-0.736D-05-0.651D-04
 Coeff:     -0.488D-03-0.172D-02-0.168D-02 0.901D-02 0.666D-01 0.316D+00
 Coeff:      0.612D+00
 Gap=     0.258 Goal=   None    Shift=    0.000
 RMSDP=7.81D-09 MaxDP=2.67D-06 DE=-9.73D-11 OVMax= 7.51D-08

 Cycle  14  Pass 1  IDiag  1:
 RMSU=  4.49D-09    CP:  8.89D-01  9.10D-01  9.05D-01  6.11D-01  7.76D-01
[...]
 0022581,-0.00001410,-0.00001979,0.00006998,-0.00000224,-0.00000873,-0.
 00000447,-0.00000178,-0.00000428,0.00000480,-0.00001575,0.00000690,-0.
 00005586,0.00002247,0.00000507,0.00003561,-0.00121133,0.00093237,0.000
 89773,-0.20312899,-0.25331661,0.00156295,0.00021688,0.00042904,-0.0007
 6245,0.00000953,0.00001564,0.00000012,0.00000024,0.00002718,-0.0000192
 0,0.00001634,0.00000008,-0.00000264,0.00001530,0.00000220,0.00000174,0
 .00001147,0.00000549,-0.00000352,0.00001114,-0.00000239,-0.00000205,-0
 .00000208,0.00000611,0.00000122,-0.00004241,-0.00000262,-0.00002410,-0
 .00004702,0.00001446,-0.00000210,-0.00003191,0.00000710,0.00002074,-0.
 00002606,-0.00004620,0.00002547,-0.00000015,0.00000044,-0.00000713,-0.
 00004318,0.00002337,0.00002423,-0.00001196,-0.00008644,0.00009726,0.00
 011989,-0.00027035,0.00001641,0.00003577,0.00001688,-0.00004420,-0.000
 00033,0.00001069,-0.00000627,-0.00000198,0.00000364,-0.00000801,0.0000
 0108,0.00000440,0.00000190,-0.00000683,-0.00001432,0.00000546,0.000208
 50,0.00008191,0.00009180,0.00038027,0.00118060,0.00126113,-0.00068742,
 0.00014982,-0.00047420,-0.00000949,0.00012470,0.00025223,0.00000233,-0
 .00000873,-0.00006875,-0.00001451,-0.00000843,0.00003033,0.00001185,0.
 00000536,-0.00000633,-0.00002284,-0.00002830,0.00000386,-0.00000348,0.
 00001875,0.00001799,0.00000575,-0.00002128,0.00004100,0.00002264,0.000
 00962,0.00002665,-0.00000894,0.00001021,-0.00001100,-0.00000435,-0.000
 01269,-0.00002169,-0.00000076,0.00000395,0.00001078,0.00000239,0.00000
 477,-0.00000554,0.00000180,-0.00000217,0.00000701,-0.00000364,0.000001
 75,0.00000125,0.00000421,0.00000086,0.00000468,-0.00000727,-0.00002375
 ,0.00000116,-0.00003822,-0.00000605,-0.00001416,-0.00004538,-0.0000303
 0,-0.00005658,-0.00029713,-0.00011316,-0.00062632,0.20362167,0.0000897
 7,-0.00009398,0.00007785,-0.00022495,0.00018229,-0.00005752,0.00005029
 ,0.00003807,-0.00003223,-0.00002217,0.00004817,0.00002190,0.00004763,0
 .00005632,-0.00002685,-0.00007643,0.00005392,-0.00001518,0.00002712,0.
 00002441,-0.00001297,-0.00000942,-0.00006773,0.00000465,-0.00006048,-0
 .00009048,0.00001179,-0.00000815,-0.00008948,-0.00002295,0.00004369,-0
 .00011329,0.00002632,0.00025574,-0.00018590,0.00006171,-0.00006825,0.0
 0007311,-0.00013889,-0.00012818,0.00026759,0.00019159,0.00014115,-0.00
 019367,-0.00014071,0.00026981,0.00003771,-0.00029871,-0.00032942,-0.00
 021301,0.00008002,0.00038913,0.00016051,0.00003769,-0.00015072,-0.0000
 5361,0.00012909,-0.00006640,-0.00001274,-0.00001571,0.00010110,0.00001
 916,-0.00001224,0.00031668,0.00059158,-0.00024105,0.00154728,-0.000765
 54,-0.00157751,-0.01085007,-0.01357533,-0.00298503,0.00143951,0.004010
 54,0.00219099,-0.00038779,-0.00029245,-0.00015457,-0.00022150,-0.00067
 915,-0.00004909,-0.00071697,0.00026648,-0.00019433,-0.00001482,-0.0000
 6373,-0.00013916,0.00014131,-0.00000584,0.00012900,0.00006301,-0.00038
 431,0.00043248,0.00010826,0.00004274,0.00000325,-0.00001204,-0.0000035
 2,0.00003820,-0.00000307,0.00001331,-0.00001165,0.00000273,-0.00000422
 ,0.00000582,-0.00001198,0.00000588,-0.00003151,0.00003761,-0.00006863,
 0.00003516,-0.00026429,-0.00163488,-0.00170640,-0.24130233,-0.32152828
 ,-0.01180797,0.00053970,0.00012813,0.00017215,0.00001678,-0.00001418,-
 0.00000085,-0.00000822,0.00000518,0.00001207,-0.00000918,-0.00000816,0
 .00000423,-0.00000563,-0.00001209,0.00000522,0.00000721,-0.00000568,-0
 .00000026,0.00000068,-0.00000416,0.00000711,-0.00000518,-0.00000640,-0
 .00000757,0.00002110,0.00004623,0.00001233,0.00003979,0.00003152,-0.00
 000661,0.00001086,0.00003306,0.00000088,-0.00008501,0.00011552,-0.0000
 0830,0.00003225,-0.00001250,0.00001831,0.00004720,-0.00000081,-0.00005
 101,-0.00006399,0.00009843,0.00008279,-0.00031321,0.00000289,0.0000976
 8,-0.00000123,0.00002148,0.00000490,0.00001115,-0.00000442,-0.00001872
 ,0.00000176,0.00000384,0.00000255,0.00000215,-0.00000138,-0.00000140,-
 0.00001480,-0.00000312,-0.00000193,0.00009964,0.00011643,0.00001348,-0
 .00032771,0.00006112,0.00093824,0.00001271,-0.00014964,0.00005277,0.00
 002368,-0.00001266,-0.00007153,0.00004766,-0.00007733,0.00001983,0.000
 00217,-0.00000532,0.00003833,-0.00001868,-0.00002842,-0.00001147,-0.00
 007067,-0.00001953,-0.00007820,0.00000544,0.00000105,-0.00001301,0.000
 00096,-0.00001325,0.00003099,0.00000597,0.00000077,0.00000997,0.000007
 90,0.00000006,-0.00000297,-0.00000291,-0.00000034,-0.00000668,-0.00000
 072,-0.00000333,-0.00000164,-0.00000802,-0.00000785,-0.00000445,0.0000
 0326,-0.00000044,0.00000453,0.00000512,-0.00000375,0.00001019,-0.00000
 088,0.00000169,0.00000250,-0.00004782,0.00010066,-0.00008557,-0.000027
 86,0.00005101,0.00000936,-0.00001122,0.00005519,-0.00000998,0.00007000
 ,-0.00022629,0.00022311,0.25127497,0.33525356,0.00001619,-0.00000249,-
 0.00007307,-0.00001981,0.00002583,0.00007416,0.00002628,-0.00000749,0.
 00007011,-0.00000238,0.00002410,0.00002712,-0.00002118,-0.00001456,0.0
 0002025,0.00000123,0.00001080,0.00000917,-0.00006394,-0.00004726,0.000
 03760,0.00011843,0.00000253,-0.00006493,0.00002540,0.00000019,-0.00006
 006,-0.00001299,-0.00003735,-0.00004959,-0.00005025,-0.00002527,-0.000
 09626,0.00003383,-0.00001430,-0.00003281,-0.00001366,-0.00004285,0.000
 01404,-0.00021059,0.00027918,0.00007331,0.00000443,-0.00021661,-0.0001
 5508,0.00004986,-0.00029637,0.00014813,-0.00032063,-0.00028785,0.00000
 612,0.00009433,0.00004526,-0.00006161,-0.00005166,-0.00001516,0.000041
 82,-0.00001366,-0.00001910,0.00000642,0.00002606,0.00001440,-0.0000179
 0,0.00064096,0.00083607,0.00048752,0.00112072,-0.00152053,-0.00805837,
 -0.02727205,-0.03518395,-0.00520403,-0.00425264,-0.00317244,-0.0017223
 4,-0.00050993,-0.00115926,-0.00049714,0.00078219,0.00140130,0.00024060
 ,-0.00163801,-0.00228288,0.00100986,0.00031002,-0.00000734,-0.00080899
 ,-0.00005743,0.00014194,0.00002021,0.00033182,0.00032921,0.00087988,0.
 00006629,-0.00002332,-0.00049885,-0.00002318,-0.00001467,0.00007403,0.
 00000896,-0.00003617,0.00000639,-0.00002198,0.00000190,0.00000575,-0.0
 0000132,0.00001023,-0.00002159,0.00007257,0.00003003,-0.00003195,0.000
 90114,-0.00039498,0.00178555,0.03053063,0.02489116,-0.04421947,0.00051
 412,0.00050076,-0.00199676,0.00000827,-0.00000076,-0.00000796,0.000007
 54,0.00000677,0.00001473,-0.00000273,-0.00000276,-0.00000211,0.0000028
 1,0.00000323,-0.00000277,0.00000372,0.00000369,-0.00000594,0.00001408,
 0.00000293,-0.00000371,0.00000067,-0.00000140,-0.00000265,-0.00003321,
 0.00002135,0.00004618,0.00000350,0.00000735,0.00002869,0.00002091,0.00
 001105,0.00001589,0.00004765,0.00003513,0.00003080,0.00001105,0.000004
 24,-0.00000058,0.00009053,-0.00001260,-0.00005277,0.00008641,0.0001681
 8,0.00003901,-0.00036827,0.00016299,-0.00001604,0.00000364,0.00004902,
 0.00001637,-0.00000027,0.00000581,-0.00000555,-0.00000186,0.00000488,-
 0.00000336,-0.00000169,-0.00000249,-0.00000144,-0.00000185,-0.00000613
 ,0.00000469,0.00008475,0.00029098,0.00008015,0.00062652,-0.00052994,0.
 00011132,0.00024663,0.00034385,-0.00008214,0.00004866,-0.00000680,0.00
 004256,-0.00001263,0.00003627,0.00001716,-0.00019070,-0.00019318,-0.00
 005649,0.00004861,0.00003656,0.00000591,-0.00000232,0.00000270,0.00001
 313,-0.00001465,-0.00000223,0.00003216,-0.00001085,-0.00000926,0.00002
 667,0.00003328,0.00001958,0.00003695,-0.00000188,0.00000882,-0.0000176
 3,-0.00001679,-0.00002531,-0.00002914,0.00000376,0.00000809,0.00001126
 ,0.00002099,0.00001577,-0.00000490,0.00000765,-0.00000588,0.00000535,-
 0.00002192,0.00000584,-0.00000025,0.00001373,0.00000723,0.00000296,-0.
 00000090,-0.00010937,0.00007036,-0.00010912,0.00003963,0.00005657,-0.0
 0014660,-0.00006440,-0.00003859,0.00050789,0.00114119,0.00100970,-0.00
 347380,0.01411730,0.05414464,0.00018798,-0.00009781,0.00024568,-0.0004
 0066,0.00028252,-0.00027257,-0.00001358,-0.00001304,-0.00009691,-0.000
 06427,0.00007832,0.00000956,0.00003355,0.00003147,-0.00004872,-0.00015
 725,0.00006827,-0.00004686,0.00004795,0.00003219,-0.00005611,-0.000063
 16,-0.00002398,0.00009734,-0.00000310,-0.00006999,0.00008247,0.0000681
 5,-0.00010570,-0.00000549,0.00025955,-0.00013522,0.00014134,0.00091627
 ,-0.00007072,0.00020475,-0.00121659,-0.00040014,0.00149401,-0.00517939
 ,-0.00108826,-0.00469317,0.00117375,-0.00022462,-0.00047884,-0.0320664
 2,-0.02021053,0.01692378,0.00092798,-0.00111053,-0.00176342,0.00070609
 ,0.00083458,0.00107300,-0.00031692,-0.00006205,0.00032234,-0.00013032,
 -0.00003955,-0.00002757,0.00013210,0.00004858,-0.00001161,-0.00070240,
 -0.00048968,0.00099286,0.00053685,0.00042011,-0.00072128,0.00002354,0.
 00169593,0.00199572,0.00009044,-0.00038637,-0.00062543,0.00035747,0.00
 047602,0.00016187,-0.00023503,-0.00029530,0.00014109,-0.00023043,-0.00
 003288,-0.00012305,0.00019428,-0.00000219,-0.00011987,-0.00018108,-0.0
 0002708,0.00026712,-0.00011488,-0.00003431,-0.00029401,-0.00001633,0.0
 0000711,0.00009727,0.00000721,0.00000692,-0.00002476,0.00000075,0.0000
 1274,-0.00000191,0.00001368,-0.00000297,-0.00000163,-0.00001419,-0.000
 00196,-0.00003841,-0.00003683,-0.00001567,0.00006480,-0.00015937,-0.00
 008404,-0.00009415,-0.00395209,-0.00079896,-0.00273210,-0.21103855,-0.
 14842617,0.13746522,0.00009747,-0.00001865,0.00000858,-0.00001423,0.00
 003885,-0.00001154,0.00000742,-0.00000585,0.00000369,0.00001007,-0.000
 01770,0.00001510,0.00001896,-0.00000385,-0.00000011,-0.00000222,-0.000
 01153,0.00001403,-0.00000712,0.00000511,-0.00000272,0.00000414,0.00001
 079,-0.00005835,-0.00000944,0.00004039,-0.00003100,-0.00004509,0.00005
 102,0.00001282,-0.00037698,0.00019366,-0.00005602,-0.00027111,-0.00009
 649,-0.00034415,0.00025578,-0.00000385,-0.00019155,-0.00062468,0.00020
 996,0.00070785,0.00178091,0.00043176,0.00170569,-0.00004507,0.00005275
 ,0.00002575,0.00001024,-0.00004069,-0.00002227,0.00001705,-0.00001006,
 -0.00000730,0.00000822,0.00001850,-0.00000115,-0.00001716,-0.00002682,
 -0.00001108,-0.00020519,-0.00001697,-0.00027806,-0.00002252,-0.0000922
 1,0.00016987,-0.00005732,0.00002857,-0.00000021,-0.00003785,-0.0000152
 3,-0.00000221,-0.00002779,0.00004772,0.00011529,-0.00002370,-0.0000177
 5,0.00002492,0.00000170,-0.00003261,-0.00003772,-0.00001038,0.00005912
 ,-0.00033290,0.00000123,0.00000738,-0.00000480,0.00000111,-0.00000283,
 -0.00001077,-0.00001173,-0.00000720,-0.00000693,-0.00000293,0.00000401
 ,0.00000383,0.00000955,0.00000400,0.00000504,-0.00000484,-0.00000193,0
 .00000287,-0.00000858,-0.00000608,-0.00000091,-0.00000522,0.00000238,0
 .00000318,0.00001115,-0.00000217,0.00000275,-0.00000740,-0.00000484,-0
 .00000157,0.00000457,0.00006854,-0.00006877,0.00007112,-0.00002898,-0.
 00006844,0.00007520,0.00001899,-0.00000298,-0.00000758,-0.00004303,0.0
 0001504,0.00000482,-0.00140956,0.00135069,0.25007069,0.00013548,-0.000
 18724,0.00023515,-0.00041427,0.00034496,-0.00020831,0.00010261,0.00010
 536,-0.00014170,-0.00004386,0.00004933,0.00002650,0.00007758,0.0000749
 3,-0.00004664,-0.00012076,0.00008259,-0.00002715,0.00008777,0.00005976
 ,-0.00005306,-0.00011279,-0.00006308,0.00006623,-0.00008343,-0.0001039
 6,0.00005280,0.00000439,-0.00012222,-0.00001116,0.00015396,-0.00026773
 ,0.00014112,0.00036515,-0.00049299,0.00023900,0.00036324,0.00062121,-0
 .00072130,0.00176100,0.00022750,0.00012005,0.00133848,-0.00018555,0.00
 033614,-0.00574987,-0.00354769,0.00151527,-0.00285429,-0.00192457,-0.0
 0088624,0.00120829,0.00061902,0.00075167,-0.00027932,-0.00023265,0.000
 17498,-0.00014984,0.00000310,-0.00011308,0.00020328,0.00004881,0.00003
 397,0.00078256,-0.00037939,0.00270550,0.00002903,0.00221666,-0.0022089
 9,0.00065297,0.00497196,0.00311439,0.00014790,-0.00086524,-0.00130671,
 0.00055218,0.00103340,0.00046005,-0.00031326,-0.00066055,0.00032062,-0
 .00024130,-0.00014261,-0.00004745,0.00021261,0.00009671,-0.00021591,-0
 .00017465,-0.00017280,0.00030930,-0.00016298,-0.00007056,-0.00071173,-
 0.00008137,0.00001620,0.00026777,0.00001552,0.00001710,-0.00005878,-0.
 00000111,0.00002137,-0.00000324,0.00001609,0.00000263,-0.00000438,-0.0
 0000323,-0.00000582,-0.00000161,-0.00004496,-0.00004853,0.00004195,-0.
 00007246,-0.00015925,-0.00043172,-0.00130028,-0.00617113,-0.00484195,-
 0.16763730,-0.14249306,0.13787668,-0.00000225,-0.00003078,0.00000781,-
 0.00001231,-0.00002503,0.00003177,-0.00002154,-0.00000620,0.00000583,-
 0.00000569,-0.00001933,0.00000997,0.00000602,-0.00000779,0.00000313,-0
 .00000995,-0.00000964,0.00001587,-0.00000494,-0.00000284,-0.00000947,0
 .00003694,0.00002560,-0.00001910,0.00003740,0.00002986,-0.00001505,0.0
 0000747,0.00005191,-0.00000109,-0.00026005,0.00033428,-0.00006834,0.00
 026686,-0.00003414,0.00018136,0.00000507,0.00004493,-0.00002661,-0.001
 06063,0.00116448,0.00036498,0.00188639,0.00122011,0.00035637,-0.000149
 63,-0.00023002,0.00010764,0.00001577,-0.00001877,-0.00001761,0.0000249
 9,-0.00001176,0.00001634,0.00001521,0.00001489,0.00000740,-0.00002504,
 -0.00000009,-0.00000275,0.00013084,-0.00015211,0.00010581,0.00027442,-
 0.00034465,-0.00094693,0.00000242,-0.00006468,0.00012913,-0.00004887,-
 0.00003384,-0.00005415,0.00002355,0.00003132,-0.00000260,-0.00004821,-
 0.00005036,0.00002416,-0.00003200,-0.00009798,-0.00004752,-0.00000578,
 0.00017059,-0.00039961,0.00000874,-0.00000154,-0.00001325,-0.00000045,
 0.00000473,-0.00002744,-0.00002485,-0.00001346,-0.00002231,0.00000378,
 -0.00000262,0.00000989,0.00001407,0.00001391,0.00001916,-0.00000339,-0
 .00000498,-0.00000625,-0.00001348,-0.00001307,0.00000162,-0.00000569,0
 .00000380,-0.00000121,0.00001482,-0.00000512,0.00000431,-0.00001195,-0
 .00000295,-0.00000407,-0.00000352,0.00013048,-0.00009070,0.00008322,-0
 .00000857,-0.00004119,0.00010245,0.00004544,0.00003196,-0.00007533,-0.
 00010396,0.00007637,-0.00038193,-0.00127881,0.00068939,0.17087833,0.14
 697280,-0.00013139,0.00014333,-0.00037119,0.00041054,-0.00030746,0.000
 34699,-0.00001489,-0.00006639,0.00019832,0.00004707,-0.00002936,0.0000
 1967,-0.00007123,-0.00005610,0.00006634,0.00012006,-0.00005057,0.00003
 063,-0.00013467,-0.00007827,0.00009610,0.00022187,0.00000784,-0.000150
 23,0.00006438,0.00006554,-0.00012892,-0.00004630,0.00006613,-0.0000514
 9,-0.00022547,0.00016766,-0.00024573,-0.00043673,0.00033441,-0.0003829
 4,-0.00064899,-0.00032869,0.00156506,-0.00302021,-0.00095352,-0.003633
 13,0.00000363,0.00015488,0.00039109,-0.01876407,-0.01495358,0.01357015
 ,-0.00510146,-0.00108151,0.00289294,0.00020222,-0.00065693,-0.00201388
 ,0.00006678,0.00035724,0.00024696,0.00008197,-0.00005956,0.00004521,-0
 .00002886,-0.00003433,-0.00008694,0.00203411,0.00191932,-0.00115593,-0
 .00115729,-0.00060598,-0.00044985,-0.00048108,-0.00359706,-0.00578761,
 -0.00017463,0.00102947,0.00105011,-0.00048400,-0.00069029,-0.00076972,
 0.00031101,0.00025075,0.00024793,0.00035739,0.00023227,-0.00037154,-0.
 00051887,-0.00009337,0.00031521,0.00053803,0.00011674,-0.00028263,0.00
 023651,-0.00015807,0.00109629,0.00011392,0.00000525,-0.00047486,-0.000
 01867,-0.00000976,0.00009150,0.00000058,-0.00002052,-0.00001308,-0.000
 02440,-0.00000180,0.00001946,-0.00001875,0.00001121,-0.00005273,0.0001
 6127,-0.00005763,-0.00001533,-0.00007435,-0.00036789,0.00065302,-0.000
 55548,-0.00159298,0.00117974,0.18012236,0.15577080,-0.19515789,-0.0000
 1178,0.00002550,-0.00001546,0.00001923,0.00000801,0.00000190,0.0000066
 9,0.00000192,-0.00000607,0.00000071,0.00001964,-0.00001464,-0.00000503
 ,0.00000920,-0.00000538,0.00002298,0.00001098,-0.00001995,0.00000125,-
 0.00000685,-0.00000143,-0.00004476,0.00002342,0.00008601,-0.00000949,-
 0.00002044,0.00004792,0.00003704,-0.00003759,0.00001523,0.00030883,-0.
 00019456,0.00008744,-0.00036898,-0.00002226,-0.00030855,0.00019947,-0.
 00016406,-0.00006131,0.00028183,0.00062361,-0.00044597,-0.00185808,0.0
 0064370,-0.00056774,0.00012236,0.00022947,-0.00002168,0.00002367,0.000
 04116,-0.00003609,-0.00002930,0.00004342,-0.00001253,-0.00004030,-0.00
 004919,-0.00002510,0.00002783,-0.00000295,-0.00000575,-0.00002503,-0.0
 0006059,0.00011734,-0.00010318,0.00039296,0.00061911,0.00001171,0.0000
 1423,-0.00007670,0.00004492,0.00001689,0.00005583,0.00001603,-0.000037
 96,-0.00002986,0.00012117,0.00005606,0.00002882,-0.00000147,-0.0000024
 6,0.00000816,-0.00016212,-0.00020505,0.00042490,-0.00000366,0.00000482
 ,0.00001674,-0.00000537,-0.00002056,0.00005528,0.00003186,0.00001347,0
 .00004194,0.00000085,0.00000400,-0.00002026,-0.00002388,-0.00002373,-0
 .00005346,0.00000651,0.00000561,0.00001254,0.00000839,0.00000998,-0.00
 001438,0.00001664,-0.00001087,0.00001120,-0.00002126,0.00000138,0.0000
 1139,0.00002001,0.00001312,0.00001187,-0.00009874,-0.00000101,-0.00000
 707,-0.00022113,0.00010542,0.00012581,-0.00020690,0.00000075,-0.000077
 36,0.00006202,0.00020521,-0.00000615,0.00102240,0.00068609,0.00310360,
 -0.15213582,-0.13713108,0.18442278\\-0.00000403,-0.00001160,-0.0000016
 0,-0.00000893,0.00001698,0.00000227,-0.00000232,-0.00000487,-0.0000142
 1,-0.00000831,-0.00001164,-0.00000571,-0.00000406,-0.00001292,0.000013
 11,0.00000511,-0.00000065,0.00000111,-0.00001645,-0.00000555,-0.000002
 03,0.00000674,0.00000055,-0.00001981,0.00000029,0.00001528,0.00000387,
 -0.00000091,0.00001313,0.00000044,-0.00001758,0.00000506,0.00000010,0.
 00000865,-0.00002156,-0.00000403,-0.00000170,0.00001656,0.00001357,-0.
 00000412,-0.00002314,-0.00001198,0.00000235,0.00000953,0.00001059,-0.0
 0000331,-0.00000170,-0.00001624,-0.00001327,0.00000761,0.00000943,-0.0
 0001320,-0.00000951,-0.00000947,0.00002632,-0.00000595,0.00001699,-0.0
 0001138,0.00000059,-0.00000838,0.00000633,-0.00000464,0.00000226,0.000
 02017,-0.00000562,-0.00000098,-0.00001469,0.00001140,-0.00001570,0.000
 00307,-0.00000578,-0.00001169,-0.00001915,0.00000038,-0.00000663,0.000
 01479,-0.00000188,0.00000748,-0.00000307,0.00000485,-0.00001496,0.0000
 1787,-0.00000060,0.00001248,0.00000034,-0.00002135,-0.00001732,0.00000
 475,-0.00000337,0.00004959,-0.00000396,-0.00000376,-0.00000672,0.00000
 711,0.00000870,-0.00000018,-0.00000442,-0.00000607,-0.00000585,0.00000
 205,0.00000087,0.00000670,0.00000273,-0.00000853,-0.00000664,-0.000015
 26,0.00000727,0.00000734,0.00003835,0.00002163,0.00000800,0.00001054,0
 .00000559,0.00000193,-0.00000183,-0.00000799,0.00001705,0.00000518,0.0
 0000912,0.00000075,0.00000600,0.00000037,0.00000254,-0.00000347,-0.000
 00023,0.00000666,0.00000285,0.00000293,-0.00000018,0.00000343,-0.00000
 199,-0.00000316,0.00000065,-0.00000095,0.00000007,0.00000707,0.0000000
 7,-0.00000074,0.00000532,0.00000067,0.00000071,0.00000281,-0.00000627,
 0.00000627,0.00000142,0.00000785,0.00000321,0.00000277,-0.00000170,0.0
 0000522,0.00001644,0.00000209,0.00000467,0.00000105,-0.00000361,-0.000
 00640,-0.00000073,0.00000096,-0.00000224,0.00000370,0.00000538,0.00000
 486,0.00000235,-0.00000652,0.00000687,-0.00000039,0.00000119,-0.000005
 36,-0.00000336,0.00000373,-0.00001024,-0.00000205,-0.00000118,0.000007
 39,0.00000257,-0.00000221,0.00000234,-0.00000028,0.00000449,-0.0000007
 3,0.00000676,0.00000065,-0.00000160,-0.00000122,0.00000041,-0.00000050
 ,0.00000149,-0.00000210,-0.00000246,-0.00000620,0.00000215,-0.00000300
 ,-0.00001122,0.00000589,-0.00000028,0.00000594,-0.00000008,-0.00000161
 ,-0.00000743,0.00000976,-0.00000030,0.00000750,0.00000574,-0.00002222,
 -0.00000367,0.00000286,0.00000370,0.00000019,-0.00000043,-0.00000528,-
 0.00000113,0.00000099,0.00000559,0.00000411,0.00000647,-0.00000189,0.0
 0000227,-0.00000262,0.00000301,-0.00000069,0.00000470,0.00000055,-0.00
 000393,0.00000154,0.00000040,0.00000624,-0.00000376,0.00000200,-0.0000
 0391,-0.00000544,-0.00000249,-0.00000413,-0.00000070,0.00000397,-0.000
 02254,-0.00001103,-0.00000729,0.00000327,-0.00000763,0.00000049,-0.000
 02901,0.00000219,-0.00000024,-0.00000376,0.00000137,-0.00000006,0.0000
 0042,0.00000392,0.00000113,0.00000172,0.00000370,0.00000174\\\@


 LAWS OF PROGRAMMING DEFINITION:  A WORKING PROGRAM
                                  IS ONE THAT HAS
                                  ONLY UNOBSERVED
                                  BUGS.
 Job cpu time:      17 days 23 hours 23 minutes 13.8 seconds.
 File lengths (MBytes):  RWF=  17329 Int=      0 D2E=      0 Chk=     97 Scr=      1
 Normal termination of Gaussian 09 at Sat Mar 26 13:56:38 2016.
