 Entering Gaussian System, Link 0=g16
 Input=input.com
 Output=input.log
 Initial command:
 /home/matma/Programs/gaussian/G16_x86_SSE4/tar/g16/l1.exe "/scratch-data/gaussian/Gau-12627.inp" -scrdir="/scratch-data/gaussian/"
 Entering Link 1 = /home/matma/Programs/gaussian/G16_x86_SSE4/tar/g16/l1.exe PID=     12629.
  
 Copyright (c) 1988-2017, Gaussian, Inc.  All Rights Reserved.
  
 This is part of the Gaussian(R) 16 program.  It is based on
 the Gaussian(R) 09 system (copyright 2009, Gaussian, Inc.),
 the Gaussian(R) 03 system (copyright 2003, Gaussian, Inc.),
 the Gaussian(R) 98 system (copyright 1998, Gaussian, Inc.),
 the Gaussian(R) 94 system (copyright 1995, Gaussian, Inc.),
 the Gaussian 92(TM) system (copyright 1992, Gaussian, Inc.),
 the Gaussian 90(TM) system (copyright 1990, Gaussian, Inc.),
 the Gaussian 88(TM) system (copyright 1988, Gaussian, Inc.),
 the Gaussian 86(TM) system (copyright 1986, Carnegie Mellon
 University), and the Gaussian 82(TM) system (copyright 1983,
 Carnegie Mellon University). Gaussian is a federally registered
 trademark of Gaussian, Inc.
  
 This software contains proprietary and confidential information,
 including trade secrets, belonging to Gaussian, Inc.
  
 This software is provided under written license and may be
 used, copied, transmitted, or stored only in accord with that
 written license.
  
 The following legend is applicable only to US Government
 contracts under FAR:
  
                    RESTRICTED RIGHTS LEGEND
  
 Use, reproduction and disclosure by the US Government is
 subject to restrictions as set forth in subparagraphs (a)
 and (c) of the Commercial Computer Software - Restricted
 Rights clause in FAR 52.227-19.
  
 Gaussian, Inc.
 340 Quinnipiac St., Bldg. 40, Wallingford CT 06492
  
  
 ---------------------------------------------------------------
 Warning -- This program may not be used in any manner that
 competes with the business of Gaussian, Inc. or will provide
 assistance to any competitor of Gaussian, Inc.  The licensee
 of this program is prohibited from giving any competitor of
 Gaussian, Inc. access to this program.  By using this program,
 the user acknowledges that Gaussian, Inc. is engaged in the
 business of creating and licensing software in the field of
 computational chemistry and represents and warrants to the
 licensee that it is not a competitor of Gaussian, Inc. and that
 it will not use this program in any manner prohibited above.
 ---------------------------------------------------------------
  

 Cite this work as:
 Gaussian 16, Revision B.01,
 M. J. Frisch, G. W. Trucks, H. B. Schlegel, G. E. Scuseria, 
 M. A. Robb, J. R. Cheeseman, G. Scalmani, V. Barone, 
 G. A. Petersson, H. Nakatsuji, X. Li, M. Caricato, A. V. Marenich, 
 J. Bloino, B. G. Janesko, R. Gomperts, B. Mennucci, H. P. Hratchian, 
 J. V. Ortiz, A. F. Izmaylov, J. L. Sonnenberg, D. Williams-Young, 
 F. Ding, F. Lipparini, F. Egidi, J. Goings, B. Peng, A. Petrone, 
 T. Henderson, D. Ranasinghe, V. G. Zakrzewski, J. Gao, N. Rega, 
 G. Zheng, W. Liang, M. Hada, M. Ehara, K. Toyota, R. Fukuda, 
 J. Hasegawa, M. Ishida, T. Nakajima, Y. Honda, O. Kitao, H. Nakai, 
 T. Vreven, K. Throssell, J. A. Montgomery, Jr., J. E. Peralta, 
 F. Ogliaro, M. J. Bearpark, J. J. Heyd, E. N. Brothers, K. N. Kudin, 
 V. N. Staroverov, T. A. Keith, R. Kobayashi, J. Normand, 
 K. Raghavachari, A. P. Rendell, J. C. Burant, S. S. Iyengar, 
 J. Tomasi, M. Cossi, J. M. Millam, M. Klene, C. Adamo, R. Cammi, 
 J. W. Ochterski, R. L. Martin, K. Morokuma, O. Farkas, 
 J. B. Foresman, and D. J. Fox, Gaussian, Inc., Wallingford CT, 2016.
 
 ******************************************
 Gaussian 16:  ES64L-G16RevB.01 20-Dec-2017
                22-Jun-2021 
 ******************************************
 %nproc=12
 Will use up to   12 processors via shared memory.
 %mem=16GB
 --------------------------------------
 #P pm6 opt=loose freq int=(grid=99590)
 --------------------------------------
 1/7=-1,18=20,19=15,26=1,38=1/1,3;
 2/9=110,12=2,17=6,18=5,40=1/2;
 3/5=2,25=1,41=3900000,71=1,75=99590/1,2,3;
 4/35=1/1;
 5/5=2,35=1,38=5/2;
 6/7=2,8=2,9=2,10=2,28=1/1;
 7//1,2,3,16;
 1/7=-1,18=20,19=15,26=1/3(2);
 2/9=110/2;
 99//99;
 2/9=110/2;
 3/5=2,25=1,41=3900000,71=1,75=99590,135=20/1,2,3;
 4/5=5,16=3,35=1/1;
 5/5=2,35=1,38=5/2;
 7//1,2,3,16;
 1/7=-1,18=20,19=15,26=1/3(-5);
 2/9=110/2;
 6/7=2,8=2,9=2,10=2,19=2,28=1/1;
 99/9=1/99;
 Leave Link    1 at Tue Jun 22 14:22:00 2021, MaxMem=  2147483648 cpu:               0.2 elap:               0.0
 (Enter /home/matma/Programs/gaussian/G16_x86_SSE4/tar/g16/l101.exe)
 ------------
 offspring-10
 ------------
 Symbolic Z-matrix:
 Charge =  0 Multiplicity = 1
 O                     1.964     0.956     0.206 
 C                     2.445     2.126     0.881 
 C                     3.127     1.707     2.203 
 O                     3.988     0.63      1.811 
 C                     2.07      1.193     3.204 
 C                     1.086     2.332     3.534 
 O                     1.056     3.347     2.536 
 C                     1.213     3.022     1.138 
 C                    -0.098     2.419     0.616 
 O                    -1.207     3.117     1.212 
 O                    -4.541     0.134     3.892 
 C                    -3.173    -0.297     3.785 
 C                    -2.314     0.898     3.312 
 C                    -0.803     0.665     3.537 
 C                    -0.45     -0.131     4.822 
 O                    -1.403    -1.124     5.212 
 C                    -2.798    -0.738     5.21 
 C                    -3.515    -2.029     5.658 
 O                    -4.528    -2.433     4.744 
 O                     0.702    -0.928     4.554 
 O                    -0.288     1.994     3.765 
 O                    -2.589     0.941     1.917 
 O                     2.802     0.88      4.391 
 H                     3.178     2.625     0.206 
 H                     3.745     2.518     2.648 
 H                     4.348     0.189     2.621 
 H                     1.565     0.279     2.809 
 H                     1.352     2.916     4.452 
 H                     1.373     4.052     0.73 
 H                    -0.227     2.567    -0.472 
 H                    -0.195     1.34      0.851 
 H                    -0.975     3.338     2.17 
 H                    -3.116    -1.141     3.055 
 H                    -2.633     1.851     3.797 
 H                    -0.34      0.203     2.633 
 H                    -0.195     0.522     5.683 
 H                    -2.936     0.09      5.939 
 H                    -2.81     -2.889     5.661 
 H                    -3.958    -1.907     6.663 
 H                    -5.168    -1.687     4.584 
 H                    -2.344     1.852     1.525 
 H                    -4.853     0.433     3.001 
 H                     2.369     0.113     4.859 
 H                     0.446    -1.882     4.452 
 H                     2.678     0.262     0.202 
 
 ITRead=  0  0  0  0  0  0  0  0  0  0  0  0  0  0  0  0  0  0  0  0
 ITRead=  0  0  0  0  0  0  0  0  0  0  0  0  0  0  0  0  0  0  0  0
 ITRead=  0  0  0  0  0
 MicOpt= -1 -1 -1 -1 -1 -1 -1 -1 -1 -1 -1 -1 -1 -1 -1 -1 -1 -1 -1 -1
 MicOpt= -1 -1 -1 -1 -1 -1 -1 -1 -1 -1 -1 -1 -1 -1 -1 -1 -1 -1 -1 -1
 MicOpt= -1 -1 -1 -1 -1
 NAtoms=     45 NQM=       45 NQMF=       0 NMMI=      0 NMMIF=      0
                NMic=       0 NMicF=      0.
                    Isotopes and Nuclear Properties:
 (Nuclear quadrupole moments (NQMom) in fm**2, nuclear magnetic moments (NMagM)
  in nuclear magnetons)

  Atom         1           2           3           4           5           6           7           8           9          10
 IAtWgt=          16          12          12          16          12          12          16          12          12          16
 AtmWgt=  15.9949146  12.0000000  12.0000000  15.9949146  12.0000000  12.0000000  15.9949146  12.0000000  12.0000000  15.9949146
 NucSpn=           0           0           0           0           0           0           0           0           0           0
 AtZEff=  -0.0000000  -0.0000000  -0.0000000  -0.0000000  -0.0000000  -0.0000000  -0.0000000  -0.0000000  -0.0000000  -0.0000000
 NQMom=    0.0000000   0.0000000   0.0000000   0.0000000   0.0000000   0.0000000   0.0000000   0.0000000   0.0000000   0.0000000
 NMagM=    0.0000000   0.0000000   0.0000000   0.0000000   0.0000000   0.0000000   0.0000000   0.0000000   0.0000000   0.0000000
 AtZNuc=   8.0000000   6.0000000   6.0000000   8.0000000   6.0000000   6.0000000   8.0000000   6.0000000   6.0000000   8.0000000

  Atom        11          12          13          14          15          16          17          18          19          20
 IAtWgt=          16          12          12          12          12          16          12          12          16          16
 AtmWgt=  15.9949146  12.0000000  12.0000000  12.0000000  12.0000000  15.9949146  12.0000000  12.0000000  15.9949146  15.9949146
 NucSpn=           0           0           0           0           0           0           0           0           0           0
 AtZEff=  -0.0000000  -0.0000000  -0.0000000  -0.0000000  -0.0000000  -0.0000000  -0.0000000  -0.0000000  -0.0000000  -0.0000000
 NQMom=    0.0000000   0.0000000   0.0000000   0.0000000   0.0000000   0.0000000   0.0000000   0.0000000   0.0000000   0.0000000
 NMagM=    0.0000000   0.0000000   0.0000000   0.0000000   0.0000000   0.0000000   0.0000000   0.0000000   0.0000000   0.0000000
 AtZNuc=   8.0000000   6.0000000   6.0000000   6.0000000   6.0000000   8.0000000   6.0000000   6.0000000   8.0000000   8.0000000

  Atom        21          22          23          24          25          26          27          28          29          30
 IAtWgt=          16          16          16           1           1           1           1           1           1           1
 AtmWgt=  15.9949146  15.9949146  15.9949146   1.0078250   1.0078250   1.0078250   1.0078250   1.0078250   1.0078250   1.0078250
 NucSpn=           0           0           0           1           1           1           1           1           1           1
 AtZEff=  -0.0000000  -0.0000000  -0.0000000  -0.0000000  -0.0000000  -0.0000000  -0.0000000  -0.0000000  -0.0000000  -0.0000000
 NQMom=    0.0000000   0.0000000   0.0000000   0.0000000   0.0000000   0.0000000   0.0000000   0.0000000   0.0000000   0.0000000
 NMagM=    0.0000000   0.0000000   0.0000000   2.7928460   2.7928460   2.7928460   2.7928460   2.7928460   2.7928460   2.7928460
 AtZNuc=   8.0000000   8.0000000   8.0000000   1.0000000   1.0000000   1.0000000   1.0000000   1.0000000   1.0000000   1.0000000

  Atom        31          32          33          34          35          36          37          38          39          40
 IAtWgt=           1           1           1           1           1           1           1           1           1           1
 AtmWgt=   1.0078250   1.0078250   1.0078250   1.0078250   1.0078250   1.0078250   1.0078250   1.0078250   1.0078250   1.0078250
 NucSpn=           1           1           1           1           1           1           1           1           1           1
 AtZEff=  -0.0000000  -0.0000000  -0.0000000  -0.0000000  -0.0000000  -0.0000000  -0.0000000  -0.0000000  -0.0000000  -0.0000000
 NQMom=    0.0000000   0.0000000   0.0000000   0.0000000   0.0000000   0.0000000   0.0000000   0.0000000   0.0000000   0.0000000
 NMagM=    2.7928460   2.7928460   2.7928460   2.7928460   2.7928460   2.7928460   2.7928460   2.7928460   2.7928460   2.7928460
 AtZNuc=   1.0000000   1.0000000   1.0000000   1.0000000   1.0000000   1.0000000   1.0000000   1.0000000   1.0000000   1.0000000

  Atom        41          42          43          44          45
 IAtWgt=           1           1           1           1           1
 AtmWgt=   1.0078250   1.0078250   1.0078250   1.0078250   1.0078250
 NucSpn=           1           1           1           1           1
 AtZEff=  -0.0000000  -0.0000000  -0.0000000  -0.0000000  -0.0000000
 NQMom=    0.0000000   0.0000000   0.0000000   0.0000000   0.0000000
 NMagM=    2.7928460   2.7928460   2.7928460   2.7928460   2.7928460
 AtZNuc=   1.0000000   1.0000000   1.0000000   1.0000000   1.0000000
 Leave Link  101 at Tue Jun 22 14:22:00 2021, MaxMem=  2147483648 cpu:               2.7 elap:               0.2
 (Enter /home/matma/Programs/gaussian/G16_x86_SSE4/tar/g16/l103.exe)

 GradGradGradGradGradGradGradGradGradGradGradGradGradGradGradGradGradGrad
 Berny optimization.
 Initialization pass.
                           ----------------------------
                           !    Initial Parameters    !
                           ! (Angstroms and Degrees)  !
 --------------------------                            --------------------------
 ! Name  Definition              Value          Derivative Info.                !
 --------------------------------------------------------------------------------
 ! R1    R(1,2)                  1.4338         estimate D2E/DX2                !
 ! R2    R(1,45)                 0.9957         estimate D2E/DX2                !
 ! R3    R(2,3)                  1.5454         estimate D2E/DX2                !
 ! R4    R(2,8)                  1.5449         estimate D2E/DX2                !
 ! R5    R(2,24)                 1.1144         estimate D2E/DX2                !
 ! R6    R(3,4)                  1.4335         estimate D2E/DX2                !
 ! R7    R(3,5)                  1.5438         estimate D2E/DX2                !
 ! R8    R(3,25)                 1.1125         estimate D2E/DX2                !
 ! R9    R(4,26)                 0.99           estimate D2E/DX2                !
 ! R10   R(5,6)                  1.5409         estimate D2E/DX2                !
 ! R11   R(5,23)                 1.4293         estimate D2E/DX2                !
 ! R12   R(5,27)                 1.1164         estimate D2E/DX2                !
 ! R13   R(6,7)                  1.4238         estimate D2E/DX2                !
 ! R14   R(6,21)                 1.4337         estimate D2E/DX2                !
 ! R15   R(6,28)                 1.1201         estimate D2E/DX2                !
 ! R16   R(7,8)                  1.4438         estimate D2E/DX2                !
 ! R17   R(8,9)                  1.5345         estimate D2E/DX2                !
 ! R18   R(8,29)                 1.1194         estimate D2E/DX2                !
 ! R19   R(9,10)                 1.4395         estimate D2E/DX2                !
 ! R20   R(9,30)                 1.1056         estimate D2E/DX2                !
 ! R21   R(9,31)                 1.1085         estimate D2E/DX2                !
 ! R22   R(10,32)                1.0102         estimate D2E/DX2                !
 ! R23   R(11,12)                1.4383         estimate D2E/DX2                !
 ! R24   R(11,42)                0.9903         estimate D2E/DX2                !
 ! R25   R(12,13)                1.5458         estimate D2E/DX2                !
 ! R26   R(12,17)                1.5381         estimate D2E/DX2                !
 ! R27   R(12,33)                1.1174         estimate D2E/DX2                !
 ! R28   R(13,14)                1.5453         estimate D2E/DX2                !
 ! R29   R(13,22)                1.4225         estimate D2E/DX2                !
 ! R30   R(13,34)                1.1159         estimate D2E/DX2                !
 ! R31   R(14,15)                1.5522         estimate D2E/DX2                !
 ! R32   R(14,21)                1.4434         estimate D2E/DX2                !
 ! R33   R(14,35)                1.1158         estimate D2E/DX2                !
 ! R34   R(15,16)                1.4305         estimate D2E/DX2                !
 ! R35   R(15,20)                1.4262         estimate D2E/DX2                !
 ! R36   R(15,36)                1.1103         estimate D2E/DX2                !
 ! R37   R(16,17)                1.4474         estimate D2E/DX2                !
 ! R38   R(17,18)                1.5432         estimate D2E/DX2                !
 ! R39   R(17,37)                1.1118         estimate D2E/DX2                !
 ! R40   R(18,19)                1.4229         estimate D2E/DX2                !
 ! R41   R(18,38)                1.112          estimate D2E/DX2                !
 ! R42   R(18,39)                1.1051         estimate D2E/DX2                !
 ! R43   R(19,40)                0.9958         estimate D2E/DX2                !
 ! R44   R(20,44)                0.993          estimate D2E/DX2                !
 ! R45   R(22,41)                1.0216         estimate D2E/DX2                !
 ! R46   R(23,43)                0.9974         estimate D2E/DX2                !
 ! A1    A(2,1,45)             109.2734         estimate D2E/DX2                !
 ! A2    A(1,2,3)              109.2391         estimate D2E/DX2                !
 ! A3    A(1,2,8)              106.502          estimate D2E/DX2                !
 ! A4    A(1,2,24)             107.5107         estimate D2E/DX2                !
 ! A5    A(3,2,8)              111.5222         estimate D2E/DX2                !
 ! A6    A(3,2,24)             110.4425         estimate D2E/DX2                !
 ! A7    A(8,2,24)             111.4443         estimate D2E/DX2                !
 ! A8    A(2,3,4)              103.5817         estimate D2E/DX2                !
 ! A9    A(2,3,5)              110.0456         estimate D2E/DX2                !
 ! A10   A(2,3,25)             112.9338         estimate D2E/DX2                !
 ! A11   A(4,3,5)              109.7789         estimate D2E/DX2                !
 ! A12   A(4,3,25)             108.8701         estimate D2E/DX2                !
 ! A13   A(5,3,25)             111.3265         estimate D2E/DX2                !
 ! A14   A(3,4,26)             109.2283         estimate D2E/DX2                !
 ! A15   A(3,5,6)              109.2666         estimate D2E/DX2                !
 ! A16   A(3,5,23)             105.1143         estimate D2E/DX2                !
 ! A17   A(3,5,27)             110.6621         estimate D2E/DX2                !
 ! A18   A(6,5,23)             108.1234         estimate D2E/DX2                !
 ! A19   A(6,5,27)             113.0824         estimate D2E/DX2                !
 ! A20   A(23,5,27)            110.2558         estimate D2E/DX2                !
 ! A21   A(5,6,7)              112.9723         estimate D2E/DX2                !
 ! A22   A(5,6,21)             118.1791         estimate D2E/DX2                !
 ! A23   A(5,6,28)             114.1589         estimate D2E/DX2                !
 ! A24   A(7,6,21)             105.1184         estimate D2E/DX2                !
 ! A25   A(7,6,28)             101.9936         estimate D2E/DX2                !
 ! A26   A(21,6,28)            102.6189         estimate D2E/DX2                !
 ! A27   A(6,7,8)              121.0603         estimate D2E/DX2                !
 ! A28   A(2,8,7)              112.2307         estimate D2E/DX2                !
 ! A29   A(2,8,9)              113.3787         estimate D2E/DX2                !
 ! A30   A(2,8,29)             111.042          estimate D2E/DX2                !
 ! A31   A(7,8,9)              108.9607         estimate D2E/DX2                !
 ! A32   A(7,8,29)              99.2847         estimate D2E/DX2                !
 ! A33   A(9,8,29)             111.0824         estimate D2E/DX2                !
 ! A34   A(8,9,10)             109.074          estimate D2E/DX2                !
 ! A35   A(8,9,30)             112.4478         estimate D2E/DX2                !
 ! A36   A(8,9,31)             112.6513         estimate D2E/DX2                !
 ! A37   A(10,9,30)            104.6338         estimate D2E/DX2                !
 ! A38   A(10,9,31)            108.4679         estimate D2E/DX2                !
 ! A39   A(30,9,31)            109.1905         estimate D2E/DX2                !
 ! A40   A(9,10,32)            108.7711         estimate D2E/DX2                !
 ! A41   A(12,11,42)           108.8575         estimate D2E/DX2                !
 ! A42   A(11,12,13)           108.6413         estimate D2E/DX2                !
 ! A43   A(11,12,17)           104.4119         estimate D2E/DX2                !
 ! A44   A(11,12,33)           108.8734         estimate D2E/DX2                !
 ! A45   A(13,12,17)           111.6939         estimate D2E/DX2                !
 ! A46   A(13,12,33)           110.8343         estimate D2E/DX2                !
 ! A47   A(17,12,33)           112.1033         estimate D2E/DX2                !
 ! A48   A(12,13,14)           112.472          estimate D2E/DX2                !
 ! A49   A(12,13,22)           102.4747         estimate D2E/DX2                !
 ! A50   A(12,13,34)           111.6143         estimate D2E/DX2                !
 ! A51   A(14,13,22)           109.6559         estimate D2E/DX2                !
 ! A52   A(14,13,34)           110.1823         estimate D2E/DX2                !
 ! A53   A(22,13,34)           110.191          estimate D2E/DX2                !
 ! A54   A(13,14,15)           114.8481         estimate D2E/DX2                !
 ! A55   A(13,14,21)           103.4761         estimate D2E/DX2                !
 ! A56   A(13,14,35)           110.4993         estimate D2E/DX2                !
 ! A57   A(15,14,21)           105.0852         estimate D2E/DX2                !
 ! A58   A(15,14,35)           111.346          estimate D2E/DX2                !
 ! A59   A(21,14,35)           111.171          estimate D2E/DX2                !
 ! A60   A(14,15,16)           115.4777         estimate D2E/DX2                !
 ! A61   A(14,15,20)           108.3424         estimate D2E/DX2                !
 ! A62   A(14,15,36)           113.1159         estimate D2E/DX2                !
 ! A63   A(16,15,20)           101.6203         estimate D2E/DX2                !
 ! A64   A(16,15,36)           110.4778         estimate D2E/DX2                !
 ! A65   A(20,15,36)           106.79           estimate D2E/DX2                !
 ! A66   A(15,16,17)           117.1662         estimate D2E/DX2                !
 ! A67   A(12,17,16)           108.2233         estimate D2E/DX2                !
 ! A68   A(12,17,18)           113.2998         estimate D2E/DX2                !
 ! A69   A(12,17,37)           111.3272         estimate D2E/DX2                !
 ! A70   A(16,17,18)           102.9613         estimate D2E/DX2                !
 ! A71   A(16,17,37)           108.5017         estimate D2E/DX2                !
 ! A72   A(18,17,37)           112.025          estimate D2E/DX2                !
 ! A73   A(17,18,19)           112.4458         estimate D2E/DX2                !
 ! A74   A(17,18,38)           110.6829         estimate D2E/DX2                !
 ! A75   A(17,18,39)           110.9724         estimate D2E/DX2                !
 ! A76   A(19,18,38)           103.5026         estimate D2E/DX2                !
 ! A77   A(19,18,39)           109.2762         estimate D2E/DX2                !
 ! A78   A(38,18,39)           109.6987         estimate D2E/DX2                !
 ! A79   A(18,19,40)           110.367          estimate D2E/DX2                !
 ! A80   A(15,20,44)           110.361          estimate D2E/DX2                !
 ! A81   A(6,21,14)            122.2458         estimate D2E/DX2                !
 ! A82   A(13,22,41)           110.9098         estimate D2E/DX2                !
 ! A83   A(5,23,43)            109.6185         estimate D2E/DX2                !
 ! D1    D(45,1,2,3)           -46.7431         estimate D2E/DX2                !
 ! D2    D(45,1,2,8)          -167.3168         estimate D2E/DX2                !
 ! D3    D(45,1,2,24)           73.1255         estimate D2E/DX2                !
 ! D4    D(1,2,3,4)             47.6974         estimate D2E/DX2                !
 ! D5    D(1,2,3,5)            -69.6074         estimate D2E/DX2                !
 ! D6    D(1,2,3,25)           165.3109         estimate D2E/DX2                !
 ! D7    D(8,2,3,4)            165.1511         estimate D2E/DX2                !
 ! D8    D(8,2,3,5)             47.8463         estimate D2E/DX2                !
 ! D9    D(8,2,3,25)           -77.2354         estimate D2E/DX2                !
 ! D10   D(24,2,3,4)           -70.349          estimate D2E/DX2                !
 ! D11   D(24,2,3,5)           172.3462         estimate D2E/DX2                !
 ! D12   D(24,2,3,25)           47.2645         estimate D2E/DX2                !
 ! D13   D(1,2,8,7)            123.9412         estimate D2E/DX2                !
 ! D14   D(1,2,8,9)             -0.052          estimate D2E/DX2                !
 ! D15   D(1,2,8,29)          -125.939          estimate D2E/DX2                !
 ! D16   D(3,2,8,7)              4.8465         estimate D2E/DX2                !
 ! D17   D(3,2,8,9)           -119.1467         estimate D2E/DX2                !
 ! D18   D(3,2,8,29)           114.9663         estimate D2E/DX2                !
 ! D19   D(24,2,8,7)          -119.0895         estimate D2E/DX2                !
 ! D20   D(24,2,8,9)           116.9173         estimate D2E/DX2                !
 ! D21   D(24,2,8,29)           -8.9697         estimate D2E/DX2                !
 ! D22   D(2,3,4,26)          -169.961          estimate D2E/DX2                !
 ! D23   D(5,3,4,26)           -52.4698         estimate D2E/DX2                !
 ! D24   D(25,3,4,26)           69.6266         estimate D2E/DX2                !
 ! D25   D(2,3,5,6)            -62.3082         estimate D2E/DX2                !
 ! D26   D(2,3,5,23)          -178.1403         estimate D2E/DX2                !
 ! D27   D(2,3,5,27)            62.8392         estimate D2E/DX2                !
 ! D28   D(4,3,5,6)           -175.69           estimate D2E/DX2                !
 ! D29   D(4,3,5,23)            68.4779         estimate D2E/DX2                !
 ! D30   D(4,3,5,27)           -50.5427         estimate D2E/DX2                !
 ! D31   D(25,3,5,6)            63.6886         estimate D2E/DX2                !
 ! D32   D(25,3,5,23)          -52.1435         estimate D2E/DX2                !
 ! D33   D(25,3,5,27)         -171.1641         estimate D2E/DX2                !
 ! D34   D(3,5,6,7)             21.9387         estimate D2E/DX2                !
 ! D35   D(3,5,6,21)           145.2007         estimate D2E/DX2                !
 ! D36   D(3,5,6,28)           -94.0065         estimate D2E/DX2                !
 ! D37   D(23,5,6,7)           135.8324         estimate D2E/DX2                !
 ! D38   D(23,5,6,21)         -100.9057         estimate D2E/DX2                !
 ! D39   D(23,5,6,28)           19.8871         estimate D2E/DX2                !
 ! D40   D(27,5,6,7)          -101.7916         estimate D2E/DX2                !
 ! D41   D(27,5,6,21)           21.4704         estimate D2E/DX2                !
 ! D42   D(27,5,6,28)          142.2632         estimate D2E/DX2                !
 ! D43   D(3,5,23,43)         -147.8529         estimate D2E/DX2                !
 ! D44   D(6,5,23,43)           95.5297         estimate D2E/DX2                !
 ! D45   D(27,5,23,43)         -28.5607         estimate D2E/DX2                !
 ! D46   D(5,6,7,8)             35.1917         estimate D2E/DX2                !
 ! D47   D(21,6,7,8)           -95.0355         estimate D2E/DX2                !
 ! D48   D(28,6,7,8)           158.1819         estimate D2E/DX2                !
 ! D49   D(5,6,21,14)           -7.8594         estimate D2E/DX2                !
 ! D50   D(7,6,21,14)          119.2525         estimate D2E/DX2                !
 ! D51   D(28,6,21,14)        -134.4238         estimate D2E/DX2                !
 ! D52   D(6,7,8,2)            -50.0793         estimate D2E/DX2                !
 ! D53   D(6,7,8,9)             76.3396         estimate D2E/DX2                !
 ! D54   D(6,7,8,29)          -167.4568         estimate D2E/DX2                !
 ! D55   D(2,8,9,10)           164.2096         estimate D2E/DX2                !
 ! D56   D(2,8,9,30)           -80.1903         estimate D2E/DX2                !
 ! D57   D(2,8,9,31)            43.7131         estimate D2E/DX2                !
 ! D58   D(7,8,9,10)            38.4529         estimate D2E/DX2                !
 ! D59   D(7,8,9,30)           154.053          estimate D2E/DX2                !
 ! D60   D(7,8,9,31)           -82.0435         estimate D2E/DX2                !
 ! D61   D(29,8,9,10)          -69.9249         estimate D2E/DX2                !
 ! D62   D(29,8,9,30)           45.6752         estimate D2E/DX2                !
 ! D63   D(29,8,9,31)          169.5786         estimate D2E/DX2                !
 ! D64   D(8,9,10,32)          -37.4977         estimate D2E/DX2                !
 ! D65   D(30,9,10,32)        -158.0187         estimate D2E/DX2                !
 ! D66   D(31,9,10,32)          85.5336         estimate D2E/DX2                !
 ! D67   D(42,11,12,13)         60.8363         estimate D2E/DX2                !
 ! D68   D(42,11,12,17)       -179.8574         estimate D2E/DX2                !
 ! D69   D(42,11,12,33)        -59.9613         estimate D2E/DX2                !
 ! D70   D(11,12,13,14)        164.1228         estimate D2E/DX2                !
 ! D71   D(11,12,13,22)        -78.2107         estimate D2E/DX2                !
 ! D72   D(11,12,13,34)         39.6866         estimate D2E/DX2                !
 ! D73   D(17,12,13,14)         49.484          estimate D2E/DX2                !
 ! D74   D(17,12,13,22)        167.1505         estimate D2E/DX2                !
 ! D75   D(17,12,13,34)        -74.9522         estimate D2E/DX2                !
 ! D76   D(33,12,13,14)        -76.2967         estimate D2E/DX2                !
 ! D77   D(33,12,13,22)         41.3698         estimate D2E/DX2                !
 ! D78   D(33,12,13,34)        159.2671         estimate D2E/DX2                !
 ! D79   D(11,12,17,16)       -176.9735         estimate D2E/DX2                !
 ! D80   D(11,12,17,18)         69.5176         estimate D2E/DX2                !
 ! D81   D(11,12,17,37)        -57.8172         estimate D2E/DX2                !
 ! D82   D(13,12,17,16)        -59.7529         estimate D2E/DX2                !
 ! D83   D(13,12,17,18)       -173.2618         estimate D2E/DX2                !
 ! D84   D(13,12,17,37)         59.4034         estimate D2E/DX2                !
 ! D85   D(33,12,17,16)         65.3263         estimate D2E/DX2                !
 ! D86   D(33,12,17,18)        -48.1827         estimate D2E/DX2                !
 ! D87   D(33,12,17,37)       -175.5174         estimate D2E/DX2                !
 ! D88   D(12,13,14,15)        -35.3444         estimate D2E/DX2                !
 ! D89   D(12,13,14,21)       -149.2919         estimate D2E/DX2                !
 ! D90   D(12,13,14,35)         91.6249         estimate D2E/DX2                !
 ! D91   D(22,13,14,15)       -148.6708         estimate D2E/DX2                !
 ! D92   D(22,13,14,21)         97.3817         estimate D2E/DX2                !
 ! D93   D(22,13,14,35)        -21.7015         estimate D2E/DX2                !
 ! D94   D(34,13,14,15)         89.8777         estimate D2E/DX2                !
 ! D95   D(34,13,14,21)        -24.0697         estimate D2E/DX2                !
 ! D96   D(34,13,14,35)       -143.1529         estimate D2E/DX2                !
 ! D97   D(12,13,22,41)        161.1078         estimate D2E/DX2                !
 ! D98   D(14,13,22,41)        -79.2411         estimate D2E/DX2                !
 ! D99   D(34,13,22,41)         42.2051         estimate D2E/DX2                !
 ! D100  D(13,14,15,16)         32.9001         estimate D2E/DX2                !
 ! D101  D(13,14,15,20)        146.0441         estimate D2E/DX2                !
 ! D102  D(13,14,15,36)        -95.7646         estimate D2E/DX2                !
 ! D103  D(21,14,15,16)        145.9045         estimate D2E/DX2                !
 ! D104  D(21,14,15,20)       -100.9514         estimate D2E/DX2                !
 ! D105  D(21,14,15,36)         17.2398         estimate D2E/DX2                !
 ! D106  D(35,14,15,16)        -93.6357         estimate D2E/DX2                !
 ! D107  D(35,14,15,20)         19.5083         estimate D2E/DX2                !
 ! D108  D(35,14,15,36)        137.6996         estimate D2E/DX2                !
 ! D109  D(13,14,21,6)        -156.4068         estimate D2E/DX2                !
 ! D110  D(15,14,21,6)          82.7876         estimate D2E/DX2                !
 ! D111  D(35,14,21,6)         -37.7876         estimate D2E/DX2                !
 ! D112  D(14,15,16,17)        -46.4396         estimate D2E/DX2                !
 ! D113  D(20,15,16,17)       -163.4322         estimate D2E/DX2                !
 ! D114  D(36,15,16,17)         83.5138         estimate D2E/DX2                !
 ! D115  D(14,15,20,44)       -105.6135         estimate D2E/DX2                !
 ! D116  D(16,15,20,44)         16.4491         estimate D2E/DX2                !
 ! D117  D(36,15,20,44)        132.2418         estimate D2E/DX2                !
 ! D118  D(15,16,17,12)         59.2584         estimate D2E/DX2                !
 ! D119  D(15,16,17,18)        179.4632         estimate D2E/DX2                !
 ! D120  D(15,16,17,37)        -61.668          estimate D2E/DX2                !
 ! D121  D(12,17,18,19)         -9.0568         estimate D2E/DX2                !
 ! D122  D(12,17,18,38)        106.1565         estimate D2E/DX2                !
 ! D123  D(12,17,18,39)       -131.7998         estimate D2E/DX2                !
 ! D124  D(16,17,18,19)       -125.705          estimate D2E/DX2                !
 ! D125  D(16,17,18,38)        -10.4917         estimate D2E/DX2                !
 ! D126  D(16,17,18,39)        111.5521         estimate D2E/DX2                !
 ! D127  D(37,17,18,19)        117.9119         estimate D2E/DX2                !
 ! D128  D(37,17,18,38)       -126.8748         estimate D2E/DX2                !
 ! D129  D(37,17,18,39)         -4.831          estimate D2E/DX2                !
 ! D130  D(17,18,19,40)        -54.1372         estimate D2E/DX2                !
 ! D131  D(38,18,19,40)       -173.6228         estimate D2E/DX2                !
 ! D132  D(39,18,19,40)         69.555          estimate D2E/DX2                !
 --------------------------------------------------------------------------------
 Trust Radius=3.00D-01 FncErr=1.00D-07 GrdErr=1.00D-07 EigMax=2.50D+02 EigMin=1.00D-04
 Number of steps in this run=    270 maximum allowed number of steps=    270.
 GradGradGradGradGradGradGradGradGradGradGradGradGradGradGradGradGradGrad

 Leave Link  103 at Tue Jun 22 14:22:00 2021, MaxMem=  2147483648 cpu:               0.0 elap:               0.0
 (Enter /home/matma/Programs/gaussian/G16_x86_SSE4/tar/g16/l202.exe)
                          Input orientation:                          
 ---------------------------------------------------------------------
 Center     Atomic      Atomic             Coordinates (Angstroms)
 Number     Number       Type             X           Y           Z
 ---------------------------------------------------------------------
      1          8           0        1.964000    0.956000    0.206000
      2          6           0        2.445000    2.126000    0.881000
      3          6           0        3.127000    1.707000    2.203000
      4          8           0        3.988000    0.630000    1.811000
      5          6           0        2.070000    1.193000    3.204000
      6          6           0        1.086000    2.332000    3.534000
      7          8           0        1.056000    3.347000    2.536000
      8          6           0        1.213000    3.022000    1.138000
      9          6           0       -0.098000    2.419000    0.616000
     10          8           0       -1.207000    3.117000    1.212000
     11          8           0       -4.541000    0.134000    3.892000
     12          6           0       -3.173000   -0.297000    3.785000
     13          6           0       -2.314000    0.898000    3.312000
     14          6           0       -0.803000    0.665000    3.537000
     15          6           0       -0.450000   -0.131000    4.822000
     16          8           0       -1.403000   -1.124000    5.212000
     17          6           0       -2.798000   -0.738000    5.210000
     18          6           0       -3.515000   -2.029000    5.658000
     19          8           0       -4.528000   -2.433000    4.744000
     20          8           0        0.702000   -0.928000    4.554000
     21          8           0       -0.288000    1.994000    3.765000
     22          8           0       -2.589000    0.941000    1.917000
     23          8           0        2.802000    0.880000    4.391000
     24          1           0        3.178000    2.625000    0.206000
     25          1           0        3.745000    2.518000    2.648000
     26          1           0        4.348000    0.189000    2.621000
     27          1           0        1.565000    0.279000    2.809000
     28          1           0        1.352000    2.916000    4.452000
     29          1           0        1.373000    4.052000    0.730000
     30          1           0       -0.227000    2.567000   -0.472000
     31          1           0       -0.195000    1.340000    0.851000
     32          1           0       -0.975000    3.338000    2.170000
     33          1           0       -3.116000   -1.141000    3.055000
     34          1           0       -2.633000    1.851000    3.797000
     35          1           0       -0.340000    0.203000    2.633000
     36          1           0       -0.195000    0.522000    5.683000
     37          1           0       -2.936000    0.090000    5.939000
     38          1           0       -2.810000   -2.889000    5.661000
     39          1           0       -3.958000   -1.907000    6.663000
     40          1           0       -5.168000   -1.687000    4.584000
     41          1           0       -2.344000    1.852000    1.525000
     42          1           0       -4.853000    0.433000    3.001000
     43          1           0        2.369000    0.113000    4.859000
     44          1           0        0.446000   -1.882000    4.452000
     45          1           0        2.678000    0.262000    0.202000
 ---------------------------------------------------------------------
                    Distance matrix (angstroms):
                    1          2          3          4          5
     1  O    0.000000
     2  C    1.433836   0.000000
     3  C    2.429934   1.545435   0.000000
     4  O    2.603628   2.341744   1.433497   0.000000
     5  C    3.009221   2.531293   1.543841   2.436420   0.000000
     6  C    3.706730   2.987930   2.515525   3.779833   1.540934
     7  O    3.459804   2.481771   2.662617   4.062553   2.472678
     8  C    2.387673   1.544891   2.554769   3.724945   2.889299
     9  C    2.561311   2.573504   3.664169   4.617785   3.591802
    10  O    3.967014   3.798519   4.664090   5.790682   4.290521
    11  O    7.521789   7.863738   8.007826   8.793203   6.730538
    12  C    6.384984   6.772449   6.797701   7.485715   5.481488
    13  C    5.286954   5.483231   5.611492   6.483828   4.395241
    14  C    4.340107   4.442788   4.279044   5.092542   2.940034
    15  C    5.321318   5.385773   4.799201   5.416741   3.274340
    16  O    6.381467   6.642828   6.131031   6.611066   4.632740
    17  C    7.112404   7.377790   7.079950   7.711966   5.608050
    18  C    8.285769   8.695134   8.367251   8.841080   6.898958
    19  O    8.615383   9.183136   9.066163   9.513502   7.684600
    20  O    4.903795   5.084869   4.283813   4.555130   2.862266
    21  O    4.337676   3.975446   3.766223   4.895180   2.552741
    22  O    4.863903   5.274341   5.774185   6.585202   4.840057
    23  O    4.268752   3.741666   2.361546   2.850526   1.429252
    24  H    2.063821   1.114412   2.198484   2.685545   3.502327
    25  H    3.402230   2.228442   1.112506   2.079462   2.206895
    26  H    3.479076   3.225055   1.992458   0.990041   2.556793
    27  H    2.719033   2.811226   2.201423   2.643886   1.116443
    28  H    4.716424   3.817170   3.109712   4.375977   2.245386
    29  H    3.195164   2.209403   3.277998   4.440368   3.844524
    30  H    2.802764   3.027321   4.375448   5.170134   4.547204
    31  H    2.285774   2.754686   3.605312   4.350079   3.269318
    32  H    4.262504   3.850567   4.414482   5.665114   3.865515
    33  H    6.190364   6.806195   6.914626   7.426358   5.688968
    34  H    5.901586   5.862147   5.978225   7.019450   4.785689
    35  H    3.430124   3.810992   3.803552   4.426014   2.667253
    36  H    5.903149   5.709783   4.954827   5.701012   3.424311
    37  H    7.591261   7.660537   7.302900   8.079218   5.810066
    38  H    8.205616   8.695611   8.266133   8.568469   6.820115
    39  H    9.217359   9.523393   9.118652   9.649725   7.609958
    40  H    8.775976   9.284877   9.273372   9.843290   7.911223
    41  H    4.593630   4.839869   5.514757   6.455177   4.768303
    42  H    7.386274   7.785978   8.120362   8.922903   6.967549
    43  H    4.746060   4.458972   3.189002   3.489807   1.998706
    44  H    5.327953   5.728185   5.012652   5.082400   3.694659
    45  H    0.995715   1.997455   2.508710   2.107227   3.201317
                    6          7          8          9         10
     6  C    0.000000
     7  O    1.423773   0.000000
     8  C    2.496607   1.443841   0.000000
     9  C    3.150262   2.424727   1.534540   0.000000
    10  O    3.356450   2.631928   2.422994   1.439549   0.000000
    11  O    6.051652   6.594582   7.002398   5.974416   5.215002
    12  C    5.011359   5.720418   6.104045   5.184095   4.705410
    13  C    3.696707   4.237532   4.655897   3.806903   3.249525
    14  C    2.519369   3.413357   3.921085   3.479336   3.403108
    15  C    3.175627   4.426095   5.126289   4.931211   4.914738
    16  O    4.577635   5.761727   6.374186   5.948032   5.833052
    17  C    5.226790   6.220194   6.841557   6.193665   5.777223
    18  C    6.685723   7.716366   8.264199   7.542039   7.181580
    19  O    7.462327   8.334550   8.701686   7.759329   7.369299
    20  O    3.437362   4.740598   5.247159   5.229747   5.583482
    21  O    1.433695   2.268785   3.195452   3.183226   2.936579
    22  O    4.249141   4.411125   4.403704   3.175243   2.672438
    23  O    2.405703   3.546213   4.206554   5.002914   5.584111
    24  H    3.941814   3.233120   2.210760   3.307977   4.525740
    25  H    2.808892   2.816115   2.990843   4.348273   5.190684
    26  H    4.008324   4.562615   4.478103   5.362820   6.435564
    27  H    2.229322   3.121896   3.231129   3.486319   4.276522
    28  H    1.120061   1.986060   3.318607   4.130908   4.133580
    29  H    3.301997   1.964472   1.119359   2.200801   2.786207
    30  H    4.222230   3.361927   2.207425   1.105572   2.024538
    31  H    3.134249   2.903838   2.212229   1.108546   2.076582
    32  H    2.668380   2.063734   2.439718   2.007139   1.010163
    33  H    5.472474   6.149560   6.304419   5.265989   5.017120
    34  H    3.759188   4.175746   4.820087   4.107020   3.212236
    35  H    2.716232   3.441360   3.548746   3.006245   3.355939
    36  H    3.087922   4.410129   5.374894   5.411331   5.267638
    37  H    5.194908   6.174506   6.990023   6.466283   5.873389
    38  H    6.852867   7.974915   8.460613   7.809087   7.644295
    39  H    7.293949   8.353253   9.031052   8.377355   7.907084
    40  H    7.507821   8.262786   8.646777   7.636043   7.080842
    41  H    4.003921   3.849305   3.764428   2.488430   1.729440
    42  H    6.257956   6.604839   6.853470   5.678243   4.868028
    43  H    2.885425   4.192738   4.862557   5.422801   5.925572
    44  H    4.360060   5.602285   5.968258   5.788733   6.182233
    45  H    4.233390   4.194719   3.261889   3.539805   4.925886
                   11         12         13         14         15
    11  O    0.000000
    12  C    1.438275   0.000000
    13  C    2.424794   1.545844   0.000000
    14  C    3.792180   2.569795   1.545327   0.000000
    15  C    4.203737   2.918502   2.610256   1.552240   0.000000
    16  O    3.629326   2.419330   2.920343   2.523122   1.430510
    17  C    2.352776   1.538093   2.552089   2.957594   2.456033
    18  C    2.974895   2.573891   3.938711   4.371638   3.700747
    19  O    2.704730   2.705218   4.248292   4.993003   4.683521
    20  O    5.390282   4.000643   3.738060   2.415981   1.426232
    21  O    4.643677   3.684061   2.347573   1.443416   2.378890
    22  O    2.891743   2.315842   1.422497   2.427009   3.763447
    23  O    7.397646   6.119901   5.228577   3.711006   3.432694
    24  H    8.909245   7.853822   6.541546   5.548470   6.485783
    25  H    8.711417   7.554847   6.306883   4.990815   5.416780
    26  H    8.979576   7.626043   6.735162   5.253421   5.288441
    27  H    6.202995   4.871652   3.960153   2.507270   2.877585
    28  H    6.540686   5.589623   4.337220   3.247807   3.559257
    29  H    7.766876   6.993779   5.496218   4.907748   6.129052
    30  H    6.601105   5.916372   4.632471   4.474535   5.946038
    31  H    5.439654   4.489611   3.277506   2.835469   4.242370
    32  H    5.093845   4.544519   3.008436   3.007192   4.398033
    33  H    2.087299   1.117356   2.206077   2.973874   3.354094
    34  H    2.568575   2.214870   1.115883   2.196155   3.121608
    35  H    4.386142   3.098870   2.200169   1.115809   2.217065
    36  H    4.716560   3.625141   3.202058   2.235046   1.110295
    37  H    2.601571   2.201285   2.817956   3.263421   2.734360
    38  H    3.906949   3.220188   4.483881   4.601124   3.725599
    39  H    3.490560   3.389869   4.669043   5.132357   4.341604
    40  H    2.046469   2.559400   4.055308   5.067676   4.973661
    41  H    3.658008   3.226925   2.025928   2.798534   4.288325
    42  H    0.990266   1.992475   2.599897   4.091897   4.797973
    43  H    6.977366   5.659977   4.993989   3.480513   2.829782
    44  H    5.408144   4.006779   4.079902   2.980677   2.001429
    45  H    8.108418   6.883645   5.915797   4.837561   5.593142
                   16         17         18         19         20
    16  O    0.000000
    17  C    1.447420   0.000000
    18  C    2.340616   1.543203   0.000000
    19  O    3.420253   2.466390   1.422948   0.000000
    20  O    2.214138   3.566011   4.496010   5.445551   0.000000
    21  O    3.613718   3.981451   5.493770   6.207606   3.184447
    22  O    4.065445   3.702239   4.865538   4.809940   4.612766
    23  O    4.729914   5.886313   7.069092   8.051675   2.775866
    24  H    7.752458   8.488955   9.807154  10.274203   6.136733
    25  H    6.807361   7.744432   9.079808   9.866516   4.976706
    26  H    6.442923   7.656864   8.716058   9.495546   4.275219
    27  H    4.068396   5.082800   6.264987   6.944337   2.290555
    28  H    4.948659   5.581109   7.042382   7.954336   3.899903
    29  H    7.388198   7.772499   9.228017   9.643092   6.314556
    30  H    6.878540   7.058200   8.337329   8.408642   6.191829
    31  H    5.152561   5.485852   6.743872   6.940163   4.434032
    32  H    5.417231   5.401732   6.886395   7.249395   5.166676
    33  H    2.754507   2.215301   2.779092   2.552593   4.107249
    34  H    3.516497   2.954101   4.392681   4.779173   4.406599
    35  H    3.089035   3.683500   4.920678   5.379978   2.460725
    36  H    2.095333   2.930348   4.186959   5.328099   2.044933
    37  H    2.086244   1.111786   2.214580   3.213723   4.023629
    38  H    2.301407   2.197805   1.112040   2.000087   4.171944
    39  H    3.040808   2.196217   1.105060   2.069816   5.207871
    40  H    3.858313   2.628569   2.000712   0.995849   5.918943
    41  H    4.830738   4.526968   5.789222   5.787317   5.116772
    42  H    4.383523   3.236348   3.861520   3.370108   5.926395
    43  H    3.985318   5.248361   6.312529   7.352819   1.988868
    44  H    2.137982   3.522334   4.143135   5.012937   0.993004
    45  H    6.608756   7.487766   8.565621   8.934161   4.925503
                   21         22         23         24         25
    21  O    0.000000
    22  O    3.133451   0.000000
    23  O    3.343796   5.931887   0.000000
    24  H    5.007774   6.246732   4.549794   0.000000
    25  H    4.217506   6.568169   2.571059   2.509243   0.000000
    26  H    5.104827   7.013066   2.449591   3.624255   2.405947
    27  H    2.699772   4.299956   2.096209   3.857602   3.129128
    28  H    2.002911   5.085109   2.500303   4.631142   3.023122
    29  H    4.025607   5.175397   5.050401   2.359858   3.414420
    30  H    4.276005   3.732324   5.972401   3.472330   5.051097
    31  H    2.987936   2.650810   4.661031   3.666658   4.487816
    32  H    2.195980   2.900795   5.023976   4.648986   4.814487
    33  H    4.281344   2.430534   6.394690   7.868545   7.786350
    34  H    2.349574   2.089123   5.552918   6.874742   6.514904
    35  H    2.119389   2.472913   3.663476   4.912508   4.695389
    36  H    2.419537   4.482137   3.283205   6.767368   5.358996
    37  H    3.919617   4.125663   5.995419   8.756398   7.833366
    38  H    5.813690   5.360530   6.878430   9.798845   9.015644
    39  H    6.089754   5.701735   7.656824  10.637404   9.748695
    40  H    6.167246   4.546484   8.375419  10.364166  10.043490
    41  H    3.043830   1.021572   5.969929   5.729727   6.227408
    42  H    4.884633   2.561019   7.793005   8.781449   8.854233
    43  H    3.434333   5.824321   0.997398   5.349302   3.544844
    44  H    4.004260   4.858681   3.630854   6.767968   5.787730
    45  H    4.948934   5.580641   4.236156   2.415323   3.494416
                   26         27         28         29         30
    26  H    0.000000
    27  H    2.790794   0.000000
    28  H    4.445796   3.114255   0.000000
    29  H    5.229653   4.312150   3.891558   0.000000
    30  H    6.012666   4.383055   5.182742   2.491993   0.000000
    31  H    5.009646   2.838500   4.224238   3.134997   1.804683
    32  H    6.201123   4.027084   3.286417   2.845435   2.852036
    33  H    7.593981   4.897824   6.194666   7.247344   5.876675
    34  H    7.271835   4.590265   4.176539   5.504446   4.952358
    35  H    4.688036   1.914622   3.678586   4.622832   3.904138
    36  H    5.488678   3.378835   3.104804   6.281061   6.485914
    37  H    8.004722   5.485583   5.346437   7.835726   7.387498
    38  H    8.363770   6.108253   7.244443   9.486292   8.605435
    39  H    9.472097   7.080638   7.506394   9.956391   9.211149
    40  H    9.895807   7.235266   7.982195   9.517044   8.250644
    41  H    6.982095   4.404914   4.833202   4.391824   2.996819
    42  H    9.212076   6.422718   6.839058   7.551005   6.165676
    43  H    2.988455   2.208274   3.009443   5.792787   6.417234
    44  H    4.781967   2.936244   4.882790   7.065760   6.670255
    45  H    2.940372   2.834697   5.183097   4.043007   3.769128
                   31         32         33         34         35
    31  H    0.000000
    32  H    2.517968   0.000000
    33  H    4.420997   5.042673   0.000000
    34  H    3.857963   2.758127   3.120243   0.000000
    35  H    2.118801   3.231999   3.112972   3.054284   0.000000
    36  H    4.900750   4.569401   4.266637   3.356647   3.070063
    37  H    5.912979   5.347933   3.140894   2.789461   4.204952
    38  H    6.918003   7.370877   3.152836   5.096413   4.982986
    39  H    7.647387   7.522989   3.783303   4.908375   5.812308
    40  H    6.915833   6.975620   2.616613   4.423012   5.539683
    41  H    2.309680   2.120939   3.448903   2.290307   2.821858
    42  H    5.209809   4.916144   2.344688   2.751861   4.533817
    43  H    4.913623   5.367838   5.908651   5.400786   3.507400
    44  H    4.874358   5.871556   3.897247   4.883089   2.876418
    45  H    3.136465   5.165192   6.608968   6.607244   3.875767
                   36         37         38         39         40
    36  H    0.000000
    37  H    2.786618   0.000000
    38  H    4.298096   2.994595   0.000000
    39  H    4.584824   2.357259   1.812797   0.000000
    40  H    5.551415   3.158414   2.857428   2.415521   0.000000
    41  H    4.865806   4.789416   6.308782   6.567657   5.464154
    42  H    5.375687   3.524824   4.720713   4.436989   2.664491
    43  H    2.724032   5.413867   6.039640   6.882278   7.753837
    44  H    2.775871   4.187825   3.616250   4.927917   5.618936
    45  H    6.193794   8.028683   8.357489   9.512391   9.195664
                   41         42         43         44         45
    41  H    0.000000
    42  H    3.238397   0.000000
    43  H    6.029266   7.464037   0.000000
    44  H    5.504015   5.961881   2.800643   0.000000
    45  H    5.431290   8.036144   4.669618   5.257477   0.000000
 Stoichiometry    C12H22O11
 Framework group  C1[X(C12H22O11)]
 Deg. of freedom   129
 Full point group                 C1      NOp   1
 Largest Abelian subgroup         C1      NOp   1
 Largest concise Abelian subgroup C1      NOp   1
                         Standard orientation:                         
 ---------------------------------------------------------------------
 Center     Atomic      Atomic             Coordinates (Angstroms)
 Number     Number       Type             X           Y           Z
 ---------------------------------------------------------------------
      1          8           0       -3.131548    0.528111    1.937451
      2          6           0       -3.733751    0.459881    0.637996
      3          6           0       -3.566967   -0.969204    0.073841
      4          8           0       -3.973925   -1.809993    1.161211
      5          6           0       -2.084383   -1.234592   -0.265214
      6          6           0       -1.629303   -0.250838   -1.360479
      7          8           0       -2.440507    0.917156   -1.430241
      8          6           0       -3.006075    1.503619   -0.238238
      9          6           0       -1.906564    2.267723    0.511452
     10          8           0       -1.056169    2.927029   -0.444815
     11          8           0        3.994558    1.653501   -0.190789
     12          6           0        3.023596    0.687047    0.247198
     13          6           0        1.633010    1.110392   -0.278811
     14          6           0        0.599775   -0.036422   -0.206158
     15          6           0        1.175678   -1.451585   -0.480198
     16          8           0        2.523616   -1.661375   -0.049606
     17          6           0        3.490490   -0.636707   -0.381623
     18          6           0        4.796056   -1.179285    0.236906
     19          8           0        5.409793   -0.244555    1.116900
     20          8           0        0.466770   -2.388870    0.327938
     21          8           0       -0.280308    0.232793   -1.318106
     22          8           0        1.264244    2.144684    0.625485
     23          8           0       -2.057983   -2.554070   -0.813887
     24          1           0       -4.813734    0.708386    0.755457
     25          1           0       -4.224208   -1.169278   -0.801187
     26          1           0       -3.747674   -2.750135    0.948781
     27          1           0       -1.454921   -1.186211    0.655592
     28          1           0       -1.712024   -0.654225   -2.402099
     29          1           0       -3.734881    2.208725   -0.712191
     30          1           0       -2.311341    3.085459    1.135754
     31          1           0       -1.279342    1.604974    1.140921
     32          1           0       -0.942827    2.325284   -1.248237
     33          1           0        3.031021    0.647743    1.363838
     34          1           0        1.691332    1.510733   -1.318772
     35          1           0        0.046916   -0.003488    0.762496
     36          1           0        1.049523   -1.776931   -1.534233
     37          1           0        3.554937   -0.557885   -1.488738
     38          1           0        4.586838   -2.053512    0.891574
     39          1           0        5.516695   -1.467104   -0.549858
     40          1           0        5.549618    0.626385    0.654701
     41          1           0        0.523056    2.726676    0.231105
     42          1           0        3.755649    2.539039    0.182536
     43          1           0       -1.193682   -2.995324   -0.583494
     44          1           0        1.031828   -2.686308    1.088396
     45          1           0       -3.420483   -0.258453    2.475300
 ---------------------------------------------------------------------
 Rotational constants (GHZ):           0.4647689           0.1650613           0.1388590
 Leave Link  202 at Tue Jun 22 14:22:00 2021, MaxMem=  2147483648 cpu:               0.0 elap:               0.0
 (Enter /home/matma/Programs/gaussian/G16_x86_SSE4/tar/g16/l301.exe)
 Standard basis: VSTO-6G (5D, 7F)
 Ernie: Thresh=  0.10000D-02 Tol=  0.10000D-05 Strict=F.
  NNHCO=     0 NNPyr=     0 NCTC=     0               EPep=         0.000000000
    EC=      1207.601979763  ECS=         9.023248135   EG=         0.733718579
   EHC=         0.002709927  EAt=      -175.965002454  AtH=         6.138669069
 EPDDG=         0.000000000  ECC=      1217.361656405 EAtT=       182.103671523
 There are   114 symmetry adapted cartesian basis functions of A   symmetry.
 There are   114 symmetry adapted basis functions of A   symmetry.
   114 basis functions,   684 primitive gaussians,   114 cartesian basis functions
    68 alpha electrons       68 beta electrons
       nuclear repulsion energy      1399.4653279280 Hartrees.
 IExCor=    0 DFT=F Ex=HF Corr=None ExCW=0 ScaHFX=  1.000000
 ScaDFX=  1.000000  1.000000  1.000000  1.000000 ScalE2=  1.000000  1.000000
 IRadAn=  99590 IRanWt=     -1 IRanGd=            0 ICorTp=0 IEmpDi=  4
 Integral buffers will be    131072 words long.
 Regular integral format.
 Two-electron integral symmetry is turned off.
 Leave Link  301 at Tue Jun 22 14:22:00 2021, MaxMem=  2147483648 cpu:               0.2 elap:               0.0
 (Enter /home/matma/Programs/gaussian/G16_x86_SSE4/tar/g16/l302.exe)
 Do NDO integrals.
 NPDir=0 NMtPBC=     1 NCelOv=     1 NCel=       1 NClECP=     1 NCelD=      1
         NCelK=      1 NCelE2=     1 NClLst=     1 CellRange=     0.0.
 One-electron integrals computed using PRISM.
 NBasis=   114 RedAO= F EigKep=  0.00D+00  NBF=   114
 NBsUse=   114 1.00D-04 EigRej=  0.00D+00 NBFU=   114
 Leave Link  302 at Tue Jun 22 14:22:00 2021, MaxMem=  2147483648 cpu:               0.6 elap:               0.1
 (Enter /home/matma/Programs/gaussian/G16_x86_SSE4/tar/g16/l303.exe)
 DipDrv:  MaxL=1.
 Leave Link  303 at Tue Jun 22 14:22:00 2021, MaxMem=  2147483648 cpu:               0.1 elap:               0.0
 (Enter /home/matma/Programs/gaussian/G16_x86_SSE4/tar/g16/l401.exe)
 Simple Huckel Guess.
 JPrj=0 DoOrth=F DoCkMO=F.
 Leave Link  401 at Tue Jun 22 14:22:00 2021, MaxMem=  2147483648 cpu:               0.3 elap:               0.0
 (Enter /home/matma/Programs/gaussian/G16_x86_SSE4/tar/g16/l502.exe)
 Keep J ints in memory in canonical form, NReq=892272.
 FoFCou: FMM=F IPFlag=           0 FMFlag=           0 FMFlg1=           0
         NFxFlg=           0 DoJE=F BraDBF=F KetDBF=F FulRan=T
         wScrn=  0.000000 ICntrl=       600 IOpCl=  2 I1Cent=           0 NGrid=           0
         NMat0=    1 NMatS0=    252 NMatT0=    0 NMatD0=    1 NMtDS0=    0 NMtDT0=    0
 Symmetry not used in FoFCou.
 Two-electron integral symmetry not used.
 Closed shell SCF:
 Using DIIS extrapolation, IDIIS=  1040.
 Overlap will be assumed to be unity.
 NGot=  2147483648 LenX=  2147363403 LenY=  2147349966
 Requested convergence on RMS density matrix=1.00D-08 within 128 cycles.
 Requested convergence on MAX density matrix=1.00D-06.
 Requested convergence on             energy=1.00D-06.
 No special actions if energy rises.

 Cycle   1  Pass 1  IDiag  1:
 E= 0.460103295909676    
 DIIS: error= 5.66D-02 at cycle   1 NSaved=   1.
 NSaved= 1 IEnMin= 1 EnMin= 0.460103295909676     IErMin= 1 ErrMin= 5.66D-02
 ErrMax= 5.66D-02  0.00D+00 EMaxC= 1.00D-01 BMatC= 3.24D-01 BMatP= 3.24D-01
 IDIUse=3 WtCom= 4.34D-01 WtEn= 5.66D-01
 Coeff-Com:  0.100D+01
 Coeff-En:   0.100D+01
 Coeff:      0.100D+01
 GapD=    2.000 DampG=2.000 DampE=0.500 DampFc=1.0000 IDamp=-1.
 RMSDP=8.28D-03 MaxDP=1.26D-01              OVMax= 0.00D+00

 Cycle   2  Pass 1  IDiag  1:
 E=-0.557655463787569     Delta-E=       -1.017758759697 Rises=F Damp=F
 DIIS: error= 1.68D-02 at cycle   2 NSaved=   2.
 NSaved= 2 IEnMin= 2 EnMin=-0.557655463787569     IErMin= 2 ErrMin= 1.68D-02
 ErrMax= 1.68D-02  0.00D+00 EMaxC= 1.00D-01 BMatC= 4.60D-02 BMatP= 3.24D-01
 IDIUse=3 WtCom= 8.32D-01 WtEn= 1.68D-01
 Coeff-Com: -0.435D+00 0.144D+01
 Coeff-En:   0.000D+00 0.100D+01
 Coeff:     -0.362D+00 0.136D+01
 RMSDP=4.77D-03 MaxDP=5.66D-02 DE=-1.02D+00 OVMax= 0.00D+00

 Cycle   3  Pass 1  IDiag  3:
 E=-0.763255467180215     Delta-E=       -0.205600003393 Rises=F Damp=F
 DIIS: error= 5.42D-03 at cycle   3 NSaved=   3.
 NSaved= 3 IEnMin= 3 EnMin=-0.763255467180215     IErMin= 3 ErrMin= 5.42D-03
 ErrMax= 5.42D-03  0.00D+00 EMaxC= 1.00D-01 BMatC= 4.59D-03 BMatP= 4.60D-02
 IDIUse=3 WtCom= 9.46D-01 WtEn= 5.42D-02
 Coeff-Com:  0.270D+00-0.107D+01 0.180D+01
 Coeff-En:   0.000D+00 0.000D+00 0.100D+01
 Coeff:      0.256D+00-0.102D+01 0.176D+01
 Gap=     0.405 Goal=   None    Shift=    0.000
 RMSDP=2.40D-03 MaxDP=3.93D-02 DE=-2.06D-01 OVMax= 2.55D-02

 Cycle   4  Pass 1  IDiag  3:
 E=-0.793679453650157     Delta-E=       -0.030423986470 Rises=F Damp=F
 DIIS: error= 1.05D-03 at cycle   4 NSaved=   4.
 NSaved= 4 IEnMin= 4 EnMin=-0.793679453650157     IErMin= 4 ErrMin= 1.05D-03
 ErrMax= 1.05D-03  0.00D+00 EMaxC= 1.00D-01 BMatC= 2.01D-04 BMatP= 4.59D-03
 IDIUse=3 WtCom= 9.90D-01 WtEn= 1.05D-02
 Coeff-Com: -0.573D-01 0.249D+00-0.613D+00 0.142D+01
 Coeff-En:   0.000D+00 0.000D+00 0.000D+00 0.100D+01
 Coeff:     -0.567D-01 0.246D+00-0.607D+00 0.142D+01
 Gap=     0.403 Goal=   None    Shift=    0.000
 RMSDP=5.71D-04 MaxDP=1.02D-02 DE=-3.04D-02 OVMax= 6.77D-03

 Cycle   5  Pass 1  IDiag  3:
 E=-0.795093062291244     Delta-E=       -0.001413608641 Rises=F Damp=F
 DIIS: error= 2.13D-04 at cycle   5 NSaved=   5.
 NSaved= 5 IEnMin= 5 EnMin=-0.795093062291244     IErMin= 5 ErrMin= 2.13D-04
 ErrMax= 2.13D-04  0.00D+00 EMaxC= 1.00D-01 BMatC= 9.23D-06 BMatP= 2.01D-04
 IDIUse=3 WtCom= 9.98D-01 WtEn= 2.13D-03
 Coeff-Com:  0.863D-03-0.405D-02 0.578D-01-0.368D+00 0.131D+01
 Coeff-En:   0.000D+00 0.000D+00 0.000D+00 0.000D+00 0.100D+01
 Coeff:      0.861D-03-0.404D-02 0.577D-01-0.367D+00 0.131D+01
 Gap=     0.404 Goal=   None    Shift=    0.000
 RMSDP=9.73D-05 MaxDP=1.30D-03 DE=-1.41D-03 OVMax= 1.59D-03

 Cycle   6  Pass 1  IDiag  3:
 E=-0.795147677637488     Delta-E=       -0.000054615346 Rises=F Damp=F
 DIIS: error= 1.09D-04 at cycle   6 NSaved=   6.
 NSaved= 6 IEnMin= 6 EnMin=-0.795147677637488     IErMin= 6 ErrMin= 1.09D-04
 ErrMax= 1.09D-04  0.00D+00 EMaxC= 1.00D-01 BMatC= 6.94D-07 BMatP= 9.23D-06
 IDIUse=3 WtCom= 9.99D-01 WtEn= 1.09D-03
 Coeff-Com:  0.287D-02-0.123D-01 0.832D-02 0.823D-01-0.585D+00 0.150D+01
 Coeff-En:   0.000D+00 0.000D+00 0.000D+00 0.000D+00 0.000D+00 0.100D+01
 Coeff:      0.287D-02-0.123D-01 0.831D-02 0.822D-01-0.585D+00 0.150D+01
 Gap=     0.404 Goal=   None    Shift=    0.000
 RMSDP=3.04D-05 MaxDP=5.83D-04 DE=-5.46D-05 OVMax= 5.18D-04

 Cycle   7  Pass 1  IDiag  3:
 E=-0.795152219353668     Delta-E=       -0.000004541716 Rises=F Damp=F
 DIIS: error= 3.08D-05 at cycle   7 NSaved=   7.
 NSaved= 7 IEnMin= 7 EnMin=-0.795152219353668     IErMin= 7 ErrMin= 3.08D-05
 ErrMax= 3.08D-05  0.00D+00 EMaxC= 1.00D-01 BMatC= 4.18D-08 BMatP= 6.94D-07
 IDIUse=1 WtCom= 1.00D+00 WtEn= 0.00D+00
 Coeff-Com: -0.117D-02 0.528D-02-0.447D-02-0.291D-01 0.238D+00-0.774D+00
 Coeff-Com:  0.157D+01
 Coeff:     -0.117D-02 0.528D-02-0.447D-02-0.291D-01 0.238D+00-0.774D+00
 Coeff:      0.157D+01
 Gap=     0.404 Goal=   None    Shift=    0.000
 RMSDP=7.62D-06 MaxDP=2.04D-04 DE=-4.54D-06 OVMax= 1.17D-04

 Cycle   8  Pass 1  IDiag  3:
 E=-0.795152505872920     Delta-E=       -0.000000286519 Rises=F Damp=F
 DIIS: error= 6.05D-06 at cycle   8 NSaved=   8.
 NSaved= 8 IEnMin= 8 EnMin=-0.795152505872920     IErMin= 8 ErrMin= 6.05D-06
 ErrMax= 6.05D-06  0.00D+00 EMaxC= 1.00D-01 BMatC= 3.08D-09 BMatP= 4.18D-08
 IDIUse=1 WtCom= 1.00D+00 WtEn= 0.00D+00
 Coeff-Com:  0.293D-03-0.149D-02 0.116D-02 0.902D-02-0.758D-01 0.269D+00
 Coeff-Com: -0.754D+00 0.155D+01
 Coeff:      0.293D-03-0.149D-02 0.116D-02 0.902D-02-0.758D-01 0.269D+00
 Coeff:     -0.754D+00 0.155D+01
 Gap=     0.404 Goal=   None    Shift=    0.000
 RMSDP=2.20D-06 MaxDP=5.48D-05 DE=-2.87D-07 OVMax= 2.74D-05

 Cycle   9  Pass 1  IDiag  3:
 E=-0.795152528017752     Delta-E=       -0.000000022145 Rises=F Damp=F
 DIIS: error= 2.09D-06 at cycle   9 NSaved=   9.
 NSaved= 9 IEnMin= 9 EnMin=-0.795152528017752     IErMin= 9 ErrMin= 2.09D-06
 ErrMax= 2.09D-06  0.00D+00 EMaxC= 1.00D-01 BMatC= 2.53D-10 BMatP= 3.08D-09
 IDIUse=1 WtCom= 1.00D+00 WtEn= 0.00D+00
 Coeff-Com: -0.647D-04 0.400D-03-0.344D-03-0.196D-02 0.197D-01-0.770D-01
 Coeff-Com:  0.255D+00-0.750D+00 0.155D+01
 Coeff:     -0.647D-04 0.400D-03-0.344D-03-0.196D-02 0.197D-01-0.770D-01
 Coeff:      0.255D+00-0.750D+00 0.155D+01
 Gap=     0.404 Goal=   None    Shift=    0.000
 RMSDP=6.43D-07 MaxDP=1.81D-05 DE=-2.21D-08 OVMax= 7.32D-06

 Cycle  10  Pass 1  IDiag  3:
 E=-0.795152529865618     Delta-E=       -0.000000001848 Rises=F Damp=F
 DIIS: error= 7.03D-07 at cycle  10 NSaved=  10.
 NSaved=10 IEnMin=10 EnMin=-0.795152529865618     IErMin=10 ErrMin= 7.03D-07
 ErrMax= 7.03D-07  0.00D+00 EMaxC= 1.00D-01 BMatC= 2.56D-11 BMatP= 2.53D-10
 IDIUse=1 WtCom= 1.00D+00 WtEn= 0.00D+00
 Coeff-Com:  0.206D-04-0.132D-03 0.173D-03 0.465D-05-0.301D-02 0.142D-01
 Coeff-Com: -0.543D-01 0.204D+00-0.700D+00 0.154D+01
 Coeff:      0.206D-04-0.132D-03 0.173D-03 0.465D-05-0.301D-02 0.142D-01
 Coeff:     -0.543D-01 0.204D+00-0.700D+00 0.154D+01
 Gap=     0.404 Goal=   None    Shift=    0.000
 RMSDP=2.08D-07 MaxDP=5.48D-06 DE=-1.85D-09 OVMax= 2.32D-06

 Cycle  11  Pass 1  IDiag  3:
 E=-0.795152530048199     Delta-E=       -0.000000000183 Rises=F Damp=F
 DIIS: error= 1.97D-07 at cycle  11 NSaved=  11.
 NSaved=11 IEnMin=11 EnMin=-0.795152530048199     IErMin=11 ErrMin= 1.97D-07
 ErrMax= 1.97D-07  0.00D+00 EMaxC= 1.00D-01 BMatC= 2.35D-12 BMatP= 2.56D-11
 IDIUse=1 WtCom= 1.00D+00 WtEn= 0.00D+00
 Coeff-Com: -0.671D-05 0.408D-04-0.753D-04 0.234D-03-0.438D-03 0.191D-03
 Coeff-Com:  0.337D-02-0.306D-01 0.180D+00-0.672D+00 0.152D+01
 Coeff:     -0.671D-05 0.408D-04-0.753D-04 0.234D-03-0.438D-03 0.191D-03
 Coeff:      0.337D-02-0.306D-01 0.180D+00-0.672D+00 0.152D+01
 Gap=     0.404 Goal=   None    Shift=    0.000
 RMSDP=6.19D-08 MaxDP=1.51D-06 DE=-1.83D-10 OVMax= 6.87D-07

 Cycle  12  Pass 1  IDiag  3:
 E=-0.795152530081850     Delta-E=       -0.000000000034 Rises=F Damp=F
 DIIS: error= 4.80D-08 at cycle  12 NSaved=  12.
 NSaved=12 IEnMin=12 EnMin=-0.795152530081850     IErMin=12 ErrMin= 4.80D-08
 ErrMax= 4.80D-08  0.00D+00 EMaxC= 1.00D-01 BMatC= 2.09D-13 BMatP= 2.35D-12
 IDIUse=1 WtCom= 1.00D+00 WtEn= 0.00D+00
 Coeff-Com:  0.185D-05-0.111D-04 0.256D-04-0.122D-03 0.467D-03-0.120D-02
 Coeff-Com:  0.244D-02-0.962D-03-0.280D-01 0.184D+00-0.728D+00 0.157D+01
 Coeff:      0.185D-05-0.111D-04 0.256D-04-0.122D-03 0.467D-03-0.120D-02
 Coeff:      0.244D-02-0.962D-03-0.280D-01 0.184D+00-0.728D+00 0.157D+01
 Gap=     0.404 Goal=   None    Shift=    0.000
 RMSDP=1.89D-08 MaxDP=4.12D-07 DE=-3.37D-11 OVMax= 1.93D-07

 Cycle  13  Pass 1  IDiag  3:
 E=-0.795152530083215     Delta-E=       -0.000000000001 Rises=F Damp=F
 DIIS: error= 1.30D-08 at cycle  13 NSaved=  13.
 NSaved=13 IEnMin=13 EnMin=-0.795152530083215     IErMin=13 ErrMin= 1.30D-08
 ErrMax= 1.30D-08  0.00D+00 EMaxC= 1.00D-01 BMatC= 1.56D-14 BMatP= 2.09D-13
 IDIUse=1 WtCom= 1.00D+00 WtEn= 0.00D+00
 Coeff-Com: -0.402D-06 0.261D-05-0.815D-05 0.533D-04-0.250D-03 0.731D-03
 Coeff-Com: -0.182D-02 0.337D-02 0.606D-03-0.476D-01 0.273D+00-0.829D+00
 Coeff-Com:  0.160D+01
 Coeff:     -0.402D-06 0.261D-05-0.815D-05 0.533D-04-0.250D-03 0.731D-03
 Coeff:     -0.182D-02 0.337D-02 0.606D-03-0.476D-01 0.273D+00-0.829D+00
 Coeff:      0.160D+01
 Gap=     0.404 Goal=   None    Shift=    0.000
 RMSDP=4.99D-09 MaxDP=1.06D-07 DE=-1.36D-12 OVMax= 6.14D-08

 Cycle  14  Pass 2  IDiag  1:
 SCF Done:  E(RPM6) = -0.795152530083     A.U. after   14 cycles
            NFock= 13  Conv=0.50D-08     -V/T= 0.9974
 KE=-3.045690042944D+02 PE=-2.400936664704D+03 EE= 1.305245188541D+03
 Leave Link  502 at Tue Jun 22 14:22:00 2021, MaxMem=  2147483648 cpu:               0.5 elap:               0.0
 (Enter /home/matma/Programs/gaussian/G16_x86_SSE4/tar/g16/l601.exe)
 Copying SCF densities to generalized density rwf, IOpCl= 0 IROHF=0.

 **********************************************************************

            Population analysis using the SCF Density.

 **********************************************************************

 Orbital symmetries:
       Occupied  (A) (A) (A) (A) (A) (A) (A) (A) (A) (A) (A) (A)
                 (A) (A) (A) (A) (A) (A) (A) (A) (A) (A) (A) (A)
                 (A) (A) (A) (A) (A) (A) (A) (A) (A) (A) (A) (A)
                 (A) (A) (A) (A) (A) (A) (A) (A) (A) (A) (A) (A)
                 (A) (A) (A) (A) (A) (A) (A) (A) (A) (A) (A) (A)
                 (A) (A) (A) (A) (A) (A) (A) (A)
       Virtual   (A) (A) (A) (A) (A) (A) (A) (A) (A) (A) (A) (A)
                 (A) (A) (A) (A) (A) (A) (A) (A) (A) (A) (A) (A)
                 (A) (A) (A) (A) (A) (A) (A) (A) (A) (A) (A) (A)
                 (A) (A) (A) (A) (A) (A) (A) (A) (A) (A)
 The electronic state is 1-A.
 Alpha  occ. eigenvalues --   -1.17726  -1.16426  -1.14665  -1.14110  -1.12773
 Alpha  occ. eigenvalues --   -1.11665  -1.10740  -1.10336  -1.09330  -1.09127
 Alpha  occ. eigenvalues --   -1.07263  -1.02943  -1.00715  -0.99559  -0.98637
 Alpha  occ. eigenvalues --   -0.92594  -0.91696  -0.88579  -0.85345  -0.83606
 Alpha  occ. eigenvalues --   -0.82387  -0.77275  -0.75524  -0.74073  -0.72181
 Alpha  occ. eigenvalues --   -0.70985  -0.70030  -0.68718  -0.68210  -0.66596
 Alpha  occ. eigenvalues --   -0.64981  -0.64837  -0.64299  -0.63169  -0.62306
 Alpha  occ. eigenvalues --   -0.61612  -0.60863  -0.60258  -0.59590  -0.58675
 Alpha  occ. eigenvalues --   -0.56636  -0.56294  -0.55502  -0.55132  -0.54117
 Alpha  occ. eigenvalues --   -0.53109  -0.51890  -0.51380  -0.50268  -0.50156
 Alpha  occ. eigenvalues --   -0.49536  -0.49041  -0.48743  -0.48295  -0.47221
 Alpha  occ. eigenvalues --   -0.47021  -0.45870  -0.45269  -0.43383  -0.42803
 Alpha  occ. eigenvalues --   -0.42475  -0.41618  -0.41487  -0.40758  -0.40455
 Alpha  occ. eigenvalues --   -0.39555  -0.39347  -0.38998
 Alpha virt. eigenvalues --    0.00907   0.02271   0.02967   0.04273   0.05141
 Alpha virt. eigenvalues --    0.05489   0.06117   0.07053   0.07238   0.07262
 Alpha virt. eigenvalues --    0.08057   0.08310   0.08581   0.08878   0.09507
 Alpha virt. eigenvalues --    0.09680   0.09904   0.10295   0.10754   0.11098
 Alpha virt. eigenvalues --    0.11426   0.11899   0.12679   0.13597   0.14469
 Alpha virt. eigenvalues --    0.15517   0.16167   0.16302   0.16518   0.16649
 Alpha virt. eigenvalues --    0.16846   0.17223   0.17376   0.17650   0.17773
 Alpha virt. eigenvalues --    0.17936   0.18139   0.18570   0.18958   0.19053
 Alpha virt. eigenvalues --    0.19119   0.19289   0.19466   0.20194   0.21132
 Alpha virt. eigenvalues --    0.21372
          Condensed to atoms (all electrons):
               1          2          3          4          5          6
     1  O    6.560254   0.000000   0.000000   0.000000   0.000000   0.000000
     2  C    0.000000   3.927557   0.000000   0.000000   0.000000   0.000000
     3  C    0.000000   0.000000   3.916274   0.000000   0.000000   0.000000
     4  O    0.000000   0.000000   0.000000   6.559542   0.000000   0.000000
     5  C    0.000000   0.000000   0.000000   0.000000   4.012425   0.000000
     6  C    0.000000   0.000000   0.000000   0.000000   0.000000   3.681650
     7  O    0.000000   0.000000   0.000000   0.000000   0.000000   0.000000
     8  C    0.000000   0.000000   0.000000   0.000000   0.000000   0.000000
     9  C    0.000000   0.000000   0.000000   0.000000   0.000000   0.000000
    10  O    0.000000   0.000000   0.000000   0.000000   0.000000   0.000000
    11  O    0.000000   0.000000   0.000000   0.000000   0.000000   0.000000
    12  C    0.000000   0.000000   0.000000   0.000000   0.000000   0.000000
    13  C    0.000000   0.000000   0.000000   0.000000   0.000000   0.000000
    14  C    0.000000   0.000000   0.000000   0.000000   0.000000   0.000000
    15  C    0.000000   0.000000   0.000000   0.000000   0.000000   0.000000
    16  O    0.000000   0.000000   0.000000   0.000000   0.000000   0.000000
    17  C    0.000000   0.000000   0.000000   0.000000   0.000000   0.000000
    18  C    0.000000   0.000000   0.000000   0.000000   0.000000   0.000000
    19  O    0.000000   0.000000   0.000000   0.000000   0.000000   0.000000
    20  O    0.000000   0.000000   0.000000   0.000000   0.000000   0.000000
    21  O    0.000000   0.000000   0.000000   0.000000   0.000000   0.000000
    22  O    0.000000   0.000000   0.000000   0.000000   0.000000   0.000000
    23  O    0.000000   0.000000   0.000000   0.000000   0.000000   0.000000
    24  H    0.000000   0.000000   0.000000   0.000000   0.000000   0.000000
    25  H    0.000000   0.000000   0.000000   0.000000   0.000000   0.000000
    26  H    0.000000   0.000000   0.000000   0.000000   0.000000   0.000000
    27  H    0.000000   0.000000   0.000000   0.000000   0.000000   0.000000
    28  H    0.000000   0.000000   0.000000   0.000000   0.000000   0.000000
    29  H    0.000000   0.000000   0.000000   0.000000   0.000000   0.000000
    30  H    0.000000   0.000000   0.000000   0.000000   0.000000   0.000000
    31  H    0.000000   0.000000   0.000000   0.000000   0.000000   0.000000
    32  H    0.000000   0.000000   0.000000   0.000000   0.000000   0.000000
    33  H    0.000000   0.000000   0.000000   0.000000   0.000000   0.000000
    34  H    0.000000   0.000000   0.000000   0.000000   0.000000   0.000000
    35  H    0.000000   0.000000   0.000000   0.000000   0.000000   0.000000
    36  H    0.000000   0.000000   0.000000   0.000000   0.000000   0.000000
    37  H    0.000000   0.000000   0.000000   0.000000   0.000000   0.000000
    38  H    0.000000   0.000000   0.000000   0.000000   0.000000   0.000000
    39  H    0.000000   0.000000   0.000000   0.000000   0.000000   0.000000
    40  H    0.000000   0.000000   0.000000   0.000000   0.000000   0.000000
    41  H    0.000000   0.000000   0.000000   0.000000   0.000000   0.000000
    42  H    0.000000   0.000000   0.000000   0.000000   0.000000   0.000000
    43  H    0.000000   0.000000   0.000000   0.000000   0.000000   0.000000
    44  H    0.000000   0.000000   0.000000   0.000000   0.000000   0.000000
    45  H    0.000000   0.000000   0.000000   0.000000   0.000000   0.000000
               7          8          9         10         11         12
     1  O    0.000000   0.000000   0.000000   0.000000   0.000000   0.000000
     2  C    0.000000   0.000000   0.000000   0.000000   0.000000   0.000000
     3  C    0.000000   0.000000   0.000000   0.000000   0.000000   0.000000
     4  O    0.000000   0.000000   0.000000   0.000000   0.000000   0.000000
     5  C    0.000000   0.000000   0.000000   0.000000   0.000000   0.000000
     6  C    0.000000   0.000000   0.000000   0.000000   0.000000   0.000000
     7  O    6.469434   0.000000   0.000000   0.000000   0.000000   0.000000
     8  C    0.000000   3.933152   0.000000   0.000000   0.000000   0.000000
     9  C    0.000000   0.000000   4.044264   0.000000   0.000000   0.000000
    10  O    0.000000   0.000000   0.000000   6.558201   0.000000   0.000000
    11  O    0.000000   0.000000   0.000000   0.000000   6.561475   0.000000
    12  C    0.000000   0.000000   0.000000   0.000000   0.000000   3.924100
    13  C    0.000000   0.000000   0.000000   0.000000   0.000000   0.000000
    14  C    0.000000   0.000000   0.000000   0.000000   0.000000   0.000000
    15  C    0.000000   0.000000   0.000000   0.000000   0.000000   0.000000
    16  O    0.000000   0.000000   0.000000   0.000000   0.000000   0.000000
    17  C    0.000000   0.000000   0.000000   0.000000   0.000000   0.000000
    18  C    0.000000   0.000000   0.000000   0.000000   0.000000   0.000000
    19  O    0.000000   0.000000   0.000000   0.000000   0.000000   0.000000
    20  O    0.000000   0.000000   0.000000   0.000000   0.000000   0.000000
    21  O    0.000000   0.000000   0.000000   0.000000   0.000000   0.000000
    22  O    0.000000   0.000000   0.000000   0.000000   0.000000   0.000000
    23  O    0.000000   0.000000   0.000000   0.000000   0.000000   0.000000
    24  H    0.000000   0.000000   0.000000   0.000000   0.000000   0.000000
    25  H    0.000000   0.000000   0.000000   0.000000   0.000000   0.000000
    26  H    0.000000   0.000000   0.000000   0.000000   0.000000   0.000000
    27  H    0.000000   0.000000   0.000000   0.000000   0.000000   0.000000
    28  H    0.000000   0.000000   0.000000   0.000000   0.000000   0.000000
    29  H    0.000000   0.000000   0.000000   0.000000   0.000000   0.000000
    30  H    0.000000   0.000000   0.000000   0.000000   0.000000   0.000000
    31  H    0.000000   0.000000   0.000000   0.000000   0.000000   0.000000
    32  H    0.000000   0.000000   0.000000   0.000000   0.000000   0.000000
    33  H    0.000000   0.000000   0.000000   0.000000   0.000000   0.000000
    34  H    0.000000   0.000000   0.000000   0.000000   0.000000   0.000000
    35  H    0.000000   0.000000   0.000000   0.000000   0.000000   0.000000
    36  H    0.000000   0.000000   0.000000   0.000000   0.000000   0.000000
    37  H    0.000000   0.000000   0.000000   0.000000   0.000000   0.000000
    38  H    0.000000   0.000000   0.000000   0.000000   0.000000   0.000000
    39  H    0.000000   0.000000   0.000000   0.000000   0.000000   0.000000
    40  H    0.000000   0.000000   0.000000   0.000000   0.000000   0.000000
    41  H    0.000000   0.000000   0.000000   0.000000   0.000000   0.000000
    42  H    0.000000   0.000000   0.000000   0.000000   0.000000   0.000000
    43  H    0.000000   0.000000   0.000000   0.000000   0.000000   0.000000
    44  H    0.000000   0.000000   0.000000   0.000000   0.000000   0.000000
    45  H    0.000000   0.000000   0.000000   0.000000   0.000000   0.000000
              13         14         15         16         17         18
     1  O    0.000000   0.000000   0.000000   0.000000   0.000000   0.000000
     2  C    0.000000   0.000000   0.000000   0.000000   0.000000   0.000000
     3  C    0.000000   0.000000   0.000000   0.000000   0.000000   0.000000
     4  O    0.000000   0.000000   0.000000   0.000000   0.000000   0.000000
     5  C    0.000000   0.000000   0.000000   0.000000   0.000000   0.000000
     6  C    0.000000   0.000000   0.000000   0.000000   0.000000   0.000000
     7  O    0.000000   0.000000   0.000000   0.000000   0.000000   0.000000
     8  C    0.000000   0.000000   0.000000   0.000000   0.000000   0.000000
     9  C    0.000000   0.000000   0.000000   0.000000   0.000000   0.000000
    10  O    0.000000   0.000000   0.000000   0.000000   0.000000   0.000000
    11  O    0.000000   0.000000   0.000000   0.000000   0.000000   0.000000
    12  C    0.000000   0.000000   0.000000   0.000000   0.000000   0.000000
    13  C    3.912704   0.000000   0.000000   0.000000   0.000000   0.000000
[...]
 ,0.00069520,-0.00048004,-0.00102423,0.00030702,-0.00109717,-0.00561858
 ,0.00190812,0.00130984,0.00044969,0.00001491,0.00015464,-0.00043703,-0
 .00032424,-0.00000023,0.00022608,-0.00036590,0.00007483,0.00061801,0.0
 0018842,-0.00004344,0.00130624,0.00060884,-0.00080558,0.00009483,-0.00
 005323,0.00008314,-0.00001994,-0.00002001,0.00001873,-0.00001378,-0.00
 001940,-0.00001652,-0.00005264,0.00001375,-0.00002053,-0.00004392,-0.0
 0000628,0.00001340,0.00005087,-0.00001154,-0.00007737,0.00000246,-0.00
 005200,0.00000766,0.00000713,-0.00001407,0.00006780,-0.00003420,-0.000
 02655,0.00005112,-0.00009053,-0.00016870,0.00006491,0.00020110,0.00139
 024,0.00033417,-0.00040500,-0.00057005,-0.00024673,-0.00000130,0.00004
 838,0.00011759,-0.00001033,-0.00007664,0.00001425,0.00004244,-0.000104
 66,0.00026303,-0.00006442,0.00004554,-0.00003213,-0.00003095,0.0000306
 3,-0.00009294,0.00089447,0.00087780,0.00012896,-0.00036193,-0.00090581
 ,0.00069405,0.08691205,0.00003039,-0.00009314,-0.00000388,0.00000706,0
 .00004701,0.00001891,-0.00002308,0.00001710,-0.00000692,0.00002960,-0.
 00005971,0.00002189,-0.00002041,0.00001817,-0.00005318,-0.00002265,0.0
 0002431,-0.00012943,0.00010119,-0.00005934,0.00006727,-0.00000995,-0.0
 0002467,-0.00001221,-0.00018633,0.00009090,0.00012362,0.00040430,-0.00
 005252,-0.00022967,0.02586283,-0.02193985,0.04574220,0.01263462,-0.008
 17874,0.01336329,-0.00281179,0.00138399,-0.00116902,0.00033716,-0.0003
 8895,0.00016587,0.00043436,0.00051478,-0.00028538,-0.00052845,-0.00041
 070,0.00032320,0.00204564,-0.00040140,-0.00036929,0.00029742,0.0001747
 0,0.00029369,-0.00034641,0.00004260,-0.00098474,-0.00016759,-0.0002004
 8,0.00007880,-0.00015913,-0.00026660,0.00008326,0.00190074,-0.00140220
 ,0.00003296,0.00001225,-0.00008718,0.00007475,-0.00000145,-0.00000681,
 0.00000222,-0.00000313,0.00000102,0.00000067,-0.00000024,0.00002323,-0
 .00001899,0.00001511,0.00003603,-0.00000020,-0.00001910,0.00000330,0.0
 0000362,-0.00001086,0.00000627,0.00000600,-0.00000185,0.00000211,0.000
 01047,0.00001107,0.00004588,-0.00001108,-0.00018581,0.00000972,0.00002
 082,0.00164408,-0.00054083,0.00010247,-0.00065290,-0.00001135,-0.00001
 675,0.00006683,0.00005215,0.00003125,-0.00001693,0.00000081,0.00004936
 ,-0.00008700,0.00020939,-0.00006631,0.00002488,-0.00010113,0.00001317,
 -0.00002972,-0.00004464,0.00006213,0.00005806,-0.00002593,0.00147033,-
 0.00079026,0.00016796,0.00019278,-0.03996994,0.03124008,-0.00000593,-0
 .00002366,-0.00012745,0.00003192,0.00003058,0.00003989,-0.00008576,0.0
 0002742,0.00005889,0.00009322,-0.00002433,-0.00006364,0.00004142,0.000
 05654,-0.00000994,-0.00056106,-0.00037443,0.00055520,0.00002030,0.0002
 2607,-0.00046421,-0.00002745,0.00011515,0.00020035,0.00008229,-0.00006
 080,-0.00015936,-0.00037558,-0.00009214,-0.00013558,-0.05776237,0.0574
 1122,-0.17466299,-0.01140115,0.00208272,-0.00082712,0.00112998,-0.0014
 1089,0.00304707,-0.00024217,-0.00012082,-0.00052982,-0.00119100,-0.000
 33811,0.00021720,0.00196347,-0.00000577,0.00074458,0.00017116,0.000234
 81,-0.00174946,0.00061372,0.00027432,0.00005453,-0.00053647,-0.0006575
 7,0.00003448,0.00055352,-0.00023772,-0.00017540,0.00079832,0.00060984,
 -0.00024770,-0.00275448,0.00053207,-0.00175894,0.00009553,0.00006273,-
 0.00007205,-0.00001728,-0.00001251,0.00000922,-0.00000482,-0.00000992,
 -0.00001574,-0.00004685,-0.00000744,0.00001530,-0.00005486,-0.00003600
 ,0.00003955,0.00006302,0.00001031,-0.00005872,0.00000625,-0.00004183,-
 0.00001486,0.00003493,0.00001628,0.00005547,0.00002086,-0.00002157,0.0
 0007519,0.00010284,-0.00004889,0.00023301,0.00233642,0.00038458,0.0014
 8162,-0.00016894,-0.00031570,-0.00017324,-0.00003053,0.00001935,0.0001
 9067,-0.00002107,-0.00005573,-0.00009823,0.00013190,-0.00016529,-0.000
 19912,-0.00009032,0.00010177,-0.00001903,-0.00003980,-0.00006375,-0.00
 011745,0.00049488,0.00098093,-0.00054074,0.00052477,-0.00014844,-0.000
 02051,0.06634919,-0.05897479,0.17504129,-0.00015659,-0.00018768,-0.000
 35137,0.00054230,0.00031120,-0.00014849,-0.00187857,-0.00012533,-0.001
 80782,-0.00004569,0.00047639,-0.00021650,0.00817064,0.01755630,-0.0102
 0706,0.00094247,0.00170481,-0.00428724,-0.00088466,0.00066279,0.000555
 12,0.00022582,-0.00017000,-0.00000521,0.00023510,-0.00010214,-0.000092
 70,-0.00043623,-0.00011863,0.00024073,0.00026553,-0.00012726,0.0002043
 5,-0.00019735,0.00006107,-0.00005339,-0.00037220,-0.00010427,-0.000371
 99,0.00063758,0.00112900,0.00010166,-0.00502786,0.00145626,0.00007065,
 0.00213095,0.00027593,0.00010439,-0.00086974,0.00040286,-0.00035604,-0
 .00007590,-0.00017048,-0.00011681,0.00035035,0.00006478,0.00009982,-0.
 00284689,-0.00116884,-0.00047160,-0.00181685,-0.00152398,0.00092280,0.
 00006518,-0.00038074,0.00066109,-0.05946439,-0.07844428,0.03238821,-0.
 00017248,0.00000338,-0.00009907,-0.00023704,-0.00019376,0.00001690,-0.
 00033051,-0.00045025,0.00057335,0.00089346,0.00097213,-0.00104091,-0.0
 0019061,0.00003793,-0.00030722,-0.00000344,-0.00005605,0.00005417,0.00
 002025,0.00000099,0.00002407,0.00005901,0.00007222,-0.00001692,0.00013
 155,0.00008259,-0.00010237,-0.00001523,-0.00005309,-0.00005145,0.00004
 601,0.00008116,0.00001749,0.00012531,-0.00008222,-0.00026222,-0.000240
 29,0.00001802,0.00048381,0.00004502,0.00002858,0.00006207,-0.00001078,
 -0.00005950,0.00002860,-0.00000932,0.00002775,0.00004832,-0.00012049,0
 .00004546,0.00000029,0.00024186,0.00041917,-0.00019698,-0.00004627,0.0
 0004423,-0.00013662,0.05849423,-0.00002517,-0.00077325,-0.00055159,0.0
 0077964,0.00060096,0.00018632,-0.00190741,0.00184275,-0.00049104,0.000
 93326,-0.00141901,0.00015449,0.00113083,-0.01549605,0.01638917,0.00371
 925,-0.00172488,0.00073817,-0.00069155,0.00032771,-0.00066441,0.000217
 63,0.00023680,0.00032884,0.00023302,-0.00011456,-0.00020330,-0.0005044
 4,-0.00013995,0.00009325,0.00001842,-0.00017544,0.00016523,-0.00001620
 ,0.00011506,-0.00013106,-0.00019131,-0.00017725,-0.00007734,0.00095065
 ,0.00109301,0.00019543,-0.00284403,0.00389312,0.00023335,0.00159645,-0
 .00052486,0.00022800,-0.00063025,0.00018605,-0.00036844,0.00002085,-0.
 00011156,-0.00005607,0.00020393,-0.00003300,0.00008402,0.00297773,-0.0
 0299802,-0.00036358,-0.00216063,-0.00138871,0.00006033,-0.00008372,-0.
 00035926,0.00036645,-0.06288348,-0.11934367,0.07571830,-0.00023429,-0.
 00004519,-0.00007609,-0.00012010,-0.00023074,-0.00021938,-0.00033535,0
 .00092432,-0.00034820,-0.00009832,0.00319945,-0.00147164,-0.00006231,-
 0.00039972,-0.00000998,0.00000706,-0.00016273,-0.00004297,0.00001525,0
 .00000792,0.00009239,0.00004673,0.00010945,0.00002914,0.00025546,0.000
 05069,0.00006346,-0.00002696,0.00000464,-0.00000282,0.00003119,0.00005
 745,-0.00000089,0.00015342,0.00002169,-0.00009018,0.00054519,0.0000854
 8,0.00028190,0.00008610,0.00004243,0.00005508,-0.00005819,0.00001201,0
 .00001921,-0.00001719,0.00001741,0.00002326,-0.00006643,0.00007980,-0.
 00003090,0.00029585,0.00038444,-0.00013767,0.00002163,0.00006771,-0.00
 007451,0.05839071,0.13196173,0.00002158,-0.00020046,0.00035164,0.00070
 323,0.00030006,-0.00056851,-0.00213752,0.00163726,-0.00551111,-0.00065
 402,-0.00017617,0.00092958,0.00884428,0.03537667,-0.03419079,-0.001546
 62,0.00062417,-0.00000341,0.00037203,-0.00076478,0.00025365,-0.0000288
 4,-0.00002594,-0.00013851,-0.00011278,0.00003965,0.00013286,0.00024231
 ,-0.00000937,-0.00005254,0.00008780,0.00005058,-0.00008477,-0.00008539
 ,-0.00006042,0.00004173,0.00002010,0.00003850,-0.00005225,-0.00016410,
 -0.00055982,-0.00021999,0.00056796,-0.00030022,0.00088145,-0.00028279,
 -0.00002383,-0.00044166,0.00025247,-0.00003452,0.00007642,0.00002903,0
 .00002840,0.00002629,-0.00006565,0.00003496,-0.00009349,-0.00351750,-0
 .00225051,-0.00216310,0.00132995,0.00032660,-0.00062332,0.00011840,0.0
 0011546,-0.00013221,0.01221584,0.05611801,-0.05648337,-0.00006367,0.00
 008524,-0.00016555,-0.00020272,-0.00000269,0.00018614,0.00079340,0.000
 14983,-0.00042828,-0.00028325,-0.00059532,-0.00046007,0.00021293,-0.00
 002576,0.00036671,0.00001049,0.00007346,-0.00001796,-0.00000832,0.0000
 0224,-0.00005410,-0.00003503,0.00000767,-0.00003862,-0.00014032,0.0000
 2943,-0.00003085,-0.00000729,0.00001272,0.00000785,0.00000501,0.000002
 78,0.00003722,-0.00024142,0.00014636,0.00001210,0.00036277,0.00007811,
 0.00024293,-0.00001160,0.00001227,0.00002491,0.00002713,-0.00000423,0.
 00002397,0.00001228,-0.00000192,0.00001198,0.00000737,-0.00004652,0.00
 003502,-0.00016005,-0.00012715,0.00004289,-0.00002654,-0.00002178,0.00
 002300,-0.01640891,-0.09029453,0.09833455,-0.00005162,0.00006236,-0.00
 004287,-0.00001539,-0.00001216,0.00000554,0.00009162,-0.00013276,-0.00
 002636,-0.00005507,0.00025114,-0.00009709,-0.00008461,-0.00001708,-0.0
 0006362,-0.00007407,-0.00004427,0.00006067,-0.00003375,0.00002697,-0.0
 0005079,0.00001838,0.00000770,0.00001293,0.00002784,-0.00001680,-0.000
 01747,-0.00008598,-0.00005423,0.00000817,0.00005788,-0.00033315,0.0002
 1808,0.00016192,0.00028433,-0.00020911,0.00031260,0.00017956,0.0000369
 5,-0.00282865,0.00173452,0.00045076,0.00600657,0.04251398,0.00567488,-
 0.00076184,-0.00230172,0.00000166,-0.00133916,-0.00026061,0.00001397,0
 .00002204,-0.00016222,-0.00009738,0.00035725,-0.00006515,0.00000749,-0
 .04935313,-0.05897224,-0.00284061,0.00007540,-0.00001111,-0.00034350,-
 0.00015255,-0.00017939,-0.00022524,-0.00038905,-0.00021226,0.00041881,
 -0.00000341,-0.00000378,0.00000289,-0.00001021,-0.00000665,0.00000708,
 -0.00004135,-0.00016805,0.00009119,0.00007113,-0.00016221,-0.00006515,
 -0.00000896,0.00000912,0.00000044,-0.00000184,-0.00000716,-0.00000196,
 0.00000650,0.00000309,0.00000447,0.00001632,0.00002461,-0.00000336,0.0
 0002815,0.00001506,0.00003006,-0.00012645,0.00012802,-0.00000454,-0.00
 007390,-0.00003691,0.00004760,0.00009855,0.00020670,0.00016333,-0.0041
 3457,0.00261688,0.00065811,0.00029240,0.00007232,0.00003847,-0.0002610
 2,-0.00000158,0.00017911,-0.00001576,-0.00001682,0.00008170,-0.0001345
 5,0.00011646,-0.00001062,0.00003477,0.00008741,-0.00002088,0.00003469,
 0.00009594,-0.00009030,0.00180617,0.00051186,-0.00002209,0.05048069,0.
 00013135,-0.00029700,-0.00026431,0.00011466,0.00016054,0.00012823,-0.0
 0039751,0.00027666,0.00021601,0.00043456,-0.00041610,-0.00005017,-0.00
 001999,0.00013067,-0.00011461,-0.00109909,-0.00091905,0.00095729,0.000
 16274,0.00039981,-0.00080108,-0.00007977,0.00024650,0.00030868,-0.0000
 5890,0.00001485,-0.00012793,0.00004076,0.00012307,-0.00023954,-0.00055
 847,-0.00014796,-0.00012766,0.00055167,0.00005847,-0.00007954,0.000801
 94,0.00000587,0.00051901,-0.00075009,-0.00179936,0.00061209,0.01314375
 ,-0.04028293,-0.00762864,0.00186477,-0.00091762,-0.00223512,0.00054415
 ,-0.00147306,0.00067442,0.00012829,0.00016221,0.00012249,-0.00027232,-
 0.00040778,-0.00008270,-0.02836411,-0.18201876,-0.02216986,0.00098187,
 0.00139427,-0.00028093,-0.00047588,0.00019188,-0.00088191,0.00047231,-
 0.00012988,-0.00003358,-0.00005517,-0.00003874,0.00002013,-0.00000229,
 -0.00003872,-0.00006912,-0.00016706,0.00017244,-0.00006613,-0.00040607
 ,-0.00033920,0.00036987,0.00002800,-0.00005148,-0.00012383,0.00000466,
 -0.00009511,-0.00002782,0.00000198,0.00001066,0.00009066,-0.00000562,-
 0.00001618,0.00011388,0.00007162,-0.00014845,0.00019709,-0.00005665,0.
 00027538,0.00014533,-0.00006345,-0.00012291,-0.00006329,0.00008598,0.0
 0004200,0.00056683,0.00024515,-0.00106927,-0.00101107,0.00001481,-0.00
 004338,-0.00009810,-0.00046350,0.00035346,0.00009652,-0.00005086,-0.00
 007698,-0.00001599,0.00007610,0.00014081,-0.00008302,0.00001188,-0.000
 26604,0.00017244,0.00012570,0.00007200,0.00014849,-0.00086625,-0.00007
 635,0.00015240,0.01429154,0.22677309,-0.00003752,-0.00040185,0.0000790
 8,0.00004684,0.00019176,0.00010231,-0.00000176,0.00008544,-0.00006162,
 -0.00015264,-0.00023653,0.00000241,0.00017787,-0.00007669,0.00007037,-
 0.00033427,-0.00015905,0.00007592,0.00006764,-0.00002867,-0.00016708,-
 0.00002301,0.00002487,0.00011143,-0.00010003,0.00000021,0.00004699,0.0
 0011139,-0.00007804,-0.00012790,0.00008594,0.00001067,-0.00024024,-0.0
 0023911,-0.00002661,0.00009925,0.00010677,0.00018190,-0.00030211,-0.00
 248664,0.00101295,-0.00031389,0.00390949,-0.01419368,-0.00286011,-0.00
 013283,-0.00022829,-0.00214575,0.00101884,0.00017219,0.00010118,0.0001
 5840,0.00015194,0.00012832,-0.00022731,0.00003872,-0.00027183,-0.00106
 530,-0.01701924,-0.00114681,0.00021170,-0.00002533,-0.00016653,0.00002
 207,-0.00002190,-0.00032108,-0.00011569,-0.00005052,-0.00049586,0.0000
 1357,-0.00000384,-0.00002254,0.00001851,0.00003756,0.00001698,0.000152
 36,0.00009874,0.00005212,0.00016750,0.00058302,0.00020865,0.00002766,0
 .00002254,0.00003973,0.00000256,0.00001975,-0.00002228,-0.00000616,0.0
 0001752,-0.00001314,-0.00001420,0.00011386,-0.00000725,-0.00001575,0.0
 0000596,0.00007227,-0.00013762,0.00017299,0.00012450,0.00000412,-0.000
 03341,0.00002130,-0.00041878,0.00077118,0.00010658,0.00305307,-0.00217
 895,-0.00088143,-0.00019010,-0.00005058,-0.00004205,0.00012702,0.00002
 098,0.00009183,0.00004203,-0.00002139,-0.00001911,0.00004199,-0.000089
 20,0.00005220,-0.00008889,-0.00003451,0.00002580,-0.00002082,0.0000060
 2,0.00006280,0.00022936,0.00005907,0.00020610,-0.00404263,0.03097322,0
 .00785645,-0.12131213,0.10086129,-0.00616184,0.01031646,-0.00548020,0.
 00393934,0.00276881,-0.00379199,-0.00165316,-0.00220553,0.00100052,0.0
 0132652,-0.00018051,-0.00016550,0.00068825,-0.00050488,-0.00070752,0.0
 0064795,0.00059094,-0.00002973,-0.00107414,-0.00207642,-0.00191896,-0.
 00048648,-0.00069855,0.00015407,0.00004094,0.00041886,0.00000245,-0.00
 012771,0.00014000,0.00001383,-0.00000492,-0.00011498,-0.00001552,0.000
 01798,-0.00003865,0.00001964,0.00003365,0.00001145,-0.00017902,-0.0000
 9654,0.00003434,-0.00026422,0.00016189,0.00007888,0.00010870,-0.000117
 86,-0.00001558,0.00002203,0.00002596,-0.00004700,-0.00002319,-0.000023
 63,0.00006333,0.00004413,-0.00001858,-0.00013418,0.00022478,-0.0001276
 9,0.00027935,0.00029553,-0.00015989,0.00018478,0.00007471,-0.00011648,
 -0.00039449,0.00050158,-0.00042516,-0.00007516,-0.00210187,-0.00204962
 ,-0.00029338,0.00058960,0.00003398,0.00057348,0.00093653,0.00057015,0.
 00007358,0.00004368,0.00041067,0.00004479,0.00014708,0.00002443,0.0003
 2843,0.00008792,-0.00013621,-0.00000227,-0.00000885,-0.00011884,-0.000
 08639,0.00013783,-0.00000278,-0.00013086,0.00003995,0.00008065,-0.0000
 0457,-0.00001190,-0.00000317,-0.00001068,0.00001181,0.00002017,-0.0001
 0797,0.00002916,0.00016872,-0.00000837,0.00003481,0.00000297,-0.000008
 05,0.00000512,0.00001012,0.00000923,-0.00001911,0.00000844,0.00000131,
 0.00000347,0.00001514,-0.00003300,-0.00002323,0.00002494,-0.00019622,-
 0.00011060,0.00006463,-0.00004360,-0.00001232,-0.00001505,0.00002110,-
 0.00018448,-0.00003045,0.00003658,-0.00011622,0.00005413,0.11274829,0.
 07121173,-0.10619326,-0.01437030,0.02291457,-0.04584936,-0.01022492,-0
 .00107918,0.00155806,-0.00269001,-0.00204952,-0.00323022,-0.00296236,0
 .00007477,-0.00008484,-0.00053061,0.00062515,0.00075546,-0.00071471,-0
 .00003964,-0.00046874,0.00117089,-0.00094484,-0.00358834,-0.00272919,0
 .00054430,-0.00015764,-0.00034881,-0.00085951,0.00006813,0.00052476,-0
 .00006214,-0.00007758,0.00001776,0.00005235,0.00002232,-0.00002907,-0.
 00004119,-0.00004661,-0.00010865,0.00015321,0.00035603,0.00000323,-0.0
 0020799,0.00036352,-0.00002962,0.00002184,-0.00014111,0.00002769,-0.00
 005019,-0.00001351,-0.00002513,0.00005643,0.00000386,0.00001792,-0.000
 01440,-0.00004499,-0.00001186,0.00021202,-0.00052409,-0.00023590,-0.00
 057535,-0.00057679,0.00018361,-0.00011361,-0.00030467,0.00021174,0.000
 05471,-0.00072018,0.00042431,-0.00089908,-0.00145014,0.00044876,0.0002
 6826,-0.00058326,0.00033710,-0.00003268,0.00062378,0.00001443,0.000012
 05,0.00051727,0.00017687,-0.00003082,-0.00014841,-0.00000031,0.0002159
 3,-0.00031793,0.00007822,0.00015357,-0.00002394,0.00011593,0.00029447,
 0.00018066,-0.00006219,0.00005197,0.00003151,-0.00025288,-0.00002128,0
 .00004561,0.00003988,0.00001564,0.00001684,-0.00001129,-0.00003394,0.0
 0014165,0.00003692,0.00003263,-0.00001405,0.00002146,0.00000788,0.0000
 0789,0.00000133,-0.00002151,0.00002480,0.00001030,-0.00000543,-0.00000
 203,-0.00000294,0.00000387,0.00003178,-0.00001337,0.00030330,0.0003796
 4,-0.00016216,0.00002932,0.00004486,-0.00000165,0.00005874,0.00037213,
 0.00008348,-0.00006139,0.00018771,0.00018492,-0.09022624,0.15882857,-0
 .01872271,-0.00400006,-0.01024455,0.01470538,-0.01965292,-0.00553997,0
 .00016288,-0.00506098,-0.00344545,-0.00067838,0.00025236,-0.00121657,-
 0.00002240,0.00023490,-0.00046188,0.00049955,-0.00104323,0.00062090,0.
 00024129,0.00017259,-0.00121190,-0.00101220,-0.00355516,-0.00089876,-0
 .00013779,-0.00007293,-0.00032652,0.00003469,0.00004516,-0.00017339,-0
 .00016488,0.00002320,-0.00005900,0.00011232,0.00001272,-0.00002290,0.0
 0015594,-0.00004732,0.00023693,-0.00010514,0.00004275,0.00002161,0.000
 47518,0.00000157,-0.00020029,-0.00034622,-0.00010614,0.00008129,0.0001
 6108,-0.00006709,0.00002526,0.00004689,0.00004566,0.00003801,-0.000109
 44,-0.00002455,-0.00002519,-0.00039983,0.00002330,0.00035145,-0.000344
 96,0.00025971,0.00005604,-0.00011195,0.00012674,-0.00027794,-0.0001944
 4,0.00009338,0.00068356,0.00022468,0.00048409,0.00117143,-0.00015363,-
 0.00015124,0.00008399,-0.00015830,0.00095039,-0.00025674,0.00039337,-0
 .00011348,-0.00066377,-0.00010425,0.00009446,-0.00010219,0.00035930,-0
 .00018720,-0.00002198,-0.00003148,0.00001471,0.00013587,0.00006356,-0.
 00010996,0.00013775,0.00004478,-0.00007525,0.00014576,0.00000878,0.000
 01592,0.00002381,-0.00001126,-0.00002609,-0.00002480,0.00019414,-0.000
 06553,-0.00008593,-0.00001296,-0.00000298,-0.00002859,-0.00000173,-0.0
 0000495,-0.00001422,0.00000530,0.00001092,-0.00000816,0.00000180,-0.00
 000750,-0.00001462,0.00004464,-0.00000294,-0.00000333,-0.00001372,-0.0
 0013920,0.00010857,0.00003927,-0.00000750,0.00006220,0.00022175,0.0001
 4160,-0.00029452,0.00006144,0.00009159,-0.00012563,0.00457992,0.031386
 36,0.02176458\\-0.00004681,0.00000740,-0.00002918,0.00006250,-0.000099
 35,-0.00007584,0.00005217,-0.00002501,0.00011352,-0.00002529,0.0000399
 9,-0.00000691,-0.00012670,0.00006475,0.00006078,-0.00012029,-0.0000239
 8,0.00004047,0.00000420,-0.00006373,0.00003965,0.00001923,-0.00002812,
 0.00004635,-0.00001279,0.00001510,0.00002537,-0.00001832,0.00005410,0.
 00005829,0.00006900,0.00001101,-0.00003131,0.00000704,0.00000564,0.000
 07130,-0.00013785,-0.00014218,0.00011047,0.00013984,-0.00003532,-0.000
 09091,0.00007405,-0.00012833,-0.00002406,0.00001706,0.00007738,-0.0000
 0334,0.00004479,0.00009955,-0.00011180,-0.00001596,-0.00007316,0.00004
 840,-0.00004863,-0.00004339,-0.00003681,0.00008269,0.00014749,0.000036
 56,0.00011929,0.00005745,-0.00000700,-0.00001437,0.00001344,0.00000990
 ,-0.00006788,-0.00003395,-0.00002185,0.00001655,0.00002719,-0.00006026
 ,0.00004770,0.00002095,0.00002116,0.00001564,-0.00001293,0.00000770,-0
 .00004484,-0.00008426,0.00001822,-0.00000454,-0.00002377,-0.00007371,-
 0.00000746,0.00003931,-0.00001172,-0.00000563,-0.00000403,0.00001375,-
 0.00001806,-0.00001433,0.00000690,0.00006852,-0.00002879,-0.00005999,0
 .00001525,0.00004527,0.00004617,-0.00002538,0.00000872,-0.00000326,-0.
 00000250,0.00002356,0.00004899,-0.00000196,-0.00004781,-0.00000429,0.0
 0000501,0.00001623,-0.00003194,-0.00002432,0.00001987,0.00001585,0.000
 02362,-0.00001505,0.00000238,-0.00000798,0.00000796,-0.00001615,-0.000
 01166,0.00001394,-0.00011582,0.00000180,-0.00000597,0.00002615,-0.0000
 2614,0.00005933,-0.00006983,-0.00006144,0.00000352,0.00000094,-0.00000
 917,0.00005430,0.00001669\\\@


 IT IS BY EATING THE LIGHT OF A STAR THAT WE EXIST, 
 IN THE FINAL ANALYSIS, 
 JUST AS IT IS BY PERCEIVING THE LIGHT OF STARS
 THAT WE DEFINE THE WORLD AROUND US.

                                    -- GILBERT GROSVENOR
 Job cpu time:       0 days  0 hours  0 minutes 11.1 seconds.
 Elapsed time:       0 days  0 hours  0 minutes  0.9 seconds.
 File lengths (MBytes):  RWF=    217 Int=      0 D2E=      0 Chk=      4 Scr=      1
 Normal termination of Gaussian 16 at Tue Jun 22 14:22:03 2021.
