 Entering Gaussian System, Link 0=g09
 Initial command:
 /share/apps//g09/l1.exe "/scratch/Gau-31771.inp" -scrdir="/scratch/"
 Entering Link 1 = /share/apps//g09/l1.exe PID=     31772.
  
 Copyright (c) 1988,1990,1992,1993,1995,1998,2003,2009,2013,
            Gaussian, Inc.  All Rights Reserved.
  
 This is part of the Gaussian(R) 09 program.  It is based on
 the Gaussian(R) 03 system (copyright 2003, Gaussian, Inc.),
 the Gaussian(R) 98 system (copyright 1998, Gaussian, Inc.),
 the Gaussian(R) 94 system (copyright 1995, Gaussian, Inc.),
 the Gaussian 92(TM) system (copyright 1992, Gaussian, Inc.),
 the Gaussian 90(TM) system (copyright 1990, Gaussian, Inc.),
 the Gaussian 88(TM) system (copyright 1988, Gaussian, Inc.),
 the Gaussian 86(TM) system (copyright 1986, Carnegie Mellon
 University), and the Gaussian 82(TM) system (copyright 1983,
 Carnegie Mellon University). Gaussian is a federally registered
 trademark of Gaussian, Inc.
  
 This software contains proprietary and confidential information,
 including trade secrets, belonging to Gaussian, Inc.
  
 This software is provided under written license and may be
 used, copied, transmitted, or stored only in accord with that
 written license.
  
 The following legend is applicable only to US Government
 contracts under FAR:
  
                    RESTRICTED RIGHTS LEGEND
  
 Use, reproduction and disclosure by the US Government is
 subject to restrictions as set forth in subparagraphs (a)
 and (c) of the Commercial Computer Software - Restricted
 Rights clause in FAR 52.227-19.
  
 Gaussian, Inc.
 340 Quinnipiac St., Bldg. 40, Wallingford CT 06492
  
  
 ---------------------------------------------------------------
 Warning -- This program may not be used in any manner that
 competes with the business of Gaussian, Inc. or will provide
 assistance to any competitor of Gaussian, Inc.  The licensee
 of this program is prohibited from giving any competitor of
 Gaussian, Inc. access to this program.  By using this program,
 the user acknowledges that Gaussian, Inc. is engaged in the
 business of creating and licensing software in the field of
 computational chemistry and represents and warrants to the
 licensee that it is not a competitor of Gaussian, Inc. and that
 it will not use this program in any manner prohibited above.
 ---------------------------------------------------------------
  

 Cite this work as:
 Gaussian 09, Revision D.01,
 M. J. Frisch, G. W. Trucks, H. B. Schlegel, G. E. Scuseria, 
 M. A. Robb, J. R. Cheeseman, G. Scalmani, V. Barone, B. Mennucci, 
 G. A. Petersson, H. Nakatsuji, M. Caricato, X. Li, H. P. Hratchian, 
 A. F. Izmaylov, J. Bloino, G. Zheng, J. L. Sonnenberg, M. Hada, 
 M. Ehara, K. Toyota, R. Fukuda, J. Hasegawa, M. Ishida, T. Nakajima, 
 Y. Honda, O. Kitao, H. Nakai, T. Vreven, J. A. Montgomery, Jr., 
 J. E. Peralta, F. Ogliaro, M. Bearpark, J. J. Heyd, E. Brothers, 
 K. N. Kudin, V. N. Staroverov, T. Keith, R. Kobayashi, J. Normand, 
 K. Raghavachari, A. Rendell, J. C. Burant, S. S. Iyengar, J. Tomasi, 
 M. Cossi, N. Rega, J. M. Millam, M. Klene, J. E. Knox, J. B. Cross, 
 V. Bakken, C. Adamo, J. Jaramillo, R. Gomperts, R. E. Stratmann, 
 O. Yazyev, A. J. Austin, R. Cammi, C. Pomelli, J. W. Ochterski, 
 R. L. Martin, K. Morokuma, V. G. Zakrzewski, G. A. Voth, 
 P. Salvador, J. J. Dannenberg, S. Dapprich, A. D. Daniels, 
 O. Farkas, J. B. Foresman, J. V. Ortiz, J. Cioslowski, 
 and D. J. Fox, Gaussian, Inc., Wallingford CT, 2013.
 
 ******************************************
 Gaussian 09:  EM64L-G09RevD.01 24-Apr-2013
                 1-May-2016 
 ******************************************
 %nproc=20
 Will use up to   20 processors via shared memory.
 %mem=80GB
 %chk=Tri_A131_of.chk
 ----------------------------------------------------------------------
 #P PBE1PBE/6-311+G(d,p) opt=ModRedundant freq optcyc=999 EmpiricalDisp
 ersion=GD3
 ----------------------------------------------------------------------
 1/6=999,14=-1,18=120,19=15,26=3,38=1/1,3;
 2/9=110,12=2,17=6,18=5,40=1/2;
 3/5=4,6=6,7=111,11=2,16=1,25=1,30=1,71=1,74=-13,124=31/1,2,3;
 4//1;
 5/5=2,38=5/2;
 6/7=2,8=2,9=2,10=2,28=1/1;
 7//1,2,3,16;
 1/6=999,14=-1,18=20,19=15,26=3/3(2);
 2/9=110/2;
 99//99;
 2/9=110/2;
 3/5=4,6=6,7=111,11=2,16=1,25=1,30=1,71=1,74=-13,124=31/1,2,3;
 4/5=5,16=3,69=1/1;
 5/5=2,38=5/2;
 7//1,2,3,16;
 1/6=999,14=-1,18=20,19=15,26=3/3(-5);
 2/9=110/2;
 6/7=2,8=2,9=2,10=2,19=2,28=1/1;
 99/9=1/99;
 Leave Link    1 at Sun May  1 05:14:19 2016, MaxMem= 10737418240 cpu:         2.9
 (Enter /share/apps//g09/l101.exe)
 -----
 trich
 -----
 Symbolic Z-matrix:
 Charge =  1 Multiplicity = 1
 O                    -0.56961  -0.40125   7.52337 
 C                    -1.22079  -0.96281   6.41072 
 C                    -0.29727  -1.07078   5.1871 
 C                     0.95546  -1.86804   5.5646 
 C                     1.63546  -1.2874    6.80625 
 C                     0.62207  -1.09589   7.94471 
 H                    -2.05786  -0.28159   6.20019 
 H                     0.00081  -0.04304   4.91532 
 H                     0.6691   -2.91285   5.75742 
 H                     2.40107  -2.00195   7.15425 
 H                     0.35094  -2.09791   8.32306 
 O                     2.27019  -0.07397   6.37388 
 O                     1.90423  -1.9142    4.48302 
 O                    -0.96336  -1.68732   4.0795 
 O                    -1.71643  -2.28483   6.65693 
 C                     1.18335  -0.23763   9.08178 
 H                     1.08844   0.82211   8.79027 
 H                     0.5918   -0.40355   9.9962 
 O                     2.55962  -0.60834   9.2711 
 H                     2.88301  -0.1731    10.0769 
 H                     2.91694   0.16072   7.06537 
 H                     2.42229  -1.08401   4.54769 
 H                    -1.91757  -1.75225   4.31625 
 O                    -3.30492  -4.74053   6.05473 
 C                    -3.06344  -4.91979   7.47196 
 C                    -3.02774  -3.54117   8.2177 
 C                    -3.01091  -2.33457   7.26479 
 C                    -4.12848  -2.42366   6.18472 
 C                    -4.45479  -3.89633   5.85056 
 H                    -3.91266  -5.49108   7.88804 
 H                    -2.1162   -3.50298   8.83164 
 H                    -3.16316  -1.43522   7.88032 
 H                    -5.03521  -1.95533   6.60054 
 H                    -5.25642  -4.22958   6.53749 
 O                    -3.69476  -1.67431   5.03641 
 O                    -4.20824  -3.39424   9.01918 
 O                    -1.96312  -5.7635    7.64345 
 C                    -4.89511  -4.1202    4.39694 
 H                    -4.01315  -4.07452   3.74182 
 H                    -5.33954  -5.12061   4.28708 
 O                    -5.78331  -3.09154   3.93687 
 H                    -6.68782  -3.28714   4.2367 
 H                    -4.46451  -1.66491   4.42944 
 H                    -4.05978  -3.83563   9.87224 
 O                     1.1267   -5.83924   5.6469 
 C                     2.10753  -6.04661   6.68213 
 C                     1.76319  -5.15718   7.87721 
 C                     0.31904  -5.36698   8.34656 
 C                    -0.67165  -5.31284   7.18184 
 C                    -0.18021  -6.25697   6.06113 
 H                     2.10225  -7.1206    6.97088 
 H                     1.87976  -4.11237   7.53677 
 H                     0.24543  -6.37032   8.81027 
 H                    -0.14211  -7.28988   6.46618 
 H                    -0.73897  -4.28285   6.79999 
 O                    -0.0328   -4.36614   9.30654 
 O                     2.58707  -5.41462   9.01213 
 O                     3.34652  -5.65093   6.19601 
 C                    -1.05786  -6.30321   4.81809 
 H                    -0.57813  -6.95587   4.07554 
 H                    -2.03848  -6.72761   5.07536 
 O                    -1.22637  -5.01955   4.19612 
 H                    -1.86704  -4.53188   4.76169 
 H                     0.63042  -4.4286    10.01861 
 H                     3.50157  -5.17706   8.77617 
 C                     3.90882  -6.53631   5.19038 
 H                     4.68468  -7.15419   5.67092 
 H                     3.11944  -7.20512   4.81484 
 C                     4.51275  -5.70731   4.06269 
 H                     4.97122  -6.40805   3.34438 
 H                     5.33854  -5.10672   4.4749 
 C                     3.53146  -4.76485   3.34845 
 H                     3.10985  -4.08198   4.10101 
 H                     4.10655  -4.13776   2.64656 
 C                     2.408    -5.47567   2.58025 
 H                     2.84085  -6.16528   1.83694 
 H                     1.80817  -6.09064   3.26851 
 C                     1.4749   -4.53941   1.81471 
 H                     0.75382  -5.11039   1.21456 
 H                     2.0375   -3.88301   1.13501 
 N                     0.68016  -3.65321   2.73022 
 H                     0.05278  -3.01781   2.22189 
 H                     1.28407  -3.02101   3.31169 
 H                     0.05044  -4.19985   3.38139 
 
 The following ModRedundant input section has been read:
 B      45      84 B                                                           
 B      58      84 B                                                           
 B      56      84 B                                                           
 B      41      82 B                                                           
 B      62      82 B                                                           
 B      35      82 B                                                           
 B      13      83 B                                                           
 B      19      83 B                                                           
 B      14      83 B                                                           
 
 NAtoms=     84 NQM=       84 NQMF=       0 NMMI=      0 NMMIF=      0
                NMic=       0 NMicF=      0.
                    Isotopes and Nuclear Properties:
 (Nuclear quadrupole moments (NQMom) in fm**2, nuclear magnetic moments (NMagM)
  in nuclear magnetons)

  Atom         1           2           3           4           5           6           7           8           9          10
 IAtWgt=          16          12          12          12          12          12           1           1           1           1
 AtmWgt=  15.9949146  12.0000000  12.0000000  12.0000000  12.0000000  12.0000000   1.0078250   1.0078250   1.0078250   1.0078250
 NucSpn=           0           0           0           0           0           0           1           1           1           1
 AtZEff=   0.0000000   0.0000000   0.0000000   0.0000000   0.0000000   0.0000000   0.0000000   0.0000000   0.0000000   0.0000000
 NQMom=    0.0000000   0.0000000   0.0000000   0.0000000   0.0000000   0.0000000   0.0000000   0.0000000   0.0000000   0.0000000
 NMagM=    0.0000000   0.0000000   0.0000000   0.0000000   0.0000000   0.0000000   2.7928460   2.7928460   2.7928460   2.7928460
 AtZNuc=   8.0000000   6.0000000   6.0000000   6.0000000   6.0000000   6.0000000   1.0000000   1.0000000   1.0000000   1.0000000

  Atom        11          12          13          14          15          16          17          18          19          20
 IAtWgt=           1          16          16          16          16          12           1           1          16           1
 AtmWgt=   1.0078250  15.9949146  15.9949146  15.9949146  15.9949146  12.0000000   1.0078250   1.0078250  15.9949146   1.0078250
 NucSpn=           1           0           0           0           0           0           1           1           0           1
 AtZEff=   0.0000000   0.0000000   0.0000000   0.0000000   0.0000000   0.0000000   0.0000000   0.0000000   0.0000000   0.0000000
 NQMom=    0.0000000   0.0000000   0.0000000   0.0000000   0.0000000   0.0000000   0.0000000   0.0000000   0.0000000   0.0000000
 NMagM=    2.7928460   0.0000000   0.0000000   0.0000000   0.0000000   0.0000000   2.7928460   2.7928460   0.0000000   2.7928460
 AtZNuc=   1.0000000   8.0000000   8.0000000   8.0000000   8.0000000   6.0000000   1.0000000   1.0000000   8.0000000   1.0000000

  Atom        21          22          23          24          25          26          27          28          29          30
 IAtWgt=           1           1           1          16          12          12          12          12          12           1
 AtmWgt=   1.0078250   1.0078250   1.0078250  15.9949146  12.0000000  12.0000000  12.0000000  12.0000000  12.0000000   1.0078250
 NucSpn=           1           1           1           0           0           0           0           0           0           1
 AtZEff=   0.0000000   0.0000000   0.0000000   0.0000000   0.0000000   0.0000000   0.0000000   0.0000000   0.0000000   0.0000000
 NQMom=    0.0000000   0.0000000   0.0000000   0.0000000   0.0000000   0.0000000   0.0000000   0.0000000   0.0000000   0.0000000
 NMagM=    2.7928460   2.7928460   2.7928460   0.0000000   0.0000000   0.0000000   0.0000000   0.0000000   0.0000000   2.7928460
 AtZNuc=   1.0000000   1.0000000   1.0000000   8.0000000   6.0000000   6.0000000   6.0000000   6.0000000   6.0000000   1.0000000

  Atom        31          32          33          34          35          36          37          38          39          40
 IAtWgt=           1           1           1           1          16          16          16          12           1           1
 AtmWgt=   1.0078250   1.0078250   1.0078250   1.0078250  15.9949146  15.9949146  15.9949146  12.0000000   1.0078250   1.0078250
 NucSpn=           1           1           1           1           0           0           0           0           1           1
 AtZEff=   0.0000000   0.0000000   0.0000000   0.0000000   0.0000000   0.0000000   0.0000000   0.0000000   0.0000000   0.0000000
 NQMom=    0.0000000   0.0000000   0.0000000   0.0000000   0.0000000   0.0000000   0.0000000   0.0000000   0.0000000   0.0000000
 NMagM=    2.7928460   2.7928460   2.7928460   2.7928460   0.0000000   0.0000000   0.0000000   0.0000000   2.7928460   2.7928460
 AtZNuc=   1.0000000   1.0000000   1.0000000   1.0000000   8.0000000   8.0000000   8.0000000   6.0000000   1.0000000   1.0000000

  Atom        41          42          43          44          45          46          47          48          49          50
 IAtWgt=          16           1           1           1          16          12          12          12          12          12
 AtmWgt=  15.9949146   1.0078250   1.0078250   1.0078250  15.9949146  12.0000000  12.0000000  12.0000000  12.0000000  12.0000000
 NucSpn=           0           1           1           1           0           0           0           0           0           0
 AtZEff=   0.0000000   0.0000000   0.0000000   0.0000000   0.0000000   0.0000000   0.0000000   0.0000000   0.0000000   0.0000000
 NQMom=    0.0000000   0.0000000   0.0000000   0.0000000   0.0000000   0.0000000   0.0000000   0.0000000   0.0000000   0.0000000
 NMagM=    0.0000000   2.7928460   2.7928460   2.7928460   0.0000000   0.0000000   0.0000000   0.0000000   0.0000000   0.0000000
 AtZNuc=   8.0000000   1.0000000   1.0000000   1.0000000   8.0000000   6.0000000   6.0000000   6.0000000   6.0000000   6.0000000

  Atom        51          52          53          54          55          56          57          58          59          60
 IAtWgt=           1           1           1           1           1          16          16          16          12           1
 AtmWgt=   1.0078250   1.0078250   1.0078250   1.0078250   1.0078250  15.9949146  15.9949146  15.9949146  12.0000000   1.0078250
 NucSpn=           1           1           1           1           1           0           0           0           0           1
 AtZEff=   0.0000000   0.0000000   0.0000000   0.0000000   0.0000000   0.0000000   0.0000000   0.0000000   0.0000000   0.0000000
 NQMom=    0.0000000   0.0000000   0.0000000   0.0000000   0.0000000   0.0000000   0.0000000   0.0000000   0.0000000   0.0000000
 NMagM=    2.7928460   2.7928460   2.7928460   2.7928460   2.7928460   0.0000000   0.0000000   0.0000000   0.0000000   2.7928460
 AtZNuc=   1.0000000   1.0000000   1.0000000   1.0000000   1.0000000   8.0000000   8.0000000   8.0000000   6.0000000   1.0000000

  Atom        61          62          63          64          65          66          67          68          69          70
 IAtWgt=           1          16           1           1           1          12           1           1          12           1
 AtmWgt=   1.0078250  15.9949146   1.0078250   1.0078250   1.0078250  12.0000000   1.0078250   1.0078250  12.0000000   1.0078250
 NucSpn=           1           0           1           1           1           0           1           1           0           1
 AtZEff=   0.0000000   0.0000000   0.0000000   0.0000000   0.0000000   0.0000000   0.0000000   0.0000000   0.0000000   0.0000000
 NQMom=    0.0000000   0.0000000   0.0000000   0.0000000   0.0000000   0.0000000   0.0000000   0.0000000   0.0000000   0.0000000
 NMagM=    2.7928460   0.0000000   2.7928460   2.7928460   2.7928460   0.0000000   2.7928460   2.7928460   0.0000000   2.7928460
 AtZNuc=   1.0000000   8.0000000   1.0000000   1.0000000   1.0000000   6.0000000   1.0000000   1.0000000   6.0000000   1.0000000

  Atom        71          72          73          74          75          76          77          78          79          80
 IAtWgt=           1          12           1           1          12           1           1          12           1           1
 AtmWgt=   1.0078250  12.0000000   1.0078250   1.0078250  12.0000000   1.0078250   1.0078250  12.0000000   1.0078250   1.0078250
 NucSpn=           1           0           1           1           0           1           1           0           1           1
 AtZEff=   0.0000000   0.0000000   0.0000000   0.0000000   0.0000000   0.0000000   0.0000000   0.0000000   0.0000000   0.0000000
 NQMom=    0.0000000   0.0000000   0.0000000   0.0000000   0.0000000   0.0000000   0.0000000   0.0000000   0.0000000   0.0000000
 NMagM=    2.7928460   0.0000000   2.7928460   2.7928460   0.0000000   2.7928460   2.7928460   0.0000000   2.7928460   2.7928460
 AtZNuc=   1.0000000   6.0000000   1.0000000   1.0000000   6.0000000   1.0000000   1.0000000   6.0000000   1.0000000   1.0000000

  Atom        81          82          83          84
 IAtWgt=          14           1           1           1
 AtmWgt=  14.0030740   1.0078250   1.0078250   1.0078250
 NucSpn=           2           1           1           1
 AtZEff=   0.0000000   0.0000000   0.0000000   0.0000000
 NQMom=    2.0440000   0.0000000   0.0000000   0.0000000
 NMagM=    0.4037610   2.7928460   2.7928460   2.7928460
 AtZNuc=   7.0000000   1.0000000   1.0000000   1.0000000
 Leave Link  101 at Sun May  1 05:14:20 2016, MaxMem= 10737418240 cpu:         5.2
 (Enter /share/apps//g09/l103.exe)

 GradGradGradGradGradGradGradGradGradGradGradGradGradGradGradGradGradGrad
 Berny optimization.
 Initialization pass.
                           ----------------------------
                           !    Initial Parameters    !
                           ! (Angstroms and Degrees)  !
 --------------------------                            --------------------------
 ! Name  Definition              Value          Derivative Info.                !
 --------------------------------------------------------------------------------
 ! R1    R(1,2)                  1.4062         estimate D2E/DX2                !
 ! R2    R(1,6)                  1.4423         estimate D2E/DX2                !
 ! R3    R(2,3)                  1.5368         estimate D2E/DX2                !
 ! R4    R(2,7)                  1.0996         estimate D2E/DX2                !
 ! R5    R(2,15)                 1.4332         estimate D2E/DX2                !
 ! R6    R(3,4)                  1.5321         estimate D2E/DX2                !
 ! R7    R(3,8)                  1.1041         estimate D2E/DX2                !
 ! R8    R(3,14)                 1.432          estimate D2E/DX2                !
 ! R9    R(4,5)                  1.5301         estimate D2E/DX2                !
 ! R10   R(4,9)                  1.1004         estimate D2E/DX2                !
 ! R11   R(4,13)                 1.4395         estimate D2E/DX2                !
 ! R12   R(5,6)                  1.5361         estimate D2E/DX2                !
 ! R13   R(5,10)                 1.1036         estimate D2E/DX2                !
 ! R14   R(5,12)                 1.436          estimate D2E/DX2                !
 ! R15   R(6,11)                 1.1049         estimate D2E/DX2                !
 ! R16   R(6,16)                 1.5312         estimate D2E/DX2                !
 ! R17   R(12,21)                0.9755         estimate D2E/DX2                !
 ! R18   R(13,22)                0.9807         estimate D2E/DX2                !
 ! R19   R(13,83)                1.7267         estimate D2E/DX2                !
 ! R20   R(14,23)                0.9853         estimate D2E/DX2                !
 ! R21   R(14,83)                2.7238         estimate D2E/DX2                !
 ! R22   R(15,27)                1.431          estimate D2E/DX2                !
 ! R23   R(16,17)                1.1032         estimate D2E/DX2                !
 ! R24   R(16,18)                1.1016         estimate D2E/DX2                !
 ! R25   R(16,19)                1.4378         estimate D2E/DX2                !
 ! R26   R(19,20)                0.9713         estimate D2E/DX2                !
 ! R27   R(19,83)                6.5546         estimate D2E/DX2                !
 ! R28   R(24,25)                1.4488         estimate D2E/DX2                !
 ! R29   R(24,29)                1.441          estimate D2E/DX2                !
 ! R30   R(25,26)                1.5678         estimate D2E/DX2                !
 ! R31   R(25,30)                1.1048         estimate D2E/DX2                !
 ! R32   R(25,37)                1.3971         estimate D2E/DX2                !
 ! R33   R(26,27)                1.5376         estimate D2E/DX2                !
 ! R34   R(26,31)                1.0997         estimate D2E/DX2                !
 ! R35   R(26,36)                1.4344         estimate D2E/DX2                !
 ! R36   R(27,28)                1.5567         estimate D2E/DX2                !
 ! R37   R(27,32)                1.1004         estimate D2E/DX2                !
 ! R38   R(28,29)                1.545          estimate D2E/DX2                !
 ! R39   R(28,33)                1.102          estimate D2E/DX2                !
 ! R40   R(28,35)                1.4381         estimate D2E/DX2                !
 ! R41   R(29,34)                1.107          estimate D2E/DX2                !
 ! R42   R(29,38)                1.5353         estimate D2E/DX2                !
 ! R43   R(35,43)                0.9803         estimate D2E/DX2                !
 ! R44   R(35,82)                4.8755         estimate D2E/DX2                !
 ! R45   R(36,44)                0.9719         estimate D2E/DX2                !
 ! R46   R(37,49)                1.4436         estimate D2E/DX2                !
 ! R47   R(38,39)                1.0996         estimate D2E/DX2                !
 ! R48   R(38,40)                1.1002         estimate D2E/DX2                !
 ! R49   R(38,41)                1.4348         estimate D2E/DX2                !
 ! R50   R(41,42)                0.9728         estimate D2E/DX2                !
 ! R51   R(41,82)                6.0833         estimate D2E/DX2                !
 ! R52   R(45,46)                1.4411         estimate D2E/DX2                !
 ! R53   R(45,50)                1.4332         estimate D2E/DX2                !
 ! R54   R(45,84)                2.9964         estimate D2E/DX2                !
 ! R55   R(46,47)                1.529          estimate D2E/DX2                !
 ! R56   R(46,51)                1.1121         estimate D2E/DX2                !
 ! R57   R(46,58)                1.3885         estimate D2E/DX2                !
 ! R58   R(47,48)                1.5329         estimate D2E/DX2                !
 ! R59   R(47,52)                1.105          estimate D2E/DX2                !
 ! R60   R(47,57)                1.4259         estimate D2E/DX2                !
 ! R61   R(48,49)                1.53           estimate D2E/DX2                !
 ! R62   R(48,53)                1.1078         estimate D2E/DX2                !
 ! R63   R(48,56)                1.4307         estimate D2E/DX2                !
 ! R64   R(49,50)                1.5456         estimate D2E/DX2                !
 ! R65   R(49,55)                1.1006         estimate D2E/DX2                !
 ! R66   R(50,54)                1.1101         estimate D2E/DX2                !
 ! R67   R(50,59)                1.5224         estimate D2E/DX2                !
 ! R68   R(56,64)                0.9751         estimate D2E/DX2                !
 ! R69   R(56,84)                5.9281         estimate D2E/DX2                !
 ! R70   R(57,65)                0.9739         estimate D2E/DX2                !
 ! R71   R(58,66)                1.4531         estimate D2E/DX2                !
 ! R72   R(58,84)                4.5708         estimate D2E/DX2                !
 ! R73   R(59,60)                1.0989         estimate D2E/DX2                !
 ! R74   R(59,61)                1.0991         estimate D2E/DX2                !
 ! R75   R(59,62)                1.4363         estimate D2E/DX2                !
 ! R76   R(62,63)                0.9839         estimate D2E/DX2                !
 ! R77   R(62,82)                3.0888         estimate D2E/DX2                !
 ! R78   R(66,67)                1.1021         estimate D2E/DX2                !
 ! R79   R(66,68)                1.1007         estimate D2E/DX2                !
 ! R80   R(66,69)                1.5244         estimate D2E/DX2                !
 ! R81   R(69,70)                1.1033         estimate D2E/DX2                !
 ! R82   R(69,71)                1.1012         estimate D2E/DX2                !
 ! R83   R(69,72)                1.5367         estimate D2E/DX2                !
 ! R84   R(72,73)                1.1002         estimate D2E/DX2                !
 ! R85   R(72,74)                1.103          estimate D2E/DX2                !
 ! R86   R(72,75)                1.5354         estimate D2E/DX2                !
 ! R87   R(75,76)                1.1025         estimate D2E/DX2                !
 ! R88   R(75,77)                1.1008         estimate D2E/DX2                !
 ! R89   R(75,78)                1.5275         estimate D2E/DX2                !
 ! R90   R(78,79)                1.0983         estimate D2E/DX2                !
 ! R91   R(78,80)                1.0997         estimate D2E/DX2                !
 ! R92   R(78,81)                1.5017         estimate D2E/DX2                !
 ! R93   R(81,82)                1.0275         estimate D2E/DX2                !
 ! R94   R(81,83)                1.05           estimate D2E/DX2                !
 ! R95   R(81,84)                1.058          estimate D2E/DX2                !
 ! A1    A(2,1,6)              114.9253         estimate D2E/DX2                !
 ! A2    A(1,2,3)              112.3198         estimate D2E/DX2                !
 ! A3    A(1,2,7)              104.8694         estimate D2E/DX2                !
 ! A4    A(1,2,15)             113.1158         estimate D2E/DX2                !
 ! A5    A(3,2,7)              110.3986         estimate D2E/DX2                !
 ! A6    A(3,2,15)             106.2481         estimate D2E/DX2                !
 ! A7    A(7,2,15)             109.9438         estimate D2E/DX2                !
 ! A8    A(2,3,4)              109.3735         estimate D2E/DX2                !
 ! A9    A(2,3,8)              107.028          estimate D2E/DX2                !
 ! A10   A(2,3,14)             111.5041         estimate D2E/DX2                !
 ! A11   A(4,3,8)              108.9223         estimate D2E/DX2                !
 ! A12   A(4,3,14)             110.2953         estimate D2E/DX2                !
 ! A13   A(8,3,14)             109.6314         estimate D2E/DX2                !
 ! A14   A(3,4,5)              111.4593         estimate D2E/DX2                !
 ! A15   A(3,4,9)              108.9339         estimate D2E/DX2                !
 ! A16   A(3,4,13)             111.7443         estimate D2E/DX2                !
 ! A17   A(5,4,9)              109.4979         estimate D2E/DX2                !
 ! A18   A(5,4,13)             109.2064         estimate D2E/DX2                !
 ! A19   A(9,4,13)             105.8275         estimate D2E/DX2                !
 ! A20   A(4,5,6)              110.826          estimate D2E/DX2                !
 ! A21   A(4,5,10)             108.5724         estimate D2E/DX2                !
 ! A22   A(4,5,12)             105.8283         estimate D2E/DX2                !
 ! A23   A(6,5,10)             107.7396         estimate D2E/DX2                !
 ! A24   A(6,5,12)             114.1659         estimate D2E/DX2                !
 ! A25   A(10,5,12)            109.5982         estimate D2E/DX2                !
 ! A26   A(1,6,5)              112.8683         estimate D2E/DX2                !
 ! A27   A(1,6,11)             109.5166         estimate D2E/DX2                !
 ! A28   A(1,6,16)             104.4688         estimate D2E/DX2                !
 ! A29   A(5,6,11)             107.6147         estimate D2E/DX2                !
 ! A30   A(5,6,16)             112.2354         estimate D2E/DX2                !
 ! A31   A(11,6,16)            110.1208         estimate D2E/DX2                !
 ! A32   A(5,12,21)            106.4343         estimate D2E/DX2                !
 ! A33   A(4,13,22)            105.7524         estimate D2E/DX2                !
 ! A34   A(4,13,83)            107.0691         estimate D2E/DX2                !
 ! A35   A(22,13,83)           140.9921         estimate D2E/DX2                !
 ! A36   A(3,14,23)            107.0377         estimate D2E/DX2                !
 ! A37   A(3,14,83)             92.5819         estimate D2E/DX2                !
 ! A38   A(23,14,83)           146.5687         estimate D2E/DX2                !
 ! A39   A(2,15,27)            114.7013         estimate D2E/DX2                !
 ! A40   A(6,16,17)            108.0999         estimate D2E/DX2                !
 ! A41   A(6,16,18)            109.5812         estimate D2E/DX2                !
 ! A42   A(6,16,19)            107.7058         estimate D2E/DX2                !
 ! A43   A(17,16,18)           108.5309         estimate D2E/DX2                !
 ! A44   A(17,16,19)           111.3959         estimate D2E/DX2                !
 ! A45   A(18,16,19)           111.46           estimate D2E/DX2                !
 ! A46   A(16,19,20)           108.2044         estimate D2E/DX2                !
 ! A47   A(16,19,83)            77.8142         estimate D2E/DX2                !
 ! A48   A(25,24,29)           110.1258         estimate D2E/DX2                !
 ! A49   A(24,25,26)           111.1182         estimate D2E/DX2                !
 ! A50   A(24,25,30)           107.7136         estimate D2E/DX2                !
 ! A51   A(24,25,37)           109.0298         estimate D2E/DX2                !
 ! A52   A(26,25,30)           107.041          estimate D2E/DX2                !
 ! A53   A(26,25,37)           117.0458         estimate D2E/DX2                !
 ! A54   A(30,25,37)           104.2919         estimate D2E/DX2                !
 ! A55   A(25,26,27)           113.2974         estimate D2E/DX2                !
 ! A56   A(25,26,31)           108.359          estimate D2E/DX2                !
 ! A57   A(25,26,36)           109.7008         estimate D2E/DX2                !
 ! A58   A(27,26,31)           108.0394         estimate D2E/DX2                !
 ! A59   A(27,26,36)           105.9565         estimate D2E/DX2                !
 ! A60   A(31,26,36)           111.5112         estimate D2E/DX2                !
 ! A61   A(15,27,26)           107.484          estimate D2E/DX2                !
 ! A62   A(15,27,28)           110.8969         estimate D2E/DX2                !
 ! A63   A(15,27,32)           109.5341         estimate D2E/DX2                !
 ! A64   A(26,27,28)           112.1609         estimate D2E/DX2                !
 ! A65   A(26,27,32)           107.0483         estimate D2E/DX2                !
 ! A66   A(28,27,32)           109.6051         estimate D2E/DX2                !
 ! A67   A(27,28,29)           110.8694         estimate D2E/DX2                !
 ! A68   A(27,28,33)           107.7322         estimate D2E/DX2                !
 ! A69   A(27,28,35)           107.9179         estimate D2E/DX2                !
 ! A70   A(29,28,33)           108.2357         estimate D2E/DX2                !
 ! A71   A(29,28,35)           112.8096         estimate D2E/DX2                !
 ! A72   A(33,28,35)           109.147          estimate D2E/DX2                !
 ! A73   A(24,29,28)           111.0536         estimate D2E/DX2                !
 ! A74   A(24,29,34)           108.273          estimate D2E/DX2                !
 ! A75   A(24,29,38)           106.1159         estimate D2E/DX2                !
 ! A76   A(28,29,34)           107.7987         estimate D2E/DX2                !
 ! A77   A(28,29,38)           113.8512         estimate D2E/DX2                !
 ! A78   A(34,29,38)           109.6296         estimate D2E/DX2                !
 ! A79   A(28,35,43)           105.2225         estimate D2E/DX2                !
 ! A80   A(28,35,82)           123.3098         estimate D2E/DX2                !
 ! A81   A(43,35,82)           104.4043         estimate D2E/DX2                !
 ! A82   A(26,36,44)           108.554          estimate D2E/DX2                !
 ! A83   A(25,37,49)           118.4756         estimate D2E/DX2                !
 ! A84   A(29,38,39)           109.1476         estimate D2E/DX2                !
 ! A85   A(29,38,40)           110.0597         estimate D2E/DX2                !
 ! A86   A(29,38,41)           112.123          estimate D2E/DX2                !
 ! A87   A(39,38,40)           107.595          estimate D2E/DX2                !
 ! A88   A(39,38,41)           106.0032         estimate D2E/DX2                !
 ! A89   A(40,38,41)           111.7049         estimate D2E/DX2                !
 ! A90   A(38,41,42)           109.427          estimate D2E/DX2                !
 ! A91   A(38,41,82)            60.3439         estimate D2E/DX2                !
 ! A92   A(46,45,50)           111.7818         estimate D2E/DX2                !
 ! A93   A(46,45,84)           150.0356         estimate D2E/DX2                !
 ! A94   A(50,45,84)            92.8922         estimate D2E/DX2                !
 ! A95   A(45,46,47)           108.9349         estimate D2E/DX2                !
 ! A96   A(45,46,51)           108.7987         estimate D2E/DX2                !
 ! A97   A(45,46,58)           108.3498         estimate D2E/DX2                !
 ! A98   A(47,46,51)           110.9619         estimate D2E/DX2                !
 ! A99   A(47,46,58)           107.9886         estimate D2E/DX2                !
 ! A100  A(51,46,58)           111.7357         estimate D2E/DX2                !
 ! A101  A(46,47,48)           111.8303         estimate D2E/DX2                !
 ! A102  A(46,47,52)           106.5854         estimate D2E/DX2                !
 ! A103  A(46,47,57)           112.7659         estimate D2E/DX2                !
 ! A104  A(48,47,52)           108.8511         estimate D2E/DX2                !
 ! A105  A(48,47,57)           106.0176         estimate D2E/DX2                !
 ! A106  A(52,47,57)           110.7917         estimate D2E/DX2                !
 ! A107  A(47,48,49)           111.844          estimate D2E/DX2                !
 ! A108  A(47,48,53)           108.3444         estimate D2E/DX2                !
 ! A109  A(47,48,56)           109.9603         estimate D2E/DX2                !
 ! A110  A(49,48,53)           107.9195         estimate D2E/DX2                !
 ! A111  A(49,48,56)           109.0738         estimate D2E/DX2                !
 ! A112  A(53,48,56)           109.6563         estimate D2E/DX2                !
 ! A113  A(37,49,48)           108.9531         estimate D2E/DX2                !
 ! A114  A(37,49,50)           109.0026         estimate D2E/DX2                !
 ! A115  A(37,49,55)           110.3881         estimate D2E/DX2                !
 ! A116  A(48,49,50)           108.9341         estimate D2E/DX2                !
 ! A117  A(48,49,55)           109.6848         estimate D2E/DX2                !
 ! A118  A(50,49,55)           109.8496         estimate D2E/DX2                !
 ! A119  A(45,50,49)           108.7517         estimate D2E/DX2                !
 ! A120  A(45,50,54)           110.2028         estimate D2E/DX2                !
 ! A121  A(45,50,59)           107.3713         estimate D2E/DX2                !
 ! A122  A(49,50,54)           108.3429         estimate D2E/DX2                !
 ! A123  A(49,50,59)           115.2968         estimate D2E/DX2                !
 ! A124  A(54,50,59)           106.8247         estimate D2E/DX2                !
 ! A125  A(48,56,64)           106.1354         estimate D2E/DX2                !
 ! A126  A(48,56,84)            49.1209         estimate D2E/DX2                !
 ! A127  A(64,56,84)           136.2319         estimate D2E/DX2                !
 ! A128  A(47,57,65)           107.7997         estimate D2E/DX2                !
 ! A129  A(46,58,66)           114.4542         estimate D2E/DX2                !
 ! A130  A(46,58,84)            70.2808         estimate D2E/DX2                !
 ! A131  A(66,58,84)            92.6552         estimate D2E/DX2                !
 ! A132  A(50,59,60)           108.5492         estimate D2E/DX2                !
 ! A133  A(50,59,61)           109.5712         estimate D2E/DX2                !
 ! A134  A(50,59,62)           113.208          estimate D2E/DX2                !
 ! A135  A(60,59,61)           108.5636         estimate D2E/DX2                !
 ! A136  A(60,59,62)           106.823          estimate D2E/DX2                !
 ! A137  A(61,59,62)           109.9862         estimate D2E/DX2                !
 ! A138  A(59,62,63)           105.6901         estimate D2E/DX2                !
 ! A139  A(59,62,82)           143.8395         estimate D2E/DX2                !
 ! A140  A(63,62,82)           108.4111         estimate D2E/DX2                !
 ! A141  A(58,66,67)           108.1961         estimate D2E/DX2                !
 ! A142  A(58,66,68)           109.199          estimate D2E/DX2                !
 ! A143  A(58,66,69)           109.5076         estimate D2E/DX2                !
 ! A144  A(67,66,68)           108.2391         estimate D2E/DX2                !
 ! A145  A(67,66,69)           110.3983         estimate D2E/DX2                !
 ! A146  A(68,66,69)           111.2347         estimate D2E/DX2                !
 ! A147  A(66,69,70)           107.5101         estimate D2E/DX2                !
 ! A148  A(66,69,71)           108.4694         estimate D2E/DX2                !
 ! A149  A(66,69,72)           115.1125         estimate D2E/DX2                !
 ! A150  A(70,69,71)           106.1712         estimate D2E/DX2                !
 ! A151  A(70,69,72)           110.628          estimate D2E/DX2                !
 ! A152  A(71,69,72)           108.5647         estimate D2E/DX2                !
 ! A153  A(69,72,73)           107.9061         estimate D2E/DX2                !
 ! A154  A(69,72,74)           108.1505         estimate D2E/DX2                !
 ! A155  A(69,72,75)           114.5737         estimate D2E/DX2                !
 ! A156  A(73,72,74)           106.3917         estimate D2E/DX2                !
 ! A157  A(73,72,75)           110.437          estimate D2E/DX2                !
 ! A158  A(74,72,75)           109.0454         estimate D2E/DX2                !
 ! A159  A(72,75,76)           109.8542         estimate D2E/DX2                !
 ! A160  A(72,75,77)           110.1527         estimate D2E/DX2                !
 ! A161  A(72,75,78)           114.4531         estimate D2E/DX2                !
 ! A162  A(76,75,77)           106.6216         estimate D2E/DX2                !
 ! A163  A(76,75,78)           106.5788         estimate D2E/DX2                !
 ! A164  A(77,75,78)           108.8393         estimate D2E/DX2                !
 ! A165  A(75,78,79)           110.8719         estimate D2E/DX2                !
 ! A166  A(75,78,80)           111.2903         estimate D2E/DX2                !
 ! A167  A(75,78,81)           112.3            estimate D2E/DX2                !
 ! A168  A(79,78,80)           107.9666         estimate D2E/DX2                !
 ! A169  A(79,78,81)           107.0066         estimate D2E/DX2                !
 ! A170  A(80,78,81)           107.1762         estimate D2E/DX2                !
 ! A171  A(78,81,82)           112.7348         estimate D2E/DX2                !
 ! A172  A(78,81,83)           112.8638         estimate D2E/DX2                !
 ! A173  A(78,81,84)           112.6628         estimate D2E/DX2                !
 ! A174  A(82,81,83)           104.6446         estimate D2E/DX2                !
 ! A175  A(82,81,84)           105.1042         estimate D2E/DX2                !
 ! A176  A(83,81,84)           108.2146         estimate D2E/DX2                !
 ! A177  A(35,82,41)            26.2576         estimate D2E/DX2                !
 ! A178  A(35,82,62)            59.4225         estimate D2E/DX2                !
 ! A179  A(35,82,81)           110.7408         estimate D2E/DX2                !
 ! A180  A(41,82,62)            54.1732         estimate D2E/DX2                !
 ! A181  A(41,82,81)           116.0282         estimate D2E/DX2                !
 ! A182  A(62,82,81)            62.3475         estimate D2E/DX2                !
 ! A183  A(13,83,14)            77.952          estimate D2E/DX2                !
 ! A184  A(13,83,19)            22.6936         estimate D2E/DX2                !
 ! A185  A(14,83,19)            73.9812         estimate D2E/DX2                !
 ! A186  A(14,83,81)            88.645          estimate D2E/DX2                !
 ! A187  A(19,83,81)           146.83           estimate D2E/DX2                !
 ! A188  A(45,84,56)            40.0034         estimate D2E/DX2                !
 ! A189  A(45,84,58)            26.0657         estimate D2E/DX2                !
 ! A190  A(45,84,81)           122.292          estimate D2E/DX2                !
 ! A191  A(56,84,58)            52.1015         estimate D2E/DX2                !
 ! A192  A(56,84,81)           129.6439         estimate D2E/DX2                !
 ! A193  A(58,84,81)            96.5354         estimate D2E/DX2                !
 ! A194  L(20,19,83,16,-1)     186.0186         estimate D2E/DX2                !
 ! A195  L(42,41,82,38,-1)     169.7709         estimate D2E/DX2                !
 ! A196  L(13,83,81,14,-1)     166.597          estimate D2E/DX2                !
 ! A197  L(20,19,83,16,-2)     171.4059         estimate D2E/DX2                !
 ! A198  L(42,41,82,38,-2)     175.3137         estimate D2E/DX2                !
 ! A199  L(13,83,81,14,-2)     185.5642         estimate D2E/DX2                !
 ! D1    D(6,1,2,3)            -56.9265         estimate D2E/DX2                !
 ! D2    D(6,1,2,7)           -176.8492         estimate D2E/DX2                !
 ! D3    D(6,1,2,15)            63.3452         estimate D2E/DX2                !
 ! D4    D(2,1,6,5)             53.7166         estimate D2E/DX2                !
 ! D5    D(2,1,6,11)           -66.1472         estimate D2E/DX2                !
 ! D6    D(2,1,6,16)           175.9234         estimate D2E/DX2                !
 ! D7    D(1,2,3,4)             55.7021         estimate D2E/DX2                !
 ! D8    D(1,2,3,8)            -62.1509         estimate D2E/DX2                !
 ! D9    D(1,2,3,14)           177.9598         estimate D2E/DX2                !
 ! D10   D(7,2,3,4)            172.3575         estimate D2E/DX2                !
 ! D11   D(7,2,3,8)             54.5044         estimate D2E/DX2                !
 ! D12   D(7,2,3,14)           -65.3849         estimate D2E/DX2                !
 ! D13   D(15,2,3,4)           -68.4703         estimate D2E/DX2                !
 ! D14   D(15,2,3,8)           173.6766         estimate D2E/DX2                !
 ! D15   D(15,2,3,14)           53.7873         estimate D2E/DX2                !
 ! D16   D(1,2,15,27)           85.3746         estimate D2E/DX2                !
 ! D17   D(3,2,15,27)         -150.9484         estimate D2E/DX2                !
 ! D18   D(7,2,15,27)          -31.4788         estimate D2E/DX2                !
 ! D19   D(2,3,4,5)            -53.1078         estimate D2E/DX2                !
 ! D20   D(2,3,4,9)             67.8224         estimate D2E/DX2                !
 ! D21   D(2,3,4,13)          -175.6102         estimate D2E/DX2                !
 ! D22   D(8,3,4,5)             63.5522         estimate D2E/DX2                !
 ! D23   D(8,3,4,9)           -175.5176         estimate D2E/DX2                !
 ! D24   D(8,3,4,13)           -58.9503         estimate D2E/DX2                !
 ! D25   D(14,3,4,5)          -176.0868         estimate D2E/DX2                !
 ! D26   D(14,3,4,9)           -55.1565         estimate D2E/DX2                !
 ! D27   D(14,3,4,13)           61.4108         estimate D2E/DX2                !
 ! D28   D(2,3,14,23)            9.9895         estimate D2E/DX2                !
 ! D29   D(2,3,14,83)         -142.5788         estimate D2E/DX2                !
 ! D30   D(4,3,14,23)          131.7149         estimate D2E/DX2                !
 ! D31   D(4,3,14,83)          -20.8534         estimate D2E/DX2                !
 ! D32   D(8,3,14,23)         -108.351          estimate D2E/DX2                !
 ! D33   D(8,3,14,83)           99.0807         estimate D2E/DX2                !
 ! D34   D(3,4,5,6)             50.6344         estimate D2E/DX2                !
 ! D35   D(3,4,5,10)           168.7797         estimate D2E/DX2                !
 ! D36   D(3,4,5,12)           -73.636          estimate D2E/DX2                !
 ! D37   D(9,4,5,6)            -69.9656         estimate D2E/DX2                !
 ! D38   D(9,4,5,10)            48.1797         estimate D2E/DX2                !
 ! D39   D(9,4,5,12)           165.764          estimate D2E/DX2                !
 ! D40   D(13,4,5,6)           174.5837         estimate D2E/DX2                !
 ! D41   D(13,4,5,10)          -67.271          estimate D2E/DX2                !
 ! D42   D(13,4,5,12)           50.3133         estimate D2E/DX2                !
 ! D43   D(3,4,13,22)           84.0348         estimate D2E/DX2                !
 ! D44   D(3,4,13,83)          -74.587          estimate D2E/DX2                !
 ! D45   D(5,4,13,22)          -39.7464         estimate D2E/DX2                !
 ! D46   D(5,4,13,83)          161.6318         estimate D2E/DX2                !
 ! D47   D(9,4,13,22)         -157.5298         estimate D2E/DX2                !
 ! D48   D(9,4,13,83)           43.8484         estimate D2E/DX2                !
 ! D49   D(4,5,6,1)            -49.4693         estimate D2E/DX2                !
 ! D50   D(4,5,6,11)            71.4831         estimate D2E/DX2                !
 ! D51   D(4,5,6,16)          -167.2037         estimate D2E/DX2                !
 ! D52   D(10,5,6,1)          -168.1197         estimate D2E/DX2                !
 ! D53   D(10,5,6,11)          -47.1674         estimate D2E/DX2                !
 ! D54   D(10,5,6,16)           74.1459         estimate D2E/DX2                !
 ! D55   D(12,5,6,1)            69.9062         estimate D2E/DX2                !
 ! D56   D(12,5,6,11)         -169.1414         estimate D2E/DX2                !
 ! D57   D(12,5,6,16)          -47.8282         estimate D2E/DX2                !
 ! D58   D(4,5,12,21)         -163.3379         estimate D2E/DX2                !
 ! D59   D(6,5,12,21)           74.5047         estimate D2E/DX2                !
 ! D60   D(10,5,12,21)         -46.443          estimate D2E/DX2                !
 ! D61   D(1,6,16,17)          -41.571          estimate D2E/DX2                !
 ! D62   D(1,6,16,18)           76.5379         estimate D2E/DX2                !
 ! D63   D(1,6,16,19)         -162.0507         estimate D2E/DX2                !
 ! D64   D(5,6,16,17)           81.0497         estimate D2E/DX2                !
 ! D65   D(5,6,16,18)         -160.8414         estimate D2E/DX2                !
 ! D66   D(5,6,16,19)          -39.43           estimate D2E/DX2                !
 ! D67   D(11,6,16,17)        -159.0861         estimate D2E/DX2                !
 ! D68   D(11,6,16,18)         -40.9772         estimate D2E/DX2                !
 ! D69   D(11,6,16,19)          80.4342         estimate D2E/DX2                !
 ! D70   D(4,13,83,14)          40.5789         estimate D2E/DX2                !
 ! D71   D(4,13,83,19)         -36.6537         estimate D2E/DX2                !
 ! D72   D(22,13,83,14)       -105.5461         estimate D2E/DX2                !
 ! D73   D(22,13,83,19)        177.2213         estimate D2E/DX2                !
 ! D74   D(3,14,83,13)         -11.2182         estimate D2E/DX2                !
 ! D75   D(3,14,83,19)          11.8275         estimate D2E/DX2                !
 ! D76   D(3,14,83,81)         163.2176         estimate D2E/DX2                !
 ! D77   D(23,14,83,13)       -138.1361         estimate D2E/DX2                !
 ! D78   D(23,14,83,19)       -115.0904         estimate D2E/DX2                !
 ! D79   D(23,14,83,81)         36.2997         estimate D2E/DX2                !
 ! D80   D(2,15,27,26)        -144.856          estimate D2E/DX2                !
 ! D81   D(2,15,27,28)          92.2157         estimate D2E/DX2                !
 ! D82   D(2,15,27,32)         -28.8857         estimate D2E/DX2                !
 ! D83   D(6,16,19,20)        -171.2088         estimate D2E/DX2                !
 ! D84   D(6,16,19,83)          17.3853         estimate D2E/DX2                !
 ! D85   D(17,16,19,20)         70.4092         estimate D2E/DX2                !
 ! D86   D(17,16,19,83)       -100.9967         estimate D2E/DX2                !
 ! D87   D(18,16,19,20)        -50.9761         estimate D2E/DX2                !
 ! D88   D(18,16,19,83)        137.618          estimate D2E/DX2                !
 ! D89   D(16,19,83,13)        101.1751         estimate D2E/DX2                !
 ! D90   D(16,19,83,14)          4.0714         estimate D2E/DX2                !
 ! D91   D(16,19,83,81)        -56.9683         estimate D2E/DX2                !
 ! D92   D(29,24,25,26)        -50.8026         estimate D2E/DX2                !
 ! D93   D(29,24,25,30)         66.1436         estimate D2E/DX2                !
 ! D94   D(29,24,25,37)        178.7436         estimate D2E/DX2                !
 ! D95   D(25,24,29,28)         73.2558         estimate D2E/DX2                !
 ! D96   D(25,24,29,34)        -44.9108         estimate D2E/DX2                !
 ! D97   D(25,24,29,38)       -162.5339         estimate D2E/DX2                !
 ! D98   D(24,25,26,27)         -9.9046         estimate D2E/DX2                !
 ! D99   D(24,25,26,31)       -129.7821         estimate D2E/DX2                !
 ! D100  D(24,25,26,36)        108.2668         estimate D2E/DX2                !
 ! D101  D(30,25,26,27)       -127.2612         estimate D2E/DX2                !
 ! D102  D(30,25,26,31)        112.8613         estimate D2E/DX2                !
 ! D103  D(30,25,26,36)         -9.0899         estimate D2E/DX2                !
 ! D104  D(37,25,26,27)        116.2267         estimate D2E/DX2                !
 ! D105  D(37,25,26,31)         -3.6508         estimate D2E/DX2                !
 ! D106  D(37,25,26,36)       -125.602          estimate D2E/DX2                !
 ! D107  D(24,25,37,49)         64.4984         estimate D2E/DX2                !
 ! D108  D(26,25,37,49)        -62.6589         estimate D2E/DX2                !
 ! D109  D(30,25,37,49)        179.3325         estimate D2E/DX2                !
 ! D110  D(25,26,27,15)        -72.0682         estimate D2E/DX2                !
 ! D111  D(25,26,27,28)         50.0785         estimate D2E/DX2                !
 ! D112  D(25,26,27,32)        170.3336         estimate D2E/DX2                !
 ! D113  D(31,26,27,15)         47.9916         estimate D2E/DX2                !
 ! D114  D(31,26,27,28)        170.1383         estimate D2E/DX2                !
 ! D115  D(31,26,27,32)        -69.6067         estimate D2E/DX2                !
 ! D116  D(36,26,27,15)        167.6094         estimate D2E/DX2                !
 ! D117  D(36,26,27,28)        -70.2439         estimate D2E/DX2                !
 ! D118  D(36,26,27,32)         50.0111         estimate D2E/DX2                !
 ! D119  D(25,26,36,44)         84.4938         estimate D2E/DX2                !
 ! D120  D(27,26,36,44)       -152.8696         estimate D2E/DX2                !
 ! D121  D(31,26,36,44)        -35.5544         estimate D2E/DX2                !
 ! D122  D(15,27,28,29)         90.3449         estimate D2E/DX2                !
 ! D123  D(15,27,28,33)       -151.3927         estimate D2E/DX2                !
 ! D124  D(15,27,28,35)        -33.6632         estimate D2E/DX2                !
 ! D125  D(26,27,28,29)        -29.8373         estimate D2E/DX2                !
 ! D126  D(26,27,28,33)         88.4252         estimate D2E/DX2                !
 ! D127  D(26,27,28,35)       -153.8454         estimate D2E/DX2                !
 ! D128  D(32,27,28,29)       -148.5956         estimate D2E/DX2                !
 ! D129  D(32,27,28,33)        -30.3332         estimate D2E/DX2                !
 ! D130  D(32,27,28,35)         87.3963         estimate D2E/DX2                !
 ! D131  D(27,28,29,24)        -28.6038         estimate D2E/DX2                !
 ! D132  D(27,28,29,34)         89.8495         estimate D2E/DX2                !
 ! D133  D(27,28,29,38)       -148.2998         estimate D2E/DX2                !
 ! D134  D(33,28,29,24)       -146.5603         estimate D2E/DX2                !
 ! D135  D(33,28,29,34)        -28.107          estimate D2E/DX2                !
 ! D136  D(33,28,29,38)         93.7437         estimate D2E/DX2                !
 ! D137  D(35,28,29,24)         92.5626         estimate D2E/DX2                !
 ! D138  D(35,28,29,34)       -148.9841         estimate D2E/DX2                !
 ! D139  D(35,28,29,38)        -27.1334         estimate D2E/DX2                !
 ! D140  D(27,28,35,43)       -173.3497         estimate D2E/DX2                !
 ! D141  D(27,28,35,82)         67.4868         estimate D2E/DX2                !
 ! D142  D(29,28,35,43)         63.8207         estimate D2E/DX2                !
 ! D143  D(29,28,35,82)        -55.3427         estimate D2E/DX2                !
 ! D144  D(33,28,35,43)        -56.5354         estimate D2E/DX2                !
 ! D145  D(33,28,35,82)       -175.6988         estimate D2E/DX2                !
 ! D146  D(24,29,38,39)        -46.7089         estimate D2E/DX2                !
 ! D147  D(24,29,38,40)         71.1594         estimate D2E/DX2                !
 ! D148  D(24,29,38,41)       -163.8499         estimate D2E/DX2                !
 ! D149  D(28,29,38,39)         75.7433         estimate D2E/DX2                !
 ! D150  D(28,29,38,40)       -166.3884         estimate D2E/DX2                !
 ! D151  D(28,29,38,41)        -41.3977         estimate D2E/DX2                !
 ! D152  D(34,29,38,39)       -163.4245         estimate D2E/DX2                !
 ! D153  D(34,29,38,40)        -45.5562         estimate D2E/DX2                !
 ! D154  D(34,29,38,41)         79.4346         estimate D2E/DX2                !
 ! D155  D(28,35,82,41)         85.6188         estimate D2E/DX2                !
 ! D156  D(28,35,82,62)         15.4354         estimate D2E/DX2                !
 ! D157  D(28,35,82,81)        -21.4174         estimate D2E/DX2                !
 ! D158  D(43,35,82,41)        -33.9294         estimate D2E/DX2                !
 ! D159  D(43,35,82,62)       -104.1128         estimate D2E/DX2                !
 ! D160  D(43,35,82,81)       -140.9656         estimate D2E/DX2                !
 ! D161  D(25,37,49,48)        124.4169         estimate D2E/DX2                !
 ! D162  D(25,37,49,50)       -116.8246         estimate D2E/DX2                !
 ! D163  D(25,37,49,55)          3.9136         estimate D2E/DX2                !
 ! D164  D(29,38,41,42)        -82.0328         estimate D2E/DX2                !
 ! D165  D(29,38,41,82)        102.6534         estimate D2E/DX2                !
 ! D166  D(39,38,41,42)        158.9586         estimate D2E/DX2                !
 ! D167  D(39,38,41,82)        -16.3551         estimate D2E/DX2                !
 ! D168  D(40,38,41,42)         42.0458         estimate D2E/DX2                !
 ! D169  D(40,38,41,82)       -133.268          estimate D2E/DX2                !
 ! D170  D(38,41,82,35)        -96.6521         estimate D2E/DX2                !
 ! D171  D(38,41,82,62)         -4.0579         estimate D2E/DX2                !
 ! D172  D(38,41,82,81)        -12.339          estimate D2E/DX2                !
 ! D173  D(50,45,46,47)        -64.2118         estimate D2E/DX2                !
 ! D174  D(50,45,46,51)         56.8728         estimate D2E/DX2                !
 ! D175  D(50,45,46,58)        178.5448         estimate D2E/DX2                !
 ! D176  D(84,45,46,47)         79.1019         estimate D2E/DX2                !
 ! D177  D(84,45,46,51)       -159.8135         estimate D2E/DX2                !
 ! D178  D(84,45,46,58)        -38.1416         estimate D2E/DX2                !
 ! D179  D(46,45,50,49)         67.5448         estimate D2E/DX2                !
 ! D180  D(46,45,50,54)        -51.0791         estimate D2E/DX2                !
 ! D181  D(46,45,50,59)       -167.0731         estimate D2E/DX2                !
 ! D182  D(84,45,50,49)        -95.0711         estimate D2E/DX2                !
 ! D183  D(84,45,50,54)        146.305          estimate D2E/DX2                !
 ! D184  D(84,45,50,59)         30.311          estimate D2E/DX2                !
 ! D185  D(46,45,84,56)        -81.2442         estimate D2E/DX2                !
 ! D186  D(46,45,84,58)         23.9082         estimate D2E/DX2                !
 ! D187  D(46,45,84,81)         33.655          estimate D2E/DX2                !
 ! D188  D(50,45,84,56)         65.0116         estimate D2E/DX2                !
 ! D189  D(50,45,84,58)        170.164          estimate D2E/DX2                !
 ! D190  D(50,45,84,81)        179.9107         estimate D2E/DX2                !
 ! D191  D(45,46,47,48)         53.5053         estimate D2E/DX2                !
 ! D192  D(45,46,47,52)        -65.3427         estimate D2E/DX2                !
 ! D193  D(45,46,47,57)        172.8769         estimate D2E/DX2                !
 ! D194  D(51,46,47,48)        -66.2469         estimate D2E/DX2                !
 ! D195  D(51,46,47,52)        174.9051         estimate D2E/DX2                !
 ! D196  D(51,46,47,57)         53.1247         estimate D2E/DX2                !
 ! D197  D(58,46,47,48)        170.9779         estimate D2E/DX2                !
 ! D198  D(58,46,47,52)         52.1298         estimate D2E/DX2                !
 ! D199  D(58,46,47,57)        -69.6505         estimate D2E/DX2                !
 ! D200  D(45,46,58,66)        -71.3409         estimate D2E/DX2                !
 ! D201  D(45,46,58,84)         12.4049         estimate D2E/DX2                !
 ! D202  D(47,46,58,66)        170.8099         estimate D2E/DX2                !
 ! D203  D(47,46,58,84)       -105.4443         estimate D2E/DX2                !
 ! D204  D(51,46,58,66)         48.5086         estimate D2E/DX2                !
 ! D205  D(51,46,58,84)        132.2545         estimate D2E/DX2                !
 ! D206  D(46,47,48,49)        -48.8533         estimate D2E/DX2                !
 ! D207  D(46,47,48,53)         69.9723         estimate D2E/DX2                !
 ! D208  D(46,47,48,56)       -170.1957         estimate D2E/DX2                !
 ! D209  D(52,47,48,49)         68.6431         estimate D2E/DX2                !
 ! D210  D(52,47,48,53)       -172.5313         estimate D2E/DX2                !
 ! D211  D(52,47,48,56)        -52.6993         estimate D2E/DX2                !
 ! D212  D(57,47,48,49)       -172.1309         estimate D2E/DX2                !
 ! D213  D(57,47,48,53)        -53.3053         estimate D2E/DX2                !
 ! D214  D(57,47,48,56)         66.5267         estimate D2E/DX2                !
 ! D215  D(46,47,57,65)         64.5523         estimate D2E/DX2                !
 ! D216  D(48,47,57,65)       -172.7614         estimate D2E/DX2                !
 ! D217  D(52,47,57,65)        -54.8192         estimate D2E/DX2                !
 ! D218  D(47,48,49,37)        169.2825         estimate D2E/DX2                !
 ! D219  D(47,48,49,50)         50.4812         estimate D2E/DX2                !
 ! D220  D(47,48,49,55)        -69.7825         estimate D2E/DX2                !
 ! D221  D(53,48,49,37)         50.2054         estimate D2E/DX2                !
 ! D222  D(53,48,49,50)        -68.596          estimate D2E/DX2                !
 ! D223  D(53,48,49,55)        171.1404         estimate D2E/DX2                !
 ! D224  D(56,48,49,37)        -68.8643         estimate D2E/DX2                !
 ! D225  D(56,48,49,50)        172.3344         estimate D2E/DX2                !
 ! D226  D(56,48,49,55)         52.0707         estimate D2E/DX2                !
 ! D227  D(47,48,56,64)        -56.1235         estimate D2E/DX2                !
 ! D228  D(47,48,56,84)         81.9369         estimate D2E/DX2                !
 ! D229  D(49,48,56,64)       -179.1095         estimate D2E/DX2                !
 ! D230  D(49,48,56,84)        -41.0491         estimate D2E/DX2                !
 ! D231  D(53,48,56,64)         62.9078         estimate D2E/DX2                !
 ! D232  D(53,48,56,84)       -159.0318         estimate D2E/DX2                !
 ! D233  D(37,49,50,45)       -177.5382         estimate D2E/DX2                !
 ! D234  D(37,49,50,54)        -57.7508         estimate D2E/DX2                !
 ! D235  D(37,49,50,59)         61.8518         estimate D2E/DX2                !
 ! D236  D(48,49,50,45)        -58.7678         estimate D2E/DX2                !
 ! D237  D(48,49,50,54)         61.0195         estimate D2E/DX2                !
 ! D238  D(48,49,50,59)       -179.3779         estimate D2E/DX2                !
 ! D239  D(55,49,50,45)         61.3941         estimate D2E/DX2                !
 ! D240  D(55,49,50,54)       -178.8185         estimate D2E/DX2                !
 ! D241  D(55,49,50,59)        -59.2159         estimate D2E/DX2                !
 ! D242  D(45,50,59,60)         55.2862         estimate D2E/DX2                !
 ! D243  D(45,50,59,61)        173.6901         estimate D2E/DX2                !
 ! D244  D(45,50,59,62)        -63.1399         estimate D2E/DX2                !
 ! D245  D(49,50,59,60)        176.6459         estimate D2E/DX2                !
 ! D246  D(49,50,59,61)        -64.9501         estimate D2E/DX2                !
 ! D247  D(49,50,59,62)         58.2198         estimate D2E/DX2                !
 ! D248  D(54,50,59,60)        -62.9188         estimate D2E/DX2                !
 ! D249  D(54,50,59,61)         55.4852         estimate D2E/DX2                !
 ! D250  D(54,50,59,62)        178.6552         estimate D2E/DX2                !
 ! D251  D(48,56,84,45)        -16.8901         estimate D2E/DX2                !
 ! D252  D(48,56,84,58)        -49.4024         estimate D2E/DX2                !
 ! D253  D(48,56,84,81)       -112.1654         estimate D2E/DX2                !
 ! D254  D(64,56,84,45)         51.2535         estimate D2E/DX2                !
 ! D255  D(64,56,84,58)         18.7413         estimate D2E/DX2                !
 ! D256  D(64,56,84,81)        -44.0218         estimate D2E/DX2                !
 ! D257  D(46,58,66,67)       -102.4535         estimate D2E/DX2                !
 ! D258  D(46,58,66,68)         15.1482         estimate D2E/DX2                !
 ! D259  D(46,58,66,69)        137.1697         estimate D2E/DX2                !
 ! D260  D(84,58,66,67)       -171.968          estimate D2E/DX2                !
 ! D261  D(84,58,66,68)        -54.3662         estimate D2E/DX2                !
 ! D262  D(84,58,66,69)         67.6553         estimate D2E/DX2                !
 ! D263  D(46,58,84,45)        -12.8953         estimate D2E/DX2                !
 ! D264  D(46,58,84,56)         38.9475         estimate D2E/DX2                !
 ! D265  D(46,58,84,81)        175.3868         estimate D2E/DX2                !
 ! D266  D(66,58,84,45)        102.1671         estimate D2E/DX2                !
 ! D267  D(66,58,84,56)        154.0099         estimate D2E/DX2                !
 ! D268  D(66,58,84,81)        -69.5508         estimate D2E/DX2                !
 ! D269  D(50,59,62,63)        -75.8984         estimate D2E/DX2                !
 ! D270  D(50,59,62,82)         84.2106         estimate D2E/DX2                !
 ! D271  D(60,59,62,63)        164.6794         estimate D2E/DX2                !
 ! D272  D(60,59,62,82)        -35.2116         estimate D2E/DX2                !
 ! D273  D(61,59,62,63)         47.0422         estimate D2E/DX2                !
 ! D274  D(61,59,62,82)       -152.8488         estimate D2E/DX2                !
 ! D275  D(59,62,82,35)       -168.1563         estimate D2E/DX2                !
 ! D276  D(59,62,82,41)        160.9573         estimate D2E/DX2                !
 ! D277  D(59,62,82,81)        -27.4443         estimate D2E/DX2                !
 ! D278  D(63,62,82,35)         -8.3519         estimate D2E/DX2                !
 ! D279  D(63,62,82,41)        -39.2383         estimate D2E/DX2                !
 ! D280  D(63,62,82,81)        132.3602         estimate D2E/DX2                !
 ! D281  D(58,66,69,70)        177.3313         estimate D2E/DX2                !
 ! D282  D(58,66,69,71)         62.9206         estimate D2E/DX2                !
 ! D283  D(58,66,69,72)        -58.8993         estimate D2E/DX2                !
 ! D284  D(67,66,69,70)         58.3064         estimate D2E/DX2                !
 ! D285  D(67,66,69,71)        -56.1042         estimate D2E/DX2                !
 ! D286  D(67,66,69,72)       -177.9242         estimate D2E/DX2                !
 ! D287  D(68,66,69,70)        -61.8752         estimate D2E/DX2                !
 ! D288  D(68,66,69,71)       -176.2858         estimate D2E/DX2                !
 ! D289  D(68,66,69,72)         61.8942         estimate D2E/DX2                !
 ! D290  D(66,69,72,73)         58.4534         estimate D2E/DX2                !
 ! D291  D(66,69,72,74)        173.1631         estimate D2E/DX2                !
 ! D292  D(66,69,72,75)        -64.9994         estimate D2E/DX2                !
 ! D293  D(70,69,72,73)       -179.4411         estimate D2E/DX2                !
 ! D294  D(70,69,72,74)        -64.7314         estimate D2E/DX2                !
 ! D295  D(70,69,72,75)         57.1061         estimate D2E/DX2                !
 ! D296  D(71,69,72,73)        -63.3151         estimate D2E/DX2                !
 ! D297  D(71,69,72,74)         51.3947         estimate D2E/DX2                !
 ! D298  D(71,69,72,75)        173.2322         estimate D2E/DX2                !
 ! D299  D(69,72,75,76)        -57.2908         estimate D2E/DX2                !
 ! D300  D(69,72,75,77)         59.8693         estimate D2E/DX2                !
 ! D301  D(69,72,75,78)       -177.123          estimate D2E/DX2                !
 ! D302  D(73,72,75,76)       -179.3763         estimate D2E/DX2                !
 ! D303  D(73,72,75,77)        -62.2163         estimate D2E/DX2                !
 ! D304  D(73,72,75,78)         60.7915         estimate D2E/DX2                !
 ! D305  D(74,72,75,76)         64.0572         estimate D2E/DX2                !
 ! D306  D(74,72,75,77)       -178.7828         estimate D2E/DX2                !
 ! D307  D(74,72,75,78)        -55.775          estimate D2E/DX2                !
 ! D308  D(72,75,78,79)        174.7596         estimate D2E/DX2                !
 ! D309  D(72,75,78,80)         54.5679         estimate D2E/DX2                !
 ! D310  D(72,75,78,81)        -65.59           estimate D2E/DX2                !
 ! D311  D(76,75,78,79)         53.1144         estimate D2E/DX2                !
 ! D312  D(76,75,78,80)        -67.0773         estimate D2E/DX2                !
 ! D313  D(76,75,78,81)        172.7648         estimate D2E/DX2                !
 ! D314  D(77,75,78,79)        -61.5264         estimate D2E/DX2                !
 ! D315  D(77,75,78,80)        178.282          estimate D2E/DX2                !
 ! D316  D(77,75,78,81)         58.1241         estimate D2E/DX2                !
 ! D317  D(75,78,81,82)        179.7694         estimate D2E/DX2                !
 ! D318  D(75,78,81,83)         61.4632         estimate D2E/DX2                !
 ! D319  D(75,78,81,84)        -61.4714         estimate D2E/DX2                !
 ! D320  D(79,78,81,82)        -58.3515         estimate D2E/DX2                !
 ! D321  D(79,78,81,83)       -176.6577         estimate D2E/DX2                !
 ! D322  D(79,78,81,84)         60.4077         estimate D2E/DX2                !
 ! D323  D(80,78,81,82)         57.2535         estimate D2E/DX2                !
 ! D324  D(80,78,81,83)        -61.0527         estimate D2E/DX2                !
 ! D325  D(80,78,81,84)        176.0127         estimate D2E/DX2                !
 ! D326  D(78,81,82,35)        155.4368         estimate D2E/DX2                !
 ! D327  D(78,81,82,41)        127.3546         estimate D2E/DX2                !
 ! D328  D(78,81,82,62)        119.7789         estimate D2E/DX2                !
 ! D329  D(83,81,82,35)        -81.5444         estimate D2E/DX2                !
 ! D330  D(83,81,82,41)       -109.6266         estimate D2E/DX2                !
 ! D331  D(83,81,82,62)       -117.2023         estimate D2E/DX2                !
 ! D332  D(84,81,82,35)         32.3568         estimate D2E/DX2                !
 ! D333  D(84,81,82,41)          4.2746         estimate D2E/DX2                !
 ! D334  D(84,81,82,62)         -3.3011         estimate D2E/DX2                !
 ! D335  D(78,81,83,14)        169.8135         estimate D2E/DX2                !
 ! D336  D(78,81,83,19)       -132.9176         estimate D2E/DX2                !
 ! D337  D(82,81,83,14)         46.8783         estimate D2E/DX2                !
 ! D338  D(82,81,83,19)        104.1471         estimate D2E/DX2                !
 ! D339  D(84,81,83,14)        -64.8078         estimate D2E/DX2                !
 ! D340  D(84,81,83,19)         -7.5389         estimate D2E/DX2                !
 ! D341  D(78,81,84,45)         70.6968         estimate D2E/DX2                !
 ! D342  D(78,81,84,56)        119.9169         estimate D2E/DX2                !
 ! D343  D(78,81,84,58)         74.9908         estimate D2E/DX2                !
 ! D344  D(82,81,84,45)       -166.177          estimate D2E/DX2                !
 ! D345  D(82,81,84,56)       -116.9569         estimate D2E/DX2                !
 ! D346  D(82,81,84,58)       -161.883          estimate D2E/DX2                !
 ! D347  D(83,81,84,45)        -54.8004         estimate D2E/DX2                !
 ! D348  D(83,81,84,56)         -5.5802         estimate D2E/DX2                !
 ! D349  D(83,81,84,58)        -50.5064         estimate D2E/DX2                !
 --------------------------------------------------------------------------------
 Trust Radius=3.00D-01 FncErr=1.00D-07 GrdErr=1.00D-06
 Number of steps in this run=    504 maximum allowed number of steps=    504.
 GradGradGradGradGradGradGradGradGradGradGradGradGradGradGradGradGradGrad

 Leave Link  103 at Sun May  1 05:14:20 2016, MaxMem= 10737418240 cpu:         0.5
 (Enter /share/apps//g09/l202.exe)
 Stoichiometry    C23H44NO16(1+)
 Framework group  C1[X(C23H44NO16)]
 Deg. of freedom   246
 Full point group                 C1      NOp   1
 Largest Abelian subgroup         C1      NOp   1
 Largest concise Abelian subgroup C1      NOp   1
                         Standard orientation:                         
 ---------------------------------------------------------------------
 Center     Atomic      Atomic             Coordinates (Angstroms)
 Number     Number       Type             X           Y           Z
 ---------------------------------------------------------------------
      1          8           0       -1.290238    2.977193   -1.358164
      2          6           0       -1.614146    1.640357   -1.650277
      3          6           0       -0.521431    0.941843   -2.474803
      4          6           0        0.816984    1.045694   -1.736344
      5          6           0        1.144827    2.495432   -1.373006
      6          6           0       -0.041691    3.161500   -0.660085
      7          1           0       -2.550586    1.695792   -2.223929
      8          1           0       -0.444177    1.483393   -3.433824
      9          1           0        0.766780    0.439587   -0.819325
     10          1           0        2.000477    2.498244   -0.676084
     11          1           0       -0.115092    2.720433    0.350249
     12          8           0        1.523706    3.131542   -2.603475
     13          8           0        1.897938    0.495777   -2.511740
     14          8           0       -0.847075   -0.430514   -2.722129
     15          8           0       -1.805826    0.838756   -0.477797
     16          6           0        0.120577    4.680851   -0.561026
     17          1           0       -0.183842    5.121648   -1.525423
     18          1           0       -0.541769    5.072270    0.227463
     19          8           0        1.502038    4.955146   -0.271693
     20          1           0        1.587590    5.901186   -0.069165
     21          1           0        1.984789    3.955278   -2.357740
     22          1           0        2.184187    1.213336   -3.115855
     23          1           0       -1.781386   -0.561257   -2.437962
     24          8           0       -2.645534   -1.594889    1.035038
     25          6           0       -2.580220   -0.623210    2.107680
     26          6           0       -2.990016    0.803507    1.603159
     27          6           0       -3.125000    0.892276    0.074073
     28          6           0       -4.015327   -0.246446   -0.503924
     29          6           0       -3.922316   -1.515981    0.371592
     30          1           0       -3.317808   -0.919509    2.875040
     31          1           0       -2.215984    1.518046    1.918744
     32          1           0       -3.579749    1.868126   -0.153539
     33          1           0       -5.059682    0.105083   -0.491768
     34          1           0       -4.711956   -1.452358    1.144871
     35          8           0       -3.610959   -0.476776   -1.864692
     36          8           0       -4.276141    1.153006    2.133510
     37          8           0       -1.346236   -0.738823    2.752566
     38          6           0       -4.075334   -2.825336   -0.415291
     39          1           0       -3.143759   -3.027767   -0.963298
     40          1           0       -4.243089   -3.664052    0.276678
     41          8           0       -5.107995   -2.741685   -1.407923
     42          1           0       -5.972349   -2.896900   -0.989477
     43          1           0       -4.261577   -1.117320   -2.221646
     44          1           0       -4.153120    1.525833    3.022578
     45          8           0        1.930312   -1.383561    1.207420
     46          6           0        2.767912   -0.503599    1.982548
     47          6           0        2.045639    0.830895    2.170484
     48          6           0        0.642177    0.641769    2.757341
     49          6           0       -0.148631   -0.431927    2.007160
     50          6           0        0.716939   -1.707752    1.897872
     51          1           0        2.980115   -0.982752    2.963487
     52          1           0        1.954864    1.284499    1.166931
     53          1           0        0.745875    0.315084    3.810745
     54          1           0        0.943592   -2.065138    2.924187
     55          1           0       -0.406029   -0.067655    1.001042
     56          8           0       -0.079480    1.876075    2.705063
     57          8           0        2.730111    1.707945    3.062324
     58          8           0        3.932128   -0.263733    1.264886
     59          6           0        0.070410   -2.871146    1.158905
     60          1           0        0.798258   -3.691822    1.093992
     61          1           0       -0.805246   -3.223782    1.721748
     62          8           0       -0.309906   -2.545364   -0.187294
     63          1           0       -1.125965   -2.001246   -0.108977
     64          1           0        0.466282    2.529417    3.180555
     65          1           0        3.584439    1.938650    2.655728
     66          6           0        4.834403   -1.399909    1.185042
     67          1           0        5.656875   -1.237169    1.900380
     68          1           0        4.294900   -2.312124    1.482123
     69          6           0        5.379657   -1.518212   -0.233535
     70          1           0        6.095172   -2.357917   -0.245183
     71          1           0        5.965164   -0.613234   -0.458814
     72          6           0        4.316194   -1.697928   -1.328088
     73          1           0        3.635284   -0.834938   -1.283103
     74          1           0        4.819684   -1.646408   -2.308120
     75          6           0        3.524588   -3.010611   -1.239875
     76          1           0        4.216539   -3.868184   -1.274560
     77          1           0        2.996456   -3.070941   -0.275964
     78          6           0        2.516424   -3.218102   -2.368530
     79          1           0        2.051958   -4.210988   -2.300680
     80          1           0        2.997560   -3.135295   -3.353935
     81          7           0        1.404390   -2.209561   -2.331828
     82          1           0        0.724168   -2.340706   -3.090667
     83          1           0        1.744443   -1.222938   -2.447720
     84          1           0        0.836542   -2.261111   -1.440607
 ---------------------------------------------------------------------
 Rotational constants (GHZ):      0.1108984      0.0806482      0.0724006
 Leave Link  202 at Sun May  1 05:14:20 2016, MaxMem= 10737418240 cpu:         4.4
 (Enter /share/apps//g09/l301.exe)
 Standard basis: 6-311+G(d,p) (5D, 7F)
 Ernie: Thresh=  0.10000D-02 Tol=  0.10000D-05 Strict=F.
 There are  1184 symmetry adapted cartesian basis functions of A   symmetry.
 There are  1144 symmetry adapted basis functions of A   symmetry.
  1144 basis functions,  1792 primitive gaussians,  1184 cartesian basis functions
   158 alpha electrons      158 beta electrons
       nuclear repulsion energy      6080.3366434549 Hartrees.
 IExCor= 1009 DFT=T Ex+Corr=PBE1PBE ExCW=0 ScaHFX=  0.250000
 ScaDFX=  0.750000  0.750000  1.000000  1.000000 ScalE2=  1.000000  1.000000
 IRadAn=      0 IRanWt=     -1 IRanGd=            0 ICorTp=0 IEmpDi=131
[...]
 1,0.00000332,-0.00003023,0.00001670,0.00000572,-0.00001633,0.00001546,
 -0.00000812,-0.00001510,0.00001697,0.00001421,-0.00004414,0.00002067,0
 .00000342,-0.00001116,0.00021752,-0.00001889,-0.00030161,-0.00002135,-
 0.00004850,-0.00004195,-0.00013320,-0.00003959,-0.00009571,-0.00009862
 ,0.00001564,0.00006916,0.00000218,0.00000534,-0.00002362,0.00000039,-0
 .00000425,-0.00000901,0.00007657,-0.00003742,-0.00003040,-0.00001649,0
 .00000761,0.00000630,-0.00002768,0.00002595,0.00001291,0.00000521,0.00
 001678,0.00002186,-0.00065529,-0.00003738,-0.00046055,0.00085767,0.000
 22342,0.00013411,-0.00000421,0.00022273,-0.00005713,0.00012681,0.00006
 067,0.00007953,0.00000016,0.00006265,0.00005893,0.00017680,0.00002729,
 0.00008081,-0.00007529,-0.00005188,-0.00005396,0.00001385,-0.00004476,
 -0.00001261,-0.00002832,-0.00002617,-0.00000017,-0.00003515,0.00000762
 ,-0.00004015,0.00003772,0.00005027,0.00006412,-0.00012358,-0.00014063,
 -0.00005705,-0.00008257,-0.00013046,-0.00002819,-0.00039605,-0.0002797
 9,0.00026874,0.00023336,-0.00066802,0.00047694,-0.00001081,0.00000087,
 -0.00001992,-0.00000989,0.00014776,-0.00008809,0.00071679,0.00081263,-
 0.00041778,-0.00028933,0.00005840,0.00029596,0.00003791,0.00003783,-0.
 00003133,0.00000346,0.00006375,-0.00003262,0.00025794,0.00010204,-0.00
 005150,-0.00005599,-0.00006004,0.00007026,-0.00005382,-0.00009262,0.00
 002250,-0.00027892,-0.00052325,-0.00090600,0.00029263,-0.00030798,0.00
 017843,-0.00010392,0.00007954,-0.00006094,0.00023285,0.00072155,0.0015
 5207,-0.00159713,0.00114050,-0.00187198,-0.00034287,0.00002789,0.00026
 167,0.00104529,0.00018937,0.00070312,-0.00038099,-0.00019770,-0.000367
 09,-0.00016747,-0.00014084,-0.00006646,0.02097694,0.01123013,0.0110672
 4,-0.00317065,0.00391495,0.00387207,0.00022128,-0.00017661,0.00035308,
 -0.17059440,-0.09889898,-0.09547161,-0.01453350,-0.01261132,-0.0110232
 6,0.18196924,-0.00057846,-0.00019149,0.00000711,0.00045114,0.00103278,
 -0.00103911,0.00078025,-0.00013560,0.00113805,0.00748331,0.00229944,-0
 .00679697,-0.00159179,0.00033386,0.00107644,0.00122037,0.00057457,0.00
 020847,-0.00021249,-0.00004611,0.00027965,0.00009412,-0.00033446,-0.00
 005190,-0.00070326,-0.00023263,0.00097218,0.00003127,-0.00008200,-0.00
 016598,-0.00005041,0.00007826,0.00002158,-0.00021832,0.00028989,0.0012
 2686,-0.00003960,0.00129971,0.00466586,-0.00157583,-0.00184879,-0.0012
 0694,-0.00101706,-0.00092915,0.00046507,-0.00045846,-0.00005804,0.0000
 1220,0.00003501,-0.00002520,-0.00002805,0.00005630,0.00007600,0.000202
 57,0.00015163,-0.00009732,0.00032674,-0.00009039,0.00004292,-0.0000700
 9,-0.00024683,-0.00017710,-0.00011243,-0.00131408,-0.00252675,0.002556
 66,0.00048735,0.00048569,0.00031060,0.00023473,-0.00027525,-0.00033533
 ,-0.00012229,0.00031259,0.00025264,-0.00002219,0.00012473,-0.00004879,
 0.00065242,0.00004013,-0.00013861,0.00000816,0.00017908,-0.00004162,-0
 .00009464,0.00024272,-0.00003150,0.00000897,-0.00002504,-0.00003893,-0
 .00000667,0.00003098,-0.00002767,-0.00002238,-0.00001966,-0.00001266,-
 0.00004079,-0.00003413,-0.00000789,0.00002509,-0.00004208,-0.00001792,
 -0.00034069,-0.00027349,-0.00003193,-0.00008373,-0.00018525,0.00004629
 ,0.00025377,-0.00030650,-0.00021526,-0.00015181,0.00005403,0.00012090,
 0.00000773,0.00005990,-0.00000755,-0.00002929,-0.00003031,-0.00001773,
 0.00005319,-0.00016133,-0.00009056,0.00000404,0.00000555,0.00003054,0.
 00004399,0.00010394,0.00013891,0.00000230,0.00003927,0.00001918,-0.000
 01842,0.00014175,-0.00106189,0.00031156,0.00001310,0.00083586,0.000043
 92,0.00051760,-0.00003575,0.00001470,0.00019474,0.00024807,-0.00020754
 ,0.00026595,0.00012905,-0.00047400,0.00003827,0.00025655,-0.00002364,0
 .00000763,-0.00014160,-0.00002734,-0.00004524,0.00001475,-0.00002074,-
 0.00007575,0.00001762,0.00003320,0.00002264,-0.00011479,0.00006504,0.0
 0016840,0.00004301,-0.00001787,-0.00046219,-0.00023524,0.00001047,-0.0
 0036183,-0.00020908,0.00014388,-0.00016997,-0.00066581,0.00024811,-0.0
 0076071,0.00036057,-0.00004690,-0.00006650,-0.00005978,0.00002403,0.00
 018478,-0.00007338,0.00121835,0.00087795,-0.00103252,-0.00030876,0.000
 54292,0.00044054,0.00002149,0.00010022,-0.00002609,-0.00002545,0.00019
 895,0.00009200,-0.00015745,0.00012682,0.00044692,-0.00000591,0.0000065
 1,-0.00013377,-0.00000161,-0.00015045,0.00004124,-0.00014222,-0.000131
 50,0.00048298,-0.00006815,0.00013556,-0.00012159,-0.00022171,0.0001024
 8,-0.00016110,0.00059375,0.00000651,-0.00072592,0.00129866,0.00089215,
 0.00106583,-0.00026501,0.00006562,0.00028958,-0.00049611,-0.00100411,0
 .00028419,-0.00042079,0.00045627,-0.00006033,-0.00000538,-0.00029310,0
 .00003745,-0.00602076,-0.01129666,-0.01034705,0.00119374,0.00013750,-0
 .00064415,-0.00041869,0.00117399,0.00104228,-0.10411130,-0.15540632,-0
 .09167771,0.01595320,0.01731849,0.01522663,0.10098826,0.15745130,-0.00
 062136,-0.00010527,-0.00015611,0.00031722,0.00082576,-0.00078310,0.001
 30439,-0.00002738,0.00190688,0.00521621,-0.00166670,-0.00780974,-0.000
 76529,0.00041571,-0.00011447,0.00101508,0.00024226,0.00006490,-0.00020
 822,-0.00001500,0.00027867,-0.00007173,-0.00014418,-0.00009535,-0.0000
 9938,0.00022445,-0.00061624,-0.00002206,-0.00005260,-0.00013682,-0.000
 03409,0.00008957,-0.00000522,0.00010000,0.00076302,0.00151721,0.003284
 41,0.00585447,-0.00615281,-0.00100095,-0.00109017,-0.00187553,-0.00096
 522,-0.00072246,0.00029137,-0.00031278,-0.00005045,-0.00002883,0.00003
 847,-0.00000973,-0.00002608,0.00003830,0.00005228,0.00016864,0.0001022
 6,-0.00005108,0.00030594,-0.00008696,0.00003045,-0.00006365,-0.0002770
 2,-0.00010187,-0.00008272,-0.00205779,-0.00106280,0.00511562,0.0002261
 6,0.00028263,-0.00008190,0.00016447,-0.00016002,-0.00050056,0.00015734
 ,0.00010892,0.00039867,0.00000562,0.00009986,-0.00007310,0.00061339,0.
 00006963,-0.00009851,-0.00000539,0.00009933,0.00006496,-0.00002876,0.0
 0018079,-0.00003812,-0.00001614,-0.00001012,-0.00005140,0.00000763,0.0
 0001306,-0.00003702,-0.00003113,-0.00001120,-0.00000838,-0.00002941,-0
 .00001888,-0.00002536,0.00002733,-0.00003006,-0.00001422,-0.00019750,-
 0.00018480,-0.00017059,-0.00011611,-0.00014382,0.00005017,-0.00015284,
 -0.00022734,-0.00010601,-0.00013095,0.00003017,0.00014349,0.00000404,0
 .00005432,-0.00001798,-0.00002145,-0.00002299,-0.00001891,0.00003612,-
 0.00011570,-0.00010744,0.00000628,0.00000401,0.00003182,0.00003172,0.0
 0006904,0.00012272,0.00001378,0.00003200,0.00001116,-0.00044262,-0.000
 59078,-0.00046400,0.00007972,0.00023339,0.00026647,-0.00000170,0.00056
 408,-0.00020939,0.00012555,0.00009628,0.00009316,-0.00005768,0.0003317
 5,0.00000028,0.00039818,0.00028536,0.00012760,0.00000935,-0.00009188,-
 0.00002779,-0.00003322,-0.00014055,-0.00002157,-0.00003477,-0.00006778
 ,0.00003129,-0.00011733,-0.00006302,-0.00006150,0.00011141,0.00009057,
 0.00004753,-0.00011983,-0.00031359,-0.00007957,0.00006902,-0.00032501,
 0.00004385,0.00020776,-0.00043371,-0.00034931,0.00061232,-0.00105384,0
 .00044743,-0.00005936,-0.00007035,-0.00001235,-0.00002824,0.00029669,-
 0.00015202,0.00214302,0.00141602,-0.00323810,-0.00003017,0.00077989,0.
 00025864,0.00003683,0.00007340,-0.00006554,-0.00005888,0.00014968,0.00
 001494,-0.00026876,0.00037907,0.00040763,0.00002400,-0.00002877,-0.000
 09767,-0.00002624,-0.00012256,0.00001252,0.00015652,-0.00023392,-0.000
 35927,0.00012384,-0.00010385,0.00001594,-0.00015993,0.00007384,-0.0000
 8977,0.00003942,0.00052465,0.00094121,-0.00100853,0.00066781,-0.000054
 24,0.00027755,-0.00005497,-0.00024314,0.00019134,0.00049254,0.00168258
 ,-0.00051508,0.00032716,-0.00041941,-0.00002696,0.00000646,0.00004667,
 -0.00738909,-0.01273917,-0.01279547,0.00174503,-0.00053259,-0.00058677
 ,-0.00065570,0.00063963,-0.00009125,-0.09429977,-0.08586445,-0.1458202
 2,-0.01336618,-0.00978238,-0.01022395,0.09647509,0.09081860,0.15816668
 ,-0.00055207,-0.00025003,-0.00017865,0.00074413,0.00103026,-0.00028133
 ,0.00044959,-0.00000072,0.00048746,0.00138386,-0.00032445,-0.00149338,
 -0.00013033,0.00017104,-0.00013792,0.00047495,0.00007186,0.00000484,-0
 .00006804,-0.00005066,0.00009028,-0.00012629,-0.00014302,-0.00014030,0
 .00030020,0.00009688,-0.00032787,-0.00001755,-0.00001738,-0.00006196,-
 0.00000136,0.00004722,0.00001296,-0.00013394,0.00008182,0.00044240,0.0
 0010680,0.00141071,0.00173124,-0.00192923,-0.00152247,0.00022843,-0.00
 066702,-0.00098916,0.00006225,0.00000582,0.00000094,0.00003478,0.00000
 049,-0.00001205,-0.00001151,0.00000310,0.00002746,0.00006286,-0.000117
 94,-0.00004185,0.00005530,0.00000545,0.00002522,-0.00001678,0.00000586
 ,-0.00001121,-0.00006808,-0.00023006,-0.00019598,0.00015717,0.00020928
 ,0.00133522,0.00011715,0.00134846,-0.00034682,-0.00175048,0.00034481,-
 0.00002572,0.00136202,-0.00016132,0.00019500,0.00010021,0.00027772,0.0
 0006935,0.00004657,-0.00000908,0.00027810,0.00000529,-0.00070238,0.000
 67938,-0.00020509,0.00001474,0.00004170,-0.00021668,0.00003505,-0.0000
 3648,-0.00003059,-0.00000240,-0.00004995,-0.00002874,-0.00000414,-0.00
 009053,-0.00001713,0.00020136,-0.00011124,-0.00005653,-0.00010771,-0.0
 0054145,0.00005066,0.00011571,-0.00022180,-0.00023901,-0.00040965,-0.0
 0015770,-0.00039179,-0.00069278,0.00020900,0.00015993,-0.00006058,0.00
 018382,-0.00023624,-0.00001091,-0.00003656,-0.00004065,0.00057224,-0.0
 0038734,0.00012548,-0.00009376,-0.00002938,-0.00004331,-0.00002550,0.0
 0021207,-0.00002365,-0.00002302,0.00005121,0.00011282,-0.00208583,-0.0
 0085672,0.00057930,0.00120801,0.00019252,-0.00001087,0.00025300,0.0001
 8102,-0.00010554,0.00053978,0.00017270,0.00019350,-0.00023735,0.000136
 65,0.00030080,0.00259211,0.00165993,-0.00030133,-0.00000306,-0.0001483
 9,0.00005757,-0.00000986,-0.00007522,-0.00002417,-0.00006563,-0.000057
 20,-0.00003110,-0.00073966,-0.00010608,-0.00037272,0.00011603,0.000248
 06,0.00024983,-0.00039300,-0.00026248,-0.00027895,-0.00034256,-0.00006
 540,0.00001998,-0.00112768,-0.00018951,0.00089723,0.00694150,-0.008166
 98,0.00127476,-0.00030287,0.00075893,0.00010708,-0.00033198,0.00252068
 ,-0.00127502,-0.00342980,0.00699276,-0.00461759,-0.00242755,0.00324234
 ,0.00152053,0.00010606,0.00002410,-0.00003628,0.00003634,0.00001697,-0
 .00008921,0.00035776,-0.00019710,-0.00057836,-0.00001160,-0.00000223,0
 .00016673,0.00000976,0.00011246,-0.00007559,-0.00003761,0.00022772,-0.
 00018633,0.00000805,-0.00011521,0.00006962,0.00012677,-0.00008729,0.00
 013607,-0.00041782,-0.00018974,0.00011360,-0.00028416,-0.00010824,-0.0
 0036734,0.00013124,-0.00003934,-0.00001531,-0.00048303,-0.00072536,-0.
 00055224,0.00078866,-0.00024703,-0.00003276,0.00022270,0.00062508,-0.0
 0030613,-0.01004656,-0.00216682,0.01042850,0.00106601,-0.00060060,-0.0
 0123961,0.00053360,0.00071630,0.00011448,-0.14958612,-0.08500253,0.097
 05365,0.01725148,0.01342133,-0.01652135,-0.01212551,-0.01173034,0.0104
 1640,0.15187781,-0.00021512,-0.00018083,0.00049736,0.00086171,0.000763
 48,-0.00070464,-0.00111810,-0.00084259,-0.00117220,0.00030799,-0.00040
 489,-0.00068583,-0.00003483,0.00003837,-0.00035373,0.00013245,0.000221
 00,-0.00015284,-0.00002539,-0.00006950,0.00004917,0.00009106,0.0001516
 1,0.00019530,0.00003650,0.00033781,-0.00032567,0.00008734,0.00001806,0
 .00003680,0.00000473,0.00003815,0.00001432,0.00009166,0.00012205,0.000
 39639,0.00047221,0.00079357,0.00055743,-0.00094402,0.00172341,0.001479
 49,-0.00071078,-0.00083316,0.00049183,-0.00006809,-0.00000957,-0.00003
 592,0.00000359,-0.00002204,-0.00001238,0.00000576,0.00002243,0.0000544
 7,0.00002784,-0.00006106,0.00013051,-0.00000919,0.00003159,-0.00002694
 ,-0.00003365,0.00000454,-0.00005341,-0.00017881,-0.00014002,0.00016498
 ,0.00112398,0.00033934,-0.00021772,0.00130004,-0.00049195,-0.00134281,
 0.00002841,0.00025055,0.00084010,-0.00011819,0.00021530,0.00003732,0.0
 0045706,0.00009883,-0.00010778,0.00006244,0.00038574,-0.00028941,-0.00
 064802,0.00066615,-0.00021707,0.00003226,0.00001010,-0.00015795,0.0000
 0133,-0.00001596,-0.00001721,-0.00004045,-0.00004246,-0.00000473,-0.00
 005159,-0.00011075,0.00003349,0.00017050,-0.00012136,-0.00001851,-0.00
 048474,-0.00045041,0.00042991,0.00007060,-0.00024554,-0.00010987,0.000
 13719,-0.00031905,-0.00036636,-0.00038574,0.00016030,0.00002500,-0.000
 02362,0.00018449,-0.00014845,-0.00006042,-0.00004560,-0.00001125,0.000
 32846,-0.00033253,0.00009997,-0.00004392,-0.00002142,-0.00002000,0.000
 07870,0.00015422,0.00001554,-0.00002380,0.00004588,0.00007504,-0.00202
 784,-0.00017637,-0.00111301,0.00189557,0.00027808,0.00049790,0.0000750
 9,0.00035542,0.00000916,0.00029259,0.00018954,0.00029937,-0.00038674,0
 .00028483,0.00027234,0.00066778,0.00041443,0.00060957,-0.00011940,-0.0
 0004001,-0.00015093,-0.00002802,-0.00006514,-0.00002051,-0.00003901,-0
 .00005773,-0.00000428,-0.00027873,0.00002896,-0.00030829,0.00006745,0.
 00026912,0.00012412,-0.00017627,-0.00037075,-0.00035330,-0.00025220,-0
 .00020852,-0.00024525,-0.00097008,-0.00017633,0.00049911,0.00040159,-0
 .00594056,0.00261297,-0.00025489,-0.00004766,-0.00005930,0.00008351,0.
 00095958,-0.00058514,0.00560392,-0.00754511,-0.00464838,0.00092004,0.0
 0585392,0.00004972,0.00005548,0.00003857,-0.00000789,0.00004530,0.0000
 7863,0.00000052,0.00041342,-0.00013061,-0.00033011,-0.00005740,-0.0000
 0922,0.00007322,-0.00000761,-0.00002453,-0.00003772,0.00000333,0.00010
 228,-0.00005479,0.00000960,-0.00006057,0.00004454,0.00004139,-0.000053
 79,0.00006094,-0.00010812,-0.00032013,0.00054270,-0.00012751,0.0000800
 5,-0.00023445,-0.00030183,-0.00014802,-0.00005906,0.00003802,0.0020002
 3,-0.00154968,-0.00016254,-0.00030669,0.00032975,-0.00005377,-0.001050
 16,0.00070221,0.01379414,0.02006991,-0.01433284,-0.00022640,0.00017753
 ,-0.00040895,0.00346226,-0.00403696,-0.00412713,-0.08009192,-0.1412170
 3,0.08851378,-0.01310035,-0.01271882,0.01268749,-0.00906111,-0.0105921
 4,0.01084920,0.07926594,0.15209946,0.00030586,0.00023603,-0.00001082,-
 0.00056241,-0.00086908,0.00023698,0.00055742,-0.00021836,-0.00012999,-
 0.00184566,-0.00134887,0.00181275,0.00012481,-0.00012222,-0.00041631,-
 0.00025612,-0.00019072,-0.00002186,0.00002916,0.00007112,-0.00003167,-
 0.00008090,0.00013551,-0.00002651,-0.00021595,0.00004611,-0.00079512,-
 0.00001191,0.00002411,0.00003253,0.00001482,-0.00002033,-0.00003685,0.
 00030174,0.00024365,-0.00020444,0.00007570,-0.00136655,-0.00362629,0.0
 0025288,0.00071397,-0.00154516,0.00023493,0.00079557,-0.00005427,0.000
 00143,-0.00000282,-0.00004909,0.00000642,0.00002302,0.00001071,-0.0000
 0133,-0.00002255,-0.00003677,0.00008427,0.00006277,-0.00002327,-0.0000
 1763,-0.00002842,0.00000860,-0.00001306,0.00004095,0.00002613,0.000154
 85,0.00013853,-0.00012117,-0.00012096,-0.00057315,0.00021880,-0.001117
 74,0.00036340,0.00101032,0.00015635,-0.00023419,-0.00069117,0.00015651
 ,-0.00014555,-0.00013153,-0.00000983,-0.00000164,-0.00001708,-0.000026
 93,-0.00024059,0.00013721,0.00069915,-0.00056422,0.00017724,-0.0000543
 0,-0.00001615,0.00013581,-0.00001168,0.00001292,-0.00000348,-0.0000306
 3,0.00004013,0.00002050,0.00000798,0.00007780,-0.00001246,-0.00016164,
 0.00008847,0.00001639,0.00008864,0.00037718,-0.00029163,-0.00016380,0.
 00017529,0.00019463,-0.00030588,0.00016903,0.00045641,0.00036086,-0.00
 013840,0.00004387,0.00003747,-0.00012652,0.00019835,0.00002756,0.00002
 170,0.00001395,-0.00038548,0.00025428,-0.00019772,0.00006408,0.0000242
 8,0.00005053,-0.00000883,-0.00011373,0.00009630,0.00003163,-0.00003695
 ,-0.00008983,0.00240033,-0.00052160,0.00142120,-0.00245488,-0.00035818
 ,-0.00057082,-0.00014928,-0.00013289,-0.00013998,-0.00030284,-0.000244
 79,-0.00035163,0.00035521,0.00013726,-0.00046916,-0.00022702,0.0001419
 3,-0.00071782,0.00021041,-0.00000639,0.00022636,-0.00001031,-0.0000090
 8,0.00001811,0.00005524,0.00002727,0.00004405,0.00023754,-0.00012638,0
 .00033891,0.00002336,-0.00035727,-0.00031215,0.00017940,0.00029786,0.0
 0036737,0.00038358,0.00008775,0.00031582,0.00136124,0.00004106,-0.0008
 7125,-0.00336922,0.00623659,-0.00240456,0.00025343,-0.00074310,0.00021
 422,0.00009582,-0.00179119,0.00086662,-0.00455516,-0.00490907,0.000054
 52,0.00205799,-0.00226708,-0.00206658,-0.00006246,-0.00002467,-0.00001
 918,-0.00008793,-0.00003530,0.00002210,-0.00056175,0.00038001,0.000663
 94,0.00006505,-0.00001928,-0.00014332,-0.00001308,-0.00004806,0.000057
 60,0.00003386,-0.00024925,0.00006646,0.00003370,0.00007085,-0.00006129
 ,-0.00011065,0.00009158,-0.00012187,0.00007726,0.00049870,-0.00017850,
 -0.00009386,-0.00019641,0.00026881,0.00013136,-0.00001984,-0.00014358,
 -0.00080521,-0.00017990,0.00220587,-0.00059993,0.00041132,-0.00036548,
 0.00023218,-0.00012948,0.00046507,0.01235969,0.00509110,-0.01411031,-0
 .00060974,0.00074129,-0.00011700,0.00029105,-0.00171823,-0.00029302,0.
 09110722,0.08798983,-0.16269309,0.00969978,0.01149682,-0.01112691,-0.0
 0986894,-0.00818923,0.02168182,-0.09613426,-0.08921933,0.17164511\\-0.
 00000985,-0.00000049,-0.00000646,0.00000355,-0.00000096,0.00001568,-0.
 00000563,-0.00000212,-0.00000394,0.00001051,-0.00000411,-0.00002041,-0
 .00000448,-0.00000111,0.00000819,0.00000487,0.00000251,0.00000483,-0.0
 0000480,0.00000469,-0.00000412,0.00000456,0.00000228,-0.00000214,0.000
 00104,-0.00000284,0.00000151,0.00000438,-0.00000309,-0.00000387,0.0000
 0059,-0.00000467,0.00000334,0.00000021,0.00000438,-0.00000159,-0.00001
 336,0.00000868,0.00002557,-0.00000464,0.00001796,0.00001752,0.00001172
 ,0.00000120,-0.00000961,0.00000388,-0.00000663,0.00000512,0.00000077,0
 .00000373,-0.00000385,0.00000168,0.00000364,0.00000184,-0.00000208,0.0
 0000153,-0.00000895,0.00000611,-0.00000238,0.00000446,0.00000371,0.000
 00204,-0.00000464,0.00000218,0.00000244,-0.00001199,0.00000456,-0.0000
 0786,-0.00000722,0.00001874,-0.00000439,-0.00000796,0.00001194,-0.0000
 1859,0.00000698,-0.00000625,-0.00000525,0.00001273,-0.00002105,0.00000
 187,-0.00000249,0.00001804,-0.00000360,-0.00000746,-0.00001538,0.00001
 363,-0.00000479,-0.00000209,-0.00000127,0.00000750,0.00000648,0.000004
 07,0.00000415,0.00000501,0.00000207,0.00000709,-0.00000643,0.00000377,
 0.00001096,-0.00000116,0.00000068,0.00001031,0.00000713,-0.00000397,0.
 00000395,0.00000250,-0.00000475,-0.00000047,-0.00002031,-0.00000103,-0
 .00000085,-0.00000565,-0.00001805,0.00001399,0.00000245,0.00000376,0.0
 0000063,-0.00000463,0.00000032,0.00000314,0.00000633,0.00000545,-0.000
 00984,-0.00000917,0.00000078,0.00001217,-0.00001085,0.00000012,0.00000
 509,0.00000212,0.00000160,0.00001046,-0.00000097,-0.00000261,0.0000038
 4,0.00001054,0.00001583,-0.00001829,-0.00000596,-0.00000756,0.00000206
 ,0.00000906,0.00000798,-0.00000101,0.00002496,-0.00000073,0.00000106,-
 0.00000331,0.00001241,-0.00000257,0.00000107,-0.00000797,0.00000012,-0
 .00000335,0.00000865,-0.00000375,-0.00000527,-0.00000416,0.00000021,-0
 .00000106,-0.00000797,0.00000174,-0.00000264,0.00000277,0.00000041,0.0
 0000079,-0.00000351,0.00000327,0.00000162,0.00000562,0.00000548,-0.000
 00426,-0.00000069,0.00001121,-0.00000497,-0.00000158,-0.00000990,0.000
 00253,-0.00000379,-0.00000014,-0.00000149,-0.00000183,0.00000115,-0.00
 000927,0.00000774,0.00001311,-0.00000070,0.00000277,-0.00000086,0.0000
 0578,0.00000265,0.00000196,0.00000840,-0.00000392,-0.00000690,0.000003
 05,-0.00000076,-0.00001303,0.00000120,-0.00000139,-0.00000200,-0.00000
 329,-0.00000150,-0.00000078,-0.00000188,-0.00000066,-0.00000255,0.0000
 0158,0.00000007,-0.00000563,0.00000263,0.00000116,-0.00000214,-0.00000
 168,0.00000030,-0.00000379,-0.00000085,0.00000180,-0.00000030,-0.00000
 232,0.00000470,-0.00000426,-0.00000116,-0.00000390,-0.00000433,-0.0000
 0202,-0.00000100,-0.00000286,-0.00000405,-0.00000108,0.00000023,-0.000
 00666,0.00000601,-0.00000178,-0.00000600,-0.00000173,-0.00000246,-0.00
 000041,-0.00000066,-0.00000559,0.00000438,0.00000948,0.00001752,0.0000
 0404,-0.00000165,-0.00001113,-0.00000684,-0.00001475,-0.00002642,0.000
 00151,-0.00001059,-0.00000548\\\@


 YOU ARE IN A MAZE OF TWISTY LITTLE PASSAGES.
 Job cpu time:      25 days  5 hours 57 minutes 17.5 seconds.
 File lengths (MBytes):  RWF=  23875 Int=      0 D2E=      0 Chk=     99 Scr=      1
 Normal termination of Gaussian 09 at Tue May  3 13:50:36 2016.
