 Entering Gaussian System, Link 0=g09
 Initial command:
 /share/apps//g09/l1.exe "/scratch/Gau-1393.inp" -scrdir="/scratch/"
 Entering Link 1 = /share/apps//g09/l1.exe PID=      1395.
  
 Copyright (c) 1988,1990,1992,1993,1995,1998,2003,2009,2013,
            Gaussian, Inc.  All Rights Reserved.
  
 This is part of the Gaussian(R) 09 program.  It is based on
 the Gaussian(R) 03 system (copyright 2003, Gaussian, Inc.),
 the Gaussian(R) 98 system (copyright 1998, Gaussian, Inc.),
 the Gaussian(R) 94 system (copyright 1995, Gaussian, Inc.),
 the Gaussian 92(TM) system (copyright 1992, Gaussian, Inc.),
 the Gaussian 90(TM) system (copyright 1990, Gaussian, Inc.),
 the Gaussian 88(TM) system (copyright 1988, Gaussian, Inc.),
 the Gaussian 86(TM) system (copyright 1986, Carnegie Mellon
 University), and the Gaussian 82(TM) system (copyright 1983,
 Carnegie Mellon University). Gaussian is a federally registered
 trademark of Gaussian, Inc.
  
 This software contains proprietary and confidential information,
 including trade secrets, belonging to Gaussian, Inc.
  
 This software is provided under written license and may be
 used, copied, transmitted, or stored only in accord with that
 written license.
  
 The following legend is applicable only to US Government
 contracts under FAR:
  
                    RESTRICTED RIGHTS LEGEND
  
 Use, reproduction and disclosure by the US Government is
 subject to restrictions as set forth in subparagraphs (a)
 and (c) of the Commercial Computer Software - Restricted
 Rights clause in FAR 52.227-19.
  
 Gaussian, Inc.
 340 Quinnipiac St., Bldg. 40, Wallingford CT 06492
  
  
 ---------------------------------------------------------------
 Warning -- This program may not be used in any manner that
 competes with the business of Gaussian, Inc. or will provide
 assistance to any competitor of Gaussian, Inc.  The licensee
 of this program is prohibited from giving any competitor of
 Gaussian, Inc. access to this program.  By using this program,
 the user acknowledges that Gaussian, Inc. is engaged in the
 business of creating and licensing software in the field of
 computational chemistry and represents and warrants to the
 licensee that it is not a competitor of Gaussian, Inc. and that
 it will not use this program in any manner prohibited above.
 ---------------------------------------------------------------
  

 Cite this work as:
 Gaussian 09, Revision D.01,
 M. J. Frisch, G. W. Trucks, H. B. Schlegel, G. E. Scuseria, 
 M. A. Robb, J. R. Cheeseman, G. Scalmani, V. Barone, B. Mennucci, 
 G. A. Petersson, H. Nakatsuji, M. Caricato, X. Li, H. P. Hratchian, 
 A. F. Izmaylov, J. Bloino, G. Zheng, J. L. Sonnenberg, M. Hada, 
 M. Ehara, K. Toyota, R. Fukuda, J. Hasegawa, M. Ishida, T. Nakajima, 
 Y. Honda, O. Kitao, H. Nakai, T. Vreven, J. A. Montgomery, Jr., 
 J. E. Peralta, F. Ogliaro, M. Bearpark, J. J. Heyd, E. Brothers, 
 K. N. Kudin, V. N. Staroverov, T. Keith, R. Kobayashi, J. Normand, 
 K. Raghavachari, A. Rendell, J. C. Burant, S. S. Iyengar, J. Tomasi, 
 M. Cossi, N. Rega, J. M. Millam, M. Klene, J. E. Knox, J. B. Cross, 
 V. Bakken, C. Adamo, J. Jaramillo, R. Gomperts, R. E. Stratmann, 
 O. Yazyev, A. J. Austin, R. Cammi, C. Pomelli, J. W. Ochterski, 
 R. L. Martin, K. Morokuma, V. G. Zakrzewski, G. A. Voth, 
 P. Salvador, J. J. Dannenberg, S. Dapprich, A. D. Daniels, 
 O. Farkas, J. B. Foresman, J. V. Ortiz, J. Cioslowski, 
 and D. J. Fox, Gaussian, Inc., Wallingford CT, 2013.
 
 ******************************************
 Gaussian 09:  EM64L-G09RevD.01 24-Apr-2013
                 6-Apr-2016 
 ******************************************
 %nproc=20
 Will use up to   20 processors via shared memory.
 %mem=80GB
 %chk=Tri_A131_of.chk
 ----------------------------------------------------------------------
 #P PBE1PBE/6-311+G(d,p) opt=ModRedundant freq optcyc=999 EmpiricalDisp
 ersion=GD3
 ----------------------------------------------------------------------
 1/6=999,14=-1,18=120,19=15,26=3,38=1/1,3;
 2/9=110,12=2,17=6,18=5,40=1/2;
 3/5=4,6=6,7=111,11=2,16=1,25=1,30=1,71=1,74=-13,124=31/1,2,3;
 4//1;
 5/5=2,38=5/2;
 6/7=2,8=2,9=2,10=2,28=1/1;
 7//1,2,3,16;
 1/6=999,14=-1,18=20,19=15,26=3/3(2);
 2/9=110/2;
 99//99;
 2/9=110/2;
 3/5=4,6=6,7=111,11=2,16=1,25=1,30=1,71=1,74=-13,124=31/1,2,3;
 4/5=5,16=3,69=1/1;
 5/5=2,38=5/2;
 7//1,2,3,16;
 1/6=999,14=-1,18=20,19=15,26=3/3(-5);
 2/9=110/2;
 6/7=2,8=2,9=2,10=2,19=2,28=1/1;
 99/9=1/99;
 Leave Link    1 at Wed Apr  6 15:55:04 2016, MaxMem= 10737418240 cpu:         2.4
 (Enter /share/apps//g09/l101.exe)
 -------
 disacch
 -------
 Symbolic Z-matrix:
 Charge =  1 Multiplicity = 1
 O                    -0.52742  -6.0278    7.71992 
 C                    -1.88535  -6.4492    7.7152 
 C                    -2.29428  -6.98958   9.09085 
 C                    -1.99721  -5.9719    10.1987 
 C                    -0.5291   -5.52549   10.15077 
 C                    -0.18993  -5.06001   8.73126 
 H                    -1.93875  -7.22763   6.94368 
 H                    -1.69467  -7.89369   9.27447 
 H                    -2.64009  -5.07932   10.05646 
 H                    -0.4079   -4.65743   10.83236 
 H                    -0.74968  -4.12176   8.54152 
 O                     0.34915  -6.5783    10.52566 
 O                    -2.21793  -6.53633   11.4891 
 O                    -3.65781  -7.40463   9.12582 
 O                    -2.7916   -5.38162   7.4062 
 C                     1.29429  -4.78035   8.54812 
 H                     1.64744  -4.09813   9.33385 
 H                     1.86152  -5.71825   8.62458 
 O                     1.57031  -4.13041   7.28624 
 H                     1.40697  -4.76998   6.55867 
 H                    -0.06675  -7.00736   11.29948 
 H                    -3.03689  -7.06523   11.43192 
 H                    -4.18006  -6.6772    8.73417 
 O                    -2.70276  -2.96143   4.04503 
 C                    -1.98461  -4.18244   3.85149 
 C                    -1.78482  -4.99428   5.1557 
 C                    -3.05325  -5.0691    6.01582 
 C                    -3.77351  -3.71621   6.06953 
 C                    -3.98061  -3.18132   4.65708 
 H                    -2.51891  -4.8162    3.12063 
 H                    -1.02838  -4.49649   5.78083 
 H                    -3.72844  -5.8361    5.59421 
 H                    -4.75484  -3.83586   6.55785 
 H                    -4.56148  -3.92662   4.07889 
 O                    -2.9789   -2.75101   6.78644 
 O                    -1.37142  -6.30938   4.81285 
 O                    -0.76572  -3.87189   3.20664 
 C                    -4.73516  -1.85453   4.60983 
 H                    -4.19044  -1.09548   5.19846 
 H                    -4.78082  -1.52406   3.5578 
 O                    -6.03026  -2.11293   5.14851 
 H                    -6.55006  -1.29339   5.11507 
 H                    -2.78084  -3.17158   7.64307 
 H                    -0.41726  -6.25233   4.5976 
 O                     1.74002  -1.32832   4.15656 
 C                     2.93851  -2.01383   3.71629 
 C                     2.86303  -3.48423   4.13023 
 C                     1.54486  -4.14484   3.72907 
 C                     0.3006   -3.28807   3.97078 
 C                     0.49983  -1.81253   3.57839 
 H                     3.03844  -1.8927    2.6193 
 H                     2.94404  -3.50244   5.23306 
 H                     1.58617  -4.39885   2.6554 
 H                     0.54162  -1.70934   2.47863 
 H                     0.07223  -3.29552   5.04727 
 O                     1.38058  -5.3616    4.50182 
 O                     3.89424  -4.27262   3.54409 
 O                     4.00307  -1.45843   4.41636 
 C                    -0.59504  -0.89167   4.12928 
 H                    -0.27336   0.14709   3.95914 
 H                    -1.52395  -1.0695    3.57579 
 O                    -0.79406  -1.0605    5.53912 
 H                    -1.58322  -1.62724   5.68787 
 H                     2.11125  -5.95725   4.24842 
 H                     4.74772  -3.98381   3.9143 
 C                     4.43496  -0.1331    3.98733 
 H                     5.39875  -0.25515   3.46953 
 H                     3.70226   0.27834   3.27593 
 C                     4.58395   0.77788   5.19761 
 H                     5.11656   1.6769    4.85193 
 H                     5.26715   0.29468   5.91541 
 C                     3.25696   1.19231   5.88215 
 H                     3.19004   2.28939   5.89563 
 H                     2.40434   0.86168   5.26773 
 C                     3.07915   0.72058   7.33648 
 H                     3.93916   1.05721   7.93739 
 H                     2.20089   1.22392   7.77528 
 C                     2.94848  -0.78406   7.56236 
 H                     2.90172  -1.01126   8.63571 
 H                     3.79418  -1.3375    7.13221 
 N                     1.7169   -1.35555   6.92496 
 H                     1.60693  -2.38318   7.12684 
 H                     1.75498  -1.27332   5.87473 
 H                     0.84328  -0.87832   7.1883 
 
 The following ModRedundant input section has been read:
 B      19      82 B                                                           
 B      45      83 B                                                           
 B      62      84 B                                                           
 B      35      63 B                                                           
 B      20      56 B                                                           
 
 NAtoms=     84 NQM=       84 NQMF=       0 NMMI=      0 NMMIF=      0
                NMic=       0 NMicF=      0.
                    Isotopes and Nuclear Properties:
 (Nuclear quadrupole moments (NQMom) in fm**2, nuclear magnetic moments (NMagM)
  in nuclear magnetons)

  Atom         1           2           3           4           5           6           7           8           9          10
 IAtWgt=          16          12          12          12          12          12           1           1           1           1
 AtmWgt=  15.9949146  12.0000000  12.0000000  12.0000000  12.0000000  12.0000000   1.0078250   1.0078250   1.0078250   1.0078250
 NucSpn=           0           0           0           0           0           0           1           1           1           1
 AtZEff=   0.0000000   0.0000000   0.0000000   0.0000000   0.0000000   0.0000000   0.0000000   0.0000000   0.0000000   0.0000000
 NQMom=    0.0000000   0.0000000   0.0000000   0.0000000   0.0000000   0.0000000   0.0000000   0.0000000   0.0000000   0.0000000
 NMagM=    0.0000000   0.0000000   0.0000000   0.0000000   0.0000000   0.0000000   2.7928460   2.7928460   2.7928460   2.7928460
 AtZNuc=   8.0000000   6.0000000   6.0000000   6.0000000   6.0000000   6.0000000   1.0000000   1.0000000   1.0000000   1.0000000

  Atom        11          12          13          14          15          16          17          18          19          20
 IAtWgt=           1          16          16          16          16          12           1           1          16           1
 AtmWgt=   1.0078250  15.9949146  15.9949146  15.9949146  15.9949146  12.0000000   1.0078250   1.0078250  15.9949146   1.0078250
 NucSpn=           1           0           0           0           0           0           1           1           0           1
 AtZEff=   0.0000000   0.0000000   0.0000000   0.0000000   0.0000000   0.0000000   0.0000000   0.0000000   0.0000000   0.0000000
 NQMom=    0.0000000   0.0000000   0.0000000   0.0000000   0.0000000   0.0000000   0.0000000   0.0000000   0.0000000   0.0000000
 NMagM=    2.7928460   0.0000000   0.0000000   0.0000000   0.0000000   0.0000000   2.7928460   2.7928460   0.0000000   2.7928460
 AtZNuc=   1.0000000   8.0000000   8.0000000   8.0000000   8.0000000   6.0000000   1.0000000   1.0000000   8.0000000   1.0000000

  Atom        21          22          23          24          25          26          27          28          29          30
 IAtWgt=           1           1           1          16          12          12          12          12          12           1
 AtmWgt=   1.0078250   1.0078250   1.0078250  15.9949146  12.0000000  12.0000000  12.0000000  12.0000000  12.0000000   1.0078250
 NucSpn=           1           1           1           0           0           0           0           0           0           1
 AtZEff=   0.0000000   0.0000000   0.0000000   0.0000000   0.0000000   0.0000000   0.0000000   0.0000000   0.0000000   0.0000000
 NQMom=    0.0000000   0.0000000   0.0000000   0.0000000   0.0000000   0.0000000   0.0000000   0.0000000   0.0000000   0.0000000
 NMagM=    2.7928460   2.7928460   2.7928460   0.0000000   0.0000000   0.0000000   0.0000000   0.0000000   0.0000000   2.7928460
 AtZNuc=   1.0000000   1.0000000   1.0000000   8.0000000   6.0000000   6.0000000   6.0000000   6.0000000   6.0000000   1.0000000

  Atom        31          32          33          34          35          36          37          38          39          40
 IAtWgt=           1           1           1           1          16          16          16          12           1           1
 AtmWgt=   1.0078250   1.0078250   1.0078250   1.0078250  15.9949146  15.9949146  15.9949146  12.0000000   1.0078250   1.0078250
 NucSpn=           1           1           1           1           0           0           0           0           1           1
 AtZEff=   0.0000000   0.0000000   0.0000000   0.0000000   0.0000000   0.0000000   0.0000000   0.0000000   0.0000000   0.0000000
 NQMom=    0.0000000   0.0000000   0.0000000   0.0000000   0.0000000   0.0000000   0.0000000   0.0000000   0.0000000   0.0000000
 NMagM=    2.7928460   2.7928460   2.7928460   2.7928460   0.0000000   0.0000000   0.0000000   0.0000000   2.7928460   2.7928460
 AtZNuc=   1.0000000   1.0000000   1.0000000   1.0000000   8.0000000   8.0000000   8.0000000   6.0000000   1.0000000   1.0000000

  Atom        41          42          43          44          45          46          47          48          49          50
 IAtWgt=          16           1           1           1          16          12          12          12          12          12
 AtmWgt=  15.9949146   1.0078250   1.0078250   1.0078250  15.9949146  12.0000000  12.0000000  12.0000000  12.0000000  12.0000000
 NucSpn=           0           1           1           1           0           0           0           0           0           0
 AtZEff=   0.0000000   0.0000000   0.0000000   0.0000000   0.0000000   0.0000000   0.0000000   0.0000000   0.0000000   0.0000000
 NQMom=    0.0000000   0.0000000   0.0000000   0.0000000   0.0000000   0.0000000   0.0000000   0.0000000   0.0000000   0.0000000
 NMagM=    0.0000000   2.7928460   2.7928460   2.7928460   0.0000000   0.0000000   0.0000000   0.0000000   0.0000000   0.0000000
 AtZNuc=   8.0000000   1.0000000   1.0000000   1.0000000   8.0000000   6.0000000   6.0000000   6.0000000   6.0000000   6.0000000

  Atom        51          52          53          54          55          56          57          58          59          60
 IAtWgt=           1           1           1           1           1          16          16          16          12           1
 AtmWgt=   1.0078250   1.0078250   1.0078250   1.0078250   1.0078250  15.9949146  15.9949146  15.9949146  12.0000000   1.0078250
 NucSpn=           1           1           1           1           1           0           0           0           0           1
 AtZEff=   0.0000000   0.0000000   0.0000000   0.0000000   0.0000000   0.0000000   0.0000000   0.0000000   0.0000000   0.0000000
 NQMom=    0.0000000   0.0000000   0.0000000   0.0000000   0.0000000   0.0000000   0.0000000   0.0000000   0.0000000   0.0000000
 NMagM=    2.7928460   2.7928460   2.7928460   2.7928460   2.7928460   0.0000000   0.0000000   0.0000000   0.0000000   2.7928460
 AtZNuc=   1.0000000   1.0000000   1.0000000   1.0000000   1.0000000   8.0000000   8.0000000   8.0000000   6.0000000   1.0000000

  Atom        61          62          63          64          65          66          67          68          69          70
 IAtWgt=           1          16           1           1           1          12           1           1          12           1
 AtmWgt=   1.0078250  15.9949146   1.0078250   1.0078250   1.0078250  12.0000000   1.0078250   1.0078250  12.0000000   1.0078250
 NucSpn=           1           0           1           1           1           0           1           1           0           1
 AtZEff=   0.0000000   0.0000000   0.0000000   0.0000000   0.0000000   0.0000000   0.0000000   0.0000000   0.0000000   0.0000000
 NQMom=    0.0000000   0.0000000   0.0000000   0.0000000   0.0000000   0.0000000   0.0000000   0.0000000   0.0000000   0.0000000
 NMagM=    2.7928460   0.0000000   2.7928460   2.7928460   2.7928460   0.0000000   2.7928460   2.7928460   0.0000000   2.7928460
 AtZNuc=   1.0000000   8.0000000   1.0000000   1.0000000   1.0000000   6.0000000   1.0000000   1.0000000   6.0000000   1.0000000

  Atom        71          72          73          74          75          76          77          78          79          80
 IAtWgt=           1          12           1           1          12           1           1          12           1           1
 AtmWgt=   1.0078250  12.0000000   1.0078250   1.0078250  12.0000000   1.0078250   1.0078250  12.0000000   1.0078250   1.0078250
 NucSpn=           1           0           1           1           0           1           1           0           1           1
 AtZEff=   0.0000000   0.0000000   0.0000000   0.0000000   0.0000000   0.0000000   0.0000000   0.0000000   0.0000000   0.0000000
 NQMom=    0.0000000   0.0000000   0.0000000   0.0000000   0.0000000   0.0000000   0.0000000   0.0000000   0.0000000   0.0000000
 NMagM=    2.7928460   0.0000000   2.7928460   2.7928460   0.0000000   2.7928460   2.7928460   0.0000000   2.7928460   2.7928460
 AtZNuc=   1.0000000   6.0000000   1.0000000   1.0000000   6.0000000   1.0000000   1.0000000   6.0000000   1.0000000   1.0000000

  Atom        81          82          83          84
 IAtWgt=          14           1           1           1
 AtmWgt=  14.0030740   1.0078250   1.0078250   1.0078250
 NucSpn=           2           1           1           1
 AtZEff=   0.0000000   0.0000000   0.0000000   0.0000000
 NQMom=    2.0440000   0.0000000   0.0000000   0.0000000
 NMagM=    0.4037610   2.7928460   2.7928460   2.7928460
 AtZNuc=   7.0000000   1.0000000   1.0000000   1.0000000
 Leave Link  101 at Wed Apr  6 15:55:05 2016, MaxMem= 10737418240 cpu:         5.4
 (Enter /share/apps//g09/l103.exe)

 GradGradGradGradGradGradGradGradGradGradGradGradGradGradGradGradGradGrad
 Berny optimization.
 Initialization pass.
                           ----------------------------
                           !    Initial Parameters    !
                           ! (Angstroms and Degrees)  !
 --------------------------                            --------------------------
 ! Name  Definition              Value          Derivative Info.                !
 --------------------------------------------------------------------------------
 ! R1    R(1,2)                  1.4218         estimate D2E/DX2                !
 ! R2    R(1,6)                  1.4399         estimate D2E/DX2                !
 ! R3    R(2,3)                  1.5335         estimate D2E/DX2                !
 ! R4    R(2,7)                  1.0973         estimate D2E/DX2                !
 ! R5    R(2,15)                 1.434          estimate D2E/DX2                !
 ! R6    R(3,4)                  1.5334         estimate D2E/DX2                !
 ! R7    R(3,8)                  1.1003         estimate D2E/DX2                !
 ! R8    R(3,14)                 1.4257         estimate D2E/DX2                !
 ! R9    R(4,5)                  1.5352         estimate D2E/DX2                !
 ! R10   R(4,9)                  1.1092         estimate D2E/DX2                !
 ! R11   R(4,13)                 1.4256         estimate D2E/DX2                !
 ! R12   R(5,6)                  1.5319         estimate D2E/DX2                !
 ! R13   R(5,10)                 1.1103         estimate D2E/DX2                !
 ! R14   R(5,12)                 1.4214         estimate D2E/DX2                !
 ! R15   R(6,11)                 1.1089         estimate D2E/DX2                !
 ! R16   R(6,16)                 1.5214         estimate D2E/DX2                !
 ! R17   R(12,21)                0.9777         estimate D2E/DX2                !
 ! R18   R(13,22)                0.9766         estimate D2E/DX2                !
 ! R19   R(14,23)                0.9774         estimate D2E/DX2                !
 ! R20   R(15,27)                1.4489         estimate D2E/DX2                !
 ! R21   R(16,17)                1.0989         estimate D2E/DX2                !
 ! R22   R(16,18)                1.0988         estimate D2E/DX2                !
 ! R23   R(16,19)                1.446          estimate D2E/DX2                !
 ! R24   R(19,20)                0.9824         estimate D2E/DX2                !
 ! R25   R(19,82)                1.7549         estimate D2E/DX2                !
 ! R26   R(20,56)                2.1404         estimate D2E/DX2                !
 ! R27   R(24,25)                1.4297         estimate D2E/DX2                !
 ! R28   R(24,29)                1.4338         estimate D2E/DX2                !
 ! R29   R(25,26)                1.5492         estimate D2E/DX2                !
 ! R30   R(25,30)                1.1051         estimate D2E/DX2                !
 ! R31   R(25,37)                1.4135         estimate D2E/DX2                !
 ! R32   R(26,27)                1.5344         estimate D2E/DX2                !
 ! R33   R(26,31)                1.1004         estimate D2E/DX2                !
 ! R34   R(26,36)                1.4205         estimate D2E/DX2                !
 ! R35   R(27,28)                1.5336         estimate D2E/DX2                !
 ! R36   R(27,32)                1.1054         estimate D2E/DX2                !
 ! R37   R(28,29)                1.5245         estimate D2E/DX2                !
 ! R38   R(28,33)                1.1026         estimate D2E/DX2                !
 ! R39   R(28,35)                1.4412         estimate D2E/DX2                !
 ! R40   R(29,34)                1.1078         estimate D2E/DX2                !
 ! R41   R(29,38)                1.5271         estimate D2E/DX2                !
 ! R42   R(35,43)                0.9746         estimate D2E/DX2                !
 ! R43   R(35,63)                2.1018         estimate D2E/DX2                !
 ! R44   R(36,44)                0.9798         estimate D2E/DX2                !
 ! R45   R(37,49)                1.4359         estimate D2E/DX2                !
 ! R46   R(38,39)                1.1042         estimate D2E/DX2                !
 ! R47   R(38,40)                1.1037         estimate D2E/DX2                !
 ! R48   R(38,41)                1.4263         estimate D2E/DX2                !
 ! R49   R(41,42)                0.9711         estimate D2E/DX2                !
 ! R50   R(45,46)                1.4492         estimate D2E/DX2                !
 ! R51   R(45,50)                1.4515         estimate D2E/DX2                !
 ! R52   R(45,83)                1.7191         estimate D2E/DX2                !
 ! R53   R(46,47)                1.5294         estimate D2E/DX2                !
 ! R54   R(46,51)                1.1082         estimate D2E/DX2                !
 ! R55   R(46,58)                1.3899         estimate D2E/DX2                !
 ! R56   R(47,48)                1.528          estimate D2E/DX2                !
 ! R57   R(47,52)                1.106          estimate D2E/DX2                !
 ! R58   R(47,57)                1.4243         estimate D2E/DX2                !
 ! R59   R(48,49)                1.5299         estimate D2E/DX2                !
 ! R60   R(48,53)                1.1041         estimate D2E/DX2                !
 ! R61   R(48,56)                1.4507         estimate D2E/DX2                !
 ! R62   R(49,50)                1.5398         estimate D2E/DX2                !
 ! R63   R(49,55)                1.1005         estimate D2E/DX2                !
 ! R64   R(50,54)                1.1054         estimate D2E/DX2                !
 ! R65   R(50,59)                1.533          estimate D2E/DX2                !
 ! R66   R(56,64)                0.9762         estimate D2E/DX2                !
 ! R67   R(57,65)                0.9741         estimate D2E/DX2                !
 ! R68   R(58,66)                1.4585         estimate D2E/DX2                !
 ! R69   R(59,60)                1.1007         estimate D2E/DX2                !
 ! R70   R(59,61)                1.0958         estimate D2E/DX2                !
 ! R71   R(59,62)                1.4338         estimate D2E/DX2                !
 ! R72   R(62,63)                0.9829         estimate D2E/DX2                !
 ! R73   R(62,84)                2.3311         estimate D2E/DX2                !
 ! R74   R(66,67)                1.1009         estimate D2E/DX2                !
 ! R75   R(66,68)                1.101          estimate D2E/DX2                !
 ! R76   R(66,69)                1.5221         estimate D2E/DX2                !
 ! R77   R(69,70)                1.1006         estimate D2E/DX2                !
 ! R78   R(69,71)                1.1025         estimate D2E/DX2                !
 ! R79   R(69,72)                1.5496         estimate D2E/DX2                !
 ! R80   R(72,73)                1.0992         estimate D2E/DX2                !
 ! R81   R(72,74)                1.1017         estimate D2E/DX2                !
 ! R82   R(72,75)                1.5392         estimate D2E/DX2                !
 ! R83   R(75,76)                1.1018         estimate D2E/DX2                !
 ! R84   R(75,77)                1.1033         estimate D2E/DX2                !
 ! R85   R(75,78)                1.5271         estimate D2E/DX2                !
 ! R86   R(78,79)                1.0981         estimate D2E/DX2                !
 ! R87   R(78,80)                1.0984         estimate D2E/DX2                !
 ! R88   R(78,81)                1.4999         estimate D2E/DX2                !
 ! R89   R(81,82)                1.053          estimate D2E/DX2                !
 ! R90   R(81,83)                1.0541         estimate D2E/DX2                !
 ! R91   R(81,84)                1.0297         estimate D2E/DX2                !
 ! A1    A(2,1,6)              115.1751         estimate D2E/DX2                !
 ! A2    A(1,2,3)              110.8634         estimate D2E/DX2                !
 ! A3    A(1,2,7)              105.0148         estimate D2E/DX2                !
 ! A4    A(1,2,15)             112.5586         estimate D2E/DX2                !
 ! A5    A(3,2,7)              111.5785         estimate D2E/DX2                !
 ! A6    A(3,2,15)             106.6848         estimate D2E/DX2                !
 ! A7    A(7,2,15)             110.2346         estimate D2E/DX2                !
 ! A8    A(2,3,4)              111.259          estimate D2E/DX2                !
 ! A9    A(2,3,8)              107.0936         estimate D2E/DX2                !
 ! A10   A(2,3,14)             112.3099         estimate D2E/DX2                !
 ! A11   A(4,3,8)              108.6144         estimate D2E/DX2                !
 ! A12   A(4,3,14)             111.1475         estimate D2E/DX2                !
 ! A13   A(8,3,14)             106.1335         estimate D2E/DX2                !
 ! A14   A(3,4,5)              110.836          estimate D2E/DX2                !
 ! A15   A(3,4,9)              109.217          estimate D2E/DX2                !
 ! A16   A(3,4,13)             111.1737         estimate D2E/DX2                !
 ! A17   A(5,4,9)              108.4374         estimate D2E/DX2                !
 ! A18   A(5,4,13)             106.9439         estimate D2E/DX2                !
 ! A19   A(9,4,13)             110.1786         estimate D2E/DX2                !
 ! A20   A(4,5,6)              109.2087         estimate D2E/DX2                !
 ! A21   A(4,5,10)             108.2134         estimate D2E/DX2                !
 ! A22   A(4,5,12)             111.547          estimate D2E/DX2                !
 ! A23   A(6,5,10)             107.885          estimate D2E/DX2                !
 ! A24   A(6,5,12)             109.4308         estimate D2E/DX2                !
 ! A25   A(10,5,12)            110.4712         estimate D2E/DX2                !
 ! A26   A(1,6,5)              113.2481         estimate D2E/DX2                !
 ! A27   A(1,6,11)             109.2809         estimate D2E/DX2                !
 ! A28   A(1,6,16)             105.5248         estimate D2E/DX2                !
 ! A29   A(5,6,11)             107.6915         estimate D2E/DX2                !
 ! A30   A(5,6,16)             112.544          estimate D2E/DX2                !
 ! A31   A(11,6,16)            108.4405         estimate D2E/DX2                !
 ! A32   A(5,12,21)            105.722          estimate D2E/DX2                !
 ! A33   A(4,13,22)            106.9334         estimate D2E/DX2                !
 ! A34   A(3,14,23)            106.5306         estimate D2E/DX2                !
 ! A35   A(2,15,27)            118.7814         estimate D2E/DX2                !
 ! A36   A(6,16,17)            109.9726         estimate D2E/DX2                !
 ! A37   A(6,16,18)            109.7763         estimate D2E/DX2                !
 ! A38   A(6,16,19)            111.9555         estimate D2E/DX2                !
 ! A39   A(17,16,18)           108.3176         estimate D2E/DX2                !
 ! A40   A(17,16,19)           106.4746         estimate D2E/DX2                !
 ! A41   A(18,16,19)           110.2339         estimate D2E/DX2                !
 ! A42   A(16,19,20)           108.7806         estimate D2E/DX2                !
 ! A43   A(16,19,82)           122.0571         estimate D2E/DX2                !
 ! A44   A(20,19,82)           125.7606         estimate D2E/DX2                !
 ! A45   A(19,20,56)           153.342          estimate D2E/DX2                !
 ! A46   A(25,24,29)           111.9919         estimate D2E/DX2                !
 ! A47   A(24,25,26)           113.4759         estimate D2E/DX2                !
 ! A48   A(24,25,30)           109.66           estimate D2E/DX2                !
 ! A49   A(24,25,37)           107.895          estimate D2E/DX2                !
 ! A50   A(26,25,30)           108.5775         estimate D2E/DX2                !
 ! A51   A(26,25,37)           112.8298         estimate D2E/DX2                !
 ! A52   A(30,25,37)           103.9573         estimate D2E/DX2                !
 ! A53   A(25,26,27)           113.0084         estimate D2E/DX2                !
 ! A54   A(25,26,31)           109.2606         estimate D2E/DX2                !
 ! A55   A(25,26,36)           108.6321         estimate D2E/DX2                !
 ! A56   A(27,26,31)           105.7768         estimate D2E/DX2                !
 ! A57   A(27,26,36)           109.3128         estimate D2E/DX2                !
 ! A58   A(31,26,36)           110.8466         estimate D2E/DX2                !
 ! A59   A(15,27,26)           113.5257         estimate D2E/DX2                !
 ! A60   A(15,27,28)           103.9741         estimate D2E/DX2                !
 ! A61   A(15,27,32)           109.0652         estimate D2E/DX2                !
 ! A62   A(26,27,28)           111.3991         estimate D2E/DX2                !
 ! A63   A(26,27,32)           108.9636         estimate D2E/DX2                !
 ! A64   A(28,27,32)           109.7909         estimate D2E/DX2                !
 ! A65   A(27,28,29)           109.9302         estimate D2E/DX2                !
 ! A66   A(27,28,33)           109.741          estimate D2E/DX2                !
 ! A67   A(27,28,35)           110.4436         estimate D2E/DX2                !
 ! A68   A(29,28,33)           109.1168         estimate D2E/DX2                !
 ! A69   A(29,28,35)           107.5063         estimate D2E/DX2                !
 ! A70   A(33,28,35)           110.0647         estimate D2E/DX2                !
 ! A71   A(24,29,28)           109.1617         estimate D2E/DX2                !
 ! A72   A(24,29,34)           110.3464         estimate D2E/DX2                !
 ! A73   A(24,29,38)           107.0922         estimate D2E/DX2                !
 ! A74   A(28,29,34)           108.5877         estimate D2E/DX2                !
 ! A75   A(28,29,38)           113.6185         estimate D2E/DX2                !
 ! A76   A(34,29,38)           108.0174         estimate D2E/DX2                !
 ! A77   A(28,35,43)           105.0857         estimate D2E/DX2                !
 ! A78   A(28,35,63)           117.6587         estimate D2E/DX2                !
 ! A79   A(43,35,63)           123.7221         estimate D2E/DX2                !
 ! A80   A(26,36,44)           106.4106         estimate D2E/DX2                !
 ! A81   A(25,37,49)           119.1386         estimate D2E/DX2                !
 ! A82   A(29,38,39)           109.6941         estimate D2E/DX2                !
 ! A83   A(29,38,40)           108.065          estimate D2E/DX2                !
 ! A84   A(29,38,41)           106.235          estimate D2E/DX2                !
 ! A85   A(39,38,40)           108.8266         estimate D2E/DX2                !
 ! A86   A(39,38,41)           111.7858         estimate D2E/DX2                !
 ! A87   A(40,38,41)           112.1294         estimate D2E/DX2                !
 ! A88   A(38,41,42)           108.6723         estimate D2E/DX2                !
 ! A89   A(46,45,50)           115.3283         estimate D2E/DX2                !
 ! A90   A(46,45,83)           108.1542         estimate D2E/DX2                !
 ! A91   A(50,45,83)           114.5961         estimate D2E/DX2                !
 ! A92   A(45,46,47)           109.3743         estimate D2E/DX2                !
 ! A93   A(45,46,51)           108.8814         estimate D2E/DX2                !
 ! A94   A(45,46,58)           106.9407         estimate D2E/DX2                !
 ! A95   A(47,46,51)           112.1764         estimate D2E/DX2                !
 ! A96   A(47,46,58)           106.5978         estimate D2E/DX2                !
 ! A97   A(51,46,58)           112.6966         estimate D2E/DX2                !
 ! A98   A(46,47,48)           112.778          estimate D2E/DX2                !
 ! A99   A(46,47,52)           106.3858         estimate D2E/DX2                !
 ! A100  A(46,47,57)           112.6479         estimate D2E/DX2                !
 ! A101  A(48,47,52)           108.5337         estimate D2E/DX2                !
 ! A102  A(48,47,57)           106.0953         estimate D2E/DX2                !
 ! A103  A(52,47,57)           110.3791         estimate D2E/DX2                !
 ! A104  A(47,48,49)           114.7083         estimate D2E/DX2                !
 ! A105  A(47,48,53)           108.8134         estimate D2E/DX2                !
 ! A106  A(47,48,56)           108.6898         estimate D2E/DX2                !
 ! A107  A(49,48,53)           108.2344         estimate D2E/DX2                !
 ! A108  A(49,48,56)           107.064          estimate D2E/DX2                !
 ! A109  A(53,48,56)           109.2242         estimate D2E/DX2                !
 ! A110  A(37,49,48)           106.989          estimate D2E/DX2                !
 ! A111  A(37,49,50)           110.4935         estimate D2E/DX2                !
 ! A112  A(37,49,55)           111.3283         estimate D2E/DX2                !
 ! A113  A(48,49,50)           113.0266         estimate D2E/DX2                !
 ! A114  A(48,49,55)           108.6343         estimate D2E/DX2                !
 ! A115  A(50,49,55)           106.4168         estimate D2E/DX2                !
 ! A116  A(45,50,49)           109.1915         estimate D2E/DX2                !
 ! A117  A(45,50,54)           109.4424         estimate D2E/DX2                !
 ! A118  A(45,50,59)           105.4678         estimate D2E/DX2                !
 ! A119  A(49,50,54)           110.3584         estimate D2E/DX2                !
 ! A120  A(49,50,59)           113.0565         estimate D2E/DX2                !
 ! A121  A(54,50,59)           109.1744         estimate D2E/DX2                !
 ! A122  A(20,56,48)           106.1793         estimate D2E/DX2                !
 ! A123  A(20,56,64)           114.135          estimate D2E/DX2                !
 ! A124  A(48,56,64)           106.7831         estimate D2E/DX2                !
 ! A125  A(47,57,65)           108.2912         estimate D2E/DX2                !
 ! A126  A(46,58,66)           116.2164         estimate D2E/DX2                !
 ! A127  A(50,59,60)           107.6151         estimate D2E/DX2                !
 ! A128  A(50,59,61)           109.0515         estimate D2E/DX2                !
 ! A129  A(50,59,62)           112.4419         estimate D2E/DX2                !
 ! A130  A(60,59,61)           108.8335         estimate D2E/DX2                !
 ! A131  A(60,59,62)           107.6796         estimate D2E/DX2                !
 ! A132  A(61,59,62)           111.0927         estimate D2E/DX2                !
 ! A133  A(59,62,63)           109.1566         estimate D2E/DX2                !
 ! A134  A(59,62,84)           126.0832         estimate D2E/DX2                !
 ! A135  A(63,62,84)           120.1287         estimate D2E/DX2                !
 ! A136  A(35,63,62)           157.0043         estimate D2E/DX2                !
 ! A137  A(58,66,67)           107.2698         estimate D2E/DX2                !
 ! A138  A(58,66,68)           109.4259         estimate D2E/DX2                !
 ! A139  A(58,66,69)           109.8128         estimate D2E/DX2                !
 ! A140  A(67,66,68)           108.671          estimate D2E/DX2                !
 ! A141  A(67,66,69)           110.7721         estimate D2E/DX2                !
 ! A142  A(68,66,69)           110.8084         estimate D2E/DX2                !
 ! A143  A(66,69,70)           106.6484         estimate D2E/DX2                !
 ! A144  A(66,69,71)           108.4232         estimate D2E/DX2                !
 ! A145  A(66,69,72)           115.3085         estimate D2E/DX2                !
 ! A146  A(70,69,71)           105.2247         estimate D2E/DX2                !
 ! A147  A(70,69,72)           109.5533         estimate D2E/DX2                !
 ! A148  A(71,69,72)           111.1168         estimate D2E/DX2                !
 ! A149  A(69,72,73)           108.9341         estimate D2E/DX2                !
 ! A150  A(69,72,74)           109.6395         estimate D2E/DX2                !
 ! A151  A(69,72,75)           115.7438         estimate D2E/DX2                !
 ! A152  A(73,72,74)           105.0254         estimate D2E/DX2                !
 ! A153  A(73,72,75)           106.694          estimate D2E/DX2                !
 ! A154  A(74,72,75)           110.2159         estimate D2E/DX2                !
 ! A155  A(72,75,76)           109.3595         estimate D2E/DX2                !
 ! A156  A(72,75,77)           109.1428         estimate D2E/DX2                !
 ! A157  A(72,75,78)           116.8467         estimate D2E/DX2                !
 ! A158  A(76,75,77)           105.3695         estimate D2E/DX2                !
 ! A159  A(76,75,78)           106.6871         estimate D2E/DX2                !
 ! A160  A(77,75,78)           108.8181         estimate D2E/DX2                !
 ! A161  A(75,78,79)           110.6143         estimate D2E/DX2                !
 ! A162  A(75,78,80)           111.8782         estimate D2E/DX2                !
 ! A163  A(75,78,81)           112.5084         estimate D2E/DX2                !
 ! A164  A(79,78,80)           108.1382         estimate D2E/DX2                !
 ! A165  A(79,78,81)           107.5525         estimate D2E/DX2                !
 ! A166  A(80,78,81)           105.8903         estimate D2E/DX2                !
 ! A167  A(78,81,82)           112.0929         estimate D2E/DX2                !
 ! A168  A(78,81,83)           111.3465         estimate D2E/DX2                !
 ! A169  A(78,81,84)           114.2911         estimate D2E/DX2                !
 ! A170  A(82,81,83)           105.7179         estimate D2E/DX2                !
 ! A171  A(82,81,84)           108.3397         estimate D2E/DX2                !
 ! A172  A(83,81,84)           104.4355         estimate D2E/DX2                !
 ! A173  A(62,84,81)           112.2576         estimate D2E/DX2                !
 ! A174  L(19,82,81,24,-1)     180.4077         estimate D2E/DX2                !
 ! A175  L(45,83,81,2,-1)      173.3621         estimate D2E/DX2                !
 ! A176  L(19,82,81,24,-2)     187.6071         estimate D2E/DX2                !
 ! A177  L(45,83,81,2,-2)      178.391          estimate D2E/DX2                !
 ! D1    D(6,1,2,3)            -55.2345         estimate D2E/DX2                !
 ! D2    D(6,1,2,7)           -175.8799         estimate D2E/DX2                !
 ! D3    D(6,1,2,15)            64.1741         estimate D2E/DX2                !
 ! D4    D(2,1,6,5)             55.8871         estimate D2E/DX2                !
 ! D5    D(2,1,6,11)           -64.1581         estimate D2E/DX2                !
 ! D6    D(2,1,6,16)           179.4197         estimate D2E/DX2                !
 ! D7    D(1,2,3,4)             53.8867         estimate D2E/DX2                !
 ! D8    D(1,2,3,8)            -64.6667         estimate D2E/DX2                !
 ! D9    D(1,2,3,14)           179.2022         estimate D2E/DX2                !
 ! D10   D(7,2,3,4)            170.5583         estimate D2E/DX2                !
 ! D11   D(7,2,3,8)             52.0049         estimate D2E/DX2                !
 ! D12   D(7,2,3,14)           -64.1262         estimate D2E/DX2                !
 ! D13   D(15,2,3,4)           -68.9896         estimate D2E/DX2                !
 ! D14   D(15,2,3,8)           172.457          estimate D2E/DX2                !
 ! D15   D(15,2,3,14)           56.3259         estimate D2E/DX2                !
 ! D16   D(1,2,15,27)           84.8271         estimate D2E/DX2                !
 ! D17   D(3,2,15,27)         -153.3626         estimate D2E/DX2                !
 ! D18   D(7,2,15,27)          -32.0521         estimate D2E/DX2                !
 ! D19   D(2,3,4,5)            -53.798          estimate D2E/DX2                !
 ! D20   D(2,3,4,9)             65.6102         estimate D2E/DX2                !
 ! D21   D(2,3,4,13)          -172.6024         estimate D2E/DX2                !
 ! D22   D(8,3,4,5)             63.8378         estimate D2E/DX2                !
 ! D23   D(8,3,4,9)           -176.7541         estimate D2E/DX2                !
 ! D24   D(8,3,4,13)           -54.9667         estimate D2E/DX2                !
 ! D25   D(14,3,4,5)          -179.7596         estimate D2E/DX2                !
 ! D26   D(14,3,4,9)           -60.3515         estimate D2E/DX2                !
 ! D27   D(14,3,4,13)           61.4359         estimate D2E/DX2                !
 ! D28   D(2,3,14,23)          -48.5373         estimate D2E/DX2                !
 ! D29   D(4,3,14,23)           76.8392         estimate D2E/DX2                !
 ! D30   D(8,3,14,23)         -165.245          estimate D2E/DX2                !
 ! D31   D(3,4,5,6)             52.1164         estimate D2E/DX2                !
 ! D32   D(3,4,5,10)           169.3105         estimate D2E/DX2                !
 ! D33   D(3,4,5,12)           -68.9693         estimate D2E/DX2                !
 ! D34   D(9,4,5,6)            -67.7588         estimate D2E/DX2                !
 ! D35   D(9,4,5,10)            49.4353         estimate D2E/DX2                !
 ! D36   D(9,4,5,12)           171.1554         estimate D2E/DX2                !
 ! D37   D(13,4,5,6)           173.4459         estimate D2E/DX2                !
 ! D38   D(13,4,5,10)          -69.36           estimate D2E/DX2                !
 ! D39   D(13,4,5,12)           52.3602         estimate D2E/DX2                !
 ! D40   D(3,4,13,22)          -41.3738         estimate D2E/DX2                !
 ! D41   D(5,4,13,22)         -162.4893         estimate D2E/DX2                !
 ! D42   D(9,4,13,22)           79.852          estimate D2E/DX2                !
 ! D43   D(4,5,6,1)            -52.5567         estimate D2E/DX2                !
 ! D44   D(4,5,6,11)            68.3906         estimate D2E/DX2                !
 ! D45   D(4,5,6,16)          -172.1435         estimate D2E/DX2                !
 ! D46   D(10,5,6,1)          -169.9582         estimate D2E/DX2                !
 ! D47   D(10,5,6,11)          -49.0108         estimate D2E/DX2                !
 ! D48   D(10,5,6,16)           70.4551         estimate D2E/DX2                !
 ! D49   D(12,5,6,1)            69.8082         estimate D2E/DX2                !
 ! D50   D(12,5,6,11)         -169.2444         estimate D2E/DX2                !
 ! D51   D(12,5,6,16)          -49.7786         estimate D2E/DX2                !
 ! D52   D(4,5,12,21)          -42.6386         estimate D2E/DX2                !
 ! D53   D(6,5,12,21)         -163.5949         estimate D2E/DX2                !
 ! D54   D(10,5,12,21)          77.7657         estimate D2E/DX2                !
 ! D55   D(1,6,16,17)         -176.035          estimate D2E/DX2                !
 ! D56   D(1,6,16,18)          -56.9553         estimate D2E/DX2                !
 ! D57   D(1,6,16,19)           65.8112         estimate D2E/DX2                !
 ! D58   D(5,6,16,17)          -52.0575         estimate D2E/DX2                !
 ! D59   D(5,6,16,18)           67.0223         estimate D2E/DX2                !
 ! D60   D(5,6,16,19)         -170.2112         estimate D2E/DX2                !
 ! D61   D(11,6,16,17)          66.9721         estimate D2E/DX2                !
 ! D62   D(11,6,16,18)        -173.9481         estimate D2E/DX2                !
 ! D63   D(11,6,16,19)         -51.1816         estimate D2E/DX2                !
 ! D64   D(2,15,27,26)         -46.0717         estimate D2E/DX2                !
 ! D65   D(2,15,27,28)        -167.2973         estimate D2E/DX2                !
 ! D66   D(2,15,27,32)          75.6271         estimate D2E/DX2                !
 ! D67   D(6,16,19,20)         -69.1107         estimate D2E/DX2                !
 ! D68   D(6,16,19,82)          91.1564         estimate D2E/DX2                !
 ! D69   D(17,16,19,20)        170.6731         estimate D2E/DX2                !
 ! D70   D(17,16,19,82)        -29.0598         estimate D2E/DX2                !
 ! D71   D(18,16,19,20)         53.3956         estimate D2E/DX2                !
 ! D72   D(18,16,19,82)       -146.3373         estimate D2E/DX2                !
 ! D73   D(16,19,20,56)       -177.2383         estimate D2E/DX2                !
 ! D74   D(82,19,20,56)         23.4104         estimate D2E/DX2                !
 ! D75   D(16,19,81,78)         70.9366         estimate D2E/DX2                !
 ! D76   D(16,19,81,83)       -170.1758         estimate D2E/DX2                !
 ! D77   D(16,19,81,84)        -58.8719         estimate D2E/DX2                !
 ! D78   D(20,19,81,78)       -129.8904         estimate D2E/DX2                !
 ! D79   D(20,19,81,83)        -11.0027         estimate D2E/DX2                !
 ! D80   D(20,19,81,84)        100.3011         estimate D2E/DX2                !
 ! D81   D(19,20,56,48)        -13.2676         estimate D2E/DX2                !
 ! D82   D(19,20,56,64)        104.0842         estimate D2E/DX2                !
 ! D83   D(29,24,25,26)        -56.131          estimate D2E/DX2                !
 ! D84   D(29,24,25,30)         65.4703         estimate D2E/DX2                !
 ! D85   D(29,24,25,37)        178.0836         estimate D2E/DX2                !
 ! D86   D(25,24,29,28)         65.344          estimate D2E/DX2                !
 ! D87   D(25,24,29,34)        -53.9155         estimate D2E/DX2                !
 ! D88   D(25,24,29,38)       -171.2483         estimate D2E/DX2                !
 ! D89   D(24,25,26,27)         44.2068         estimate D2E/DX2                !
 ! D90   D(24,25,26,31)        -73.2631         estimate D2E/DX2                !
 ! D91   D(24,25,26,36)        165.6973         estimate D2E/DX2                !
 ! D92   D(30,25,26,27)        -77.9972         estimate D2E/DX2                !
 ! D93   D(30,25,26,31)        164.5329         estimate D2E/DX2                !
 ! D94   D(30,25,26,36)         43.4933         estimate D2E/DX2                !
 ! D95   D(37,25,26,27)        167.3212         estimate D2E/DX2                !
 ! D96   D(37,25,26,31)         49.8512         estimate D2E/DX2                !
 ! D97   D(37,25,26,36)        -71.1883         estimate D2E/DX2                !
 ! D98   D(24,25,37,49)         76.3695         estimate D2E/DX2                !
 ! D99   D(26,25,37,49)        -49.7966         estimate D2E/DX2                !
 ! D100  D(30,25,37,49)       -167.236          estimate D2E/DX2                !
 ! D101  D(25,26,27,15)       -159.0552         estimate D2E/DX2                !
 ! D102  D(25,26,27,28)        -42.0882         estimate D2E/DX2                !
 ! D103  D(25,26,27,32)         79.1894         estimate D2E/DX2                !
 ! D104  D(31,26,27,15)        -39.5581         estimate D2E/DX2                !
 ! D105  D(31,26,27,28)         77.4089         estimate D2E/DX2                !
 ! D106  D(31,26,27,32)       -161.3135         estimate D2E/DX2                !
 ! D107  D(36,26,27,15)         79.8392         estimate D2E/DX2                !
 ! D108  D(36,26,27,28)       -163.1939         estimate D2E/DX2                !
 ! D109  D(36,26,27,32)        -41.9162         estimate D2E/DX2                !
 ! D110  D(25,26,36,44)         78.57           estimate D2E/DX2                !
 ! D111  D(27,26,36,44)       -157.7029         estimate D2E/DX2                !
 ! D112  D(31,26,36,44)        -41.4885         estimate D2E/DX2                !
 ! D113  D(15,27,28,29)        173.8292         estimate D2E/DX2                !
 ! D114  D(15,27,28,33)        -66.1555         estimate D2E/DX2                !
 ! D115  D(15,27,28,35)         55.3629         estimate D2E/DX2                !
 ! D116  D(26,27,28,29)         51.1927         estimate D2E/DX2                !
 ! D117  D(26,27,28,33)        171.208          estimate D2E/DX2                !
 ! D118  D(26,27,28,35)        -67.2736         estimate D2E/DX2                !
 ! D119  D(32,27,28,29)        -69.6013         estimate D2E/DX2                !
 ! D120  D(32,27,28,33)         50.4139         estimate D2E/DX2                !
 ! D121  D(32,27,28,35)        171.9323         estimate D2E/DX2                !
 ! D122  D(27,28,29,24)        -62.4952         estimate D2E/DX2                !
 ! D123  D(27,28,29,34)         57.8497         estimate D2E/DX2                !
 ! D124  D(27,28,29,38)        178.0627         estimate D2E/DX2                !
 ! D125  D(33,28,29,24)        177.1113         estimate D2E/DX2                !
 ! D126  D(33,28,29,34)        -62.5438         estimate D2E/DX2                !
 ! D127  D(33,28,29,38)         57.6692         estimate D2E/DX2                !
 ! D128  D(35,28,29,24)         57.7664         estimate D2E/DX2                !
 ! D129  D(35,28,29,34)        178.1113         estimate D2E/DX2                !
 ! D130  D(35,28,29,38)        -61.6757         estimate D2E/DX2                !
 ! D131  D(27,28,35,43)        -53.6514         estimate D2E/DX2                !
 ! D132  D(27,28,35,63)         88.5744         estimate D2E/DX2                !
 ! D133  D(29,28,35,43)       -173.5874         estimate D2E/DX2                !
 ! D134  D(29,28,35,63)        -31.3615         estimate D2E/DX2                !
 ! D135  D(33,28,35,43)         67.6752         estimate D2E/DX2                !
 ! D136  D(33,28,35,63)       -150.099          estimate D2E/DX2                !
 ! D137  D(24,29,38,39)        -62.427          estimate D2E/DX2                !
 ! D138  D(24,29,38,40)         56.0806         estimate D2E/DX2                !
 ! D139  D(24,29,38,41)        176.5892         estimate D2E/DX2                !
 ! D140  D(28,29,38,39)         58.1872         estimate D2E/DX2                !
 ! D141  D(28,29,38,40)        176.6949         estimate D2E/DX2                !
 ! D142  D(28,29,38,41)        -62.7965         estimate D2E/DX2                !
 ! D143  D(34,29,38,39)        178.7221         estimate D2E/DX2                !
 ! D144  D(34,29,38,40)        -62.7703         estimate D2E/DX2                !
 ! D145  D(34,29,38,41)         57.7383         estimate D2E/DX2                !
 ! D146  D(28,35,63,62)       -160.54           estimate D2E/DX2                !
 ! D147  D(43,35,63,62)        -25.8635         estimate D2E/DX2                !
 ! D148  D(25,37,49,48)        127.4624         estimate D2E/DX2                !
 ! D149  D(25,37,49,50)       -109.1136         estimate D2E/DX2                !
 ! D150  D(25,37,49,55)          8.9099         estimate D2E/DX2                !
 ! D151  D(29,38,41,42)       -178.6334         estimate D2E/DX2                !
 ! D152  D(39,38,41,42)         61.7381         estimate D2E/DX2                !
 ! D153  D(40,38,41,42)        -60.7889         estimate D2E/DX2                !
 ! D154  D(50,45,46,47)        -62.2517         estimate D2E/DX2                !
 ! D155  D(50,45,46,51)         60.646          estimate D2E/DX2                !
 ! D156  D(50,45,46,58)       -177.3168         estimate D2E/DX2                !
 ! D157  D(83,45,46,47)         67.5253         estimate D2E/DX2                !
 ! D158  D(83,45,46,51)       -169.5769         estimate D2E/DX2                !
 ! D159  D(83,45,46,58)        -47.5397         estimate D2E/DX2                !
 ! D160  D(46,45,50,49)         61.3333         estimate D2E/DX2                !
 ! D161  D(46,45,50,54)        -59.5642         estimate D2E/DX2                !
 ! D162  D(46,45,50,59)       -176.8916         estimate D2E/DX2                !
 ! D163  D(83,45,50,49)        -65.234          estimate D2E/DX2                !
 ! D164  D(83,45,50,54)        173.8685         estimate D2E/DX2                !
 ! D165  D(83,45,50,59)         56.5411         estimate D2E/DX2                !
 ! D166  D(46,45,81,78)         55.0369         estimate D2E/DX2                !
 ! D167  D(46,45,81,82)        -66.0232         estimate D2E/DX2                !
 ! D168  D(46,45,81,84)       -178.8375         estimate D2E/DX2                !
 ! D169  D(50,45,81,78)       -176.4414         estimate D2E/DX2                !
 ! D170  D(50,45,81,82)         62.4985         estimate D2E/DX2                !
 ! D171  D(50,45,81,84)        -50.3159         estimate D2E/DX2                !
 ! D172  D(45,46,47,48)         50.1289         estimate D2E/DX2                !
 ! D173  D(45,46,47,52)        -68.7406         estimate D2E/DX2                !
 ! D174  D(45,46,47,57)        170.1959         estimate D2E/DX2                !
 ! D175  D(51,46,47,48)        -70.7868         estimate D2E/DX2                !
 ! D176  D(51,46,47,52)        170.3438         estimate D2E/DX2                !
 ! D177  D(51,46,47,57)         49.2802         estimate D2E/DX2                !
 ! D178  D(58,46,47,48)        165.4137         estimate D2E/DX2                !
 ! D179  D(58,46,47,52)         46.5443         estimate D2E/DX2                !
 ! D180  D(58,46,47,57)        -74.5193         estimate D2E/DX2                !
 ! D181  D(45,46,58,66)        -74.8489         estimate D2E/DX2                !
 ! D182  D(47,46,58,66)        168.2369         estimate D2E/DX2                !
 ! D183  D(51,46,58,66)         44.7603         estimate D2E/DX2                !
 ! D184  D(46,47,48,49)        -42.5211         estimate D2E/DX2                !
 ! D185  D(46,47,48,53)         78.854          estimate D2E/DX2                !
 ! D186  D(46,47,48,56)       -162.2995         estimate D2E/DX2                !
 ! D187  D(52,47,48,49)         75.0905         estimate D2E/DX2                !
 ! D188  D(52,47,48,53)       -163.5344         estimate D2E/DX2                !
 ! D189  D(52,47,48,56)        -44.688          estimate D2E/DX2                !
 ! D190  D(57,47,48,49)       -166.2896         estimate D2E/DX2                !
 ! D191  D(57,47,48,53)        -44.9145         estimate D2E/DX2                !
 ! D192  D(57,47,48,56)         73.9319         estimate D2E/DX2                !
 ! D193  D(46,47,57,65)         66.7231         estimate D2E/DX2                !
 ! D194  D(48,47,57,65)       -169.4271         estimate D2E/DX2                !
 ! D195  D(52,47,57,65)        -52.033          estimate D2E/DX2                !
 ! D196  D(47,48,49,37)        163.7225         estimate D2E/DX2                !
 ! D197  D(47,48,49,50)         41.8776         estimate D2E/DX2                !
 ! D198  D(47,48,49,55)        -75.9879         estimate D2E/DX2                !
 ! D199  D(53,48,49,37)         42.0312         estimate D2E/DX2                !
 ! D200  D(53,48,49,50)        -79.8137         estimate D2E/DX2                !
 ! D201  D(53,48,49,55)        162.3208         estimate D2E/DX2                !
 ! D202  D(56,48,49,37)        -75.5991         estimate D2E/DX2                !
 ! D203  D(56,48,49,50)        162.5561         estimate D2E/DX2                !
 ! D204  D(56,48,49,55)         44.6905         estimate D2E/DX2                !
 ! D205  D(47,48,56,20)         58.7682         estimate D2E/DX2                !
 ! D206  D(47,48,56,64)        -63.3857         estimate D2E/DX2                !
 ! D207  D(49,48,56,20)        -65.6636         estimate D2E/DX2                !
 ! D208  D(49,48,56,64)        172.1825         estimate D2E/DX2                !
 ! D209  D(53,48,56,20)        177.3562         estimate D2E/DX2                !
 ! D210  D(53,48,56,64)         55.2023         estimate D2E/DX2                !
 ! D211  D(37,49,50,45)       -168.5477         estimate D2E/DX2                !
 ! D212  D(37,49,50,54)        -48.2105         estimate D2E/DX2                !
 ! D213  D(37,49,50,59)         74.3836         estimate D2E/DX2                !
 ! D214  D(48,49,50,45)        -48.6939         estimate D2E/DX2                !
 ! D215  D(48,49,50,54)         71.6433         estimate D2E/DX2                !
 ! D216  D(48,49,50,59)       -165.7626         estimate D2E/DX2                !
 ! D217  D(55,49,50,45)         70.4609         estimate D2E/DX2                !
 ! D218  D(55,49,50,54)       -169.2019         estimate D2E/DX2                !
 ! D219  D(55,49,50,59)        -46.6078         estimate D2E/DX2                !
 ! D220  D(45,50,59,60)         50.5492         estimate D2E/DX2                !
 ! D221  D(45,50,59,61)        168.4521         estimate D2E/DX2                !
 ! D222  D(45,50,59,62)        -67.8676         estimate D2E/DX2                !
 ! D223  D(49,50,59,60)        169.7895         estimate D2E/DX2                !
 ! D224  D(49,50,59,61)        -72.3076         estimate D2E/DX2                !
 ! D225  D(49,50,59,62)         51.3727         estimate D2E/DX2                !
 ! D226  D(54,50,59,60)        -66.9592         estimate D2E/DX2                !
 ! D227  D(54,50,59,61)         50.9436         estimate D2E/DX2                !
 ! D228  D(54,50,59,62)        174.624          estimate D2E/DX2                !
 ! D229  D(46,58,66,67)       -107.5408         estimate D2E/DX2                !
 ! D230  D(46,58,66,68)         10.1774         estimate D2E/DX2                !
 ! D231  D(46,58,66,69)        132.0104         estimate D2E/DX2                !
 ! D232  D(50,59,62,63)       -100.3042         estimate D2E/DX2                !
 ! D233  D(50,59,62,84)         55.2932         estimate D2E/DX2                !
 ! D234  D(60,59,62,63)        141.317          estimate D2E/DX2                !
 ! D235  D(60,59,62,84)        -63.0856         estimate D2E/DX2                !
 ! D236  D(61,59,62,63)         22.2324         estimate D2E/DX2                !
 ! D237  D(61,59,62,84)        177.8298         estimate D2E/DX2                !
 ! D238  D(59,62,63,35)        173.9896         estimate D2E/DX2                !
 ! D239  D(84,62,63,35)         16.6982         estimate D2E/DX2                !
 ! D240  D(59,62,84,81)        -44.0314         estimate D2E/DX2                !
 ! D241  D(63,62,84,81)        109.146          estimate D2E/DX2                !
 ! D242  D(58,66,69,70)        167.7487         estimate D2E/DX2                !
 ! D243  D(58,66,69,71)         54.8867         estimate D2E/DX2                !
 ! D244  D(58,66,69,72)        -70.3929         estimate D2E/DX2                !
 ! D245  D(67,66,69,70)         49.4451         estimate D2E/DX2                !
 ! D246  D(67,66,69,71)        -63.4168         estimate D2E/DX2                !
 ! D247  D(67,66,69,72)        171.3036         estimate D2E/DX2                !
 ! D248  D(68,66,69,70)        -71.2474         estimate D2E/DX2                !
 ! D249  D(68,66,69,71)        175.8907         estimate D2E/DX2                !
 ! D250  D(68,66,69,72)         50.6111         estimate D2E/DX2                !
 ! D251  D(66,69,72,73)       -122.7362         estimate D2E/DX2                !
 ! D252  D(66,69,72,74)         -8.3161         estimate D2E/DX2                !
 ! D253  D(66,69,72,75)        117.0933         estimate D2E/DX2                !
 ! D254  D(70,69,72,73)         -2.4538         estimate D2E/DX2                !
 ! D255  D(70,69,72,74)        111.9663         estimate D2E/DX2                !
 ! D256  D(70,69,72,75)       -122.6243         estimate D2E/DX2                !
 ! D257  D(71,69,72,73)        113.389          estimate D2E/DX2                !
 ! D258  D(71,69,72,74)       -132.1909         estimate D2E/DX2                !
 ! D259  D(71,69,72,75)         -6.7815         estimate D2E/DX2                !
 ! D260  D(69,72,75,76)         54.8086         estimate D2E/DX2                !
 ! D261  D(69,72,75,77)        169.6011         estimate D2E/DX2                !
 ! D262  D(69,72,75,78)        -66.4543         estimate D2E/DX2                !
 ! D263  D(73,72,75,76)        -66.5707         estimate D2E/DX2                !
 ! D264  D(73,72,75,77)         48.2219         estimate D2E/DX2                !
 ! D265  D(73,72,75,78)        172.1664         estimate D2E/DX2                !
 ! D266  D(74,72,75,76)        179.9224         estimate D2E/DX2                !
 ! D267  D(74,72,75,77)        -65.285          estimate D2E/DX2                !
 ! D268  D(74,72,75,78)         58.6596         estimate D2E/DX2                !
 ! D269  D(72,75,78,79)        175.8041         estimate D2E/DX2                !
 ! D270  D(72,75,78,80)         55.1757         estimate D2E/DX2                !
 ! D271  D(72,75,78,81)        -63.8875         estimate D2E/DX2                !
 ! D272  D(76,75,78,79)         53.1474         estimate D2E/DX2                !
 ! D273  D(76,75,78,80)        -67.4811         estimate D2E/DX2                !
 ! D274  D(76,75,78,81)        173.4557         estimate D2E/DX2                !
 ! D275  D(77,75,78,79)        -60.0859         estimate D2E/DX2                !
 ! D276  D(77,75,78,80)        179.2857         estimate D2E/DX2                !
 ! D277  D(77,75,78,81)         60.2224         estimate D2E/DX2                !
 ! D278  D(75,78,81,82)       -177.0231         estimate D2E/DX2                !
 ! D279  D(75,78,81,83)         64.7774         estimate D2E/DX2                !
 ! D280  D(75,78,81,84)        -53.2593         estimate D2E/DX2                !
 ! D281  D(79,78,81,82)        -54.9643         estimate D2E/DX2                !
 ! D282  D(79,78,81,83)       -173.1638         estimate D2E/DX2                !
 ! D283  D(79,78,81,84)         68.7995         estimate D2E/DX2                !
 ! D284  D(80,78,81,82)         60.4733         estimate D2E/DX2                !
 ! D285  D(80,78,81,83)        -57.7261         estimate D2E/DX2                !
 ! D286  D(80,78,81,84)       -175.7629         estimate D2E/DX2                !
 ! D287  D(78,81,84,62)        152.9631         estimate D2E/DX2                !
 ! D288  D(82,81,84,62)        -81.281          estimate D2E/DX2                !
 ! D289  D(83,81,84,62)         31.0547         estimate D2E/DX2                !
 --------------------------------------------------------------------------------
 Trust Radius=3.00D-01 FncErr=1.00D-07 GrdErr=1.00D-06
 Number of steps in this run=    504 maximum allowed number of steps=    504.
 GradGradGradGradGradGradGradGradGradGradGradGradGradGradGradGradGradGrad

 Leave Link  103 at Wed Apr  6 15:55:05 2016, MaxMem= 10737418240 cpu:         0.9
 (Enter /share/apps//g09/l202.exe)
 Stoichiometry    C23H44NO16(1+)
 Framework group  C1[X(C23H44NO16)]
 Deg. of freedom   246
 Full point group                 C1      NOp   1
 Largest Abelian subgroup         C1      NOp   1
 Largest concise Abelian subgroup C1      NOp   1
                         Standard orientation:                         
 ---------------------------------------------------------------------
 Center     Atomic      Atomic             Coordinates (Angstroms)
 Number     Number       Type             X           Y           Z
 ---------------------------------------------------------------------
      1          8           0        2.376782   -1.593442    0.919400
      2          6           0        3.561453   -0.809056    0.865825
      3          6           0        4.745798   -1.642288    0.361148
      4          6           0        4.422494   -2.313234   -0.979210
      5          6           0        3.124386   -3.127267   -0.883324
      6          6           0        2.013157   -2.238867   -0.315317
      7          1           0        3.720511   -0.463691    1.895132
      8          1           0        4.932297   -2.426219    1.110370
      9          1           0        4.290371   -1.532447   -1.755832
     10          1           0        2.827919   -3.429883   -1.909635
     11          1           0        1.776589   -1.467404   -1.075918
     12          8           0        3.285390   -4.270923   -0.054830
     13          8           0        5.453781   -3.219469   -1.363417
     14          8           0        5.947615   -0.879775    0.278001
     15          8           0        3.439443    0.311920   -0.020191
     16          6           0        0.742837   -3.017974   -0.008826
     17          1           0        0.437615   -3.599769   -0.889657
     18          1           0        0.925654   -3.716071    0.819721
     19          8           0       -0.364233   -2.143672    0.308892
     20          1           0       -0.190633   -1.715882    1.176041
     21          1           0        4.153116   -4.652011   -0.295011
     22          1           0        6.304364   -2.787571   -1.154437
     23          1           0        5.721068   -0.054147   -0.193490
     24          8           0        0.539692    3.267298    0.120742
     25          6           0        0.666672    2.574365    1.364841
     26          6           0        1.555491    1.308479    1.278265
     27          6           0        2.846283    1.535404    0.480342
     28          6           0        2.584610    2.364076   -0.783304
     29          6           0        1.815239    3.630257   -0.424326
     30          1           0        1.092930    3.252447    2.126283
     31          1           0        1.008781    0.516954    0.744055
     32          1           0        3.579582    2.055320    1.123682
     33          1           0        3.543444    2.644271   -1.250110
     34          1           0        2.403660    4.201887    0.320111
     35          8           0        1.779577    1.617672   -1.716996
     36          8           0        1.884773    0.894102    2.596521
     37          8           0       -0.634527    2.299177    1.843505
     38          6           0        1.549397    4.543951   -1.618663
     39          1           0        0.982547    3.993056   -2.389739
     40          1           0        0.940377    5.395465   -1.269264
     41          8           0        2.827923    4.958008   -2.096323
     42          1           0        2.699183    5.561001   -2.846511
     43          1           0        2.251666    0.774093   -1.841202
     44          1           0        1.097659    0.425435    2.944101
     45          8           0       -3.442718    0.707496    0.045883
     46          6           0       -4.064893    0.019320    1.159189
     47          6           0       -2.983242   -0.637519    2.018092
     48          6           0       -1.856698    0.325747    2.389476
     49          6           0       -1.386822    1.230494    1.248726
     50          6           0       -2.548132    1.791739    0.407747
     51          1           0       -4.672760    0.745247    1.735012
     52          1           0       -2.558122   -1.458168    1.410691
     53          1           0       -2.196417    0.967067    3.221518
     54          1           0       -3.106432    2.553052    0.982698
     55          1           0       -0.764488    0.636577    0.562430
     56          8           0       -0.707320   -0.447283    2.820739
     57          8           0       -3.491949   -1.143326    3.248494
     58          8           0       -4.826839   -1.012086    0.623002
     59          6           0       -2.087104    2.402103   -0.920828
     60          1           0       -2.985260    2.603454   -1.524335
     61          1           0       -1.575643    3.350320   -0.720471
     62          8           0       -1.249265    1.512261   -1.670473
     63          1           0       -0.309514    1.771314   -1.544561
     64          1           0       -0.977177   -0.928101    3.626270
     65          1           0       -4.093651   -1.883090    3.049501
     66          6           0       -6.078152   -0.623064   -0.017291
     67          1           0       -6.897256   -0.940469    0.646205
     68          1           0       -6.111932    0.472658   -0.119634
     69          6           0       -6.193102   -1.296967   -1.377254
     70          1           0       -7.231546   -1.154482   -1.713017
     71          1           0       -6.080630   -2.384786   -1.237682
     72          6           0       -5.220300   -0.769782   -2.462143
     73          1           0       -5.804215   -0.420470   -3.325433
     74          1           0       -4.699196    0.126091   -2.088444
     75          6           0       -4.202561   -1.791179   -3.000822
     76          1           0       -4.738040   -2.680911   -3.369155
     77          1           0       -3.697614   -1.366822   -3.885236
     78          6           0       -3.143037   -2.291293   -2.021367
     79          1           0       -2.520658   -3.066581   -2.487693
     80          1           0       -3.592647   -2.714348   -1.112847
     81          7           0       -2.229103   -1.196858   -1.555956
     82          1           0       -1.470769   -1.557539   -0.920574
     83          1           0       -2.751533   -0.473289   -0.994966
     84          1           0       -1.787138   -0.661884   -2.316731
 ---------------------------------------------------------------------
 Rotational constants (GHZ):      0.1168307      0.0651621      0.0544588
 Leave Link  202 at Wed Apr  6 15:55:07 2016, MaxMem= 10737418240 cpu:         4.8
 (Enter /share/apps//g09/l301.exe)
 Standard basis: 6-311+G(d,p) (5D, 7F)
 Ernie: Thresh=  0.10000D-02 Tol=  0.10000D-05 Strict=F.
 There are  1184 symmetry adapted cartesian basis functions of A   symmetry.
 There are  1144 symmetry adapted basis functions of A   symmetry.
  1144 basis functions,  1792 primitive gaussians,  1184 cartesian basis functions
   158 alpha electrons      158 beta electrons
       nuclear repulsion energy      5876.1410017018 Hartrees.
 IExCor= 1009 DFT=T Ex+Corr=PBE1PBE ExCW=0 ScaHFX=  0.250000
 ScaDFX=  0.750000  0.750000  1.000000  1.000000 ScalE2=  1.000000  1.000000
 IRadAn=      0 IRanWt=     -1 IRanGd=            0 ICorTp=0 IEmpDi=131
 NAtoms=   84 NActive=   84 NUniq=   84 SFac= 1.00D+00 NAtFMM=   60 NAOKFM=T Big=T
 Integral buffers will be    131072 words long.
 Raffenetti 2 integral format.
 Two-electron integral symmetry is turned on.
 R6Disp:  Grimme-D3 Dispersion energy=       -0.0861226514 Hartrees.
 Nuclear repulsion after empirical dispersion term =     5876.0548790504 Hartrees.
 Leave Link  301 at Wed Apr  6 15:55:08 2016, MaxMem= 10737418240 cpu:         2.4
 (Enter /share/apps//g09/l302.exe)
 NPDir=0 NMtPBC=     1 NCelOv=     1 NCel=       1 NClECP=     1 NCelD=      1
         NCelK=      1 NCelE2=     1 NClLst=     1 CellRange=     0.0.
 One-electron integrals computed using PRISM.
 NBasis=  1144 RedAO= T EigKep=  1.01D-06  NBF=  1144
 NBsUse=  1144 1.00D-06 EigRej= -1.00D+00 NBFU=  1144
 Precomputing XC quadrature grid using
 IXCGrd= 4 IRadAn=           0 IRanWt=          -1 IRanGd=           0 AccXCQ= 0.00D+00.
 Generated NRdTot=       0 NPtTot=           0 NUsed=           0 NTot=          32
 NSgBfM=  1040  1051  1056  1064  1069 MxSgAt=    84 MxSgA2=    84.
 Leave Link  302 at Wed Apr  6 15:55:15 2016, MaxMem= 10737418240 cpu:        74.7
 (Enter /share/apps//g09/l303.exe)
 DipDrv:  MaxL=1.
 Leave Link  303 at Wed Apr  6 15:55:18 2016, MaxMem= 10737418240 cpu:        34.3
 (Enter /share/apps//g09/l401.exe)
 ExpMin= 4.38D-02 ExpMax= 8.59D+03 ExpMxC= 1.30D+03 IAcc=2 IRadAn=         4 AccDes= 0.00D+00
 Harris functional with IExCor= 1009 and IRadAn=       4 diagonalized for initial guess.
 HarFok:  IExCor= 1009 AccDes= 0.00D+00 IRadAn=         4 IDoV= 1 UseB2=F ITyADJ=14
 ICtDFT=  3500011 ScaDFX=  1.000000  1.000000  1.000000  1.000000
 FoFCou: FMM=F IPFlag=           0 FMFlag=      100000 FMFlg1=        2001
         NFxFlg=           0 DoJE=T BraDBF=F KetDBF=T FulRan=T
         wScrn=  0.000000 ICntrl=     500 IOpCl=  0 I1Cent=   200000004 NGrid=           0
         NMat0=    1 NMatS0=      1 NMatT0=    0 NMatD0=    1 NMtDS0=    0 NMtDT0=    0
 Petite list used in FoFCou.
 Harris En= -2159.71705463139    
 JPrj=0 DoOrth=F DoCkMO=F.
 Leave Link  401 at Wed Apr  6 15:55:24 2016, MaxMem= 10737418240 cpu:       120.7
 (Enter /share/apps//g09/l502.exe)
 Closed shell SCF:
 Using DIIS extrapolation, IDIIS=  1040.
 Integral symmetry usage will be decided dynamically.
 IVT=     4256630 IEndB=     4256630 NGot= 10737418240 MDV= 10734581291
 LenX= 10734581291 LenY= 10733178251
 Requested convergence on RMS density matrix=1.00D-08 within 128 cycles.
 Requested convergence on MAX density matrix=1.00D-06.
 Requested convergence on             energy=1.00D-06.
 No special actions if energy rises.
 Fock matrices will be formed incrementally for  20 cycles.

 Cycle   1  Pass 1  IDiag  1:
 FoFJK:  IHMeth= 1 ICntrl=       0 DoSepK=F KAlg= 0 I1Cent=   0 FoldK=F
 IRaf= 780000000 NMat=   1 IRICut=       1 DoRegI=T DoRafI=F ISym2E= 0.
 FoFCou: FMM=T IPFlag=           0 FMFlag=      100000 FMFlg1=        2001
         NFxFlg=           0 DoJE=F BraDBF=F KetDBF=F FulRan=T
         wScrn=  0.000000 ICntrl=       0 IOpCl=  0 I1Cent=           0 NGrid=           0
         NMat0=    1 NMatS0=      1 NMatT0=    0 NMatD0=    1 NMtDS0=    0 NMtDT0=    0
 Symmetry not used in FoFCou.
 FMM levels:  10  Number of levels for PrismC:   9
 E= -2158.68206093800    
 DIIS: error= 1.81D-02 at cycle   1 NSaved=   1.
 NSaved= 1 IEnMin= 1 EnMin= -2158.68206093800     IErMin= 1 ErrMin= 1.81D-02
 ErrMax= 1.81D-02  0.00D+00 EMaxC= 1.00D-01 BMatC= 1.03D+00 BMatP= 1.03D+00
 IDIUse=3 WtCom= 8.19D-01 WtEn= 1.81D-01
 Coeff-Com:  0.100D+01
 Coeff-En:   0.100D+01
 Coeff:      0.100D+01
 Gap=     0.249 Goal=   None    Shift=    0.000
 GapD=    0.249 DampG=1.000 DampE=0.500 DampFc=0.5000 IDamp=-1.
 Damping current iteration by 5.00D-01
 RMSDP=1.76D-02 MaxDP=5.08D+00              OVMax= 1.43D-01

 Cycle   2  Pass 1  IDiag  1:
 RMSU=  7.38D-03    CP:  1.08D+00
 E= -2158.96417350073     Delta-E=       -0.282112562726 Rises=F Damp=T
 DIIS: error= 3.93D-03 at cycle   2 NSaved=   2.
 NSaved= 2 IEnMin= 2 EnMin= -2158.96417350073     IErMin= 2 ErrMin= 3.93D-03
 ErrMax= 3.93D-03  0.00D+00 EMaxC= 1.00D-01 BMatC= 8.37D-02 BMatP= 1.03D+00
 IDIUse=3 WtCom= 9.61D-01 WtEn= 3.93D-02
 Coeff-Com:  0.677D-01 0.932D+00
 Coeff-En:   0.169D+00 0.831D+00
 Coeff:      0.717D-01 0.928D+00
 Gap=     0.280 Goal=   None    Shift=    0.000
 RMSDP=8.44D-03 MaxDP=4.15D+00 DE=-2.82D-01 OVMax= 8.60D-02

 Cycle   3  Pass 1  IDiag  1:
 RMSU=  4.62D-03    CP:  9.67D-01  7.73D-01
 E= -2159.34301235329     Delta-E=       -0.378838852561 Rises=F Damp=F
 DIIS: error= 3.83D-03 at cycle   3 NSaved=   3.
 NSaved= 3 IEnMin= 3 EnMin= -2159.34301235329     IErMin= 3 ErrMin= 3.83D-03
 ErrMax= 3.83D-03  0.00D+00 EMaxC= 1.00D-01 BMatC= 4.51D-02 BMatP= 8.37D-02
 IDIUse=3 WtCom= 9.62D-01 WtEn= 3.83D-02
 Coeff-Com: -0.638D-01 0.404D+00 0.660D+00
 Coeff-En:   0.000D+00 0.000D+00 0.100D+01
 Coeff:     -0.613D-01 0.389D+00 0.673D+00
 Gap=     0.261 Goal=   None    Shift=    0.000
 RMSDP=1.41D-03 MaxDP=3.56D-01 DE=-3.79D-01 OVMax= 1.70D-02

 Cycle   4  Pass 1  IDiag  1:
 RMSU=  1.19D-03    CP:  9.71D-01  8.61D-01  9.29D-01
 E= -2159.37081926015     Delta-E=       -0.027806906858 Rises=F Damp=F
 DIIS: error= 1.02D-03 at cycle   4 NSaved=   4.
 NSaved= 4 IEnMin= 4 EnMin= -2159.37081926015     IErMin= 4 ErrMin= 1.02D-03
 ErrMax= 1.02D-03  0.00D+00 EMaxC= 1.00D-01 BMatC= 6.34D-03 BMatP= 4.51D-02
 IDIUse=3 WtCom= 9.90D-01 WtEn= 1.02D-02
 Coeff-Com: -0.353D-01 0.124D+00 0.347D+00 0.564D+00
 Coeff-En:   0.000D+00 0.000D+00 0.867D-01 0.913D+00
 Coeff:     -0.349D-01 0.123D+00 0.344D+00 0.567D+00
 Gap=     0.255 Goal=   None    Shift=    0.000
 RMSDP=1.25D-03 MaxDP=5.52D-01 DE=-2.78D-02 OVMax= 6.00D-03

 Cycle   5  Pass 1  IDiag  1:
 RMSU=  4.40D-04    CP:  9.54D-01  8.30D-01  8.94D-01  5.78D-01
 E= -2159.37612778129     Delta-E=       -0.005308521146 Rises=F Damp=F
 DIIS: error= 3.17D-04 at cycle   5 NSaved=   5.
 NSaved= 5 IEnMin= 5 EnMin= -2159.37612778129     IErMin= 5 ErrMin= 3.17D-04
 ErrMax= 3.17D-04  0.00D+00 EMaxC= 1.00D-01 BMatC= 3.02D-04 BMatP= 6.34D-03
 IDIUse=3 WtCom= 9.97D-01 WtEn= 3.17D-03
 Coeff-Com: -0.116D-01 0.279D-01 0.108D+00 0.254D+00 0.621D+00
 Coeff-En:   0.000D+00 0.000D+00 0.000D+00 0.000D+00 0.100D+01
 Coeff:     -0.115D-01 0.278D-01 0.108D+00 0.254D+00 0.622D+00
 Gap=     0.254 Goal=   None    Shift=    0.000
 RMSDP=2.23D-04 MaxDP=5.50D-02 DE=-5.31D-03 OVMax= 1.49D-03

 Cycle   6  Pass 1  IDiag  1:
 RMSU=  1.20D-04    CP:  9.56D-01  8.39D-01  9.05D-01  6.07D-01  7.52D-01
 E= -2159.37633499505     Delta-E=       -0.000207213759 Rises=F Damp=F
 DIIS: error= 1.07D-04 at cycle   6 NSaved=   6.
 NSaved= 6 IEnMin= 6 EnMin= -2159.37633499505     IErMin= 6 ErrMin= 1.07D-04
 ErrMax= 1.07D-04  0.00D+00 EMaxC= 1.00D-01 BMatC= 4.18D-05 BMatP= 3.02D-04
 IDIUse=3 WtCom= 9.99D-01 WtEn= 1.07D-03
 Coeff-Com: -0.432D-02 0.786D-02 0.392D-01 0.108D+00 0.351D+00 0.498D+00
 Coeff-En:   0.000D+00 0.000D+00 0.000D+00 0.000D+00 0.147D-01 0.985D+00
 Coeff:     -0.431D-02 0.785D-02 0.392D-01 0.108D+00 0.350D+00 0.499D+00
 Gap=     0.255 Goal=   None    Shift=    0.000
 RMSDP=6.67D-05 MaxDP=2.88D-02 DE=-2.07D-04 OVMax= 5.98D-04

 Cycle   7  Pass 1  IDiag  1:
 RMSU=  2.93D-05    CP:  9.57D-01  8.39D-01  9.10D-01  6.19D-01  7.42D-01
                    CP:  6.51D-01
 E= -2159.37636427749     Delta-E=       -0.000029282433 Rises=F Damp=F
[...]
 58,0.00005061,0.00002226,0.00004193,-0.00004224,0.00004782,0.00000385,
 0.00000996,-0.00001521,0.00002179,0.00002561,0.00000183,0.00004696,0.0
 0003364,-0.00000280,0.00012469,0.00014006,-0.00013354,-0.00011928,0.00
 018719,0.00002083,-0.00031026,0.00007053,0.00036868,-0.00015712,-0.000
 07600,-0.00004143,-0.00001324,0.00004679,0.00005264,-0.00000209,0.0000
 1198,-0.00000526,0.00017783,0.00002694,-0.00002789,-0.00003680,0.00000
 982,-0.00000088,0.00006525,0.00001795,0.00005244,0.00012868,-0.0000110
 5,-0.00000843,-0.01139605,0.00038160,-0.00043640,0.00128865,0.00179855
 ,0.00670280,-0.00010865,0.00024109,0.00070250,0.00050870,0.00002695,0.
 00003546,0.00017252,-0.00014249,-0.00092694,0.00205382,-0.00014213,-0.
 00407050,-0.00058993,0.00029674,-0.00025046,0.00005307,0.00042558,-0.0
 0047951,-0.00014212,0.00002036,-0.00001147,-0.00083123,-0.00027295,-0.
 00010965,-0.00050336,-0.00084627,0.00020793,-0.00036450,-0.00011823,-0
 .00000505,-0.00002428,-0.00032397,-0.00033386,0.00136698,-0.00073550,-
 0.00229958,-0.00027319,0.00030130,-0.00359584,-0.00019297,0.00003419,0
 .00006315,-0.00004179,0.00006653,0.00043822,0.00251517,0.00021079,0.00
 111724,-0.00026840,-0.00077426,0.00077799,0.00008129,0.00008954,0.0000
 1983,-0.00011178,0.00016458,0.00003042,-0.00075077,-0.00132764,0.00046
 981,0.00015833,0.00017798,-0.00008888,0.00001106,0.00014395,-0.0000363
 4,-0.00039496,-0.00003186,-0.00003207,0.00003774,0.00008021,0.00000433
 ,-0.00002691,-0.00002536,-0.00000338,-0.00041990,-0.00002227,-0.000025
 96,0.00028143,0.00023204,0.00027249,0.00076719,-0.00075992,0.00055817,
 0.00051492,-0.00014318,-0.00004993,0.00003323,0.00019323,0.00021144,-0
 .00008051,0.00002486,0.00013579,0.00287985,0.00412996,-0.03190926,-0.0
 0524932,-0.00254297,-0.00201538,0.00032814,0.00084505,-0.00036166,-0.0
 6146796,-0.00079808,0.01521755,-0.00090273,0.00015505,0.00450057,0.073
 38131,-0.00001809,-0.00002336,-0.00009169,-0.00000667,-0.00004873,0.00
 003598,-0.00001853,-0.00001322,0.00001257,-0.00001761,0.00000200,0.000
 01424,0.00003493,0.00001493,0.00003039,0.00000671,0.00009111,-0.000028
 98,-0.00000952,-0.00000808,0.00001049,0.00000069,-0.00000091,-0.000000
 97,0.00000004,0.00000116,0.00000211,-0.00000152,-0.00000748,-0.0000134
 8,0.00002713,-0.00001488,0.00000841,0.00000080,-0.00000218,-0.00003021
 ,0.00001982,0.00000914,-0.00004471,0.00002448,0.00000917,-0.00002878,0
 .00002603,0.00003003,-0.00009694,-0.00005130,0.00028562,0.00033050,-0.
 00001863,0.00003256,-0.00011209,0.00002481,0.00002891,-0.00007620,0.00
 009591,-0.00116193,-0.00197056,-0.00003888,-0.00052037,0.00043194,0.00
 000542,-0.00000120,0.00001163,-0.00000548,0.00000045,0.00001115,-0.000
 01323,-0.00000464,0.00001827,0.00022236,-0.00026908,-0.00014372,-0.000
 64433,0.00010688,0.00025429,-0.00000097,-0.00005705,-0.00010961,-0.000
 05329,0.00001308,0.00011476,0.00001338,0.00006004,0.00001859,-0.000105
 30,-0.00001880,0.00004937,0.00007004,-0.00000894,-0.00002039,0.0000188
 9,0.00000289,0.00008567,0.00002043,-0.00000135,-0.00001224,0.00000053,
 -0.00000921,-0.00001363,-0.00000030,0.00000037,-0.00000479,0.00002889,
 -0.00009062,-0.00004520,0.00012199,0.00004325,-0.00003060,0.00058151,0
 .00021531,0.00045158,0.00000025,0.00006149,0.00001093,-0.00000012,-0.0
 0000726,-0.00001539,0.00000184,-0.00000132,0.00000391,0.00003565,-0.00
 004407,-0.00001366,0.00000041,0.00001024,0.00000396,-0.00001797,0.0000
 2295,0.00002624,-0.00012550,-0.00008384,0.00003040,0.00005014,-0.00539
 895,0.00517698,0.00224934,0.00001801,-0.00313186,0.00055132,-0.0002670
 4,-0.00191315,-0.00013299,-0.00064595,-0.00000083,-0.00008699,-0.00010
 909,-0.00145141,-0.00114230,-0.00029178,-0.00207389,-0.00010384,-0.000
 11738,0.00016278,0.00026918,-0.00092417,0.00073994,0.00003632,0.000140
 32,0.00006513,0.00009684,-0.00004933,0.00020420,-0.00066520,-0.0000678
 8,0.00048705,0.00010750,0.00035588,-0.00009575,-0.00059448,0.00022517,
 0.00078471,-0.00071134,-0.00151088,-0.00020275,0.00009798,0.00076702,0
 .00060456,0.00015646,-0.00022870,0.00021797,0.00002949,-0.00013254,-0.
 00007151,-0.00017607,-0.00116811,-0.00006135,-0.00028209,0.00026402,-0
 .00035983,0.00000491,-0.00010329,0.00000544,0.00018092,0.00008773,-0.0
 0004160,0.00008928,0.00092141,0.00029519,-0.00000273,-0.00022995,-0.00
 003556,-0.00004534,-0.00003687,0.00012042,-0.00026793,0.00016407,0.000
 26612,0.00019399,-0.00009243,-0.00007966,0.00026463,-0.00002528,-0.000
 04324,-0.00155323,0.00019718,-0.00107794,0.00073073,0.00032411,0.00030
 848,0.00025246,-0.00139764,0.00192310,-0.00011669,-0.00048737,-0.00171
 116,0.00012709,-0.00000163,0.00040686,0.00000191,-0.00011698,-0.000076
 37,0.00184872,0.00140873,-0.01329016,-0.00207914,-0.00058150,-0.000748
 46,0.00065664,0.00049449,0.00064771,-0.00238262,-0.06399902,0.02994626
 ,-0.00248770,0.00098650,0.03712018,0.00279506,0.07110018,-0.00077166,-
 0.00058792,-0.00046530,0.00082509,-0.00010446,0.00025592,0.00004518,0.
 00008396,0.00007490,0.00017199,0.00001977,0.00000048,-0.00005367,0.000
 12259,-0.00016620,0.00031841,0.00055680,0.00044402,-0.00010191,-0.0000
 4543,0.00003228,0.00000952,0.00001701,-0.00001772,0.00000586,0.0000029
 3,0.00001249,0.00000491,-0.00004584,-0.00010600,0.00018213,-0.00005999
 ,0.00000379,-0.00008549,-0.00027125,0.00008962,-0.00015681,-0.00013831
 ,0.00002562,-0.00019898,-0.00009390,-0.00010343,-0.00036184,0.00035171
 ,-0.00064634,0.00034583,0.00038529,-0.00093638,-0.00006690,0.00008565,
 -0.00026116,-0.00007699,-0.00014215,0.00019674,-0.00034327,-0.00389048
 ,-0.00066928,-0.00001750,-0.00014682,0.00173006,0.00003951,0.00007545,
 -0.00000534,0.00002116,0.00003468,0.00002476,0.00002553,-0.00000658,0.
 00007514,0.00084660,-0.00009452,-0.00063097,-0.00170638,-0.00007040,0.
 00115213,0.00029438,0.00002438,-0.00002295,-0.00008700,-0.00013348,0.0
 0053803,0.00023528,0.00029775,0.00026982,-0.00055129,-0.00011654,0.000
 39365,0.00020911,0.00004176,-0.00010945,0.00004143,-0.00001031,0.00020
 816,0.00001278,-0.00003732,-0.00005772,-0.00001906,-0.00005768,-0.0000
 7966,0.00005254,0.00003146,-0.00004517,-0.00037746,-0.00026256,-0.0005
 6973,0.00017205,0.00016863,-0.00040476,0.00234544,0.00194420,-0.000661
 82,-0.00009716,0.00006260,0.00010067,0.00000317,-0.00001608,0.00004649
 ,-0.00004660,0.00001995,-0.00006591,0.00020129,-0.00004218,-0.00017069
 ,-0.00000548,0.00002548,0.00005165,0.00025519,0.00013959,0.00010290,-0
 .00023059,-0.00020664,0.00025572,-0.00147835,0.00662229,0.00680741,0.0
 1680954,-0.00504380,0.00108539,-0.00042014,-0.00173822,0.00177330,-0.0
 0005266,-0.00164339,0.00023717,-0.00055408,-0.00196336,0.00117660,-0.0
 1233277,-0.00340518,-0.00258213,-0.00253895,0.00154571,0.00081757,-0.0
 0022523,0.00048249,-0.00009767,-0.00000973,0.00001586,-0.00016413,0.00
 227015,0.00117816,0.00147155,-0.00000064,0.00014741,0.00012785,0.00017
 641,0.00140711,-0.00118002,-0.00090508,0.00211226,-0.00079083,-0.00400
 289,-0.00229653,-0.00235207,-0.00228124,0.00093813,0.00243797,-0.00022
 862,0.00034913,-0.00028312,0.00049430,-0.00029321,-0.00070052,-0.00056
 215,0.00039066,-0.00455582,-0.00004618,-0.00028240,0.00032296,-0.00000
 624,-0.00011813,0.00009214,0.00026890,-0.00026060,0.00041938,0.0015502
 1,0.00229971,-0.00006764,-0.00020937,-0.00031981,-0.00007699,-0.000001
 33,0.00012475,-0.00022192,-0.00011244,0.00007170,0.00021724,0.00008184
 ,-0.00012654,-0.00032303,-0.00025545,-0.00001752,-0.00011292,0.0003056
 8,-0.00024083,0.00096944,-0.00000951,0.00003145,-0.00050419,0.00017316
 ,0.00119921,0.00034319,0.00091633,-0.00128326,0.00116528,0.00024048,0.
 00094691,-0.00031696,0.00003625,-0.00018425,-0.00039535,-0.00967380,-0
 .00315883,-0.00963285,0.00117907,0.00064704,0.00183694,0.00119444,0.00
 043974,0.00122136,0.02045257,0.02572946,-0.33241453,0.00154583,0.00816
 569,-0.00368365,-0.01644140,-0.03061439,0.34466999,-0.00031077,-0.0000
 1758,-0.00003322,0.00033340,-0.00013814,0.00010369,-0.00000932,0.00001
 740,0.00000705,0.00007648,-0.00006474,0.00005716,-0.00003728,-0.000044
 87,-0.00001258,0.00029762,-0.00015874,0.00010158,-0.00002741,0.0000038
 8,0.00000086,0.00000436,0.00001222,-0.00000895,-0.00002616,0.00001839,
 0.00000402,0.00001076,0.00000448,-0.00000332,-0.00005248,0.00006173,-0
 .00000532,-0.00008734,0.00001866,-0.00002102,-0.00005589,0.00001223,-0
 .00003039,-0.00004861,-0.00000030,-0.00002166,-0.00018223,0.00025363,-
 0.00013952,0.00016118,0.00009164,-0.00053809,0.00001084,0.00003046,-0.
 00004598,-0.00005420,-0.00005330,0.00009758,-0.00060439,-0.00164664,0.
 00044226,0.00009314,-0.00008708,0.00029983,0.00001251,0.00001301,0.000
 00366,0.00000417,-0.00000811,0.00001375,0.00000274,-0.00002352,0.00002
 328,-0.00000651,0.00041568,0.00020487,0.00038579,-0.00037197,-0.000219
 46,0.00004014,-0.00011070,-0.00002781,0.00007651,-0.00008522,0.0001356
 3,-0.00019533,-0.00029367,-0.00033931,-0.00007435,0.00001010,-0.000003
 31,-0.00002672,0.00004220,0.00001660,0.00005613,-0.00004693,0.00001705
 ,-0.00002150,0.00003917,-0.00001194,0.00005889,0.00007091,0.00004108,0
 .00002583,0.00002495,0.00003024,0.00039569,0.00049368,0.00029297,-0.00
 015902,0.00018125,0.00002308,-0.00038638,-0.00002874,-0.00000152,-0.00
 017593,-0.00011424,-0.00006940,-0.00000666,0.00006017,0.00002325,0.000
 00823,0.00001772,0.00001565,0.00017308,0.00004841,0.00001426,-0.000054
 72,0.00000210,-0.00002010,-0.00004304,-0.00022424,0.00005317,0.0001342
 9,0.00001446,0.00000900,-0.00067735,-0.00006102,-0.00164745,-0.0000018
 5,0.00008761,0.00030503,-0.00000462,0.00008722,0.00036179,0.00022391,0
 .00005401,0.00011132,0.00000099,-0.00002429,0.00005003,0.00102844,0.00
 011255,0.00054212,0.00005291,-0.00000695,-0.00008487,-0.00011234,0.000
 12578,-0.00008942,-0.00004516,-0.00000105,-0.00002558,-0.00025804,0.00
 000558,-0.00004798,0.00019167,-0.00017063,-0.00000260,-0.00020192,-0.0
 0006378,-0.00013707,0.00004910,-0.00013345,-0.00019556,-0.00009091,-0.
 00015427,-0.00027414,0.00169324,0.00062429,-0.00178265,-0.00009725,-0.
 00011124,0.00019228,-0.00018664,-0.00000456,0.00058070,-0.00283448,-0.
 00024675,0.00204017,-0.00073140,-0.00045232,-0.00038752,0.00003609,0.0
 0005718,0.00002300,-0.00004919,0.00002481,0.00002750,0.00003480,0.0000
 7455,0.00006170,0.00002119,-0.00004615,-0.00003754,-0.00001097,0.00000
 456,0.00000467,-0.00011928,0.00010377,-0.00009249,0.00009158,-0.000024
 81,-0.00003478,0.00002990,0.00000324,0.00001496,-0.00010544,-0.0001342
 5,0.00024603,0.00011442,0.00009367,-0.00003560,-0.00002096,-0.00012026
 ,0.00027217,0.00153838,0.00020684,0.00089894,0.00057697,0.00053515,-0.
 00030612,0.00008559,-0.00155477,-0.00016123,-0.02202219,0.01239913,0.0
 0776305,0.00095660,0.00044810,-0.00014243,-0.00227605,-0.00220390,-0.0
 0321077,-0.29450020,0.14780029,0.08577532,0.00738328,-0.00061228,-0.00
 298273,-0.00225613,0.00180407,0.00334472,0.31277778,0.00012097,0.00027
 191,0.00008345,-0.00017492,-0.00008947,0.00001375,-0.00003808,-0.00003
 987,-0.00000644,-0.00004846,-0.00002499,0.00006539,-0.00004732,-0.0000
 4662,0.00010179,0.00015877,-0.00041295,-0.00000558,0.00001638,0.000008
 36,0.00000105,0.00000004,-0.00000199,0.00000043,-0.00001164,0.00000866
 ,0.00000152,-0.00000109,0.00001214,0.00002647,-0.00016887,0.00008362,0
 .00000791,-0.00001263,0.00011669,-0.00009697,0.00004947,0.00004998,-0.
 00007925,0.00007537,0.00003913,-0.00001479,0.00009522,0.00001670,0.000
 03708,-0.00005096,-0.00040458,-0.00021981,0.00008960,0.00002526,0.0000
 9903,-0.00001814,0.00002690,0.00007883,-0.00086713,-0.00092965,0.00082
 331,-0.00010442,-0.00012640,-0.00009696,-0.00001193,-0.00001331,0.0000
 1593,-0.00001307,-0.00000866,0.00001330,-0.00002472,-0.00001037,0.0000
 1033,0.00005415,-0.00007341,0.00005072,-0.00006219,0.00005840,-0.00005
 856,-0.00005875,-0.00010235,-0.00009124,-0.00002746,0.00001403,-0.0000
 2633,-0.00008647,-0.00014236,-0.00017550,-0.00005104,0.00002748,-0.000
 03814,0.00001041,-0.00000449,0.00001284,0.00004172,-0.00002145,0.00000
 701,0.00000824,0.00002035,0.00000490,0.00003288,0.00004636,0.00002199,
 0.00000201,-0.00000682,0.00001761,0.00037513,0.00009954,0.00019557,-0.
 00000391,0.00007122,0.00008446,0.00002306,0.00000819,0.00013735,-0.000
 01669,0.00004551,0.00001698,-0.00000735,0.00001678,-0.00001569,0.00001
 077,-0.00000549,0.00001127,0.00004129,-0.00004329,-0.00000171,-0.00000
 393,0.00001630,0.00000646,-0.00020805,-0.00005805,0.00004087,0.0000266
 5,-0.00000884,-0.00003338,0.00002672,-0.00004281,0.00068540,0.00021728
 ,-0.00012745,-0.00008831,0.00002619,-0.00001590,0.00018462,0.00006206,
 0.00002600,0.00003239,0.00008062,-0.00001808,-0.00033800,-0.00010918,0
 .00006752,-0.00006079,-0.00001302,0.00003356,0.00002492,-0.00003960,0.
 00001111,-0.00008083,-0.00003447,0.00001037,0.00000599,0.00001614,-0.0
 0000318,0.00004326,-0.00001407,-0.00020078,-0.00004465,-0.00004300,-0.
 00002482,0.00006198,-0.00000854,-0.00003414,-0.00005093,-0.00025081,-0
 .00021417,0.00015503,0.00031562,-0.00004755,-0.00014775,0.00000027,-0.
 00005204,0.00019015,-0.00000931,-0.00004009,0.00012218,0.00022852,-0.0
 0158029,0.00141306,-0.00039763,0.00016523,-0.00071554,0.00001613,-0.00
 000109,-0.00000767,-0.00000128,0.00000115,-0.00001409,0.00024474,0.000
 34529,-0.00006933,-0.00001333,-0.00007699,-0.00003359,-0.00001169,-0.0
 0000451,0.00003982,-0.00015949,0.00009070,-0.00016751,0.00008549,-0.00
 005450,-0.00000775,0.00013296,-0.00002519,0.00003921,0.00015691,-0.000
 42209,-0.00003751,-0.00000735,-0.00008527,0.00008915,-0.00003128,0.000
 12741,0.00029653,-0.00207147,0.00259343,0.00129379,0.00051143,-0.00028
 734,-0.00014023,0.00108457,-0.00081910,-0.00082766,-0.01147744,0.01001
 623,0.00770923,0.00062732,0.00005791,0.00016316,-0.00343502,-0.0010199
 8,-0.00152876,0.14547491,-0.15165804,-0.05345379,0.03072717,-0.0117614
 0,-0.01356280,-0.00405451,0.00188590,0.00023462,-0.15696549,0.15467686
 ,-0.00019982,-0.00022888,-0.00021926,0.00027185,-0.00007228,0.00008299
 ,0.00001485,0.00002706,0.00004597,0.00003057,0.00001762,-0.00002223,0.
 00001655,0.00013761,0.00001320,-0.00000310,0.00028967,0.00011291,-0.00
 003195,-0.00000898,0.00000810,0.00000336,0.00000349,-0.00001121,0.0000
 1222,0.00000087,0.00001007,-0.00000648,-0.00003346,-0.00006773,0.00012
 599,-0.00004805,0.00005879,0.00000431,-0.00012596,0.00001168,-0.000030
 67,-0.00004879,-0.00001125,-0.00006100,-0.00002926,-0.00005398,-0.0001
 4579,0.00016782,-0.00023753,-0.00001367,0.00017723,0.00037520,-0.00010
 195,-0.00000587,-0.00011779,0.00000224,-0.00002624,-0.00008521,0.00016
 561,0.00040388,-0.00044110,0.00013777,0.00005905,0.00014247,0.00001962
 ,0.00002612,0.00000341,0.00000717,0.00001569,0.00001005,0.00000577,-0.
 00000478,0.00003685,0.00033214,0.00045793,0.00005304,0.00002910,-0.000
 38787,0.00001668,0.00002914,-0.00008075,-0.00001957,-0.00000493,-0.000
 09150,0.00020747,0.00004163,0.00003630,0.00004429,-0.00031723,-0.00005
 459,0.00018377,0.00000260,0.00005537,0.00001086,0.00001518,-0.00004034
 ,0.00005420,0.00000381,-0.00000601,-0.00002492,0.00001043,0.00000600,-
 0.00001661,0.00005694,0.00003711,-0.00002077,-0.00002291,-0.00001217,-
 0.00036656,-0.00003413,0.00014817,-0.00007819,0.00002970,0.00019379,0.
 00001308,-0.00015636,-0.00006593,-0.00000392,-0.00001685,0.00003430,0.
 00006969,-0.00001586,0.00001478,-0.00002627,0.00018595,0.00002254,-0.0
 0007965,-0.00002571,0.00001318,0.00002246,0.00016806,0.00015154,0.0001
 0986,0.00001729,-0.00003861,0.00003788,-0.00171469,0.00064786,-0.00233
 651,0.00030408,0.00003630,0.00069244,0.00001530,-0.00001828,0.00039511
 ,0.00020278,-0.00008323,0.00012929,-0.00014932,-0.00014728,-0.00009912
 ,0.00077034,-0.00000985,-0.00012327,-0.00002409,0.00005534,-0.00005093
 ,-0.00003982,0.00003730,-0.00018625,-0.00004356,0.00001882,-0.00002272
 ,-0.00026895,0.00001111,-0.00001382,0.00006244,-0.00031903,0.00002887,
 -0.00011668,0.00013707,-0.00014115,-0.00004956,0.00004313,-0.00015647,
 0.00006165,-0.00000355,-0.00022961,0.00133150,0.00024638,-0.00225823,-
 0.00015303,-0.00000823,0.00009156,-0.00014272,0.00002731,0.00063200,0.
 00120138,0.00051657,0.00169393,-0.00049533,-0.00047444,0.00108048,0.00
 002412,0.00000940,0.00001565,-0.00001291,-0.00001246,0.00002078,0.0000
 5374,-0.00012799,-0.00000493,-0.00000615,0.00002403,-0.00002370,0.0000
 1227,0.00001850,-0.00002727,-0.00020378,-0.00003690,-0.00023537,-0.000
 00972,0.00000807,0.00001297,-0.00004756,-0.00000481,0.00004316,0.00045
 236,0.00001271,0.00031717,-0.00005471,-0.00001958,-0.00000709,0.000003
 13,-0.00003328,-0.00040850,0.00041033,0.00098944,0.00079082,0.00008334
 ,0.00014532,-0.00019955,0.00053982,-0.00062049,-0.00001697,-0.01366613
 ,0.01049079,0.00624269,-0.00048041,0.00078701,-0.00021942,-0.00267891,
 -0.00134737,-0.00134022,0.08249903,-0.05175694,-0.08321109,-0.00863697
 ,0.00357443,0.00188001,0.03183155,-0.02146569,-0.00662546,-0.09141561,
 0.05756573,0.08403953\\-0.00000728,-0.00000252,-0.00000271,0.00000228,
 -0.00000606,0.00000387,0.00000409,0.00000320,0.00000305,-0.00000105,-0
 .00000390,-0.00000251,-0.00000439,0.00000460,-0.00000566,0.00000328,0.
 00000629,0.00000871,-0.00000047,0.00000212,0.00000096,-0.00000226,0.00
 000160,0.00000095,0.00000046,0.00000050,0.00000074,-0.00000228,-0.0000
 0244,0.00000072,0.00000192,-0.00000204,-0.00000182,-0.00000588,-0.0000
 0577,0.00000286,-0.00000528,0.00000235,-0.00000095,-0.00000401,0.00000
 185,-0.00000311,0.00000053,-0.00000023,0.00000292,0.00000079,-0.000005
 92,0.00000211,-0.00000152,-0.00000061,-0.00000002,-0.00000154,0.000002
 34,0.00000038,-0.00001696,0.00000823,0.00000191,0.00001669,-0.00000817
 ,-0.00000595,0.00000433,0.00000423,0.00000012,0.00000296,0.00000150,-0
 .00000055,0.00000155,-0.00000251,0.00000163,0.00000391,-0.00000808,-0.
 00000538,-0.00000638,0.00000405,0.00000522,-0.00000208,0.00000387,0.00
 000294,0.00000198,0.00000230,-0.00000387,-0.00000271,-0.00000210,-0.00
 001047,-0.00000593,-0.00000025,0.00000691,0.00000113,0.00000024,0.0000
 0110,-0.00000198,-0.00000228,-0.00000295,0.00000190,0.00000069,0.00000
 167,0.00000085,0.00000180,-0.00000169,0.00000123,0.00000199,-0.0000012
 8,0.00000966,0.00000300,0.00000135,0.00000524,-0.00000100,-0.00000560,
 0.00000143,-0.00000422,-0.00000501,0.00000563,0.00000065,-0.00000336,-
 0.00000257,-0.00000129,-0.00000207,0.00000025,-0.00000234,-0.00000039,
 -0.00000490,0.00000232,-0.00000526,0.00000305,-0.00000294,0.00000186,-
 0.00000320,-0.00000080,-0.00000301,-0.00000333,-0.00000016,0.00000416,
 0.00000517,-0.00000062,0.00001619,0.00000659,-0.00000160,0.,-0.0000052
 8,0.00000228,-0.00000070,0.00000493,0.00000704,-0.00000572,0.00000881,
 0.00000749,0.00000333,-0.00001016,-0.00000653,-0.00000174,-0.00000105,
 -0.00000049,0.00000223,-0.00000059,-0.00000241,-0.00000099,0.00000011,
 -0.00000035,0.00000284,0.00000208,0.00000021,0.00000175,0.00000047,-0.
 00000091,-0.00000274,-0.00000209,0.00000032,0.00000833,0.00000297,-0.0
 0000361,0.00000671,-0.00000319,-0.00000844,-0.00000265,0.00000509,0.00
 000153,-0.00000479,-0.00000050,-0.00000141,0.00000065,0.00000223,-0.00
 000044,0.00000068,-0.00000104,-0.00000796,-0.00000216,-0.00000581,0.00
 000731,-0.00000008,-0.00000067,0.00000061,0.00000607,-0.00000208,0.000
 00199,-0.00000269,0.00000579,0.00001128,-0.00000155,-0.00000109,-0.000
 00081,0.00000195,0.00000115,-0.00000295,0.00000234,-0.00000098,-0.0000
 0069,-0.00000136,0.00000015,-0.00000096,0.00000135,-0.00000060,0.00000
 013,-0.00000079,-0.00000062,0.00000115,0.00000003,0.00000015,-0.000001
 09,0.00000016,0.00000116,0.00000010,0.00000118,0.00000041,-0.00000177,
 -0.00000073,-0.00000094,0.00000078,-0.00000008,0.00000034,-0.00000056,
 -0.00000055,-0.00000234,0.00000214,0.00000052,-0.00000021,0.00000094,-
 0.00000021,-0.00000217,0.00000065,0.00000094,-0.00000072,-0.00000311,-
 0.00000183,0.00000220,0.00000522,-0.00000406,-0.00000233,0.00000040,-0
 .00001120,0.00000551,0.00000104,0.00000684\\\@


 YOU CANNOT THROW TO THE GROUND THE LETTERS OF
 THE GREEK ALPHABET AND PICK UP THE ILIAD.
        - RUFUS CHOATE, 1799-1859
 Job cpu time:      18 days  4 hours 59 minutes 22.2 seconds.
 File lengths (MBytes):  RWF=  17342 Int=      0 D2E=      0 Chk=     98 Scr=      1
 Normal termination of Gaussian 09 at Fri Apr  8 17:26:47 2016.
