 Entering Gaussian System, Link 0=g09
 Initial command:
 /share/apps//g09/l1.exe "/scratch/Gau-3109.inp" -scrdir="/scratch/"
 Entering Link 1 = /share/apps//g09/l1.exe PID=      3110.
  
 Copyright (c) 1988,1990,1992,1993,1995,1998,2003,2009,2013,
            Gaussian, Inc.  All Rights Reserved.
  
 This is part of the Gaussian(R) 09 program.  It is based on
 the Gaussian(R) 03 system (copyright 2003, Gaussian, Inc.),
 the Gaussian(R) 98 system (copyright 1998, Gaussian, Inc.),
 the Gaussian(R) 94 system (copyright 1995, Gaussian, Inc.),
 the Gaussian 92(TM) system (copyright 1992, Gaussian, Inc.),
 the Gaussian 90(TM) system (copyright 1990, Gaussian, Inc.),
 the Gaussian 88(TM) system (copyright 1988, Gaussian, Inc.),
 the Gaussian 86(TM) system (copyright 1986, Carnegie Mellon
 University), and the Gaussian 82(TM) system (copyright 1983,
 Carnegie Mellon University). Gaussian is a federally registered
 trademark of Gaussian, Inc.
  
 This software contains proprietary and confidential information,
 including trade secrets, belonging to Gaussian, Inc.
  
 This software is provided under written license and may be
 used, copied, transmitted, or stored only in accord with that
 written license.
  
 The following legend is applicable only to US Government
 contracts under FAR:
  
                    RESTRICTED RIGHTS LEGEND
  
 Use, reproduction and disclosure by the US Government is
 subject to restrictions as set forth in subparagraphs (a)
 and (c) of the Commercial Computer Software - Restricted
 Rights clause in FAR 52.227-19.
  
 Gaussian, Inc.
 340 Quinnipiac St., Bldg. 40, Wallingford CT 06492
  
  
 ---------------------------------------------------------------
 Warning -- This program may not be used in any manner that
 competes with the business of Gaussian, Inc. or will provide
 assistance to any competitor of Gaussian, Inc.  The licensee
 of this program is prohibited from giving any competitor of
 Gaussian, Inc. access to this program.  By using this program,
 the user acknowledges that Gaussian, Inc. is engaged in the
 business of creating and licensing software in the field of
 computational chemistry and represents and warrants to the
 licensee that it is not a competitor of Gaussian, Inc. and that
 it will not use this program in any manner prohibited above.
 ---------------------------------------------------------------
  

 Cite this work as:
 Gaussian 09, Revision D.01,
 M. J. Frisch, G. W. Trucks, H. B. Schlegel, G. E. Scuseria, 
 M. A. Robb, J. R. Cheeseman, G. Scalmani, V. Barone, B. Mennucci, 
 G. A. Petersson, H. Nakatsuji, M. Caricato, X. Li, H. P. Hratchian, 
 A. F. Izmaylov, J. Bloino, G. Zheng, J. L. Sonnenberg, M. Hada, 
 M. Ehara, K. Toyota, R. Fukuda, J. Hasegawa, M. Ishida, T. Nakajima, 
 Y. Honda, O. Kitao, H. Nakai, T. Vreven, J. A. Montgomery, Jr., 
 J. E. Peralta, F. Ogliaro, M. Bearpark, J. J. Heyd, E. Brothers, 
 K. N. Kudin, V. N. Staroverov, T. Keith, R. Kobayashi, J. Normand, 
 K. Raghavachari, A. Rendell, J. C. Burant, S. S. Iyengar, J. Tomasi, 
 M. Cossi, N. Rega, J. M. Millam, M. Klene, J. E. Knox, J. B. Cross, 
 V. Bakken, C. Adamo, J. Jaramillo, R. Gomperts, R. E. Stratmann, 
 O. Yazyev, A. J. Austin, R. Cammi, C. Pomelli, J. W. Ochterski, 
 R. L. Martin, K. Morokuma, V. G. Zakrzewski, G. A. Voth, 
 P. Salvador, J. J. Dannenberg, S. Dapprich, A. D. Daniels, 
 O. Farkas, J. B. Foresman, J. V. Ortiz, J. Cioslowski, 
 and D. J. Fox, Gaussian, Inc., Wallingford CT, 2013.
 
 ******************************************
 Gaussian 09:  EM64L-G09RevD.01 24-Apr-2013
                21-Apr-2016 
 ******************************************
 %nproc=20
 Will use up to   20 processors via shared memory.
 %mem=80GB
 %chk=Tri_A131_of.chk
 -------------------------------------------------------------------
 #P PBE1PBE/6-311+G(d,p) opt freq optcyc=999 EmpiricalDispersion=GD3
 -------------------------------------------------------------------
 1/6=999,14=-1,18=20,19=15,26=3,38=1/1,3;
 2/9=110,12=2,17=6,18=5,40=1/2;
 3/5=4,6=6,7=111,11=2,16=1,25=1,30=1,71=1,74=-13,124=31/1,2,3;
 4//1;
 5/5=2,38=5/2;
 6/7=2,8=2,9=2,10=2,28=1/1;
 7//1,2,3,16;
 1/6=999,14=-1,18=20,19=15,26=3/3(2);
 2/9=110/2;
 99//99;
 2/9=110/2;
 3/5=4,6=6,7=111,11=2,16=1,25=1,30=1,71=1,74=-13,124=31/1,2,3;
 4/5=5,16=3,69=1/1;
 5/5=2,38=5/2;
 7//1,2,3,16;
 1/6=999,14=-1,18=20,19=15,26=3/3(-5);
 2/9=110/2;
 6/7=2,8=2,9=2,10=2,19=2,28=1/1;
 99/9=1/99;
 Leave Link    1 at Thu Apr 21 14:52:19 2016, MaxMem= 10737418240 cpu:         2.2
 (Enter /share/apps//g09/l101.exe)
 -----
 trich
 -----
 Symbolic Z-matrix:
 Charge =  1 Multiplicity = 1
 O                    -3.29275  -3.51425   9.51349 
 C                    -3.13049  -4.89927   9.08942 
 C                    -3.92183  -5.18659   7.81748 
 C                    -5.42531  -4.88168   8.01899 
 C                    -5.68856  -3.8128    9.10859 
 C                    -4.52069  -2.83248   9.19745 
 H                    -3.46456  -5.55802   9.90468 
 H                    -3.80556  -6.26461   7.59887 
 H                    -5.79142  -4.49099   7.05513 
 H                    -6.60112  -3.2504    8.83998 
 H                    -4.42723  -2.33364   8.21373 
 O                    -5.85833  -4.4177    10.40046 
 O                    -6.1741   -6.02636   8.43624 
 O                    -3.48054  -4.37916   6.73039 
 O                    -1.77428  -5.09605   8.79837 
 C                    -4.71126  -1.74565   10.25598 
 H                    -3.85857  -1.05133   10.21627 
 H                    -5.62525  -1.17527   10.01263 
 O                    -4.77493  -2.25192   11.60035 
 H                    -5.24253  -3.11784   11.55268 
 H                    -6.3274   -5.26352   10.25049 
 H                    -6.30335  -6.6251    7.68241 
 H                    -2.50616  -4.42981   6.71478 
 O                     0.30792  -4.09012   12.33193 
 C                    -0.36305  -5.34117   12.36537 
 C                    -1.43486  -5.44551   11.25645 
 C                    -0.81848  -5.11533   9.89779 
 C                    -0.01589  -3.79729   9.90603 
 C                     0.96127  -3.78202   11.09711 
 H                     0.35085  -6.17972   12.25921 
 H                    -2.22494  -4.70417   11.47364 
 H                    -0.1255   -5.93244   9.63482 
 H                     0.58354  -3.77024   8.97625 
 H                     1.76297  -4.52172   10.89392 
 O                    -0.83592  -2.62533   9.95817 
 O                    -1.96232  -6.76114   11.20799 
 O                    -0.8899   -5.50531   13.66424 
 C                     1.61831  -2.4155    11.3226 
 H                     2.36466  -2.49839   12.12401 
 H                     2.13516  -2.09763   10.40116 
 O                     0.67185  -1.41663   11.73689 
 H                    -0.05248  -1.49533   11.06747 
 H                    -1.75625  -2.84898   9.66621 
 H                    -2.52654  -6.851     12.00857 
 O                    -2.56457  -2.9453    15.73845 
 C                    -3.71961  -3.65386   16.1924 
 C                    -4.24325  -4.59062   15.10062 
 C                    -3.12998  -5.45791   14.52048 
 C                    -1.93822  -4.6098    14.06982 
 C                    -1.46     -3.72824   15.24339 
 H                    -3.4874   -4.21234   17.1231 
 H                    -4.64559  -3.95765   14.28456 
 H                    -2.7786   -6.1673    15.29388 
 H                    -1.05944  -4.38154   16.04302 
 H                    -2.23687  -3.94785   13.24142 
 O                    -3.64106  -6.19108   13.39762 
 O                    -5.24396  -5.48306   15.58243 
 O                    -4.72207  -2.69649   16.41478 
 C                    -0.38888  -2.69887   14.89341 
 H                    -0.1173   -2.17249   15.82299 
 H                     0.49611  -3.21614   14.50382 
 O                    -0.86864  -1.74154   13.93945 
 H                    -0.24498  -1.70508   13.15547 
 H                    -4.42174  -6.67951   13.71961 
 H                    -6.01594  -4.9563    15.85618 
 C                    -4.5343   -1.85774   17.59435 
 H                    -5.55088  -1.65953   17.96487 
 H                    -3.99683  -2.43869   18.36096 
 C                    -3.79682  -0.5598    17.27548 
 H                    -2.80734  -0.81494   16.8703 
 H                    -3.60733  -0.04484   18.23033 
 C                    -4.55833   0.38542   16.31257 
 H                    -5.39461  -0.15906   15.84063 
 H                    -5.03739   1.18142   16.89896 
 C                    -3.68641   1.032     15.20837 
 H                    -3.9464    2.09424   15.09274 
 H                    -2.62389   1.01355   15.4985 
 C                    -3.85717   0.40279   13.82684 
 H                    -3.21308   0.89152   13.08319 
 H                    -4.89892   0.49765   13.48799 
 N                    -3.52485  -1.05937   13.80802 
 H                    -2.48041  -1.25697   13.86004 
 H                    -3.91967  -1.52581   12.95459 
 H                    -3.93355  -1.53837   14.62699 
 
 NAtoms=     84 NQM=       84 NQMF=       0 NMMI=      0 NMMIF=      0
                NMic=       0 NMicF=      0.
                    Isotopes and Nuclear Properties:
 (Nuclear quadrupole moments (NQMom) in fm**2, nuclear magnetic moments (NMagM)
  in nuclear magnetons)

  Atom         1           2           3           4           5           6           7           8           9          10
 IAtWgt=          16          12          12          12          12          12           1           1           1           1
 AtmWgt=  15.9949146  12.0000000  12.0000000  12.0000000  12.0000000  12.0000000   1.0078250   1.0078250   1.0078250   1.0078250
 NucSpn=           0           0           0           0           0           0           1           1           1           1
 AtZEff=   0.0000000   0.0000000   0.0000000   0.0000000   0.0000000   0.0000000   0.0000000   0.0000000   0.0000000   0.0000000
 NQMom=    0.0000000   0.0000000   0.0000000   0.0000000   0.0000000   0.0000000   0.0000000   0.0000000   0.0000000   0.0000000
 NMagM=    0.0000000   0.0000000   0.0000000   0.0000000   0.0000000   0.0000000   2.7928460   2.7928460   2.7928460   2.7928460
 AtZNuc=   8.0000000   6.0000000   6.0000000   6.0000000   6.0000000   6.0000000   1.0000000   1.0000000   1.0000000   1.0000000

  Atom        11          12          13          14          15          16          17          18          19          20
 IAtWgt=           1          16          16          16          16          12           1           1          16           1
 AtmWgt=   1.0078250  15.9949146  15.9949146  15.9949146  15.9949146  12.0000000   1.0078250   1.0078250  15.9949146   1.0078250
 NucSpn=           1           0           0           0           0           0           1           1           0           1
 AtZEff=   0.0000000   0.0000000   0.0000000   0.0000000   0.0000000   0.0000000   0.0000000   0.0000000   0.0000000   0.0000000
 NQMom=    0.0000000   0.0000000   0.0000000   0.0000000   0.0000000   0.0000000   0.0000000   0.0000000   0.0000000   0.0000000
 NMagM=    2.7928460   0.0000000   0.0000000   0.0000000   0.0000000   0.0000000   2.7928460   2.7928460   0.0000000   2.7928460
 AtZNuc=   1.0000000   8.0000000   8.0000000   8.0000000   8.0000000   6.0000000   1.0000000   1.0000000   8.0000000   1.0000000

  Atom        21          22          23          24          25          26          27          28          29          30
 IAtWgt=           1           1           1          16          12          12          12          12          12           1
 AtmWgt=   1.0078250   1.0078250   1.0078250  15.9949146  12.0000000  12.0000000  12.0000000  12.0000000  12.0000000   1.0078250
 NucSpn=           1           1           1           0           0           0           0           0           0           1
 AtZEff=   0.0000000   0.0000000   0.0000000   0.0000000   0.0000000   0.0000000   0.0000000   0.0000000   0.0000000   0.0000000
 NQMom=    0.0000000   0.0000000   0.0000000   0.0000000   0.0000000   0.0000000   0.0000000   0.0000000   0.0000000   0.0000000
 NMagM=    2.7928460   2.7928460   2.7928460   0.0000000   0.0000000   0.0000000   0.0000000   0.0000000   0.0000000   2.7928460
 AtZNuc=   1.0000000   1.0000000   1.0000000   8.0000000   6.0000000   6.0000000   6.0000000   6.0000000   6.0000000   1.0000000

  Atom        31          32          33          34          35          36          37          38          39          40
 IAtWgt=           1           1           1           1          16          16          16          12           1           1
 AtmWgt=   1.0078250   1.0078250   1.0078250   1.0078250  15.9949146  15.9949146  15.9949146  12.0000000   1.0078250   1.0078250
 NucSpn=           1           1           1           1           0           0           0           0           1           1
 AtZEff=   0.0000000   0.0000000   0.0000000   0.0000000   0.0000000   0.0000000   0.0000000   0.0000000   0.0000000   0.0000000
 NQMom=    0.0000000   0.0000000   0.0000000   0.0000000   0.0000000   0.0000000   0.0000000   0.0000000   0.0000000   0.0000000
 NMagM=    2.7928460   2.7928460   2.7928460   2.7928460   0.0000000   0.0000000   0.0000000   0.0000000   2.7928460   2.7928460
 AtZNuc=   1.0000000   1.0000000   1.0000000   1.0000000   8.0000000   8.0000000   8.0000000   6.0000000   1.0000000   1.0000000

  Atom        41          42          43          44          45          46          47          48          49          50
 IAtWgt=          16           1           1           1          16          12          12          12          12          12
 AtmWgt=  15.9949146   1.0078250   1.0078250   1.0078250  15.9949146  12.0000000  12.0000000  12.0000000  12.0000000  12.0000000
 NucSpn=           0           1           1           1           0           0           0           0           0           0
 AtZEff=   0.0000000   0.0000000   0.0000000   0.0000000   0.0000000   0.0000000   0.0000000   0.0000000   0.0000000   0.0000000
 NQMom=    0.0000000   0.0000000   0.0000000   0.0000000   0.0000000   0.0000000   0.0000000   0.0000000   0.0000000   0.0000000
 NMagM=    0.0000000   2.7928460   2.7928460   2.7928460   0.0000000   0.0000000   0.0000000   0.0000000   0.0000000   0.0000000
 AtZNuc=   8.0000000   1.0000000   1.0000000   1.0000000   8.0000000   6.0000000   6.0000000   6.0000000   6.0000000   6.0000000

  Atom        51          52          53          54          55          56          57          58          59          60
 IAtWgt=           1           1           1           1           1          16          16          16          12           1
 AtmWgt=   1.0078250   1.0078250   1.0078250   1.0078250   1.0078250  15.9949146  15.9949146  15.9949146  12.0000000   1.0078250
 NucSpn=           1           1           1           1           1           0           0           0           0           1
 AtZEff=   0.0000000   0.0000000   0.0000000   0.0000000   0.0000000   0.0000000   0.0000000   0.0000000   0.0000000   0.0000000
 NQMom=    0.0000000   0.0000000   0.0000000   0.0000000   0.0000000   0.0000000   0.0000000   0.0000000   0.0000000   0.0000000
 NMagM=    2.7928460   2.7928460   2.7928460   2.7928460   2.7928460   0.0000000   0.0000000   0.0000000   0.0000000   2.7928460
 AtZNuc=   1.0000000   1.0000000   1.0000000   1.0000000   1.0000000   8.0000000   8.0000000   8.0000000   6.0000000   1.0000000

  Atom        61          62          63          64          65          66          67          68          69          70
 IAtWgt=           1          16           1           1           1          12           1           1          12           1
 AtmWgt=   1.0078250  15.9949146   1.0078250   1.0078250   1.0078250  12.0000000   1.0078250   1.0078250  12.0000000   1.0078250
 NucSpn=           1           0           1           1           1           0           1           1           0           1
 AtZEff=   0.0000000   0.0000000   0.0000000   0.0000000   0.0000000   0.0000000   0.0000000   0.0000000   0.0000000   0.0000000
 NQMom=    0.0000000   0.0000000   0.0000000   0.0000000   0.0000000   0.0000000   0.0000000   0.0000000   0.0000000   0.0000000
 NMagM=    2.7928460   0.0000000   2.7928460   2.7928460   2.7928460   0.0000000   2.7928460   2.7928460   0.0000000   2.7928460
 AtZNuc=   1.0000000   8.0000000   1.0000000   1.0000000   1.0000000   6.0000000   1.0000000   1.0000000   6.0000000   1.0000000

  Atom        71          72          73          74          75          76          77          78          79          80
 IAtWgt=           1          12           1           1          12           1           1          12           1           1
 AtmWgt=   1.0078250  12.0000000   1.0078250   1.0078250  12.0000000   1.0078250   1.0078250  12.0000000   1.0078250   1.0078250
 NucSpn=           1           0           1           1           0           1           1           0           1           1
 AtZEff=   0.0000000   0.0000000   0.0000000   0.0000000   0.0000000   0.0000000   0.0000000   0.0000000   0.0000000   0.0000000
 NQMom=    0.0000000   0.0000000   0.0000000   0.0000000   0.0000000   0.0000000   0.0000000   0.0000000   0.0000000   0.0000000
 NMagM=    2.7928460   0.0000000   2.7928460   2.7928460   0.0000000   2.7928460   2.7928460   0.0000000   2.7928460   2.7928460
 AtZNuc=   1.0000000   6.0000000   1.0000000   1.0000000   6.0000000   1.0000000   1.0000000   6.0000000   1.0000000   1.0000000

  Atom        81          82          83          84
 IAtWgt=          14           1           1           1
 AtmWgt=  14.0030740   1.0078250   1.0078250   1.0078250
 NucSpn=           2           1           1           1
 AtZEff=   0.0000000   0.0000000   0.0000000   0.0000000
 NQMom=    2.0440000   0.0000000   0.0000000   0.0000000
 NMagM=    0.4037610   2.7928460   2.7928460   2.7928460
 AtZNuc=   7.0000000   1.0000000   1.0000000   1.0000000
 Leave Link  101 at Thu Apr 21 14:52:20 2016, MaxMem= 10737418240 cpu:         4.7
 (Enter /share/apps//g09/l103.exe)

 GradGradGradGradGradGradGradGradGradGradGradGradGradGradGradGradGradGrad
 Berny optimization.
 Initialization pass.
                           ----------------------------
                           !    Initial Parameters    !
                           ! (Angstroms and Degrees)  !
 --------------------------                            --------------------------
 ! Name  Definition              Value          Derivative Info.                !
 --------------------------------------------------------------------------------
 ! R1    R(1,2)                  1.4575         estimate D2E/DX2                !
 ! R2    R(1,6)                  1.4396         estimate D2E/DX2                !
 ! R3    R(2,3)                  1.5253         estimate D2E/DX2                !
 ! R4    R(2,7)                  1.1001         estimate D2E/DX2                !
 ! R5    R(2,15)                 1.401          estimate D2E/DX2                !
 ! R6    R(3,4)                  1.5473         estimate D2E/DX2                !
 ! R7    R(3,8)                  1.1061         estimate D2E/DX2                !
 ! R8    R(3,14)                 1.4242         estimate D2E/DX2                !
 ! R9    R(4,5)                  1.5489         estimate D2E/DX2                !
 ! R10   R(4,9)                  1.1026         estimate D2E/DX2                !
 ! R11   R(4,13)                 1.4301         estimate D2E/DX2                !
 ! R12   R(5,6)                  1.5274         estimate D2E/DX2                !
 ! R13   R(5,10)                 1.1051         estimate D2E/DX2                !
 ! R14   R(5,12)                 1.4365         estimate D2E/DX2                !
 ! R15   R(6,11)                 1.1069         estimate D2E/DX2                !
 ! R16   R(6,16)                 1.5291         estimate D2E/DX2                !
 ! R17   R(12,21)                0.9787         estimate D2E/DX2                !
 ! R18   R(13,22)                0.9713         estimate D2E/DX2                !
 ! R19   R(14,23)                0.9758         estimate D2E/DX2                !
 ! R20   R(15,27)                1.4569         estimate D2E/DX2                !
 ! R21   R(16,17)                1.1003         estimate D2E/DX2                !
 ! R22   R(16,18)                1.1045         estimate D2E/DX2                !
 ! R23   R(16,19)                1.4379         estimate D2E/DX2                !
 ! R24   R(19,20)                0.9853         estimate D2E/DX2                !
 ! R25   R(24,25)                1.42           estimate D2E/DX2                !
 ! R26   R(24,29)                1.4306         estimate D2E/DX2                !
 ! R27   R(25,26)                1.5458         estimate D2E/DX2                !
 ! R28   R(25,30)                1.1064         estimate D2E/DX2                !
 ! R29   R(25,37)                1.4112         estimate D2E/DX2                !
 ! R30   R(26,27)                1.528          estimate D2E/DX2                !
 ! R31   R(26,31)                1.105          estimate D2E/DX2                !
 ! R32   R(26,36)                1.4183         estimate D2E/DX2                !
 ! R33   R(27,28)                1.5432         estimate D2E/DX2                !
 ! R34   R(27,32)                1.1032         estimate D2E/DX2                !
 ! R35   R(28,29)                1.5407         estimate D2E/DX2                !
 ! R36   R(28,33)                1.1066         estimate D2E/DX2                !
 ! R37   R(28,35)                1.4313         estimate D2E/DX2                !
 ! R38   R(29,34)                1.1096         estimate D2E/DX2                !
 ! R39   R(29,38)                1.5329         estimate D2E/DX2                !
 ! R40   R(35,43)                0.9911         estimate D2E/DX2                !
 ! R41   R(36,44)                0.9835         estimate D2E/DX2                !
 ! R42   R(37,49)                1.4372         estimate D2E/DX2                !
 ! R43   R(38,39)                1.0983         estimate D2E/DX2                !
 ! R44   R(38,40)                1.1033         estimate D2E/DX2                !
 ! R45   R(38,41)                1.4371         estimate D2E/DX2                !
 ! R46   R(41,42)                0.9894         estimate D2E/DX2                !
 ! R47   R(45,46)                1.4291         estimate D2E/DX2                !
 ! R48   R(45,50)                1.4416         estimate D2E/DX2                !
 ! R49   R(46,47)                1.5309         estimate D2E/DX2                !
 ! R50   R(46,51)                1.11           estimate D2E/DX2                !
 ! R51   R(46,58)                1.4039         estimate D2E/DX2                !
 ! R52   R(47,48)                1.5258         estimate D2E/DX2                !
 ! R53   R(47,52)                1.1084         estimate D2E/DX2                !
 ! R54   R(47,57)                1.4248         estimate D2E/DX2                !
 ! R55   R(48,49)                1.5306         estimate D2E/DX2                !
 ! R56   R(48,53)                1.1067         estimate D2E/DX2                !
 ! R57   R(48,56)                1.4351         estimate D2E/DX2                !
 ! R58   R(49,50)                1.5437         estimate D2E/DX2                !
 ! R59   R(49,55)                1.1016         estimate D2E/DX2                !
 ! R60   R(50,54)                1.1075         estimate D2E/DX2                !
 ! R61   R(50,59)                1.5262         estimate D2E/DX2                !
 ! R62   R(56,64)                0.9756         estimate D2E/DX2                !
 ! R63   R(57,65)                0.9738         estimate D2E/DX2                !
 ! R64   R(58,66)                1.4595         estimate D2E/DX2                !
 ! R65   R(59,60)                1.1022         estimate D2E/DX2                !
 ! R66   R(59,61)                1.0966         estimate D2E/DX2                !
 ! R67   R(59,62)                1.4341         estimate D2E/DX2                !
 ! R68   R(62,63)                1.0024         estimate D2E/DX2                !
 ! R69   R(66,67)                1.1            estimate D2E/DX2                !
 ! R70   R(66,68)                1.1018         estimate D2E/DX2                !
 ! R71   R(66,69)                1.5265         estimate D2E/DX2                !
 ! R72   R(69,70)                1.0992         estimate D2E/DX2                !
 ! R73   R(69,71)                1.1013         estimate D2E/DX2                !
 ! R74   R(69,72)                1.5494         estimate D2E/DX2                !
 ! R75   R(72,73)                1.1039         estimate D2E/DX2                !
 ! R76   R(72,74)                1.0986         estimate D2E/DX2                !
 ! R77   R(72,75)                1.5484         estimate D2E/DX2                !
 ! R78   R(75,76)                1.0997         estimate D2E/DX2                !
 ! R79   R(75,77)                1.1016         estimate D2E/DX2                !
 ! R80   R(75,78)                1.5276         estimate D2E/DX2                !
 ! R81   R(78,79)                1.0985         estimate D2E/DX2                !
 ! R82   R(78,80)                1.0996         estimate D2E/DX2                !
 ! R83   R(78,81)                1.4996         estimate D2E/DX2                !
 ! R84   R(81,82)                1.0642         estimate D2E/DX2                !
 ! R85   R(81,83)                1.0497         estimate D2E/DX2                !
 ! R86   R(81,84)                1.033          estimate D2E/DX2                !
 ! A1    A(2,1,6)              118.7567         estimate D2E/DX2                !
 ! A2    A(1,2,3)              111.3371         estimate D2E/DX2                !
 ! A3    A(1,2,7)              108.6384         estimate D2E/DX2                !
 ! A4    A(1,2,15)             107.5586         estimate D2E/DX2                !
 ! A5    A(3,2,7)              110.3426         estimate D2E/DX2                !
 ! A6    A(3,2,15)             107.6096         estimate D2E/DX2                !
 ! A7    A(7,2,15)             111.335          estimate D2E/DX2                !
 ! A8    A(2,3,4)              111.0019         estimate D2E/DX2                !
 ! A9    A(2,3,8)              107.0893         estimate D2E/DX2                !
 ! A10   A(2,3,14)             111.6509         estimate D2E/DX2                !
 ! A11   A(4,3,8)              108.6597         estimate D2E/DX2                !
 ! A12   A(4,3,14)             106.7839         estimate D2E/DX2                !
 ! A13   A(8,3,14)             111.6606         estimate D2E/DX2                !
 ! A14   A(3,4,5)              113.1265         estimate D2E/DX2                !
 ! A15   A(3,4,9)              106.1783         estimate D2E/DX2                !
 ! A16   A(3,4,13)             112.8954         estimate D2E/DX2                !
 ! A17   A(5,4,9)              108.3005         estimate D2E/DX2                !
 ! A18   A(5,4,13)             104.9595         estimate D2E/DX2                !
 ! A19   A(9,4,13)             111.3969         estimate D2E/DX2                !
 ! A20   A(4,5,6)              110.7261         estimate D2E/DX2                !
 ! A21   A(4,5,10)             108.6971         estimate D2E/DX2                !
 ! A22   A(4,5,12)             111.231          estimate D2E/DX2                !
 ! A23   A(6,5,10)             108.5974         estimate D2E/DX2                !
 ! A24   A(6,5,12)             107.9574         estimate D2E/DX2                !
 ! A25   A(10,5,12)            109.5904         estimate D2E/DX2                !
 ! A26   A(1,6,5)              111.1623         estimate D2E/DX2                !
 ! A27   A(1,6,11)             109.6635         estimate D2E/DX2                !
 ! A28   A(1,6,16)             106.9143         estimate D2E/DX2                !
 ! A29   A(5,6,11)             107.584          estimate D2E/DX2                !
 ! A30   A(5,6,16)             113.6524         estimate D2E/DX2                !
 ! A31   A(11,6,16)            107.784          estimate D2E/DX2                !
 ! A32   A(5,12,21)            106.4237         estimate D2E/DX2                !
 ! A33   A(4,13,22)            109.6725         estimate D2E/DX2                !
 ! A34   A(3,14,23)            106.9879         estimate D2E/DX2                !
 ! A35   A(2,15,27)            118.696          estimate D2E/DX2                !
 ! A36   A(6,16,17)            109.0835         estimate D2E/DX2                !
 ! A37   A(6,16,18)            108.5219         estimate D2E/DX2                !
 ! A38   A(6,16,19)            113.7341         estimate D2E/DX2                !
 ! A39   A(17,16,18)           107.9061         estimate D2E/DX2                !
 ! A40   A(17,16,19)           106.871          estimate D2E/DX2                !
 ! A41   A(18,16,19)           110.5585         estimate D2E/DX2                !
 ! A42   A(16,19,20)           106.5715         estimate D2E/DX2                !
 ! A43   A(25,24,29)           115.2053         estimate D2E/DX2                !
 ! A44   A(24,25,26)           111.7284         estimate D2E/DX2                !
 ! A45   A(24,25,30)           111.1362         estimate D2E/DX2                !
 ! A46   A(24,25,37)           107.4903         estimate D2E/DX2                !
 ! A47   A(26,25,30)           109.112          estimate D2E/DX2                !
 ! A48   A(26,25,37)           113.1766         estimate D2E/DX2                !
 ! A49   A(30,25,37)           103.9485         estimate D2E/DX2                !
 ! A50   A(25,26,27)           110.0958         estimate D2E/DX2                !
 ! A51   A(25,26,31)           108.0285         estimate D2E/DX2                !
 ! A52   A(25,26,36)           110.1821         estimate D2E/DX2                !
 ! A53   A(27,26,31)           108.5554         estimate D2E/DX2                !
 ! A54   A(27,26,36)           108.668          estimate D2E/DX2                !
 ! A55   A(31,26,36)           111.2942         estimate D2E/DX2                !
 ! A56   A(15,27,26)           114.1542         estimate D2E/DX2                !
 ! A57   A(15,27,28)           109.5069         estimate D2E/DX2                !
 ! A58   A(15,27,32)           104.0056         estimate D2E/DX2                !
 ! A59   A(26,27,28)           112.9295         estimate D2E/DX2                !
 ! A60   A(26,27,32)           107.7755         estimate D2E/DX2                !
 ! A61   A(28,27,32)           107.8899         estimate D2E/DX2                !
 ! A62   A(27,28,29)           110.026          estimate D2E/DX2                !
 ! A63   A(27,28,33)           107.3445         estimate D2E/DX2                !
 ! A64   A(27,28,35)           113.676          estimate D2E/DX2                !
 ! A65   A(29,28,33)           107.8037         estimate D2E/DX2                !
 ! A66   A(29,28,35)           109.0921         estimate D2E/DX2                !
 ! A67   A(33,28,35)           108.7197         estimate D2E/DX2                !
 ! A68   A(24,29,28)           112.0552         estimate D2E/DX2                !
 ! A69   A(24,29,34)           110.1494         estimate D2E/DX2                !
 ! A70   A(24,29,38)           105.1155         estimate D2E/DX2                !
 ! A71   A(28,29,34)           108.0637         estimate D2E/DX2                !
 ! A72   A(28,29,38)           113.228          estimate D2E/DX2                !
 ! A73   A(34,29,38)           108.1513         estimate D2E/DX2                !
 ! A74   A(28,35,43)           109.6646         estimate D2E/DX2                !
 ! A75   A(26,36,44)           105.6815         estimate D2E/DX2                !
 ! A76   A(25,37,49)           117.3605         estimate D2E/DX2                !
 ! A77   A(29,38,39)           109.3497         estimate D2E/DX2                !
 ! A78   A(29,38,40)           109.5587         estimate D2E/DX2                !
 ! A79   A(29,38,41)           112.3171         estimate D2E/DX2                !
 ! A80   A(39,38,40)           108.2297         estimate D2E/DX2                !
 ! A81   A(39,38,41)           106.838          estimate D2E/DX2                !
 ! A82   A(40,38,41)           110.4291         estimate D2E/DX2                !
 ! A83   A(38,41,42)           103.4036         estimate D2E/DX2                !
 ! A84   A(46,45,50)           117.3288         estimate D2E/DX2                !
 ! A85   A(45,46,47)           110.6898         estimate D2E/DX2                !
 ! A86   A(45,46,51)           110.2877         estimate D2E/DX2                !
 ! A87   A(45,46,58)           106.8179         estimate D2E/DX2                !
 ! A88   A(47,46,51)           111.2021         estimate D2E/DX2                !
 ! A89   A(47,46,58)           106.6187         estimate D2E/DX2                !
 ! A90   A(51,46,58)           111.0806         estimate D2E/DX2                !
 ! A91   A(46,47,48)           111.6785         estimate D2E/DX2                !
 ! A92   A(46,47,52)           107.4453         estimate D2E/DX2                !
 ! A93   A(46,47,57)           112.4791         estimate D2E/DX2                !
 ! A94   A(48,47,52)           108.0304         estimate D2E/DX2                !
 ! A95   A(48,47,57)           106.5587         estimate D2E/DX2                !
 ! A96   A(52,47,57)           110.5932         estimate D2E/DX2                !
 ! A97   A(47,48,49)           111.4134         estimate D2E/DX2                !
 ! A98   A(47,48,53)           109.2863         estimate D2E/DX2                !
 ! A99   A(47,48,56)           109.1498         estimate D2E/DX2                !
 ! A100  A(49,48,53)           108.2835         estimate D2E/DX2                !
 ! A101  A(49,48,56)           109.2688         estimate D2E/DX2                !
 ! A102  A(53,48,56)           109.4128         estimate D2E/DX2                !
 ! A103  A(37,49,48)           107.8055         estimate D2E/DX2                !
 ! A104  A(37,49,50)           110.1456         estimate D2E/DX2                !
 ! A105  A(37,49,55)           111.097          estimate D2E/DX2                !
 ! A106  A(48,49,50)           109.4995         estimate D2E/DX2                !
 ! A107  A(48,49,55)           110.0765         estimate D2E/DX2                !
 ! A108  A(50,49,55)           108.2102         estimate D2E/DX2                !
 ! A109  A(45,50,49)           109.503          estimate D2E/DX2                !
 ! A110  A(45,50,54)           110.459          estimate D2E/DX2                !
 ! A111  A(45,50,59)           104.4884         estimate D2E/DX2                !
 ! A112  A(49,50,54)           108.9083         estimate D2E/DX2                !
 ! A113  A(49,50,59)           115.3554         estimate D2E/DX2                !
 ! A114  A(54,50,59)           108.0335         estimate D2E/DX2                !
 ! A115  A(48,56,64)           106.4109         estimate D2E/DX2                !
 ! A116  A(47,57,65)           108.2414         estimate D2E/DX2                !
 ! A117  A(46,58,66)           115.344          estimate D2E/DX2                !
 ! A118  A(50,59,60)           107.5545         estimate D2E/DX2                !
 ! A119  A(50,59,61)           109.2507         estimate D2E/DX2                !
 ! A120  A(50,59,62)           111.5911         estimate D2E/DX2                !
 ! A121  A(60,59,61)           109.0283         estimate D2E/DX2                !
 ! A122  A(60,59,62)           108.943          estimate D2E/DX2                !
 ! A123  A(61,59,62)           110.3976         estimate D2E/DX2                !
 ! A124  A(59,62,63)           109.6562         estimate D2E/DX2                !
 ! A125  A(58,66,67)           104.8854         estimate D2E/DX2                !
 ! A126  A(58,66,68)           108.7875         estimate D2E/DX2                !
 ! A127  A(58,66,69)           112.4555         estimate D2E/DX2                !
 ! A128  A(67,66,68)           108.1466         estimate D2E/DX2                !
 ! A129  A(67,66,69)           111.3233         estimate D2E/DX2                !
 ! A130  A(68,66,69)           110.9763         estimate D2E/DX2                !
 ! A131  A(66,69,70)           108.3319         estimate D2E/DX2                !
 ! A132  A(66,69,71)           107.4335         estimate D2E/DX2                !
 ! A133  A(66,69,72)           114.2736         estimate D2E/DX2                !
 ! A134  A(70,69,71)           105.857          estimate D2E/DX2                !
 ! A135  A(70,69,72)           110.7898         estimate D2E/DX2                !
 ! A136  A(71,69,72)           109.7642         estimate D2E/DX2                !
 ! A137  A(69,72,73)           109.7028         estimate D2E/DX2                !
 ! A138  A(69,72,74)           108.9428         estimate D2E/DX2                !
 ! A139  A(69,72,75)           114.909          estimate D2E/DX2                !
 ! A140  A(73,72,74)           104.7867         estimate D2E/DX2                !
 ! A141  A(73,72,75)           109.1285         estimate D2E/DX2                !
 ! A142  A(74,72,75)           108.8821         estimate D2E/DX2                !
 ! A143  A(72,75,76)           110.1946         estimate D2E/DX2                !
 ! A144  A(72,75,77)           110.3852         estimate D2E/DX2                !
 ! A145  A(72,75,78)           114.2033         estimate D2E/DX2                !
 ! A146  A(76,75,77)           105.778          estimate D2E/DX2                !
 ! A147  A(76,75,78)           106.0418         estimate D2E/DX2                !
 ! A148  A(77,75,78)           109.8224         estimate D2E/DX2                !
 ! A149  A(75,78,79)           111.3108         estimate D2E/DX2                !
 ! A150  A(75,78,80)           110.4298         estimate D2E/DX2                !
 ! A151  A(75,78,81)           112.8417         estimate D2E/DX2                !
 ! A152  A(79,78,80)           107.9688         estimate D2E/DX2                !
 ! A153  A(79,78,81)           107.1798         estimate D2E/DX2                !
 ! A154  A(80,78,81)           106.8704         estimate D2E/DX2                !
 ! A155  A(78,81,82)           113.4479         estimate D2E/DX2                !
 ! A156  A(78,81,83)           111.1084         estimate D2E/DX2                !
 ! A157  A(78,81,84)           110.7619         estimate D2E/DX2                !
 ! A158  A(82,81,83)           109.049          estimate D2E/DX2                !
 ! A159  A(82,81,84)           105.2732         estimate D2E/DX2                !
 ! A160  A(83,81,84)           106.8405         estimate D2E/DX2                !
 ! D1    D(6,1,2,3)             29.3993         estimate D2E/DX2                !
 ! D2    D(6,1,2,7)            -92.311          estimate D2E/DX2                !
 ! D3    D(6,1,2,15)           147.0622         estimate D2E/DX2                !
 ! D4    D(2,1,6,5)             28.9508         estimate D2E/DX2                !
 ! D5    D(2,1,6,11)           -89.8876         estimate D2E/DX2                !
 ! D6    D(2,1,6,16)           153.5179         estimate D2E/DX2                !
 ! D7    D(1,2,3,4)            -57.7726         estimate D2E/DX2                !
 ! D8    D(1,2,3,8)           -176.2341         estimate D2E/DX2                !
 ! D9    D(1,2,3,14)            61.2517         estimate D2E/DX2                !
 ! D10   D(7,2,3,4)             62.9422         estimate D2E/DX2                !
 ! D11   D(7,2,3,8)            -55.5194         estimate D2E/DX2                !
 ! D12   D(7,2,3,14)          -178.0335         estimate D2E/DX2                !
 ! D13   D(15,2,3,4)          -175.4046         estimate D2E/DX2                !
 ! D14   D(15,2,3,8)            66.1339         estimate D2E/DX2                !
 ! D15   D(15,2,3,14)          -56.3803         estimate D2E/DX2                !
 ! D16   D(1,2,15,27)           70.5265         estimate D2E/DX2                !
 ! D17   D(3,2,15,27)         -169.4184         estimate D2E/DX2                !
 ! D18   D(7,2,15,27)          -48.3854         estimate D2E/DX2                !
 ! D19   D(2,3,4,5)             26.3718         estimate D2E/DX2                !
 ! D20   D(2,3,4,9)            145.0194         estimate D2E/DX2                !
 ! D21   D(2,3,4,13)           -92.6449         estimate D2E/DX2                !
 ! D22   D(8,3,4,5)            143.8802         estimate D2E/DX2                !
 ! D23   D(8,3,4,9)            -97.4722         estimate D2E/DX2                !
 ! D24   D(8,3,4,13)            24.8635         estimate D2E/DX2                !
 ! D25   D(14,3,4,5)           -95.5376         estimate D2E/DX2                !
 ! D26   D(14,3,4,9)            23.11           estimate D2E/DX2                !
 ! D27   D(14,3,4,13)          145.4457         estimate D2E/DX2                !
 ! D28   D(2,3,14,23)           47.3084         estimate D2E/DX2                !
 ! D29   D(4,3,14,23)          168.8076         estimate D2E/DX2                !
 ! D30   D(8,3,14,23)          -72.5489         estimate D2E/DX2                !
 ! D31   D(3,4,5,6)             29.592          estimate D2E/DX2                !
 ! D32   D(3,4,5,10)           148.8037         estimate D2E/DX2                !
 ! D33   D(3,4,5,12)           -90.4508         estimate D2E/DX2                !
 ! D34   D(9,4,5,6)            -87.8185         estimate D2E/DX2                !
 ! D35   D(9,4,5,10)            31.3932         estimate D2E/DX2                !
 ! D36   D(9,4,5,12)           152.1387         estimate D2E/DX2                !
 ! D37   D(13,4,5,6)           153.0964         estimate D2E/DX2                !
 ! D38   D(13,4,5,10)          -87.6919         estimate D2E/DX2                !
 ! D39   D(13,4,5,12)           33.0536         estimate D2E/DX2                !
 ! D40   D(3,4,13,22)          -75.02           estimate D2E/DX2                !
 ! D41   D(5,4,13,22)          161.3278         estimate D2E/DX2                !
 ! D42   D(9,4,13,22)           44.342          estimate D2E/DX2                !
 ! D43   D(4,5,6,1)            -59.3145         estimate D2E/DX2                !
 ! D44   D(4,5,6,11)            60.7648         estimate D2E/DX2                !
 ! D45   D(4,5,6,16)          -179.9877         estimate D2E/DX2                !
 ! D46   D(10,5,6,1)          -178.5862         estimate D2E/DX2                !
 ! D47   D(10,5,6,11)          -58.5069         estimate D2E/DX2                !
 ! D48   D(10,5,6,16)           60.7406         estimate D2E/DX2                !
 ! D49   D(12,5,6,1)            62.6672         estimate D2E/DX2                !
 ! D50   D(12,5,6,11)         -177.2536         estimate D2E/DX2                !
 ! D51   D(12,5,6,16)          -58.006          estimate D2E/DX2                !
 ! D52   D(4,5,12,21)          -35.8072         estimate D2E/DX2                !
 ! D53   D(6,5,12,21)         -157.4769         estimate D2E/DX2                !
 ! D54   D(10,5,12,21)          84.4114         estimate D2E/DX2                !
 ! D55   D(1,6,16,17)           60.199          estimate D2E/DX2                !
 ! D56   D(1,6,16,18)          177.5224         estimate D2E/DX2                !
 ! D57   D(1,6,16,19)          -58.9825         estimate D2E/DX2                !
 ! D58   D(5,6,16,17)         -176.7677         estimate D2E/DX2                !
 ! D59   D(5,6,16,18)          -59.4443         estimate D2E/DX2                !
 ! D60   D(5,6,16,19)           64.0508         estimate D2E/DX2                !
 ! D61   D(11,6,16,17)         -57.6343         estimate D2E/DX2                !
 ! D62   D(11,6,16,18)          59.6891         estimate D2E/DX2                !
 ! D63   D(11,6,16,19)        -176.8158         estimate D2E/DX2                !
 ! D64   D(2,15,27,26)          22.1448         estimate D2E/DX2                !
 ! D65   D(2,15,27,28)        -105.5786         estimate D2E/DX2                !
 ! D66   D(2,15,27,32)         139.3188         estimate D2E/DX2                !
 ! D67   D(6,16,19,20)         -35.5532         estimate D2E/DX2                !
 ! D68   D(17,16,19,20)       -155.988          estimate D2E/DX2                !
 ! D69   D(18,16,19,20)         86.8261         estimate D2E/DX2                !
 ! D70   D(29,24,25,26)        -57.9778         estimate D2E/DX2                !
 ! D71   D(29,24,25,30)         64.1592         estimate D2E/DX2                !
 ! D72   D(29,24,25,37)        177.287          estimate D2E/DX2                !
 ! D73   D(25,24,29,28)         57.5364         estimate D2E/DX2                !
 ! D74   D(25,24,29,34)        -62.7966         estimate D2E/DX2                !
 ! D75   D(25,24,29,38)       -179.0818         estimate D2E/DX2                !
 ! D76   D(24,25,26,27)         52.663          estimate D2E/DX2                !
 ! D77   D(24,25,26,31)        -65.7239         estimate D2E/DX2                !
 ! D78   D(24,25,26,36)        172.5052         estimate D2E/DX2                !
 ! D79   D(30,25,26,27)        -70.6288         estimate D2E/DX2                !
 ! D80   D(30,25,26,31)        170.9843         estimate D2E/DX2                !
 ! D81   D(30,25,26,36)         49.2134         estimate D2E/DX2                !
 ! D82   D(37,25,26,27)        174.1663         estimate D2E/DX2                !
 ! D83   D(37,25,26,31)         55.7794         estimate D2E/DX2                !
 ! D84   D(37,25,26,36)        -65.9915         estimate D2E/DX2                !
 ! D85   D(24,25,37,49)         66.6464         estimate D2E/DX2                !
 ! D86   D(26,25,37,49)        -57.2113         estimate D2E/DX2                !
 ! D87   D(30,25,37,49)       -175.4608         estimate D2E/DX2                !
 ! D88   D(25,26,27,15)       -175.9484         estimate D2E/DX2                !
 ! D89   D(25,26,27,28)        -49.9993         estimate D2E/DX2                !
 ! D90   D(25,26,27,32)         69.0711         estimate D2E/DX2                !
 ! D91   D(31,26,27,15)        -57.886          estimate D2E/DX2                !
 ! D92   D(31,26,27,28)         68.0631         estimate D2E/DX2                !
 ! D93   D(31,26,27,32)       -172.8665         estimate D2E/DX2                !
 ! D94   D(36,26,27,15)         63.2956         estimate D2E/DX2                !
 ! D95   D(36,26,27,28)       -170.7553         estimate D2E/DX2                !
 ! D96   D(36,26,27,32)        -51.6849         estimate D2E/DX2                !
 ! D97   D(25,26,36,44)         72.3988         estimate D2E/DX2                !
 ! D98   D(27,26,36,44)       -166.8984         estimate D2E/DX2                !
 ! D99   D(31,26,36,44)        -47.4137         estimate D2E/DX2                !
 ! D100  D(15,27,28,29)        177.8302         estimate D2E/DX2                !
 ! D101  D(15,27,28,33)        -65.1196         estimate D2E/DX2                !
 ! D102  D(15,27,28,35)         55.1501         estimate D2E/DX2                !
 ! D103  D(26,27,28,29)         49.4254         estimate D2E/DX2                !
 ! D104  D(26,27,28,33)        166.4756         estimate D2E/DX2                !
 ! D105  D(26,27,28,35)        -73.2548         estimate D2E/DX2                !
 ! D106  D(32,27,28,29)        -69.5787         estimate D2E/DX2                !
 ! D107  D(32,27,28,33)         47.4715         estimate D2E/DX2                !
 ! D108  D(32,27,28,35)        167.7411         estimate D2E/DX2                !
 ! D109  D(27,28,29,24)        -51.216          estimate D2E/DX2                !
 ! D110  D(27,28,29,34)         70.3226         estimate D2E/DX2                !
 ! D111  D(27,28,29,38)       -169.9049         estimate D2E/DX2                !
 ! D112  D(33,28,29,24)       -167.9797         estimate D2E/DX2                !
 ! D113  D(33,28,29,34)        -46.441          estimate D2E/DX2                !
 ! D114  D(33,28,29,38)         73.3315         estimate D2E/DX2                !
 ! D115  D(35,28,29,24)         74.1251         estimate D2E/DX2                !
 ! D116  D(35,28,29,34)       -164.3363         estimate D2E/DX2                !
 ! D117  D(35,28,29,38)        -44.5638         estimate D2E/DX2                !
 ! D118  D(27,28,35,43)        -19.6115         estimate D2E/DX2                !
 ! D119  D(29,28,35,43)       -142.8038         estimate D2E/DX2                !
 ! D120  D(33,28,35,43)         99.879          estimate D2E/DX2                !
 ! D121  D(24,29,38,39)         62.3898         estimate D2E/DX2                !
 ! D122  D(24,29,38,40)       -179.1454         estimate D2E/DX2                !
 ! D123  D(24,29,38,41)        -56.0356         estimate D2E/DX2                !
 ! D124  D(28,29,38,39)       -174.9816         estimate D2E/DX2                !
 ! D125  D(28,29,38,40)        -56.5168         estimate D2E/DX2                !
 ! D126  D(28,29,38,41)         66.5931         estimate D2E/DX2                !
 ! D127  D(34,29,38,39)        -55.2592         estimate D2E/DX2                !
 ! D128  D(34,29,38,40)         63.2056         estimate D2E/DX2                !
 ! D129  D(34,29,38,41)       -173.6846         estimate D2E/DX2                !
 ! D130  D(25,37,49,48)        125.048          estimate D2E/DX2                !
 ! D131  D(25,37,49,50)       -115.5285         estimate D2E/DX2                !
 ! D132  D(25,37,49,55)          4.3602         estimate D2E/DX2                !
 ! D133  D(29,38,41,42)        -50.5148         estimate D2E/DX2                !
 ! D134  D(39,38,41,42)       -170.4111         estimate D2E/DX2                !
 ! D135  D(40,38,41,42)         72.1048         estimate D2E/DX2                !
 ! D136  D(50,45,46,47)        -54.9442         estimate D2E/DX2                !
 ! D137  D(50,45,46,51)         68.5442         estimate D2E/DX2                !
 ! D138  D(50,45,46,58)       -170.636          estimate D2E/DX2                !
 ! D139  D(46,45,50,49)         57.8752         estimate D2E/DX2                !
 ! D140  D(46,45,50,54)        -62.0624         estimate D2E/DX2                !
 ! D141  D(46,45,50,59)       -178.0177         estimate D2E/DX2                !
 ! D142  D(45,46,47,48)         49.968          estimate D2E/DX2                !
 ! D143  D(45,46,47,52)        -68.3299         estimate D2E/DX2                !
 ! D144  D(45,46,47,57)        169.7297         estimate D2E/DX2                !
 ! D145  D(51,46,47,48)        -72.9917         estimate D2E/DX2                !
 ! D146  D(51,46,47,52)        168.7104         estimate D2E/DX2                !
 ! D147  D(51,46,47,57)         46.77           estimate D2E/DX2                !
 ! D148  D(58,46,47,48)        165.7838         estimate D2E/DX2                !
 ! D149  D(58,46,47,52)         47.4859         estimate D2E/DX2                !
 ! D150  D(58,46,47,57)        -74.4545         estimate D2E/DX2                !
 ! D151  D(45,46,58,66)        -72.7844         estimate D2E/DX2                !
 ! D152  D(47,46,58,66)        168.8303         estimate D2E/DX2                !
 ! D153  D(51,46,58,66)         47.5285         estimate D2E/DX2                !
 ! D154  D(46,47,48,49)        -52.1976         estimate D2E/DX2                !
 ! D155  D(46,47,48,53)         67.4224         estimate D2E/DX2                !
 ! D156  D(46,47,48,56)       -172.9557         estimate D2E/DX2                !
 ! D157  D(52,47,48,49)         65.7502         estimate D2E/DX2                !
 ! D158  D(52,47,48,53)       -174.6298         estimate D2E/DX2                !
 ! D159  D(52,47,48,56)        -55.008          estimate D2E/DX2                !
 ! D160  D(57,47,48,49)       -175.3892         estimate D2E/DX2                !
 ! D161  D(57,47,48,53)        -55.7692         estimate D2E/DX2                !
 ! D162  D(57,47,48,56)         63.8527         estimate D2E/DX2                !
 ! D163  D(46,47,57,65)         64.3422         estimate D2E/DX2                !
 ! D164  D(48,47,57,65)       -172.9674         estimate D2E/DX2                !
 ! D165  D(52,47,57,65)        -55.7948         estimate D2E/DX2                !
 ! D166  D(47,48,49,37)        174.343          estimate D2E/DX2                !
 ! D167  D(47,48,49,50)         54.51           estimate D2E/DX2                !
 ! D168  D(47,48,49,55)        -64.3315         estimate D2E/DX2                !
 ! D169  D(53,48,49,37)         54.1302         estimate D2E/DX2                !
 ! D170  D(53,48,49,50)        -65.7028         estimate D2E/DX2                !
 ! D171  D(53,48,49,55)        175.4557         estimate D2E/DX2                !
 ! D172  D(56,48,49,37)        -64.9686         estimate D2E/DX2                !
 ! D173  D(56,48,49,50)        175.1983         estimate D2E/DX2                !
 ! D174  D(56,48,49,55)         56.3569         estimate D2E/DX2                !
 ! D175  D(47,48,56,64)        -55.1774         estimate D2E/DX2                !
 ! D176  D(49,48,56,64)       -177.2377         estimate D2E/DX2                !
 ! D177  D(53,48,56,64)         64.3662         estimate D2E/DX2                !
 ! D178  D(37,49,50,45)       -173.5012         estimate D2E/DX2                !
 ! D179  D(37,49,50,54)        -52.6184         estimate D2E/DX2                !
 ! D180  D(37,49,50,59)         69.012          estimate D2E/DX2                !
 ! D181  D(48,49,50,45)        -55.1133         estimate D2E/DX2                !
 ! D182  D(48,49,50,54)         65.7695         estimate D2E/DX2                !
 ! D183  D(48,49,50,59)       -172.6001         estimate D2E/DX2                !
 ! D184  D(55,49,50,45)         64.8772         estimate D2E/DX2                !
 ! D185  D(55,49,50,54)       -174.24           estimate D2E/DX2                !
 ! D186  D(55,49,50,59)        -52.6096         estimate D2E/DX2                !
 ! D187  D(45,50,59,60)         61.8396         estimate D2E/DX2                !
 ! D188  D(45,50,59,61)       -179.9514         estimate D2E/DX2                !
 ! D189  D(45,50,59,62)        -57.5911         estimate D2E/DX2                !
 ! D190  D(49,50,59,60)       -177.8933         estimate D2E/DX2                !
 ! D191  D(49,50,59,61)        -59.6842         estimate D2E/DX2                !
 ! D192  D(49,50,59,62)         62.676          estimate D2E/DX2                !
 ! D193  D(54,50,59,60)        -55.7928         estimate D2E/DX2                !
 ! D194  D(54,50,59,61)         62.4162         estimate D2E/DX2                !
 ! D195  D(54,50,59,62)       -175.2235         estimate D2E/DX2                !
 ! D196  D(46,58,66,67)       -146.2437         estimate D2E/DX2                !
 ! D197  D(46,58,66,68)        -30.7238         estimate D2E/DX2                !
 ! D198  D(46,58,66,69)         92.6261         estimate D2E/DX2                !
 ! D199  D(50,59,62,63)       -126.1628         estimate D2E/DX2                !
 ! D200  D(60,59,62,63)        115.2319         estimate D2E/DX2                !
 ! D201  D(61,59,62,63)         -4.4634         estimate D2E/DX2                !
 ! D202  D(58,66,69,70)        -60.2275         estimate D2E/DX2                !
 ! D203  D(58,66,69,71)       -174.1657         estimate D2E/DX2                !
 ! D204  D(58,66,69,72)         63.8007         estimate D2E/DX2                !
 ! D205  D(67,66,69,70)       -177.5967         estimate D2E/DX2                !
 ! D206  D(67,66,69,71)         68.4651         estimate D2E/DX2                !
 ! D207  D(67,66,69,72)        -53.5686         estimate D2E/DX2                !
 ! D208  D(68,66,69,70)         61.8911         estimate D2E/DX2                !
 ! D209  D(68,66,69,71)        -52.0472         estimate D2E/DX2                !
 ! D210  D(68,66,69,72)       -174.0808         estimate D2E/DX2                !
 ! D211  D(66,69,72,73)        -13.4504         estimate D2E/DX2                !
 ! D212  D(66,69,72,74)        100.7244         estimate D2E/DX2                !
 ! D213  D(66,69,72,75)       -136.8216         estimate D2E/DX2                !
 ! D214  D(70,69,72,73)        109.2514         estimate D2E/DX2                !
 ! D215  D(70,69,72,74)       -136.5738         estimate D2E/DX2                !
 ! D216  D(70,69,72,75)        -14.1198         estimate D2E/DX2                !
 ! D217  D(71,69,72,73)       -134.1985         estimate D2E/DX2                !
 ! D218  D(71,69,72,74)        -20.0237         estimate D2E/DX2                !
 ! D219  D(71,69,72,75)        102.4303         estimate D2E/DX2                !
 ! D220  D(69,72,75,76)       -137.2872         estimate D2E/DX2                !
 ! D221  D(69,72,75,77)        -20.8151         estimate D2E/DX2                !
 ! D222  D(69,72,75,78)        103.494          estimate D2E/DX2                !
 ! D223  D(73,72,75,76)         99.036          estimate D2E/DX2                !
 ! D224  D(73,72,75,77)       -144.4919         estimate D2E/DX2                !
 ! D225  D(73,72,75,78)        -20.1828         estimate D2E/DX2                !
 ! D226  D(74,72,75,76)        -14.8005         estimate D2E/DX2                !
 ! D227  D(74,72,75,77)        101.6715         estimate D2E/DX2                !
 ! D228  D(74,72,75,78)       -134.0193         estimate D2E/DX2                !
 ! D229  D(72,75,78,79)       -179.5822         estimate D2E/DX2                !
 ! D230  D(72,75,78,80)         60.5053         estimate D2E/DX2                !
 ! D231  D(72,75,78,81)        -59.0285         estimate D2E/DX2                !
 ! D232  D(76,75,78,79)         58.8803         estimate D2E/DX2                !
 ! D233  D(76,75,78,80)        -61.0322         estimate D2E/DX2                !
 ! D234  D(76,75,78,81)        179.434          estimate D2E/DX2                !
 ! D235  D(77,75,78,79)        -54.9729         estimate D2E/DX2                !
 ! D236  D(77,75,78,80)       -174.8854         estimate D2E/DX2                !
 ! D237  D(77,75,78,81)         65.5808         estimate D2E/DX2                !
 ! D238  D(75,78,81,82)        -74.0811         estimate D2E/DX2                !
 ! D239  D(75,78,81,83)        162.6357         estimate D2E/DX2                !
 ! D240  D(75,78,81,84)         44.0508         estimate D2E/DX2                !
 ! D241  D(79,78,81,82)         48.8066         estimate D2E/DX2                !
 ! D242  D(79,78,81,83)        -74.4766         estimate D2E/DX2                !
 ! D243  D(79,78,81,84)        166.9385         estimate D2E/DX2                !
 ! D244  D(80,78,81,82)        164.3494         estimate D2E/DX2                !
 ! D245  D(80,78,81,83)         41.0662         estimate D2E/DX2                !
 ! D246  D(80,78,81,84)        -77.5187         estimate D2E/DX2                !
 --------------------------------------------------------------------------------
 Trust Radius=3.00D-01 FncErr=1.00D-07 GrdErr=1.00D-06
 Number of steps in this run=    504 maximum allowed number of steps=    504.
 GradGradGradGradGradGradGradGradGradGradGradGradGradGradGradGradGradGrad

 Leave Link  103 at Thu Apr 21 14:52:20 2016, MaxMem= 10737418240 cpu:         0.9
 (Enter /share/apps//g09/l202.exe)
 Stoichiometry    C23H44NO16(1+)
 Framework group  C1[X(C23H44NO16)]
 Deg. of freedom   246
 Full point group                 C1      NOp   1
 Largest Abelian subgroup         C1      NOp   1
 Largest concise Abelian subgroup C1      NOp   1
                         Standard orientation:                         
 ---------------------------------------------------------------------
 Center     Atomic      Atomic             Coordinates (Angstroms)
 Number     Number       Type             X           Y           Z
 ---------------------------------------------------------------------
      1          8           0        2.606831   -0.589318   -1.005804
      2          6           0        3.520511   -0.418540    0.116901
      3          6           0        4.784155   -1.253464   -0.063953
      4          6           0        4.439539   -2.753251   -0.224918
      5          6           0        3.023156   -2.993255   -0.803960
      6          6           0        2.610170   -1.840830   -1.717307
      7          1           0        2.999574   -0.708569    1.041407
      8          1           0        5.391614   -1.126214    0.851599
      9          1           0        5.177523   -3.163668   -0.933889
     10          1           0        3.036194   -3.925660   -1.396970
     11          1           0        3.339832   -1.794842   -2.548427
     12          8           0        2.044861   -3.101552    0.242398
     13          8           0        4.456506   -3.464282    1.015736
     14          8           0        5.505076   -0.869605   -1.230730
     15          8           0        3.903617    0.928659    0.148896
     16          6           0        1.218065   -2.009758   -2.326822
     17          1           0        1.021538   -1.172028   -3.012624
     18          1           0        1.204658   -2.942753   -2.917813
     19          8           0        0.157475   -2.011801   -1.355824
     20          1           0        0.510251   -2.465080   -0.555307
     21          1           0        2.485015   -3.560649    0.986322
     22          1           0        5.374877   -3.611886    1.295490
     23          1           0        5.567048    0.104187   -1.220087
     24          8           0        0.312371    3.128271    0.462202
     25          6           0        0.727271    2.481972    1.656606
     26          6           0        1.763335    1.369859    1.375281
     27          6           0        2.918968    1.926747    0.545048
     28          6           0        2.444336    2.704949   -0.700173
     29          6           0        1.362424    3.727320   -0.302717
     30          1           0        1.158847    3.206326    2.372947
     31          1           0        1.262701    0.575488    0.792767
     32          1           0        3.487419    2.623703    1.183922
     33          1           0        3.314431    3.267119   -1.089325
     34          1           0        1.849801    4.533815    0.283110
     35          8           0        1.935659    1.866397   -1.742639
     36          8           0        2.282467    0.864923    2.594701
     37          8           0       -0.432064    2.009183    2.307749
     38          6           0        0.663930    4.367686   -1.507690
     39          1           0       -0.026739    5.146068   -1.156598
     40          1           0        1.415617    4.842389   -2.161029
     41          8           0       -0.120000    3.420074   -2.251094
     42          1           0        0.509015    2.671771   -2.403914
     43          1           0        2.262700    0.939613   -1.614643
     44          1           0        1.556643    0.334040    2.993060
     45          8           0       -3.358342    0.370298    0.754857
     46          6           0       -3.549686   -0.753109    1.617173
     47          6           0       -2.203583   -1.301754    2.097483
     48          6           0       -1.309868   -0.196338    2.651967
     49          6           0       -1.172437    0.961345    1.660222
     50          6           0       -2.575205    1.468802    1.262932
     51          1           0       -4.198392   -0.474708    2.473735
     52          1           0       -1.693953   -1.747017    1.219701
     53          1           0       -1.752977    0.197739    3.586423
     54          1           0       -3.062078    1.912016    2.153534
     55          1           0       -0.659099    0.618669    0.747713
     56          8           0       -0.010340   -0.737348    2.931416
     57          8           0       -2.347797   -2.266546    3.135939
     58          8           0       -4.141783   -1.763390    0.842777
     59          6           0       -2.602185    2.506583    0.144151
     60          1           0       -3.652481    2.804546   -0.007659
     61          1           0       -2.022228    3.384987    0.451742
     62          8           0       -2.087630    1.972703   -1.083405
     63          1           0       -1.355582    2.564588   -1.427911
     64          1           0       -0.150197   -1.495884    3.528715
     65          1           0       -2.820501   -3.036728    2.772983
     66          6           0       -5.542720   -1.545102    0.496551
     67          1           0       -5.990099   -2.549915    0.482086
     68          1           0       -6.021866   -0.967706    1.303459
     69          6           0       -5.708328   -0.844325   -0.849439
     70          1           0       -5.208403    0.133099   -0.794164
     71          1           0       -6.780229   -0.627184   -0.978694
     72          6           0       -5.189244   -1.659823   -2.060243
     73          1           0       -4.573355   -2.503811   -1.703992
     74          1           0       -6.043583   -2.130076   -2.566144
     75          6           0       -4.379924   -0.843474   -3.097616
     76          1           0       -4.675665   -1.127043   -4.118128
     77          1           0       -4.610978    0.229700   -3.006090
     78          6           0       -2.869123   -1.056443   -3.021364
     79          1           0       -2.342225   -0.450800   -3.771230
     80          1           0       -2.620702   -2.112153   -3.202539
     81          7           0       -2.297678   -0.698576   -1.681930
     82          1           0       -2.241692    0.350518   -1.512006
     83          1           0       -1.343958   -1.117789   -1.553600
     84          1           0       -2.891153   -1.066290   -0.920509
 ---------------------------------------------------------------------
 Rotational constants (GHZ):      0.1195141      0.0701715      0.0626323
 Leave Link  202 at Thu Apr 21 14:52:21 2016, MaxMem= 10737418240 cpu:         4.6
 (Enter /share/apps//g09/l301.exe)
 Standard basis: 6-311+G(d,p) (5D, 7F)
 Ernie: Thresh=  0.10000D-02 Tol=  0.10000D-05 Strict=F.
 There are  1184 symmetry adapted cartesian basis functions of A   symmetry.
 There are  1144 symmetry adapted basis functions of A   symmetry.
  1144 basis functions,  1792 primitive gaussians,  1184 cartesian basis functions
   158 alpha electrons      158 beta electrons
       nuclear repulsion energy      5968.7816695307 Hartrees.
 IExCor= 1009 DFT=T Ex+Corr=PBE1PBE ExCW=0 ScaHFX=  0.250000
 ScaDFX=  0.750000  0.750000  1.000000  1.000000 ScalE2=  1.000000  1.000000
 IRadAn=      0 IRanWt=     -1 IRanGd=            0 ICorTp=0 IEmpDi=131
 NAtoms=   84 NActive=   84 NUniq=   84 SFac= 1.00D+00 NAtFMM=   60 NAOKFM=T Big=T
 Integral buffers will be    131072 words long.
 Raffenetti 2 integral format.
 Two-electron integral symmetry is turned on.
 R6Disp:  Grimme-D3 Dispersion energy=       -0.0842866885 Hartrees.
 Nuclear repulsion after empirical dispersion term =     5968.6973828422 Hartrees.
 Leave Link  301 at Thu Apr 21 14:52:21 2016, MaxMem= 10737418240 cpu:         1.9
 (Enter /share/apps//g09/l302.exe)
 NPDir=0 NMtPBC=     1 NCelOv=     1 NCel=       1 NClECP=     1 NCelD=      1
         NCelK=      1 NCelE2=     1 NClLst=     1 CellRange=     0.0.
 One-electron integrals computed using PRISM.
 NBasis=  1144 RedAO= T EigKep=  1.28D-06  NBF=  1144
 NBsUse=  1144 1.00D-06 EigRej= -1.00D+00 NBFU=  1144
 Precomputing XC quadrature grid using
 IXCGrd= 4 IRadAn=           0 IRanWt=          -1 IRanGd=           0 AccXCQ= 0.00D+00.
 Generated NRdTot=       0 NPtTot=           0 NUsed=           0 NTot=          32
 NSgBfM=  1077  1077  1077  1080  1093 MxSgAt=    84 MxSgA2=    84.
 Leave Link  302 at Thu Apr 21 14:52:25 2016, MaxMem= 10737418240 cpu:        59.0
 (Enter /share/apps//g09/l303.exe)
 DipDrv:  MaxL=1.
 Leave Link  303 at Thu Apr 21 14:52:27 2016, MaxMem= 10737418240 cpu:        26.4
 (Enter /share/apps//g09/l401.exe)
 ExpMin= 4.38D-02 ExpMax= 8.59D+03 ExpMxC= 1.30D+03 IAcc=2 IRadAn=         4 AccDes= 0.00D+00
 Harris functional with IExCor= 1009 and IRadAn=       4 diagonalized for initial guess.
 HarFok:  IExCor= 1009 AccDes= 0.00D+00 IRadAn=         4 IDoV= 1 UseB2=F ITyADJ=14
 ICtDFT=  3500011 ScaDFX=  1.000000  1.000000  1.000000  1.000000
 FoFCou: FMM=F IPFlag=           0 FMFlag=      100000 FMFlg1=        2001
         NFxFlg=           0 DoJE=T BraDBF=F KetDBF=T FulRan=T
         wScrn=  0.000000 ICntrl=     500 IOpCl=  0 I1Cent=   200000004 NGrid=           0
         NMat0=    1 NMatS0=      1 NMatT0=    0 NMatD0=    1 NMtDS0=    0 NMtDT0=    0
 Petite list used in FoFCou.
 Harris En= -2159.70470011716    
 JPrj=0 DoOrth=F DoCkMO=F.
 Leave Link  401 at Thu Apr 21 14:52:34 2016, MaxMem= 10737418240 cpu:       126.9
 (Enter /share/apps//g09/l502.exe)
 Closed shell SCF:
 Using DIIS extrapolation, IDIIS=  1040.
 Integral symmetry usage will be decided dynamically.
 IVT=     4256630 IEndB=     4256630 NGot= 10737418240 MDV= 10734581291
 LenX= 10734581291 LenY= 10733178251
 Requested convergence on RMS density matrix=1.00D-08 within 128 cycles.
 Requested convergence on MAX density matrix=1.00D-06.
 Requested convergence on             energy=1.00D-06.
 No special actions if energy rises.
 Fock matrices will be formed incrementally for  20 cycles.

 Cycle   1  Pass 1  IDiag  1:
 FoFJK:  IHMeth= 1 ICntrl=       0 DoSepK=F KAlg= 0 I1Cent=   0 FoldK=F
 IRaf= 790000000 NMat=   1 IRICut=       1 DoRegI=T DoRafI=F ISym2E= 0.
 FoFCou: FMM=T IPFlag=           0 FMFlag=      100000 FMFlg1=        2001
         NFxFlg=           0 DoJE=F BraDBF=F KetDBF=F FulRan=T
         wScrn=  0.000000 ICntrl=       0 IOpCl=  0 I1Cent=           0 NGrid=           0
         NMat0=    1 NMatS0=      1 NMatT0=    0 NMatD0=    1 NMtDS0=    0 NMtDT0=    0
 Symmetry not used in FoFCou.
 FMM levels:  10  Number of levels for PrismC:   9
 E= -2158.71287683488    
 DIIS: error= 1.31D-02 at cycle   1 NSaved=   1.
 NSaved= 1 IEnMin= 1 EnMin= -2158.71287683488     IErMin= 1 ErrMin= 1.31D-02
 ErrMax= 1.31D-02  0.00D+00 EMaxC= 1.00D-01 BMatC= 1.01D+00 BMatP= 1.01D+00
 IDIUse=3 WtCom= 8.69D-01 WtEn= 1.31D-01
 Coeff-Com:  0.100D+01
 Coeff-En:   0.100D+01
 Coeff:      0.100D+01
 Gap=     0.239 Goal=   None    Shift=    0.000
 GapD=    0.239 DampG=1.000 DampE=0.500 DampFc=0.5000 IDamp=-1.
 Damping current iteration by 5.00D-01
 RMSDP=1.23D-02 MaxDP=2.68D+00              OVMax= 1.33D-01

 Cycle   2  Pass 1  IDiag  1:
 RMSU=  5.68D-03    CP:  1.04D+00
 E= -2158.99094106383     Delta-E=       -0.278064228944 Rises=F Damp=T
 DIIS: error= 2.85D-03 at cycle   2 NSaved=   2.
 NSaved= 2 IEnMin= 2 EnMin= -2158.99094106383     IErMin= 2 ErrMin= 2.85D-03
 ErrMax= 2.85D-03  0.00D+00 EMaxC= 1.00D-01 BMatC= 7.93D-02 BMatP= 1.01D+00
 IDIUse=3 WtCom= 9.71D-01 WtEn= 2.85D-02
 Coeff-Com:  0.556D-01 0.944D+00
 Coeff-En:   0.151D+00 0.849D+00
 Coeff:      0.583D-01 0.942D+00
 Gap=     0.282 Goal=   None    Shift=    0.000
 RMSDP=6.39D-03 MaxDP=2.22D+00 DE=-2.78D-01 OVMax= 7.77D-02

 Cycle   3  Pass 1  IDiag  1:
 RMSU=  3.33D-03    CP:  9.49D-01  8.98D-01
 E= -2159.34975891821     Delta-E=       -0.358817854381 Rises=F Damp=F
 DIIS: error= 2.84D-03 at cycle   3 NSaved=   3.
 NSaved= 3 IEnMin= 3 EnMin= -2159.34975891821     IErMin= 3 ErrMin= 2.84D-03
 ErrMax= 2.84D-03  0.00D+00 EMaxC= 1.00D-01 BMatC= 4.37D-02 BMatP= 7.93D-02
 IDIUse=3 WtCom= 9.72D-01 WtEn= 2.84D-02
 Coeff-Com: -0.701D-01 0.409D+00 0.661D+00
 Coeff-En:   0.000D+00 0.000D+00 0.100D+01
 Coeff:     -0.681D-01 0.397D+00 0.671D+00
 Gap=     0.270 Goal=   None    Shift=    0.000
 RMSDP=2.20D-03 MaxDP=6.90D-01 DE=-3.59D-01 OVMax= 1.52D-02

 Cycle   4  Pass 1  IDiag  1:
 RMSU=  1.82D-03    CP:  9.63D-01  1.03D+00  8.51D-01
 E= -2159.37769174051     Delta-E=       -0.027932822304 Rises=F Damp=F
 DIIS: error= 1.17D-03 at cycle   4 NSaved=   4.
 NSaved= 4 IEnMin= 4 EnMin= -2159.37769174051     IErMin= 4 ErrMin= 1.17D-03
 ErrMax= 1.17D-03  0.00D+00 EMaxC= 1.00D-01 BMatC= 5.10D-03 BMatP= 4.37D-02
 IDIUse=3 WtCom= 9.88D-01 WtEn= 1.17D-02
 Coeff-Com: -0.360D-01 0.121D+00 0.331D+00 0.584D+00
 Coeff-En:   0.000D+00 0.000D+00 0.478D-01 0.952D+00
 Coeff:     -0.356D-01 0.120D+00 0.328D+00 0.588D+00
 Gap=     0.263 Goal=   None    Shift=    0.000
 RMSDP=1.54D-03 MaxDP=5.02D-01 DE=-2.79D-02 OVMax= 5.68D-03

 Cycle   5  Pass 1  IDiag  1:
 RMSU=  4.25D-04    CP:  9.42D-01  9.89D-01  8.37D-01  6.01D-01
 E= -2159.38206988729     Delta-E=       -0.004378146779 Rises=F Damp=F
 DIIS: error= 2.88D-04 at cycle   5 NSaved=   5.
 NSaved= 5 IEnMin= 5 EnMin= -2159.38206988729     IErMin= 5 ErrMin= 2.88D-04
 ErrMax= 2.88D-04  0.00D+00 EMaxC= 1.00D-01 BMatC= 2.39D-04 BMatP= 5.10D-03
 IDIUse=3 WtCom= 9.97D-01 WtEn= 2.88D-03
 Coeff-Com: -0.112D-01 0.248D-01 0.973D-01 0.253D+00 0.636D+00
 Coeff-En:   0.000D+00 0.000D+00 0.000D+00 0.000D+00 0.100D+01
 Coeff:     -0.112D-01 0.248D-01 0.970D-01 0.253D+00 0.637D+00
 Gap=     0.263 Goal=   None    Shift=    0.000
 RMSDP=2.33D-04 MaxDP=6.71D-02 DE=-4.38D-03 OVMax= 1.58D-03

 Cycle   6  Pass 1  IDiag  1:
 RMSU=  8.59D-05    CP:  9.45D-01  9.93D-01  8.57D-01  6.12D-01  7.47D-01
 E= -2159.38225426379     Delta-E=       -0.000184376503 Rises=F Damp=F
 DIIS: error= 5.10D-05 at cycle   6 NSaved=   6.
 NSaved= 6 IEnMin= 6 EnMin= -2159.38225426379     IErMin= 6 ErrMin= 5.10D-05
 ErrMax= 5.10D-05  0.00D+00 EMaxC= 1.00D-01 BMatC= 1.53D-05 BMatP= 2.39D-04
 IDIUse=1 WtCom= 1.00D+00 WtEn= 0.00D+00
 Coeff-Com: -0.361D-02 0.638D-02 0.312D-01 0.945D-01 0.304D+00 0.568D+00
 Coeff:     -0.361D-02 0.638D-02 0.312D-01 0.945D-01 0.304D+00 0.568D+00
 Gap=     0.263 Goal=   None    Shift=    0.000
 RMSDP=5.08D-05 MaxDP=1.39D-02 DE=-1.84D-04 OVMax= 3.67D-04

 Cycle   7  Pass 1  IDiag  1:
 RMSU=  2.23D-05    CP:  9.45D-01  9.94D-01  8.54D-01  6.30D-01  7.56D-01
                    CP:  7.52D-01
 E= -2159.38226606458     Delta-E=       -0.000011800783 Rises=F Damp=F
 DIIS: error= 1.56D-05 at cycle   7 NSaved=   7.
 NSaved= 7 IEnMin= 7 EnMin= -2159.38226606458     IErMin= 7 ErrMin= 1.56D-05
 ErrMax= 1.56D-05  0.00D+00 EMaxC= 1.00D-01 BMatC= 1.27D-06 BMatP= 1.53D-05
 IDIUse=1 WtCom= 1.00D+00 WtEn= 0.00D+00
 Coeff-Com: -0.977D-03 0.136D-02 0.864D-02 0.295D-01 0.106D+00 0.281D+00
 Coeff-Com:  0.575D+00
 Coeff:     -0.977D-03 0.136D-02 0.864D-02 0.295D-01 0.106D+00 0.281D+00
 Coeff:      0.575D+00
 Gap=     0.263 Goal=   None    Shift=    0.000
 RMSDP=1.28D-05 MaxDP=4.48D-03 DE=-1.18D-05 OVMax= 1.04D-04

 Cycle   8  Pass 1  IDiag  1:
 RMSU=  9.49D-06    CP:  9.45D-01  9.95D-01  8.55D-01  6.31D-01  7.62D-01
                    CP:  7.28D-01  7.45D-01
 E= -2159.38226686702     Delta-E=       -0.000000802442 Rises=F Damp=F
 DIIS: error= 6.19D-06 at cycle   8 NSaved=   8.
 NSaved= 8 IEnMin= 8 EnMin= -2159.38226686702     IErMin= 8 ErrMin= 6.19D-06
 ErrMax= 6.19D-06  0.00D+00 EMaxC= 1.00D-01 BMatC= 1.43D-07 BMatP= 1.27D-06
 IDIUse=1 WtCom= 1.00D+00 WtEn= 0.00D+00
 Coeff-Com:  0.116D-04-0.193D-03 0.753D-04 0.196D-02 0.105D-01 0.598D-01
 Coeff-Com:  0.284D+00 0.644D+00
 Coeff:      0.116D-04-0.193D-03 0.753D-04 0.196D-02 0.105D-01 0.598D-01
 Coeff:      0.284D+00 0.644D+00
 Gap=     0.263 Goal=   None    Shift=    0.000
 RMSDP=5.12D-06 MaxDP=1.55D-03 DE=-8.02D-07 OVMax= 3.33D-05

 Cycle   9  Pass 1  IDiag  1:
 RMSU=  2.29D-06    CP:  9.45D-01  9.94D-01  8.55D-01  6.30D-01  7.64D-01
                    CP:  7.42D-01  7.63D-01  7.77D-01
 E= -2159.38226696536     Delta-E=       -0.000000098337 Rises=F Damp=F
 DIIS: error= 1.80D-06 at cycle   9 NSaved=   9.
 NSaved= 9 IEnMin= 9 EnMin= -2159.38226696536     IErMin= 9 ErrMin= 1.80D-06
 ErrMax= 1.80D-06  0.00D+00 EMaxC= 1.00D-01 BMatC= 1.10D-08 BMatP= 1.43D-07
 IDIUse=1 WtCom= 1.00D+00 WtEn= 0.00D+00
 Coeff-Com:  0.682D-04-0.177D-03-0.560D-03-0.108D-02-0.258D-02 0.736D-02
 Coeff-Com:  0.882D-01 0.305D+00 0.603D+00
 Coeff:      0.682D-04-0.177D-03-0.560D-03-0.108D-02-0.258D-02 0.736D-02
 Coeff:      0.882D-01 0.305D+00 0.603D+00
 Gap=     0.263 Goal=   None    Shift=    0.000
 RMSDP=1.07D-06 MaxDP=3.66D-04 DE=-9.83D-08 OVMax= 9.77D-06

 Cycle  10  Pass 1  IDiag  1:
 RMSU=  6.91D-07    CP:  9.45D-01  9.94D-01  8.55D-01  6.30D-01  7.64D-01
                    CP:  7.46D-01  7.73D-01  7.92D-01  7.89D-01
 E= -2159.38226697354     Delta-E=       -0.000000008183 Rises=F Damp=F
 DIIS: error= 4.49D-07 at cycle  10 NSaved=  10.
 NSaved=10 IEnMin=10 EnMin= -2159.38226697354     IErMin=10 ErrMin= 4.49D-07
 ErrMax= 4.49D-07  0.00D+00 EMaxC= 1.00D-01 BMatC= 1.12D-09 BMatP= 1.10D-08
 IDIUse=1 WtCom= 1.00D+00 WtEn= 0.00D+00
 Coeff-Com:  0.299D-04-0.683D-04-0.278D-03-0.650D-03-0.200D-02-0.591D-03
 Coeff-Com:  0.224D-01 0.105D+00 0.308D+00 0.568D+00
 Coeff:      0.299D-04-0.683D-04-0.278D-03-0.650D-03-0.200D-02-0.591D-03
 Coeff:      0.224D-01 0.105D+00 0.308D+00 0.568D+00
 Gap=     0.263 Goal=   None    Shift=    0.000
 RMSDP=5.20D-07 MaxDP=1.24D-04 DE=-8.18D-09 OVMax= 3.27D-06

 Cycle  11  Pass 1  IDiag  1:
 RMSU=  1.94D-07    CP:  9.45D-01  9.94D-01  8.55D-01  6.31D-01  7.64D-01
                    CP:  7.45D-01  7.79D-01  8.12D-01  8.03D-01  6.96D-01
 E= -2159.38226697443     Delta-E=       -0.000000000893 Rises=F Damp=F
 DIIS: error= 1.41D-07 at cycle  11 NSaved=  11.
 NSaved=11 IEnMin=11 EnMin= -2159.38226697443     IErMin=11 ErrMin= 1.41D-07
 ErrMax= 1.41D-07  0.00D+00 EMaxC= 1.00D-01 BMatC= 1.03D-10 BMatP= 1.12D-09
 IDIUse=1 WtCom= 1.00D+00 WtEn= 0.00D+00
 Coeff-Com:  0.859D-05-0.184D-04-0.939D-04-0.229D-03-0.759D-03-0.852D-03
 Coeff-Com:  0.369D-02 0.265D-01 0.103D+00 0.287D+00 0.581D+00
 Coeff:      0.859D-05-0.184D-04-0.939D-04-0.229D-03-0.759D-03-0.852D-03
 Coeff:      0.369D-02 0.265D-01 0.103D+00 0.287D+00 0.581D+00
 Gap=     0.263 Goal=   None    Shift=    0.000
 RMSDP=8.80D-08 MaxDP=1.75D-05 DE=-8.93D-10 OVMax= 8.78D-07

 Cycle  12  Pass 1  IDiag  1:
 RMSU=  5.22D-08    CP:  9.45D-01  9.94D-01  8.55D-01  6.31D-01  7.64D-01
                    CP:  7.45D-01  7.79D-01  8.13D-01  8.07D-01  7.00D-01
                    CP:  8.46D-01
 E= -2159.38226697474     Delta-E=       -0.000000000311 Rises=F Damp=F
 DIIS: error= 3.99D-08 at cycle  12 NSaved=  12.
 NSaved=12 IEnMin=12 EnMin= -2159.38226697474     IErMin=12 ErrMin= 3.99D-08
 ErrMax= 3.99D-08  0.00D+00 EMaxC= 1.00D-01 BMatC= 9.14D-12 BMatP= 1.03D-10
 IDIUse=1 WtCom= 1.00D+00 WtEn= 0.00D+00
 Coeff-Com:  0.276D-06-0.269D-06-0.120D-04-0.314D-04-0.124D-03-0.338D-03
 Coeff-Com: -0.101D-02-0.565D-03 0.112D-01 0.676D-01 0.273D+00 0.650D+00
 Coeff:      0.276D-06-0.269D-06-0.120D-04-0.314D-04-0.124D-03-0.338D-03
 Coeff:     -0.101D-02-0.565D-03 0.112D-01 0.676D-01 0.273D+00 0.650D+00
 Gap=     0.263 Goal=   None    Shift=    0.000
 RMSDP=2.73D-08 MaxDP=6.32D-06 DE=-3.11D-10 OVMax= 3.10D-07

 Cycle  13  Pass 1  IDiag  1:
 RMSU=  1.75D-08    CP:  9.45D-01  9.94D-01  8.55D-01  6.31D-01  7.64D-01
                    CP:  7.45D-01  7.79D-01  8.12D-01  8.09D-01  7.11D-01
                    CP:  8.12D-01  7.32D-01
 E= -2159.38226697442     Delta-E=        0.000000000319 Rises=F Damp=F
 DIIS: error= 1.01D-08 at cycle  13 NSaved=  13.
 NSaved=13 IEnMin=12 EnMin= -2159.38226697474     IErMin=13 ErrMin= 1.01D-08
 ErrMax= 1.01D-08  0.00D+00 EMaxC= 1.00D-01 BMatC= 5.23D-13 BMatP= 9.14D-12
 IDIUse=1 WtCom= 1.00D+00 WtEn= 0.00D+00
 Coeff-Com: -0.393D-06 0.983D-06 0.513D-06 0.559D-06-0.542D-05-0.882D-04
 Coeff-Com: -0.620D-03-0.187D-02-0.178D-02 0.104D-01 0.764D-01 0.278D+00
 Coeff-Com:  0.639D+00
 Coeff:     -0.393D-06 0.983D-06 0.513D-06 0.559D-06-0.542D-05-0.882D-04
 Coeff:     -0.620D-03-0.187D-02-0.178D-02 0.104D-01 0.764D-01 0.278D+00
 Coeff:      0.639D+00
 Gap=     0.263 Goal=   None    Shift=    0.000
 RMSDP=9.08D-09 MaxDP=2.09D-06 DE= 3.19D-10 OVMax= 6.92D-08

 Cycle  14  Pass 1  IDiag  1:
[...]
 3721,-0.00005180,0.00013464,0.00003249,0.00011865,-0.00005417,0.000007
 64,-0.00003216,0.00004171,-0.00002893,-0.00002140,0.00001977,-0.000033
 32,-0.00003243,-0.00024099,-0.00032042,-0.00053511,-0.00022282,-0.0001
 2455,-0.00016546,0.00018105,-0.00044753,-0.00019193,-0.00022752,0.0003
 0519,0.00007839,0.00000441,-0.00004199,-0.00000687,0.00005432,-0.00003
 194,-0.00005231,0.00041925,-0.00022967,-0.00037999,-0.00015929,0.00010
 606,0.00036421,0.00077061,0.00024556,0.00039526,0.00009310,0.00000086,
 0.00008371,0.00001159,-0.00060919,0.00032414,0.00050408,0.00110008,-0.
 00027084,0.00023446,-0.00038790,0.00049875,0.00037034,0.00022122,0.000
 16632,-0.00022048,0.00060399,-0.00046942,-0.00031498,0.00018152,0.0000
 2449,-0.00005066,-0.00014468,-0.00001597,0.00012848,-0.00010523,0.0000
 7313,-0.00013688,-0.00000502,0.00000154,0.00003218,-0.00007441,0.00007
 070,0.00006573,0.00027700,0.00032101,-0.00037663,-0.00008797,-0.000357
 63,-0.00026367,0.00000003,-0.00032214,-0.00051873,-0.00089812,0.000354
 24,-0.00007571,0.00070912,-0.00055823,0.00005012,-0.00011577,0.0001476
 1,0.00005144,-0.00005371,0.00008795,0.00057719,-0.00007378,0.00150449,
 -0.00073290,0.00012431,0.00023704,0.00009724,-0.00009626,0.00008233,0.
 00009129,-0.00000198,0.00023473,0.00016200,0.00018692,-0.00018031,-0.0
 0002851,0.00000366,0.00000527,0.00000277,-0.00007289,0.00000983,-0.000
 12429,0.00003372,-0.00016658,-0.00014205,0.00003758,-0.00004171,-0.000
 04465,-0.00000826,0.00008851,0.00040570,0.00018363,-0.00028252,0.00014
 202,-0.00014389,-0.00002887,0.00001151,0.00007966,0.00008966,-0.001026
 36,0.00320899,-0.00066338,0.00025306,0.00065025,0.00093183,0.00010106,
 -0.00003716,-0.00002300,0.00346334,0.00135879,0.01072688,-0.00024313,-
 0.00032052,-0.00030969,-0.00022470,0.00125624,0.00053955,-0.09526421,-
 0.04557778,-0.08328073,-0.00709249,-0.01623735,-0.02850499,0.09401111,
 -0.00062069,0.00065897,0.00035982,0.00056872,-0.00076938,-0.00030114,0
 .00005116,0.00004566,-0.00008623,-0.00000799,-0.00017948,-0.00012130,-
 0.00016678,-0.00007535,-0.00051634,0.00037931,-0.00136257,0.00087431,0
 .00002224,-0.00000391,0.00003036,-0.00000708,0.00003513,0.00004713,-0.
 00000851,0.00002815,0.00002149,-0.00001271,-0.00002852,0.00004658,-0.0
 0013018,0.00040000,0.00029965,0.00034655,0.00082060,0.00046164,0.00007
 452,0.00028498,0.00015908,-0.00012066,0.00006273,0.00021177,-0.0006009
 6,0.00011663,-0.00004976,0.00273105,0.00483608,-0.00313252,-0.00050735
 ,-0.00032786,0.00067726,0.00034480,-0.00040991,0.00138506,-0.00030907,
 -0.00644002,0.00549338,-0.00062638,-0.00237729,-0.00028340,-0.00004951
 ,-0.00018248,0.00013126,-0.00004371,-0.00005465,-0.00000737,0.00005956
 ,-0.00000098,-0.00006808,-0.00024500,-0.00027802,-0.00012954,0.0003072
 1,0.00026374,0.00012231,0.00019530,-0.00024032,-0.00008330,0.00024339,
 0.00006657,0.00018341,0.00009054,-0.00006306,-0.00002893,0.00009289,-0
 .00001671,0.00004615,-0.00004489,-0.00002011,-0.00002565,0.00003289,-0
 .00003924,0.00000571,-0.00005031,0.00001061,0.00001385,-0.00001954,0.0
 0000808,0.00001702,-0.00001280,-0.00001820,-0.00001103,-0.00052117,-0.
 00022066,-0.00011291,-0.00019513,0.00013946,-0.00007438,-0.00032014,0.
 00006712,-0.00034480,-0.00017323,0.00031143,0.00008161,-0.00000642,-0.
 00003063,-0.00001172,0.00004481,-0.00004146,-0.00003749,0.00026363,-0.
 00029280,-0.00045401,0.00006906,0.00025974,0.00028545,0.00063415,0.000
 16763,-0.00002838,0.00007632,-0.00007710,0.00004685,0.00024696,-0.0015
 0252,-0.00008200,0.00011768,0.00161048,0.00018280,0.00024769,-0.000914
 23,0.00110528,0.00010267,0.00001148,0.00007980,0.00026817,-0.00041362,
 0.00080669,-0.00040540,0.00048436,0.00049070,-0.00001735,-0.00022243,-
 0.00007125,-0.00046105,-0.00002905,0.00000378,-0.00003991,0.00012371,-
 0.00004543,0.00001697,-0.00015926,-0.00010003,0.00033079,0.00011194,-0
 .00012248,-0.00022228,0.00008037,-0.00033191,0.00011168,0.00024518,-0.
 00073770,-0.00031458,-0.00146132,0.00039012,0.00011864,0.00068020,-0.0
 0077582,-0.00005397,-0.00010281,0.00007283,0.00010145,-0.00012506,0.00
 017354,0.00202899,-0.00141700,-0.00023962,-0.00018737,-0.00007030,0.00
 067225,-0.00000256,-0.00010594,0.00005859,0.00001597,0.00010455,0.0002
 5024,0.00016087,0.00032054,-0.00018711,-0.00004543,-0.00003782,-0.0000
 2646,0.00002370,-0.00007483,0.00004676,0.00016419,0.00005449,-0.000059
 01,-0.00027012,0.00008881,-0.00014497,-0.00010778,-0.00004264,0.000156
 91,0.00002022,0.00018297,0.00036159,0.00031603,0.00009956,-0.00008590,
 0.00000622,0.00010966,0.00017870,0.00137437,-0.00551718,0.00234983,-0.
 00023159,-0.00040990,-0.00136934,-0.00007685,0.00003611,0.00031920,-0.
 00965672,-0.01688322,-0.02789265,-0.00077949,0.00028280,0.00018807,0.0
 0028851,0.00190173,-0.00038217,-0.04245183,-0.11861573,-0.10533077,-0.
 00317775,0.00537212,0.00798690,0.04199694,0.13059264,-0.00135399,0.001
 79368,0.00070541,0.00122528,-0.00184390,-0.00050163,0.00011534,0.00012
 024,-0.00012203,0.00005356,-0.00038665,-0.00031554,-0.00055642,-0.0000
 2467,-0.00069621,0.00118928,-0.00180197,0.00053728,0.00007443,0.000039
 96,0.00011030,-0.00001232,0.00008422,0.00010828,-0.00002114,0.00005546
 ,0.00003355,-0.00006873,-0.00006493,0.00004145,-0.00020018,0.00047036,
 0.00034830,0.00090806,0.00229344,0.00088718,0.00015701,0.00070447,0.00
 033087,-0.00023028,0.00018645,0.00033227,-0.00131548,0.00038322,-0.000
 26637,0.00013743,0.00430743,-0.00770282,-0.00027105,-0.00020375,0.0000
 4401,0.00050467,-0.00041748,0.00136072,0.00363218,0.00638967,-0.001838
 88,0.00029792,-0.00482653,0.00479323,-0.00007493,-0.00038401,0.0004609
 9,-0.00007844,-0.00010756,-0.00000442,0.00011718,-0.00004198,-0.000110
 16,-0.00002142,-0.00006857,-0.00061630,-0.00003670,0.00015004,0.001031
 36,0.00017985,-0.00024382,-0.00017748,0.00048712,-0.00002486,0.0005945
 5,0.00041032,-0.00046524,-0.00005452,-0.00001702,-0.00011616,0.0004506
 3,-0.00001107,-0.00001980,-0.00011370,0.00010156,-0.00008288,0.0001982
 4,-0.00007191,0.00005703,-0.00002210,-0.00007876,0.00008928,0.00002178
 ,-0.00001070,-0.00001148,-0.00007583,-0.00131735,0.00019783,-0.0002834
 5,-0.00021398,0.00023047,-0.00040596,0.00041913,-0.00046460,-0.0008877
 3,-0.00014446,0.00030522,0.00003515,-0.00005099,-0.00003291,-0.0000171
 7,0.00007503,-0.00002617,-0.00005021,0.00019017,-0.00016637,-0.0008147
 9,0.00044061,0.00022469,0.00046024,0.00124876,-0.00000917,-0.00010923,
 -0.00001859,-0.00002065,0.00035153,0.00055777,-0.00092627,0.00050140,0
 .00013524,0.00135460,-0.00053456,0.00011680,0.00054644,-0.00073217,0.0
 0025646,0.00048922,0.00083761,-0.00036240,0.00032214,0.00021459,-0.000
 93197,0.00083470,0.00030258,0.00001146,-0.00016904,0.00012303,0.000361
 48,0.00019673,0.00074072,0.00000788,-0.00007549,-0.00012860,0.00004659
 ,-0.00018737,-0.00000465,0.00013578,0.00015223,0.00044059,-0.00034338,
 -0.00034614,-0.00092521,-0.00048174,-0.00068560,0.00001075,-0.00010489
 ,-0.00078816,0.00066082,0.00003683,0.00067538,-0.00093145,-0.00003372,
 -0.00009151,0.00009334,0.00013474,-0.00014500,0.00023166,0.00305687,-0
 .00135716,-0.00044121,-0.00038386,-0.00023722,0.00139592,0.00005461,0.
 00000128,0.00021146,0.00020643,0.00012791,0.00012487,0.00019999,-0.000
 04694,-0.00017648,-0.00004798,0.00001812,-0.00000545,0.00003346,-0.000
 08274,0.00009773,-0.00011405,-0.00001584,-0.00005489,-0.00010460,0.000
 02569,-0.00014014,-0.00000549,0.00000173,0.00011897,-0.00012151,0.0000
 2587,-0.00012250,0.00018469,-0.00005346,-0.00001528,0.00002077,0.00001
 277,0.00022091,-0.00081893,0.00282170,-0.00093419,-0.00014111,0.000697
 70,0.00100214,0.00002376,-0.00024009,-0.00013649,0.00474476,-0.0031768
 4,0.00885226,0.00034039,0.00101104,0.00008378,-0.00060789,0.00104414,0
 .00055196,-0.07615381,-0.10465623,-0.26033098,-0.00474440,0.00431254,0
 .00169809,0.07938873,0.10439713,0.27199541,-0.00007832,-0.00000985,-0.
 00002849,0.00006328,0.00001299,0.00000388,0.00000913,0.00001029,0.0000
 0796,0.00002075,0.00001378,0.00000275,0.00003897,0.00001852,-0.0000485
 1,0.00002899,-0.00003499,0.00005752,0.00000669,-0.00000335,0.00000573,
 -0.00000195,-0.00000249,-0.00000175,-0.00000442,0.00000291,0.00000175,
 -0.00000442,-0.00000102,-0.00000252,-0.00000407,0.00000734,0.00000031,
 -0.00009115,-0.00006556,0.00006126,-0.00003492,-0.00002537,0.00000375,
 -0.00002023,-0.00000950,-0.00001679,-0.00008951,-0.00000863,-0.0000582
 5,0.00004078,0.00010102,0.00009659,-0.00001713,-0.00001848,0.00008796,
 -0.00000335,0.00001437,-0.00004794,-0.00102202,-0.00093879,0.00003115,
 0.00007205,0.00000577,-0.00038630,0.00002711,-0.00001002,-0.00004050,0
 .00001188,0.00000179,0.00000208,0.00000680,0.00000403,0.00001686,0.000
 04026,-0.00002490,-0.00012042,-0.00008543,0.00002156,0.00018541,0.0000
 3407,0.00009270,-0.00002736,0.00003276,-0.00000377,0.00006767,-0.00001
 569,0.00001829,0.00000891,-0.00004257,-0.00002986,0.00008928,0.0000173
 1,-0.00000581,-0.00002695,0.00002811,-0.00000300,0.00001456,-0.0000009
 1,0.00000144,-0.00000731,0.00000374,-0.00000086,-0.00001089,0.00001111
 ,-0.00001098,-0.00001285,-0.00002053,-0.00003406,-0.00006450,-0.000073
 27,-0.00008446,-0.00000855,0.00006686,-0.00029582,-0.00022353,-0.00006
 027,0.00005549,0.00002211,-0.00000722,-0.00000697,0.00000527,0.0000123
 7,-0.00000542,-0.00001814,0.00010183,0.00001117,-0.00017663,0.00002011
 ,-0.00000060,0.00003502,0.00005405,0.00002342,0.00004184,0.00006604,0.
 00001353,-0.00002736,-0.00000730,-0.00252978,0.00175124,0.00653370,-0.
 00018964,-0.00312808,-0.00006493,-0.00018545,0.00067378,0.00030532,0.0
 0024135,-0.00023263,0.00018457,0.00043729,0.00000425,-0.00180575,0.000
 46141,0.00100382,-0.00097171,0.00005291,0.00020856,0.00017187,-0.00036
 909,-0.00050521,-0.00008735,0.00003170,0.00005064,0.00042616,-0.000393
 49,-0.00007947,-0.00004745,0.00002721,0.00019888,-0.00024958,-0.000002
 39,0.00007611,-0.00040246,-0.00000356,-0.00008996,-0.00219550,0.002304
 69,-0.00239088,-0.00072691,0.00005657,0.00003543,-0.00004925,0.0000074
 2,-0.00002071,0.00002591,0.00006864,-0.00007006,-0.00017420,0.00108201
 ,-0.00170773,0.00003067,-0.00019684,0.00049407,0.00005662,-0.00008029,
 -0.00004863,-0.00003180,-0.00027136,0.00004728,0.00019002,0.00190268,0
 .00118010,-0.00011801,-0.00019389,-0.00002602,-0.00012245,-0.00018411,
 -0.00052270,0.00113259,-0.00021075,0.00021695,-0.00082829,-0.00022784,
 -0.00055718,-0.00048966,0.00001751,0.00009321,0.00299032,0.00018635,0.
 00002992,-0.00196467,0.00006355,0.00017130,-0.00069211,-0.00031791,-0.
 00037082,0.00025609,-0.00028278,0.00029869,-0.00018763,0.00002443,0.00
 009455,-0.00031114,-0.00032132,0.00004966,0.00533585,0.00119326,-0.008
 09760,0.00008926,0.00201503,0.00001870,-0.00014895,0.00056311,-0.00070
 007,-0.12991950,-0.06593875,0.12353212,-0.01360091,-0.01593951,0.02993
 195,0.00775829,0.00861541,-0.01034272,0.13057261,0.00012651,-0.0003004
 3,-0.00004231,-0.00011982,0.00028479,0.00000101,-0.00000352,-0.0000043
 0,-0.00002663,-0.00000301,0.00004827,0.00004016,0.00007168,0.00008155,
 -0.00008228,-0.00013723,0.00014588,0.00003479,-0.00001555,-0.00001493,
 -0.00002557,-0.00000081,-0.00001374,-0.00001490,0.00000356,-0.00000276
 ,0.00000649,0.00001967,-0.00000623,0.00001823,0.00001232,-0.00002844,-
 0.00000575,-0.00007889,-0.00029348,0.00009820,-0.00001153,-0.00009146,
 -0.00000211,0.00000813,-0.00005115,0.00002138,0.00012313,-0.00009370,0
 .00010673,0.00008634,-0.00008658,0.00039990,-0.00000554,-0.00002567,0.
 00011782,-0.00000543,0.00001926,-0.00002671,-0.00113730,-0.00159116,-0
 .00053880,-0.00009836,0.00040547,-0.00055993,-0.00001077,0.00003711,-0
 .00009875,-0.00000309,0.00000890,-0.00000678,-0.00000732,0.00001697,-0
 .00000594,-0.00021260,-0.00033375,0.00025436,0.00036758,0.00033496,-0.
 00062898,0.00001740,0.00003711,0.00005194,-0.00001400,0.00006221,-0.00
 013138,-0.00013337,0.00018023,0.00002612,0.00009257,0.00005165,-0.0001
 9603,-0.00004006,-0.00002114,0.00006411,-0.00001327,0.00004731,-0.0000
 6648,-0.00000119,-0.00001415,0.00001364,0.00002279,-0.00003908,0.00000
 746,-0.00000684,-0.00001222,0.00002431,0.00018657,-0.00023340,-0.00004
 591,-0.00010997,-0.00009816,0.00020324,-0.00059482,0.00024592,0.000697
 76,-0.00011645,0.00016357,0.00005753,0.00002160,-0.00000618,-0.0000019
 0,0.00001152,-0.00003468,-0.00001112,0.00019039,-0.00017547,-0.0000779
 7,-0.00011504,0.00007358,0.00007293,-0.00005700,0.00007754,0.00005106,
 0.00014432,-0.00006242,-0.00024218,-0.00204072,-0.00059618,0.00100008,
 0.00115771,-0.00503477,0.00372972,-0.00014162,-0.00154364,0.00136003,0
 .00020541,-0.00035782,-0.00071672,0.00032207,-0.00020467,-0.00026039,0
 .00168775,-0.00083692,-0.00105488,-0.00023593,0.00021196,-0.00032866,-
 0.00056398,-0.00032915,-0.00117385,-0.00013683,0.00011919,0.00009235,-
 0.00035458,0.00025754,0.00012368,0.00008526,0.00008080,-0.00017321,-0.
 00008563,0.00044743,0.00057253,0.00057055,0.00102297,-0.00041888,0.001
 10086,-0.00126785,-0.00439395,0.00022239,0.00109108,-0.00076034,0.0000
 1696,-0.00007047,0.00009959,-0.00002187,-0.00023726,0.00017987,0.00148
 288,-0.00149020,0.00116999,-0.00014252,-0.00001345,-0.00000130,-0.0000
 0781,-0.00017095,-0.00012037,-0.00031517,-0.00012415,0.00007019,0.0005
 1307,0.00352511,0.00198597,0.00000444,-0.00027151,-0.00032735,-0.00014
 129,-0.00052196,-0.00047569,-0.00021510,0.00036504,-0.00132389,-0.0003
 4353,0.00036459,-0.00000982,-0.00013274,-0.00036074,0.00031822,-0.0011
 0169,-0.00024962,-0.00124602,0.00141417,0.00029551,-0.00022880,0.00038
 966,0.00041371,0.00059248,-0.00132883,0.00031322,0.00013069,0.00010193
 ,0.00060699,0.00063151,0.00001343,-0.00007699,-0.00011949,-0.01715645,
 -0.01798725,0.02780171,0.00258937,-0.00536391,-0.00042959,0.00025854,0
 .00074354,0.00016751,-0.06659190,-0.11495149,0.10767318,-0.00070599,0.
 00406565,-0.00628508,0.01148397,0.01057858,-0.01201504,0.06969043,0.12
 887049,-0.00018780,0.00035165,0.00011991,0.00017387,-0.00034986,-0.000
 08316,0.00001830,0.00000747,-0.00001813,-0.00000662,-0.00009068,-0.000
 05872,-0.00009737,-0.00003324,-0.00004250,0.00018369,-0.00031865,0.000
 10451,0.00001359,0.00000896,0.00001867,-0.00000239,0.00001918,0.000019
 83,-0.00000160,0.00000852,0.00000183,-0.00001579,-0.00000795,-0.000001
 83,-0.00002848,0.00008033,0.00005063,0.00009811,0.00029445,0.00007621,
 0.00004282,0.00015048,0.00004900,-0.00002794,0.00005301,0.00005963,-0.
 00017905,0.00009473,-0.00003615,0.00009112,0.00067973,-0.00064946,0.00
 002083,-0.00003657,0.00004090,0.00004197,-0.00005734,0.00011098,-0.000
 27144,-0.00038102,0.00180145,-0.00018762,-0.00052923,-0.00019662,-0.00
 001002,-0.00008092,0.00005774,-0.00001774,-0.00002409,-0.00000242,0.00
 001581,-0.00001757,-0.00002828,0.00003464,0.00018105,-0.00012786,-0.00
 011477,-0.00021680,0.00031604,0.00003579,-0.00011477,-0.00004079,0.000
 03789,-0.00002465,0.00007938,0.00013333,-0.00015176,-0.00003345,-0.000
 02252,-0.00002659,0.00008564,0.00000728,0.00001780,-0.00003247,-0.0000
 0024,-0.00001880,0.00002306,-0.00001022,0.00001557,0.00000031,-0.00002
 421,0.00002548,0.00000748,-0.00000534,0.00002058,-0.00000809,-0.000217
 34,0.00015755,0.00003904,0.00002171,0.00012551,-0.00010742,0.00013633,
 -0.00004034,-0.00059959,0.00014125,-0.00013715,-0.00003660,-0.00002062
 ,0.00000927,-0.00000763,-0.00001485,0.00002633,0.00002027,-0.00023598,
 0.00012566,0.00010107,0.00010889,-0.00005150,-0.00005158,0.00012461,-0
 .00002981,-0.00003886,-0.00005251,-0.00000631,0.00012025,0.00158835,0.
 00122373,-0.00382943,-0.00388074,0.00660964,0.00101003,0.00063950,-0.0
 0082419,0.00180899,-0.00023025,0.00016218,-0.00007898,0.00021106,-0.00
 020662,0.00068137,-0.00109002,0.00037938,0.00122078,0.00064212,-0.0005
 3615,-0.00006469,-0.00045181,-0.00000696,-0.00055657,-0.00005746,0.000
 15634,-0.00001445,0.00025032,-0.00015824,-0.00018986,0.00005397,-0.000
 03565,-0.00026124,0.00002539,-0.00020303,-0.00046581,0.00006820,0.0000
 6536,-0.00105547,-0.00154360,-0.00520494,0.00341920,-0.00004636,-0.000
 96469,0.00100610,-0.00012509,0.00004549,-0.00016246,0.00001446,0.00026
 291,-0.00021686,-0.00200613,0.00141980,-0.00115183,0.00007154,0.000016
 01,-0.00017176,0.00000042,0.00001258,0.00008821,0.00024819,0.00028421,
 0.00043148,0.00029638,-0.00177723,-0.00434702,-0.00009320,0.00015302,0
 .00020631,0.00016688,0.00016601,0.00049542,0.00023690,0.00005401,-0.00
 151761,-0.00077252,-0.00010577,-0.00044770,-0.00022794,0.00028213,0.00
 025364,-0.00058213,-0.00083499,0.00044825,0.00128866,-0.00047791,-0.00
 000961,0.00016342,0.00037583,0.00011153,-0.00026773,-0.00178931,0.0013
 1366,-0.00000229,0.00006210,-0.00062648,-0.00004744,0.00002967,-0.0001
 5910,-0.00381230,0.00382055,0.00451152,-0.00013899,-0.00267556,0.00059
 322,0.00008627,0.00003045,-0.00038403,0.12372073,0.10775944,-0.2652510
 9,0.00132437,-0.00453061,0.00501190,0.01531434,0.01262007,-0.02294713,
 -0.13076482,-0.11536674,0.28019534\\0.00000394,0.00001460,-0.00001828,
 -0.00000914,-0.00002041,0.00001675,0.00002042,0.00000190,-0.00001221,-
 0.00002597,0.00000154,0.00001965,-0.00002658,0.00000439,0.00000842,0.0
 0003064,0.00001650,-0.00000436,-0.00000547,0.00000643,-0.00001133,-0.0
 0001724,0.00000682,-0.00000325,-0.00000114,-0.00000054,-0.00000375,0.0
 0000160,-0.00000016,-0.00000625,-0.00000599,-0.00000113,0.00000926,0.0
 0000128,0.00000349,-0.00000114,0.00001984,-0.00001124,-0.00000241,-0.0
 0000950,-0.00001036,-0.00000830,0.00000387,0.00002517,-0.00001150,-0.0
 0001156,-0.00000168,0.00001774,-0.00000025,0.00000188,-0.00000022,0.00
 000100,0.00000325,-0.00000200,0.00001822,0.00003111,0.00001830,-0.0000
 0742,-0.00001915,-0.00000173,-0.00000668,-0.00000153,0.00000018,-0.000
 01575,0.00001086,-0.00000293,-0.00000002,0.00000605,0.00000823,0.00000
 617,-0.00000393,0.00000656,0.00001440,0.00001396,0.00000530,-0.0000045
 4,0.00000830,0.00000005,-0.00000659,-0.00001264,-0.00001124,0.00000421
 ,0.00000039,0.00000356,-0.00001160,-0.00001933,-0.00000201,-0.00000310
 ,-0.00000382,-0.00000744,0.00000205,0.00000383,-0.00000284,-0.00000872
 ,0.00000150,0.00000064,0.00000211,-0.00000355,-0.00000391,-0.00000561,
 -0.00000191,-0.00000999,-0.00001875,-0.00001368,0.00000489,0.00001144,
 -0.00001113,-0.00000678,-0.00000200,-0.00000750,-0.00000371,-0.0000069
 4,0.00002237,0.00000344,0.00000146,-0.00000135,-0.00000268,0.00000397,
 -0.00000074,-0.00000282,0.00003007,0.00000282,0.00001909,-0.00001411,-
 0.00000399,-0.00002020,-0.00000759,-0.00000190,-0.00000494,-0.00001599
 ,-0.00000073,0.00000749,0.00001174,0.00001159,-0.00000787,-0.00001909,
 0.00000348,0.00000807,-0.00000945,-0.00000238,-0.00000329,0.00000553,0
 .00000368,0.00002019,0.00000418,0.00000548,-0.00000684,0.00000410,-0.0
 0002050,-0.00000343,0.00000544,-0.00000311,-0.00000055,0.00000251,0.00
 000215,-0.00000151,0.00000111,-0.00000002,-0.00000229,-0.00000008,0.00
 000099,-0.00000546,-0.00000061,-0.00000465,0.00000380,-0.00000019,0.00
 000068,-0.00001968,0.00000458,-0.00000377,-0.00000441,-0.00000590,-0.0
 0000137,0.00000202,0.00000821,0.00001900,-0.00001304,0.00000480,-0.000
 00760,0.00000604,-0.00000001,-0.00000577,0.00000015,-0.00002082,-0.000
 00591,0.00001426,0.00000591,0.00000059,-0.00001199,-0.00000049,-0.0000
 0638,0.00000486,0.00000158,0.00000284,0.00000556,0.00000721,-0.0000114
 9,-0.00001208,0.00000493,-0.00000161,0.00000348,0.00000548,-0.00000027
 ,0.00000742,0.00000768,0.00001518,0.00001354,-0.00000023,-0.00000162,0
 .00000422,0.00000353,-0.00000021,-0.00000263,0.00000854,-0.00000051,-0
 .00000282,-0.00000111,-0.00000024,-0.00000169,0.00000485,-0.00000141,0
 .00000628,0.00000230,-0.00000665,0.00001691,0.00000036,0.00000150,0.00
 000558,0.00000423,0.00000053,-0.00000039,0.00000578,-0.00000368,-0.000
 00907,-0.00000059,-0.00000440,-0.00000066,0.00000234,0.00000305,0.0000
 0693,0.00001666,0.00000684,0.00001573,-0.00000818,-0.00000669,-0.00001
 211,0.00000857,-0.00000983,-0.00000302,-0.00000383,-0.00000226,-0.0000
 0154\\\@


 WHEN ALL ELSE FAILS, TRY THE BOSS'S SUGGESTION.
 Job cpu time:      23 days 23 hours 15 minutes 14.8 seconds.
 File lengths (MBytes):  RWF=  24214 Int=      0 D2E=      0 Chk=     97 Scr=      1
 Normal termination of Gaussian 09 at Sun Apr 24 13:14:19 2016.
