 Entering Gaussian System, Link 0=g09
 Initial command:
 /share/apps//g09/l1.exe "/scratch/Gau-25773.inp" -scrdir="/scratch/"
 Entering Link 1 = /share/apps//g09/l1.exe PID=     25774.
  
 Copyright (c) 1988,1990,1992,1993,1995,1998,2003,2009,2013,
            Gaussian, Inc.  All Rights Reserved.
  
 This is part of the Gaussian(R) 09 program.  It is based on
 the Gaussian(R) 03 system (copyright 2003, Gaussian, Inc.),
 the Gaussian(R) 98 system (copyright 1998, Gaussian, Inc.),
 the Gaussian(R) 94 system (copyright 1995, Gaussian, Inc.),
 the Gaussian 92(TM) system (copyright 1992, Gaussian, Inc.),
 the Gaussian 90(TM) system (copyright 1990, Gaussian, Inc.),
 the Gaussian 88(TM) system (copyright 1988, Gaussian, Inc.),
 the Gaussian 86(TM) system (copyright 1986, Carnegie Mellon
 University), and the Gaussian 82(TM) system (copyright 1983,
 Carnegie Mellon University). Gaussian is a federally registered
 trademark of Gaussian, Inc.
  
 This software contains proprietary and confidential information,
 including trade secrets, belonging to Gaussian, Inc.
  
 This software is provided under written license and may be
 used, copied, transmitted, or stored only in accord with that
 written license.
  
 The following legend is applicable only to US Government
 contracts under FAR:
  
                    RESTRICTED RIGHTS LEGEND
  
 Use, reproduction and disclosure by the US Government is
 subject to restrictions as set forth in subparagraphs (a)
 and (c) of the Commercial Computer Software - Restricted
 Rights clause in FAR 52.227-19.
  
 Gaussian, Inc.
 340 Quinnipiac St., Bldg. 40, Wallingford CT 06492
  
  
 ---------------------------------------------------------------
 Warning -- This program may not be used in any manner that
 competes with the business of Gaussian, Inc. or will provide
 assistance to any competitor of Gaussian, Inc.  The licensee
 of this program is prohibited from giving any competitor of
 Gaussian, Inc. access to this program.  By using this program,
 the user acknowledges that Gaussian, Inc. is engaged in the
 business of creating and licensing software in the field of
 computational chemistry and represents and warrants to the
 licensee that it is not a competitor of Gaussian, Inc. and that
 it will not use this program in any manner prohibited above.
 ---------------------------------------------------------------
  

 Cite this work as:
 Gaussian 09, Revision D.01,
 M. J. Frisch, G. W. Trucks, H. B. Schlegel, G. E. Scuseria, 
 M. A. Robb, J. R. Cheeseman, G. Scalmani, V. Barone, B. Mennucci, 
 G. A. Petersson, H. Nakatsuji, M. Caricato, X. Li, H. P. Hratchian, 
 A. F. Izmaylov, J. Bloino, G. Zheng, J. L. Sonnenberg, M. Hada, 
 M. Ehara, K. Toyota, R. Fukuda, J. Hasegawa, M. Ishida, T. Nakajima, 
 Y. Honda, O. Kitao, H. Nakai, T. Vreven, J. A. Montgomery, Jr., 
 J. E. Peralta, F. Ogliaro, M. Bearpark, J. J. Heyd, E. Brothers, 
 K. N. Kudin, V. N. Staroverov, T. Keith, R. Kobayashi, J. Normand, 
 K. Raghavachari, A. Rendell, J. C. Burant, S. S. Iyengar, J. Tomasi, 
 M. Cossi, N. Rega, J. M. Millam, M. Klene, J. E. Knox, J. B. Cross, 
 V. Bakken, C. Adamo, J. Jaramillo, R. Gomperts, R. E. Stratmann, 
 O. Yazyev, A. J. Austin, R. Cammi, C. Pomelli, J. W. Ochterski, 
 R. L. Martin, K. Morokuma, V. G. Zakrzewski, G. A. Voth, 
 P. Salvador, J. J. Dannenberg, S. Dapprich, A. D. Daniels, 
 O. Farkas, J. B. Foresman, J. V. Ortiz, J. Cioslowski, 
 and D. J. Fox, Gaussian, Inc., Wallingford CT, 2013.
 
 ******************************************
 Gaussian 09:  EM64L-G09RevD.01 24-Apr-2013
                 6-Apr-2016 
 ******************************************
 %nproc=20
 Will use up to   20 processors via shared memory.
 %mem=80GB
 %chk=Tri_A131_of.chk
 ----------------------------------------------------------------------
 #P PBE1PBE/6-311+G(d,p) opt=ModRedundant freq optcyc=999 EmpiricalDisp
 ersion=GD3
 ----------------------------------------------------------------------
 1/6=999,14=-1,18=120,19=15,26=3,38=1/1,3;
 2/9=110,12=2,17=6,18=5,40=1/2;
 3/5=4,6=6,7=111,11=2,16=1,25=1,30=1,71=1,74=-13,124=31/1,2,3;
 4//1;
 5/5=2,38=5/2;
 6/7=2,8=2,9=2,10=2,28=1/1;
 7//1,2,3,16;
 1/6=999,14=-1,18=20,19=15,26=3/3(2);
 2/9=110/2;
 99//99;
 2/9=110/2;
 3/5=4,6=6,7=111,11=2,16=1,25=1,30=1,71=1,74=-13,124=31/1,2,3;
 4/5=5,16=3,69=1/1;
 5/5=2,38=5/2;
 7//1,2,3,16;
 1/6=999,14=-1,18=20,19=15,26=3/3(-5);
 2/9=110/2;
 6/7=2,8=2,9=2,10=2,19=2,28=1/1;
 99/9=1/99;
 Leave Link    1 at Wed Apr  6 15:55:04 2016, MaxMem= 10737418240 cpu:         2.6
 (Enter /share/apps//g09/l101.exe)
 -------
 disacch
 -------
 Symbolic Z-matrix:
 Charge =  1 Multiplicity = 1
 O                    -1.86783  -5.10824   8.35594 
 C                    -1.1324   -5.0628    9.60309 
 C                    -1.14715  -6.47481   10.21504 
 C                    -0.52105  -7.48244   9.24751 
 C                    -1.21192  -7.42772   7.87542 
 C                    -1.23909  -5.98567   7.37214 
 H                    -1.69569  -4.35022   10.23139 
 H                    -2.20823  -6.74124   10.35436 
 H                     0.54874  -7.23282   9.12253 
 H                    -0.59618  -8.0187    7.16618 
 H                    -0.1913   -5.6643    7.23453 
 O                    -2.53836  -7.93524   7.92892 
 O                    -0.6756   -8.81743   9.72472 
 O                    -0.42352  -6.56173   11.44327 
 O                     0.19395  -4.65206   9.41186 
 C                    -1.9732   -5.80844   6.04893 
 H                    -1.76315  -6.67632   5.40757 
 H                    -3.05909  -5.77061   6.21365 
 O                    -1.52988  -4.63666   5.33068 
 H                    -2.09871  -3.85119   5.55462 
 H                    -2.49076  -8.75595   8.45706 
 H                    -0.37861  -8.82208   10.65358 
 H                    -1.01989  -6.33914   12.17802 
 O                     1.63633  -1.20595   7.5188 
 C                     0.20881  -1.19639   7.71999 
 C                    -0.31836  -2.61333   8.02487 
 C                     0.46631  -3.25925   9.18917 
 C                     1.96649  -3.20128   8.87839 
 C                     2.37905  -1.73962   8.64002 
 H                    -0.02989  -0.52184   8.56189 
 H                    -0.16007  -3.25745   7.14534 
 H                     0.25585  -2.69623   10.11912 
 H                     2.51512  -3.59879   9.75272 
 H                     2.14906  -1.13908   9.54258 
 O                     2.20501  -4.00532   7.71865 
 O                    -1.71621  -2.46288   8.29563 
 O                    -0.38611  -0.57897   6.60658 
 C                     3.86793  -1.54708   8.33913 
 H                     4.05282  -0.48755   8.102 
 H                     4.44     -1.79646   9.24408 
 O                     4.3768   -2.40267   7.30183 
 H                     4.13877  -2.02579   6.43119 
 H                     3.13668  -3.81505   7.46445 
 H                    -2.0655   -3.39194   8.25757 
 O                     0.15301  -1.53062   3.08087 
 C                    -1.17844  -1.41094   2.4977 
 C                    -2.26616  -1.76436   3.51801 
 C                    -1.97766  -1.30462   4.95995 
 C                    -0.49887  -1.31697   5.36859 
 C                     0.38081  -0.72309   4.2573 
 H                    -1.29549  -0.37521   2.12067 
 H                    -2.31842  -2.86891   3.52491 
 H                    -2.34576  -0.26888   5.07294 
 H                     0.09553   0.32558   4.05056 
 H                    -0.17499  -2.35593   5.52118 
 O                    -2.75436  -2.18592   5.79138 
 O                    -3.47632  -1.20817   3.02545 
 O                    -1.26091  -2.35509   1.48979 
 C                     1.8817   -0.76403   4.54429 
 H                     2.41996  -0.55792   3.60921 
 H                     2.12356   0.02371   5.27298 
 O                     2.33332  -2.0425    5.02736 
 H                     2.08663  -2.03971   5.98602 
 H                    -2.53851  -1.9947    6.74213 
 H                    -4.21658  -1.60158   3.52017 
 C                    -0.44851  -2.11347   0.31218 
 H                    -1.09664  -2.36142  -0.54233 
 H                    -0.19878  -1.042     0.25204 
 C                     0.82036  -2.96371   0.28322 
 H                     1.47262  -2.68417   1.12687 
 H                     1.37218  -2.65938  -0.6215 
 C                     0.60724  -4.4866    0.20486 
 H                    -0.10402  -4.69845  -0.61008 
 H                     1.558    -4.94782  -0.11005 
 C                     0.11428  -5.2376    1.45886 
 H                    -0.87449  -4.87158   1.77427 
 H                    -0.03393  -6.28925   1.17276 
 C                     1.07808  -5.22619   2.65531 
 H                     2.11097  -5.02967   2.33549 
 H                     1.07437  -6.18846   3.18285 
 N                     0.7243   -4.18057   3.67767 
 H                     0.49107  -3.2493    3.24876 
 H                     1.50661  -3.95527   4.31534 
 H                    -0.10676  -4.45552   4.263 
 
 The following ModRedundant input section has been read:
 B      19      84 B                                                           
 B      62      83 B                                                           
 B      45      82 B                                                           
 B      41      43 B                                                           
 B       1      44 B                                                           
 B      20      56 B                                                           
 B      24      63 B                                                           
 
 NAtoms=     84 NQM=       84 NQMF=       0 NMMI=      0 NMMIF=      0
                NMic=       0 NMicF=      0.
                    Isotopes and Nuclear Properties:
 (Nuclear quadrupole moments (NQMom) in fm**2, nuclear magnetic moments (NMagM)
  in nuclear magnetons)

  Atom         1           2           3           4           5           6           7           8           9          10
 IAtWgt=          16          12          12          12          12          12           1           1           1           1
 AtmWgt=  15.9949146  12.0000000  12.0000000  12.0000000  12.0000000  12.0000000   1.0078250   1.0078250   1.0078250   1.0078250
 NucSpn=           0           0           0           0           0           0           1           1           1           1
 AtZEff=   0.0000000   0.0000000   0.0000000   0.0000000   0.0000000   0.0000000   0.0000000   0.0000000   0.0000000   0.0000000
 NQMom=    0.0000000   0.0000000   0.0000000   0.0000000   0.0000000   0.0000000   0.0000000   0.0000000   0.0000000   0.0000000
 NMagM=    0.0000000   0.0000000   0.0000000   0.0000000   0.0000000   0.0000000   2.7928460   2.7928460   2.7928460   2.7928460
 AtZNuc=   8.0000000   6.0000000   6.0000000   6.0000000   6.0000000   6.0000000   1.0000000   1.0000000   1.0000000   1.0000000

  Atom        11          12          13          14          15          16          17          18          19          20
 IAtWgt=           1          16          16          16          16          12           1           1          16           1
 AtmWgt=   1.0078250  15.9949146  15.9949146  15.9949146  15.9949146  12.0000000   1.0078250   1.0078250  15.9949146   1.0078250
 NucSpn=           1           0           0           0           0           0           1           1           0           1
 AtZEff=   0.0000000   0.0000000   0.0000000   0.0000000   0.0000000   0.0000000   0.0000000   0.0000000   0.0000000   0.0000000
 NQMom=    0.0000000   0.0000000   0.0000000   0.0000000   0.0000000   0.0000000   0.0000000   0.0000000   0.0000000   0.0000000
 NMagM=    2.7928460   0.0000000   0.0000000   0.0000000   0.0000000   0.0000000   2.7928460   2.7928460   0.0000000   2.7928460
 AtZNuc=   1.0000000   8.0000000   8.0000000   8.0000000   8.0000000   6.0000000   1.0000000   1.0000000   8.0000000   1.0000000

  Atom        21          22          23          24          25          26          27          28          29          30
 IAtWgt=           1           1           1          16          12          12          12          12          12           1
 AtmWgt=   1.0078250   1.0078250   1.0078250  15.9949146  12.0000000  12.0000000  12.0000000  12.0000000  12.0000000   1.0078250
 NucSpn=           1           1           1           0           0           0           0           0           0           1
 AtZEff=   0.0000000   0.0000000   0.0000000   0.0000000   0.0000000   0.0000000   0.0000000   0.0000000   0.0000000   0.0000000
 NQMom=    0.0000000   0.0000000   0.0000000   0.0000000   0.0000000   0.0000000   0.0000000   0.0000000   0.0000000   0.0000000
 NMagM=    2.7928460   2.7928460   2.7928460   0.0000000   0.0000000   0.0000000   0.0000000   0.0000000   0.0000000   2.7928460
 AtZNuc=   1.0000000   1.0000000   1.0000000   8.0000000   6.0000000   6.0000000   6.0000000   6.0000000   6.0000000   1.0000000

  Atom        31          32          33          34          35          36          37          38          39          40
 IAtWgt=           1           1           1           1          16          16          16          12           1           1
 AtmWgt=   1.0078250   1.0078250   1.0078250   1.0078250  15.9949146  15.9949146  15.9949146  12.0000000   1.0078250   1.0078250
 NucSpn=           1           1           1           1           0           0           0           0           1           1
 AtZEff=   0.0000000   0.0000000   0.0000000   0.0000000   0.0000000   0.0000000   0.0000000   0.0000000   0.0000000   0.0000000
 NQMom=    0.0000000   0.0000000   0.0000000   0.0000000   0.0000000   0.0000000   0.0000000   0.0000000   0.0000000   0.0000000
 NMagM=    2.7928460   2.7928460   2.7928460   2.7928460   0.0000000   0.0000000   0.0000000   0.0000000   2.7928460   2.7928460
 AtZNuc=   1.0000000   1.0000000   1.0000000   1.0000000   8.0000000   8.0000000   8.0000000   6.0000000   1.0000000   1.0000000

  Atom        41          42          43          44          45          46          47          48          49          50
 IAtWgt=          16           1           1           1          16          12          12          12          12          12
 AtmWgt=  15.9949146   1.0078250   1.0078250   1.0078250  15.9949146  12.0000000  12.0000000  12.0000000  12.0000000  12.0000000
 NucSpn=           0           1           1           1           0           0           0           0           0           0
 AtZEff=   0.0000000   0.0000000   0.0000000   0.0000000   0.0000000   0.0000000   0.0000000   0.0000000   0.0000000   0.0000000
 NQMom=    0.0000000   0.0000000   0.0000000   0.0000000   0.0000000   0.0000000   0.0000000   0.0000000   0.0000000   0.0000000
 NMagM=    0.0000000   2.7928460   2.7928460   2.7928460   0.0000000   0.0000000   0.0000000   0.0000000   0.0000000   0.0000000
 AtZNuc=   8.0000000   1.0000000   1.0000000   1.0000000   8.0000000   6.0000000   6.0000000   6.0000000   6.0000000   6.0000000

  Atom        51          52          53          54          55          56          57          58          59          60
 IAtWgt=           1           1           1           1           1          16          16          16          12           1
 AtmWgt=   1.0078250   1.0078250   1.0078250   1.0078250   1.0078250  15.9949146  15.9949146  15.9949146  12.0000000   1.0078250
 NucSpn=           1           1           1           1           1           0           0           0           0           1
 AtZEff=   0.0000000   0.0000000   0.0000000   0.0000000   0.0000000   0.0000000   0.0000000   0.0000000   0.0000000   0.0000000
 NQMom=    0.0000000   0.0000000   0.0000000   0.0000000   0.0000000   0.0000000   0.0000000   0.0000000   0.0000000   0.0000000
 NMagM=    2.7928460   2.7928460   2.7928460   2.7928460   2.7928460   0.0000000   0.0000000   0.0000000   0.0000000   2.7928460
 AtZNuc=   1.0000000   1.0000000   1.0000000   1.0000000   1.0000000   8.0000000   8.0000000   8.0000000   6.0000000   1.0000000

  Atom        61          62          63          64          65          66          67          68          69          70
 IAtWgt=           1          16           1           1           1          12           1           1          12           1
 AtmWgt=   1.0078250  15.9949146   1.0078250   1.0078250   1.0078250  12.0000000   1.0078250   1.0078250  12.0000000   1.0078250
 NucSpn=           1           0           1           1           1           0           1           1           0           1
 AtZEff=   0.0000000   0.0000000   0.0000000   0.0000000   0.0000000   0.0000000   0.0000000   0.0000000   0.0000000   0.0000000
 NQMom=    0.0000000   0.0000000   0.0000000   0.0000000   0.0000000   0.0000000   0.0000000   0.0000000   0.0000000   0.0000000
 NMagM=    2.7928460   0.0000000   2.7928460   2.7928460   2.7928460   0.0000000   2.7928460   2.7928460   0.0000000   2.7928460
 AtZNuc=   1.0000000   8.0000000   1.0000000   1.0000000   1.0000000   6.0000000   1.0000000   1.0000000   6.0000000   1.0000000

  Atom        71          72          73          74          75          76          77          78          79          80
 IAtWgt=           1          12           1           1          12           1           1          12           1           1
 AtmWgt=   1.0078250  12.0000000   1.0078250   1.0078250  12.0000000   1.0078250   1.0078250  12.0000000   1.0078250   1.0078250
 NucSpn=           1           0           1           1           0           1           1           0           1           1
 AtZEff=   0.0000000   0.0000000   0.0000000   0.0000000   0.0000000   0.0000000   0.0000000   0.0000000   0.0000000   0.0000000
 NQMom=    0.0000000   0.0000000   0.0000000   0.0000000   0.0000000   0.0000000   0.0000000   0.0000000   0.0000000   0.0000000
 NMagM=    2.7928460   0.0000000   2.7928460   2.7928460   0.0000000   2.7928460   2.7928460   0.0000000   2.7928460   2.7928460
 AtZNuc=   1.0000000   6.0000000   1.0000000   1.0000000   6.0000000   1.0000000   1.0000000   6.0000000   1.0000000   1.0000000

  Atom        81          82          83          84
 IAtWgt=          14           1           1           1
 AtmWgt=  14.0030740   1.0078250   1.0078250   1.0078250
 NucSpn=           2           1           1           1
 AtZEff=   0.0000000   0.0000000   0.0000000   0.0000000
 NQMom=    2.0440000   0.0000000   0.0000000   0.0000000
 NMagM=    0.4037610   2.7928460   2.7928460   2.7928460
 AtZNuc=   7.0000000   1.0000000   1.0000000   1.0000000
 Leave Link  101 at Wed Apr  6 15:55:05 2016, MaxMem= 10737418240 cpu:         5.8
 (Enter /share/apps//g09/l103.exe)

 GradGradGradGradGradGradGradGradGradGradGradGradGradGradGradGradGradGrad
 Berny optimization.
 Initialization pass.
                           ----------------------------
                           !    Initial Parameters    !
                           ! (Angstroms and Degrees)  !
 --------------------------                            --------------------------
 ! Name  Definition              Value          Derivative Info.                !
 --------------------------------------------------------------------------------
 ! R1    R(1,2)                  1.4486         estimate D2E/DX2                !
 ! R2    R(1,6)                  1.4605         estimate D2E/DX2                !
 ! R3    R(1,44)                 1.7304         estimate D2E/DX2                !
 ! R4    R(2,3)                  1.539          estimate D2E/DX2                !
 ! R5    R(2,7)                  1.1045         estimate D2E/DX2                !
 ! R6    R(2,15)                 1.4016         estimate D2E/DX2                !
 ! R7    R(3,4)                  1.5308         estimate D2E/DX2                !
 ! R8    R(3,8)                  1.1029         estimate D2E/DX2                !
 ! R9    R(3,14)                 1.4282         estimate D2E/DX2                !
 ! R10   R(4,5)                  1.5372         estimate D2E/DX2                !
 ! R11   R(4,9)                  1.1056         estimate D2E/DX2                !
 ! R12   R(4,13)                 1.4261         estimate D2E/DX2                !
 ! R13   R(5,6)                  1.5276         estimate D2E/DX2                !
 ! R14   R(5,10)                 1.1097         estimate D2E/DX2                !
 ! R15   R(5,12)                 1.4212         estimate D2E/DX2                !
 ! R16   R(6,11)                 1.1046         estimate D2E/DX2                !
 ! R17   R(6,16)                 1.5236         estimate D2E/DX2                !
 ! R18   R(12,21)                0.9771         estimate D2E/DX2                !
 ! R19   R(13,22)                0.9752         estimate D2E/DX2                !
 ! R20   R(14,23)                0.9721         estimate D2E/DX2                !
 ! R21   R(15,27)                1.4366         estimate D2E/DX2                !
 ! R22   R(16,17)                1.0994         estimate D2E/DX2                !
 ! R23   R(16,18)                1.099          estimate D2E/DX2                !
 ! R24   R(16,19)                1.4441         estimate D2E/DX2                !
 ! R25   R(19,20)                0.9953         estimate D2E/DX2                !
 ! R26   R(19,84)                1.7883         estimate D2E/DX2                !
 ! R27   R(20,56)                1.8053         estimate D2E/DX2                !
 ! R28   R(24,25)                1.4417         estimate D2E/DX2                !
 ! R29   R(24,29)                1.4469         estimate D2E/DX2                !
 ! R30   R(24,63)                1.802          estimate D2E/DX2                !
 ! R31   R(25,26)                1.5423         estimate D2E/DX2                !
 ! R32   R(25,30)                1.1049         estimate D2E/DX2                !
 ! R33   R(25,37)                1.4053         estimate D2E/DX2                !
 ! R34   R(26,27)                1.5455         estimate D2E/DX2                !
 ! R35   R(26,31)                1.1016         estimate D2E/DX2                !
 ! R36   R(26,36)                1.4318         estimate D2E/DX2                !
 ! R37   R(27,28)                1.5331         estimate D2E/DX2                !
 ! R38   R(27,32)                1.1073         estimate D2E/DX2                !
 ! R39   R(28,29)                1.5374         estimate D2E/DX2                !
 ! R40   R(28,33)                1.1061         estimate D2E/DX2                !
 ! R41   R(28,35)                1.4312         estimate D2E/DX2                !
 ! R42   R(29,34)                1.1082         estimate D2E/DX2                !
 ! R43   R(29,38)                1.5311         estimate D2E/DX2                !
 ! R44   R(35,43)                0.9843         estimate D2E/DX2                !
 ! R45   R(36,44)                0.9933         estimate D2E/DX2                !
 ! R46   R(37,49)                1.4457         estimate D2E/DX2                !
 ! R47   R(38,39)                1.1014         estimate D2E/DX2                !
 ! R48   R(38,40)                1.0993         estimate D2E/DX2                !
 ! R49   R(38,41)                1.4377         estimate D2E/DX2                !
 ! R50   R(41,42)                0.9781         estimate D2E/DX2                !
 ! R51   R(41,43)                1.8866         estimate D2E/DX2                !
 ! R52   R(45,46)                1.4585         estimate D2E/DX2                !
 ! R53   R(45,50)                1.445          estimate D2E/DX2                !
 ! R54   R(45,82)                1.7596         estimate D2E/DX2                !
 ! R55   R(46,47)                1.5327         estimate D2E/DX2                !
 ! R56   R(46,51)                1.1084         estimate D2E/DX2                !
 ! R57   R(46,58)                1.3835         estimate D2E/DX2                !
 ! R58   R(47,48)                1.5407         estimate D2E/DX2                !
 ! R59   R(47,52)                1.1058         estimate D2E/DX2                !
 ! R60   R(47,57)                1.42           estimate D2E/DX2                !
 ! R61   R(48,49)                1.5343         estimate D2E/DX2                !
 ! R62   R(48,53)                1.105          estimate D2E/DX2                !
 ! R63   R(48,56)                1.4392         estimate D2E/DX2                !
 ! R64   R(49,50)                1.5367         estimate D2E/DX2                !
 ! R65   R(49,55)                1.0989         estimate D2E/DX2                !
 ! R66   R(50,54)                1.1063         estimate D2E/DX2                !
 ! R67   R(50,59)                1.5286         estimate D2E/DX2                !
 ! R68   R(56,64)                0.9935         estimate D2E/DX2                !
 ! R69   R(57,65)                0.9734         estimate D2E/DX2                !
 ! R70   R(58,66)                1.4509         estimate D2E/DX2                !
 ! R71   R(59,60)                1.0984         estimate D2E/DX2                !
 ! R72   R(59,61)                1.1            estimate D2E/DX2                !
 ! R73   R(59,62)                1.4394         estimate D2E/DX2                !
 ! R74   R(62,63)                0.9899         estimate D2E/DX2                !
 ! R75   R(62,83)                2.2021         estimate D2E/DX2                !
 ! R76   R(66,67)                1.1008         estimate D2E/DX2                !
 ! R77   R(66,68)                1.1018         estimate D2E/DX2                !
 ! R78   R(66,69)                1.5277         estimate D2E/DX2                !
 ! R79   R(69,70)                1.1024         estimate D2E/DX2                !
 ! R80   R(69,71)                1.1026         estimate D2E/DX2                !
 ! R81   R(69,72)                1.5397         estimate D2E/DX2                !
 ! R82   R(72,73)                1.1022         estimate D2E/DX2                !
 ! R83   R(72,74)                1.1026         estimate D2E/DX2                !
 ! R84   R(72,75)                1.5426         estimate D2E/DX2                !
 ! R85   R(75,76)                1.1005         estimate D2E/DX2                !
 ! R86   R(75,77)                1.0999         estimate D2E/DX2                !
 ! R87   R(75,78)                1.5364         estimate D2E/DX2                !
 ! R88   R(78,79)                1.099          estimate D2E/DX2                !
 ! R89   R(78,80)                1.0974         estimate D2E/DX2                !
 ! R90   R(78,81)                1.5046         estimate D2E/DX2                !
 ! R91   R(81,82)                1.0515         estimate D2E/DX2                !
 ! R92   R(81,83)                1.0341         estimate D2E/DX2                !
 ! R93   R(81,84)                1.053          estimate D2E/DX2                !
 ! A1    A(2,1,6)              112.348          estimate D2E/DX2                !
 ! A2    A(2,1,44)              94.3486         estimate D2E/DX2                !
 ! A3    A(6,1,44)             127.3547         estimate D2E/DX2                !
 ! A4    A(1,2,3)              107.9809         estimate D2E/DX2                !
 ! A5    A(1,2,7)              104.5418         estimate D2E/DX2                !
 ! A6    A(1,2,15)             111.8494         estimate D2E/DX2                !
 ! A7    A(3,2,7)              111.1532         estimate D2E/DX2                !
 ! A8    A(3,2,15)             109.402          estimate D2E/DX2                !
 ! A9    A(7,2,15)             111.7882         estimate D2E/DX2                !
 ! A10   A(2,3,4)              110.4068         estimate D2E/DX2                !
 ! A11   A(2,3,8)              106.3261         estimate D2E/DX2                !
 ! A12   A(2,3,14)             113.1376         estimate D2E/DX2                !
 ! A13   A(4,3,8)              108.3203         estimate D2E/DX2                !
 ! A14   A(4,3,14)             107.2326         estimate D2E/DX2                !
 ! A15   A(8,3,14)             111.3547         estimate D2E/DX2                !
 ! A16   A(3,4,5)              110.91           estimate D2E/DX2                !
 ! A17   A(3,4,9)              108.5769         estimate D2E/DX2                !
 ! A18   A(3,4,13)             111.1218         estimate D2E/DX2                !
 ! A19   A(5,4,9)              109.0225         estimate D2E/DX2                !
 ! A20   A(5,4,13)             106.4573         estimate D2E/DX2                !
 ! A21   A(9,4,13)             110.7343         estimate D2E/DX2                !
 ! A22   A(4,5,6)              109.6135         estimate D2E/DX2                !
 ! A23   A(4,5,10)             107.5868         estimate D2E/DX2                !
 ! A24   A(4,5,12)             111.9102         estimate D2E/DX2                !
 ! A25   A(6,5,10)             107.5802         estimate D2E/DX2                !
 ! A26   A(6,5,12)             109.4452         estimate D2E/DX2                !
 ! A27   A(10,5,12)            110.5944         estimate D2E/DX2                !
 ! A28   A(1,6,5)              110.6625         estimate D2E/DX2                !
 ! A29   A(1,6,11)             108.5114         estimate D2E/DX2                !
 ! A30   A(1,6,16)             107.9213         estimate D2E/DX2                !
 ! A31   A(5,6,11)             107.3871         estimate D2E/DX2                !
 ! A32   A(5,6,16)             113.861          estimate D2E/DX2                !
 ! A33   A(11,6,16)            108.3624         estimate D2E/DX2                !
 ! A34   A(5,12,21)            105.9513         estimate D2E/DX2                !
 ! A35   A(4,13,22)            106.8689         estimate D2E/DX2                !
 ! A36   A(3,14,23)            108.9791         estimate D2E/DX2                !
 ! A37   A(2,15,27)            118.9922         estimate D2E/DX2                !
 ! A38   A(6,16,17)            108.8306         estimate D2E/DX2                !
 ! A39   A(6,16,18)            110.4834         estimate D2E/DX2                !
 ! A40   A(6,16,19)            112.2366         estimate D2E/DX2                !
 ! A41   A(17,16,18)           107.6619         estimate D2E/DX2                !
 ! A42   A(17,16,19)           106.9623         estimate D2E/DX2                !
 ! A43   A(18,16,19)           110.4841         estimate D2E/DX2                !
 ! A44   A(16,19,20)           110.6703         estimate D2E/DX2                !
 ! A45   A(16,19,84)           128.5668         estimate D2E/DX2                !
 ! A46   A(20,19,84)           120.6098         estimate D2E/DX2                !
 ! A47   A(19,20,56)           164.8            estimate D2E/DX2                !
 ! A48   A(25,24,29)           113.7397         estimate D2E/DX2                !
 ! A49   A(25,24,63)           111.6665         estimate D2E/DX2                !
 ! A50   A(29,24,63)           111.1124         estimate D2E/DX2                !
 ! A51   A(24,25,26)           111.0976         estimate D2E/DX2                !
 ! A52   A(24,25,30)           108.9235         estimate D2E/DX2                !
 ! A53   A(24,25,37)           108.1519         estimate D2E/DX2                !
 ! A54   A(26,25,30)           109.6593         estimate D2E/DX2                !
 ! A55   A(26,25,37)           114.5554         estimate D2E/DX2                !
 ! A56   A(30,25,37)           104.1241         estimate D2E/DX2                !
 ! A57   A(25,26,27)           111.0608         estimate D2E/DX2                !
 ! A58   A(25,26,31)           109.284          estimate D2E/DX2                !
 ! A59   A(25,26,36)           105.936          estimate D2E/DX2                !
 ! A60   A(27,26,31)           106.5086         estimate D2E/DX2                !
 ! A61   A(27,26,36)           113.3998         estimate D2E/DX2                !
 ! A62   A(31,26,36)           110.6537         estimate D2E/DX2                !
 ! A63   A(15,27,26)           115.1973         estimate D2E/DX2                !
 ! A64   A(15,27,28)           104.6907         estimate D2E/DX2                !
 ! A65   A(15,27,32)           109.0721         estimate D2E/DX2                !
 ! A66   A(26,27,28)           109.1651         estimate D2E/DX2                !
 ! A67   A(26,27,32)           108.8864         estimate D2E/DX2                !
 ! A68   A(28,27,32)           109.6943         estimate D2E/DX2                !
 ! A69   A(27,28,29)           109.2669         estimate D2E/DX2                !
 ! A70   A(27,28,33)           108.1509         estimate D2E/DX2                !
 ! A71   A(27,28,35)           107.8239         estimate D2E/DX2                !
 ! A72   A(29,28,33)           109.338          estimate D2E/DX2                !
 ! A73   A(29,28,35)           111.3314         estimate D2E/DX2                !
 ! A74   A(33,28,35)           110.8528         estimate D2E/DX2                !
 ! A75   A(24,29,28)           109.4552         estimate D2E/DX2                !
 ! A76   A(24,29,34)           108.9474         estimate D2E/DX2                !
 ! A77   A(24,29,38)           107.4868         estimate D2E/DX2                !
 ! A78   A(28,29,34)           109.4657         estimate D2E/DX2                !
 ! A79   A(28,29,38)           114.2663         estimate D2E/DX2                !
 ! A80   A(34,29,38)           107.0799         estimate D2E/DX2                !
 ! A81   A(28,35,43)           104.9763         estimate D2E/DX2                !
 ! A82   A(26,36,44)           103.7563         estimate D2E/DX2                !
 ! A83   A(25,37,49)           119.1577         estimate D2E/DX2                !
 ! A84   A(29,38,39)           109.0579         estimate D2E/DX2                !
 ! A85   A(29,38,40)           108.4058         estimate D2E/DX2                !
 ! A86   A(29,38,41)           114.2759         estimate D2E/DX2                !
 ! A87   A(39,38,40)           107.9462         estimate D2E/DX2                !
 ! A88   A(39,38,41)           110.9616         estimate D2E/DX2                !
 ! A89   A(40,38,41)           105.9475         estimate D2E/DX2                !
 ! A90   A(38,41,42)           109.0736         estimate D2E/DX2                !
 ! A91   A(38,41,43)            98.6659         estimate D2E/DX2                !
 ! A92   A(42,41,43)           101.8426         estimate D2E/DX2                !
 ! A93   A(35,43,41)           142.1087         estimate D2E/DX2                !
 ! A94   A(1,44,36)            152.295          estimate D2E/DX2                !
 ! A95   A(46,45,50)           115.0617         estimate D2E/DX2                !
 ! A96   A(46,45,82)           107.0786         estimate D2E/DX2                !
 ! A97   A(50,45,82)           115.9684         estimate D2E/DX2                !
 ! A98   A(45,46,47)           111.2706         estimate D2E/DX2                !
 ! A99   A(45,46,51)           108.0043         estimate D2E/DX2                !
 ! A100  A(45,46,58)           106.8408         estimate D2E/DX2                !
 ! A101  A(47,46,51)           111.5287         estimate D2E/DX2                !
 ! A102  A(47,46,58)           106.5775         estimate D2E/DX2                !
 ! A103  A(51,46,58)           112.5555         estimate D2E/DX2                !
 ! A104  A(46,47,48)           114.9189         estimate D2E/DX2                !
 ! A105  A(46,47,52)           105.5466         estimate D2E/DX2                !
 ! A106  A(46,47,57)           106.4738         estimate D2E/DX2                !
 ! A107  A(48,47,52)           107.5216         estimate D2E/DX2                !
 ! A108  A(48,47,57)           111.5514         estimate D2E/DX2                !
 ! A109  A(52,47,57)           110.6784         estimate D2E/DX2                !
 ! A110  A(47,48,49)           115.2994         estimate D2E/DX2                !
 ! A111  A(47,48,53)           108.2409         estimate D2E/DX2                !
 ! A112  A(47,48,56)           104.8859         estimate D2E/DX2                !
 ! A113  A(49,48,53)           107.541          estimate D2E/DX2                !
 ! A114  A(49,48,56)           111.1845         estimate D2E/DX2                !
 ! A115  A(53,48,56)           109.5804         estimate D2E/DX2                !
 ! A116  A(37,49,48)           107.4065         estimate D2E/DX2                !
 ! A117  A(37,49,50)           112.1688         estimate D2E/DX2                !
 ! A118  A(37,49,55)           109.922          estimate D2E/DX2                !
 ! A119  A(48,49,50)           110.8563         estimate D2E/DX2                !
 ! A120  A(48,49,55)           109.1877         estimate D2E/DX2                !
 ! A121  A(50,49,55)           107.282          estimate D2E/DX2                !
 ! A122  A(45,50,49)           106.4118         estimate D2E/DX2                !
 ! A123  A(45,50,54)           109.6912         estimate D2E/DX2                !
 ! A124  A(45,50,59)           107.0179         estimate D2E/DX2                !
 ! A125  A(49,50,54)           110.7238         estimate D2E/DX2                !
 ! A126  A(49,50,59)           114.5782         estimate D2E/DX2                !
 ! A127  A(54,50,59)           108.2805         estimate D2E/DX2                !
 ! A128  A(20,56,48)           107.0436         estimate D2E/DX2                !
 ! A129  A(20,56,64)           102.9522         estimate D2E/DX2                !
 ! A130  A(48,56,64)           108.5258         estimate D2E/DX2                !
 ! A131  A(47,57,65)           108.2707         estimate D2E/DX2                !
 ! A132  A(46,58,66)           116.3765         estimate D2E/DX2                !
 ! A133  A(50,59,60)           108.4382         estimate D2E/DX2                !
 ! A134  A(50,59,61)           108.7277         estimate D2E/DX2                !
 ! A135  A(50,59,62)           113.2575         estimate D2E/DX2                !
 ! A136  A(60,59,61)           108.7722         estimate D2E/DX2                !
 ! A137  A(60,59,62)           107.3742         estimate D2E/DX2                !
 ! A138  A(61,59,62)           110.167          estimate D2E/DX2                !
 ! A139  A(59,62,63)           104.142          estimate D2E/DX2                !
 ! A140  A(59,62,83)           123.0391         estimate D2E/DX2                !
 ! A141  A(63,62,83)           102.8282         estimate D2E/DX2                !
 ! A142  A(24,63,62)           152.5383         estimate D2E/DX2                !
 ! A143  A(58,66,67)           105.2399         estimate D2E/DX2                !
 ! A144  A(58,66,68)           109.46           estimate D2E/DX2                !
 ! A145  A(58,66,69)           112.8159         estimate D2E/DX2                !
 ! A146  A(67,66,68)           108.0664         estimate D2E/DX2                !
 ! A147  A(67,66,69)           110.4238         estimate D2E/DX2                !
 ! A148  A(68,66,69)           110.6058         estimate D2E/DX2                !
 ! A149  A(66,69,70)           109.6209         estimate D2E/DX2                !
 ! A150  A(66,69,71)           106.1191         estimate D2E/DX2                !
 ! A151  A(66,69,72)           115.8791         estimate D2E/DX2                !
 ! A152  A(70,69,71)           105.1794         estimate D2E/DX2                !
 ! A153  A(70,69,72)           111.8166         estimate D2E/DX2                !
 ! A154  A(71,69,72)           107.4887         estimate D2E/DX2                !
 ! A155  A(69,72,73)           108.4844         estimate D2E/DX2                !
 ! A156  A(69,72,74)           107.9927         estimate D2E/DX2                !
 ! A157  A(69,72,75)           118.9724         estimate D2E/DX2                !
 ! A158  A(73,72,74)           105.3583         estimate D2E/DX2                !
 ! A159  A(73,72,75)           107.533          estimate D2E/DX2                !
 ! A160  A(74,72,75)           107.7026         estimate D2E/DX2                !
 ! A161  A(72,75,76)           110.989          estimate D2E/DX2                !
 ! A162  A(72,75,77)           107.2834         estimate D2E/DX2                !
 ! A163  A(72,75,78)           115.4022         estimate D2E/DX2                !
 ! A164  A(76,75,77)           105.7526         estimate D2E/DX2                !
 ! A165  A(76,75,78)           109.7525         estimate D2E/DX2                !
 ! A166  A(77,75,78)           107.1089         estimate D2E/DX2                !
 ! A167  A(75,78,79)           111.3637         estimate D2E/DX2                !
 ! A168  A(75,78,80)           111.4519         estimate D2E/DX2                !
 ! A169  A(75,78,81)           112.7563         estimate D2E/DX2                !
 ! A170  A(79,78,80)           107.4501         estimate D2E/DX2                !
 ! A171  A(79,78,81)           107.1257         estimate D2E/DX2                !
 ! A172  A(80,78,81)           106.3764         estimate D2E/DX2                !
 ! A173  A(78,81,82)           112.985          estimate D2E/DX2                !
 ! A174  A(78,81,83)           113.1124         estimate D2E/DX2                !
 ! A175  A(78,81,84)           112.4466         estimate D2E/DX2                !
 ! A176  A(82,81,83)           103.0835         estimate D2E/DX2                !
 ! A177  A(82,81,84)           106.4355         estimate D2E/DX2                !
 ! A178  A(83,81,84)           108.1295         estimate D2E/DX2                !
 ! A179  A(45,82,81)           161.1889         estimate D2E/DX2                !
 ! A180  A(62,83,81)           132.271          estimate D2E/DX2                !
 ! A181  L(19,84,81,24,-1)     172.5166         estimate D2E/DX2                !
 ! A182  L(19,84,81,24,-2)     185.8151         estimate D2E/DX2                !
 ! D1    D(6,1,2,3)            -63.2025         estimate D2E/DX2                !
 ! D2    D(6,1,2,7)            178.3642         estimate D2E/DX2                !
 ! D3    D(6,1,2,15)            57.223          estimate D2E/DX2                !
 ! D4    D(44,1,2,3)           163.2325         estimate D2E/DX2                !
 ! D5    D(44,1,2,7)            44.7992         estimate D2E/DX2                !
 ! D6    D(44,1,2,15)          -76.342          estimate D2E/DX2                !
 ! D7    D(2,1,6,5)             62.6758         estimate D2E/DX2                !
 ! D8    D(2,1,6,11)           -54.9091         estimate D2E/DX2                !
 ! D9    D(2,1,6,16)          -172.1309         estimate D2E/DX2                !
 ! D10   D(44,1,6,5)           177.3172         estimate D2E/DX2                !
 ! D11   D(44,1,6,11)           59.7324         estimate D2E/DX2                !
 ! D12   D(44,1,6,16)          -57.4895         estimate D2E/DX2                !
 ! D13   D(2,1,44,36)           48.3647         estimate D2E/DX2                !
 ! D14   D(6,1,44,36)          -74.1671         estimate D2E/DX2                !
 ! D15   D(1,2,3,4)             58.575          estimate D2E/DX2                !
 ! D16   D(1,2,3,8)            -58.7117         estimate D2E/DX2                !
 ! D17   D(1,2,3,14)           178.7545         estimate D2E/DX2                !
 ! D18   D(7,2,3,4)            172.6938         estimate D2E/DX2                !
 ! D19   D(7,2,3,8)             55.4072         estimate D2E/DX2                !
 ! D20   D(7,2,3,14)           -67.1266         estimate D2E/DX2                !
 ! D21   D(15,2,3,4)           -63.3725         estimate D2E/DX2                !
 ! D22   D(15,2,3,8)           179.3409         estimate D2E/DX2                !
 ! D23   D(15,2,3,14)           56.8071         estimate D2E/DX2                !
 ! D24   D(1,2,15,27)           76.67           estimate D2E/DX2                !
 ! D25   D(3,2,15,27)         -163.7369         estimate D2E/DX2                !
 ! D26   D(7,2,15,27)          -40.1771         estimate D2E/DX2                !
 ! D27   D(2,3,4,5)            -54.5554         estimate D2E/DX2                !
 ! D28   D(2,3,4,9)             65.2136         estimate D2E/DX2                !
 ! D29   D(2,3,4,13)          -172.7656         estimate D2E/DX2                !
 ! D30   D(8,3,4,5)             61.4927         estimate D2E/DX2                !
 ! D31   D(8,3,4,9)           -178.7383         estimate D2E/DX2                !
 ! D32   D(8,3,4,13)           -56.7176         estimate D2E/DX2                !
 ! D33   D(14,3,4,5)          -178.2215         estimate D2E/DX2                !
 ! D34   D(14,3,4,9)           -58.4525         estimate D2E/DX2                !
 ! D35   D(14,3,4,13)           63.5682         estimate D2E/DX2                !
 ! D36   D(2,3,14,23)           87.9267         estimate D2E/DX2                !
 ! D37   D(4,3,14,23)         -150.0985         estimate D2E/DX2                !
 ! D38   D(8,3,14,23)          -31.7628         estimate D2E/DX2                !
 ! D39   D(3,4,5,6)             52.1264         estimate D2E/DX2                !
 ! D40   D(3,4,5,10)           168.8263         estimate D2E/DX2                !
 ! D41   D(3,4,5,12)           -69.4914         estimate D2E/DX2                !
 ! D42   D(9,4,5,6)            -67.376          estimate D2E/DX2                !
 ! D43   D(9,4,5,10)            49.3239         estimate D2E/DX2                !
 ! D44   D(9,4,5,12)           171.0062         estimate D2E/DX2                !
 ! D45   D(13,4,5,6)           173.1304         estimate D2E/DX2                !
 ! D46   D(13,4,5,10)          -70.1697         estimate D2E/DX2                !
 ! D47   D(13,4,5,12)           51.5126         estimate D2E/DX2                !
 ! D48   D(3,4,13,22)          -49.5739         estimate D2E/DX2                !
 ! D49   D(5,4,13,22)         -170.4422         estimate D2E/DX2                !
 ! D50   D(9,4,13,22)           71.1838         estimate D2E/DX2                !
 ! D51   D(4,5,6,1)            -55.0557         estimate D2E/DX2                !
 ! D52   D(4,5,6,11)            63.2161         estimate D2E/DX2                !
 ! D53   D(4,5,6,16)          -176.819          estimate D2E/DX2                !
 ! D54   D(10,5,6,1)          -171.7598         estimate D2E/DX2                !
 ! D55   D(10,5,6,11)          -53.4879         estimate D2E/DX2                !
 ! D56   D(10,5,6,16)           66.477          estimate D2E/DX2                !
 ! D57   D(12,5,6,1)            68.0309         estimate D2E/DX2                !
 ! D58   D(12,5,6,11)         -173.6972         estimate D2E/DX2                !
 ! D59   D(12,5,6,16)          -53.7324         estimate D2E/DX2                !
 ! D60   D(4,5,12,21)          -44.4498         estimate D2E/DX2                !
 ! D61   D(6,5,12,21)         -166.1644         estimate D2E/DX2                !
 ! D62   D(10,5,12,21)          75.4867         estimate D2E/DX2                !
 ! D63   D(1,6,16,17)         -160.74           estimate D2E/DX2                !
 ! D64   D(1,6,16,18)          -42.7327         estimate D2E/DX2                !
 ! D65   D(1,6,16,19)           81.0679         estimate D2E/DX2                !
 ! D66   D(5,6,16,17)          -37.4714         estimate D2E/DX2                !
 ! D67   D(5,6,16,18)           80.5359         estimate D2E/DX2                !
 ! D68   D(5,6,16,19)         -155.6635         estimate D2E/DX2                !
 ! D69   D(11,6,16,17)          81.9418         estimate D2E/DX2                !
 ! D70   D(11,6,16,18)        -160.0509         estimate D2E/DX2                !
 ! D71   D(11,6,16,19)         -36.2503         estimate D2E/DX2                !
 ! D72   D(2,15,27,26)         -54.3268         estimate D2E/DX2                !
 ! D73   D(2,15,27,28)        -174.2229         estimate D2E/DX2                !
 ! D74   D(2,15,27,32)          68.4372         estimate D2E/DX2                !
 ! D75   D(6,16,19,20)         -92.527          estimate D2E/DX2                !
 ! D76   D(6,16,19,84)          82.9314         estimate D2E/DX2                !
 ! D77   D(17,16,19,20)        148.1808         estimate D2E/DX2                !
 ! D78   D(17,16,19,84)        -36.3609         estimate D2E/DX2                !
 ! D79   D(18,16,19,20)         31.2733         estimate D2E/DX2                !
 ! D80   D(18,16,19,84)       -153.2684         estimate D2E/DX2                !
 ! D81   D(16,19,20,56)        160.4169         estimate D2E/DX2                !
 ! D82   D(84,19,20,56)        -15.4579         estimate D2E/DX2                !
 ! D83   D(16,19,81,78)         44.7324         estimate D2E/DX2                !
 ! D84   D(16,19,81,82)        169.0661         estimate D2E/DX2                !
 ! D85   D(16,19,81,83)        -83.4242         estimate D2E/DX2                !
 ! D86   D(20,19,81,78)       -142.221          estimate D2E/DX2                !
 ! D87   D(20,19,81,82)        -17.8873         estimate D2E/DX2                !
 ! D88   D(20,19,81,83)         89.6223         estimate D2E/DX2                !
 ! D89   D(19,20,56,48)         18.2943         estimate D2E/DX2                !
 ! D90   D(19,20,56,64)        -96.0054         estimate D2E/DX2                !
 ! D91   D(29,24,25,26)        -57.2902         estimate D2E/DX2                !
 ! D92   D(29,24,25,30)         63.6052         estimate D2E/DX2                !
 ! D93   D(29,24,25,37)        176.1792         estimate D2E/DX2                !
 ! D94   D(63,24,25,26)         69.4458         estimate D2E/DX2                !
 ! D95   D(63,24,25,30)       -169.6588         estimate D2E/DX2                !
 ! D96   D(63,24,25,37)        -57.0849         estimate D2E/DX2                !
 ! D97   D(25,24,29,28)         61.2503         estimate D2E/DX2                !
 ! D98   D(25,24,29,34)        -58.4152         estimate D2E/DX2                !
 ! D99   D(25,24,29,38)       -174.12           estimate D2E/DX2                !
 ! D100  D(63,24,29,28)        -65.7749         estimate D2E/DX2                !
 ! D101  D(63,24,29,34)        174.5596         estimate D2E/DX2                !
 ! D102  D(63,24,29,38)         58.8548         estimate D2E/DX2                !
 ! D103  D(25,24,63,62)         97.2832         estimate D2E/DX2                !
 ! D104  D(29,24,63,62)       -134.5647         estimate D2E/DX2                !
 ! D105  D(24,25,26,27)         52.5236         estimate D2E/DX2                !
 ! D106  D(24,25,26,31)        -64.6916         estimate D2E/DX2                !
 ! D107  D(24,25,26,36)        176.0649         estimate D2E/DX2                !
 ! D108  D(30,25,26,27)        -67.9377         estimate D2E/DX2                !
 ! D109  D(30,25,26,31)        174.8471         estimate D2E/DX2                !
 ! D110  D(30,25,26,36)         55.6035         estimate D2E/DX2                !
 ! D111  D(37,25,26,27)        175.4392         estimate D2E/DX2                !
 ! D112  D(37,25,26,31)         58.224          estimate D2E/DX2                !
 ! D113  D(37,25,26,36)        -61.0195         estimate D2E/DX2                !
 ! D114  D(24,25,37,49)         76.2353         estimate D2E/DX2                !
 ! D115  D(26,25,37,49)        -48.2553         estimate D2E/DX2                !
 ! D116  D(30,25,37,49)       -168.0159         estimate D2E/DX2                !
 ! D117  D(25,26,27,15)       -170.6653         estimate D2E/DX2                !
 ! D118  D(25,26,27,28)        -53.2626         estimate D2E/DX2                !
 ! D119  D(25,26,27,32)         66.4717         estimate D2E/DX2                !
 ! D120  D(31,26,27,15)        -51.7682         estimate D2E/DX2                !
 ! D121  D(31,26,27,28)         65.6345         estimate D2E/DX2                !
 ! D122  D(31,26,27,32)       -174.6313         estimate D2E/DX2                !
 ! D123  D(36,26,27,15)         70.1767         estimate D2E/DX2                !
 ! D124  D(36,26,27,28)       -172.4206         estimate D2E/DX2                !
 ! D125  D(36,26,27,32)        -52.6864         estimate D2E/DX2                !
 ! D126  D(25,26,36,44)        166.1101         estimate D2E/DX2                !
 ! D127  D(27,26,36,44)        -71.8322         estimate D2E/DX2                !
 ! D128  D(31,26,36,44)         47.7721         estimate D2E/DX2                !
 ! D129  D(15,27,28,29)       -179.1932         estimate D2E/DX2                !
 ! D130  D(15,27,28,33)        -60.2626         estimate D2E/DX2                !
 ! D131  D(15,27,28,35)         59.6648         estimate D2E/DX2                !
 ! D132  D(26,27,28,29)         56.9535         estimate D2E/DX2                !
 ! D133  D(26,27,28,33)        175.884          estimate D2E/DX2                !
 ! D134  D(26,27,28,35)        -64.1885         estimate D2E/DX2                !
 ! D135  D(32,27,28,29)        -62.2806         estimate D2E/DX2                !
 ! D136  D(32,27,28,33)         56.6499         estimate D2E/DX2                !
 ! D137  D(32,27,28,35)        176.5774         estimate D2E/DX2                !
 ! D138  D(27,28,29,24)        -60.2887         estimate D2E/DX2                !
 ! D139  D(27,28,29,34)         59.0579         estimate D2E/DX2                !
 ! D140  D(27,28,29,38)        179.1266         estimate D2E/DX2                !
 ! D141  D(33,28,29,24)       -178.4792         estimate D2E/DX2                !
 ! D142  D(33,28,29,34)        -59.1326         estimate D2E/DX2                !
 ! D143  D(33,28,29,38)         60.9361         estimate D2E/DX2                !
 ! D144  D(35,28,29,24)         58.6978         estimate D2E/DX2                !
 ! D145  D(35,28,29,34)        178.0444         estimate D2E/DX2                !
 ! D146  D(35,28,29,38)        -61.8869         estimate D2E/DX2                !
 ! D147  D(27,28,35,43)        170.389          estimate D2E/DX2                !
 ! D148  D(29,28,35,43)         50.5439         estimate D2E/DX2                !
 ! D149  D(33,28,35,43)        -71.4053         estimate D2E/DX2                !
 ! D150  D(24,29,38,39)         53.7079         estimate D2E/DX2                !
 ! D151  D(24,29,38,40)        170.9998         estimate D2E/DX2                !
 ! D152  D(24,29,38,41)        -71.1125         estimate D2E/DX2                !
 ! D153  D(28,29,38,39)        175.3814         estimate D2E/DX2                !
 ! D154  D(28,29,38,40)        -67.3266         estimate D2E/DX2                !
 ! D155  D(28,29,38,41)         50.561          estimate D2E/DX2                !
 ! D156  D(34,29,38,39)        -63.2246         estimate D2E/DX2                !
 ! D157  D(34,29,38,40)         54.0673         estimate D2E/DX2                !
 ! D158  D(34,29,38,41)        171.955          estimate D2E/DX2                !
 ! D159  D(28,35,43,41)        -41.3883         estimate D2E/DX2                !
 ! D160  D(26,36,44,1)          23.0513         estimate D2E/DX2                !
 ! D161  D(25,37,49,48)        124.9072         estimate D2E/DX2                !
 ! D162  D(25,37,49,50)       -113.0443         estimate D2E/DX2                !
 ! D163  D(25,37,49,55)          6.2228         estimate D2E/DX2                !
 ! D164  D(29,38,41,42)         80.1342         estimate D2E/DX2                !
 ! D165  D(29,38,41,43)        -25.67           estimate D2E/DX2                !
 ! D166  D(39,38,41,42)        -43.6704         estimate D2E/DX2                !
 ! D167  D(39,38,41,43)       -149.4746         estimate D2E/DX2                !
 ! D168  D(40,38,41,42)       -160.5835         estimate D2E/DX2                !
 ! D169  D(40,38,41,43)         93.6123         estimate D2E/DX2                !
 ! D170  D(38,41,43,35)         30.11           estimate D2E/DX2                !
 ! D171  D(42,41,43,35)        -81.5874         estimate D2E/DX2                !
 ! D172  D(50,45,46,47)        -57.3915         estimate D2E/DX2                !
 ! D173  D(50,45,46,51)         65.3324         estimate D2E/DX2                !
 ! D174  D(50,45,46,58)       -173.3504         estimate D2E/DX2                !
 ! D175  D(82,45,46,47)         73.1012         estimate D2E/DX2                !
 ! D176  D(82,45,46,51)       -164.175          estimate D2E/DX2                !
 ! D177  D(82,45,46,58)        -42.8577         estimate D2E/DX2                !
 ! D178  D(46,45,50,49)         68.2922         estimate D2E/DX2                !
 ! D179  D(46,45,50,54)        -51.5238         estimate D2E/DX2                !
 ! D180  D(46,45,50,59)       -168.7782         estimate D2E/DX2                !
 ! D181  D(82,45,50,49)        -57.7492         estimate D2E/DX2                !
 ! D182  D(82,45,50,54)       -177.5651         estimate D2E/DX2                !
 ! D183  D(82,45,50,59)         65.1804         estimate D2E/DX2                !
 ! D184  D(46,45,82,81)       -121.3304         estimate D2E/DX2                !
 ! D185  D(50,45,82,81)          8.6509         estimate D2E/DX2                !
 ! D186  D(45,46,47,48)         37.1604         estimate D2E/DX2                !
 ! D187  D(45,46,47,52)        -81.1225         estimate D2E/DX2                !
 ! D188  D(45,46,47,57)        161.2002         estimate D2E/DX2                !
 ! D189  D(51,46,47,48)        -83.5122         estimate D2E/DX2                !
 ! D190  D(51,46,47,52)        158.2049         estimate D2E/DX2                !
 ! D191  D(51,46,47,57)         40.5275         estimate D2E/DX2                !
 ! D192  D(58,46,47,48)        153.281          estimate D2E/DX2                !
 ! D193  D(58,46,47,52)         34.9981         estimate D2E/DX2                !
 ! D194  D(58,46,47,57)        -82.6792         estimate D2E/DX2                !
 ! D195  D(45,46,58,66)        -69.4017         estimate D2E/DX2                !
 ! D196  D(47,46,58,66)        171.5482         estimate D2E/DX2                !
 ! D197  D(51,46,58,66)         48.9844         estimate D2E/DX2                !
 ! D198  D(46,47,48,49)        -33.3473         estimate D2E/DX2                !
 ! D199  D(46,47,48,53)         87.1027         estimate D2E/DX2                !
 ! D200  D(46,47,48,56)       -155.979          estimate D2E/DX2                !
 ! D201  D(52,47,48,49)         83.82           estimate D2E/DX2                !
 ! D202  D(52,47,48,53)       -155.73           estimate D2E/DX2                !
 ! D203  D(52,47,48,56)        -38.8117         estimate D2E/DX2                !
 ! D204  D(57,47,48,49)       -154.6579         estimate D2E/DX2                !
 ! D205  D(57,47,48,53)        -34.2079         estimate D2E/DX2                !
 ! D206  D(57,47,48,56)         82.7104         estimate D2E/DX2                !
 ! D207  D(46,47,57,65)        165.6884         estimate D2E/DX2                !
 ! D208  D(48,47,57,65)        -68.2121         estimate D2E/DX2                !
 ! D209  D(52,47,57,65)         51.4612         estimate D2E/DX2                !
 ! D210  D(47,48,49,37)        166.9881         estimate D2E/DX2                !
 ! D211  D(47,48,49,50)         44.1262         estimate D2E/DX2                !
 ! D212  D(47,48,49,55)        -73.8554         estimate D2E/DX2                !
 ! D213  D(53,48,49,37)         46.1568         estimate D2E/DX2                !
 ! D214  D(53,48,49,50)        -76.7052         estimate D2E/DX2                !
 ! D215  D(53,48,49,55)        165.3132         estimate D2E/DX2                !
 ! D216  D(56,48,49,37)        -73.8068         estimate D2E/DX2                !
 ! D217  D(56,48,49,50)        163.3313         estimate D2E/DX2                !
 ! D218  D(56,48,49,55)         45.3497         estimate D2E/DX2                !
 ! D219  D(47,48,56,20)         63.9842         estimate D2E/DX2                !
 ! D220  D(47,48,56,64)        174.4699         estimate D2E/DX2                !
 ! D221  D(49,48,56,20)        -61.2736         estimate D2E/DX2                !
 ! D222  D(49,48,56,64)         49.2121         estimate D2E/DX2                !
 ! D223  D(53,48,56,20)        179.9804         estimate D2E/DX2                !
 ! D224  D(53,48,56,64)        -69.5339         estimate D2E/DX2                !
 ! D225  D(37,49,50,45)       -178.8215         estimate D2E/DX2                !
 ! D226  D(37,49,50,54)        -59.6779         estimate D2E/DX2                !
 ! D227  D(37,49,50,59)         63.1302         estimate D2E/DX2                !
 ! D228  D(48,49,50,45)        -58.7609         estimate D2E/DX2                !
 ! D229  D(48,49,50,54)         60.3827         estimate D2E/DX2                !
 ! D230  D(48,49,50,59)       -176.8092         estimate D2E/DX2                !
 ! D231  D(55,49,50,45)         60.3743         estimate D2E/DX2                !
 ! D232  D(55,49,50,54)        179.5179         estimate D2E/DX2                !
 ! D233  D(55,49,50,59)        -57.674          estimate D2E/DX2                !
 ! D234  D(45,50,59,60)         48.2941         estimate D2E/DX2                !
 ! D235  D(45,50,59,61)        166.4071         estimate D2E/DX2                !
 ! D236  D(45,50,59,62)        -70.7773         estimate D2E/DX2                !
 ! D237  D(49,50,59,60)        165.9983         estimate D2E/DX2                !
 ! D238  D(49,50,59,61)        -75.8887         estimate D2E/DX2                !
 ! D239  D(49,50,59,62)         46.9269         estimate D2E/DX2                !
 ! D240  D(54,50,59,60)        -69.8842         estimate D2E/DX2                !
 ! D241  D(54,50,59,61)         48.2288         estimate D2E/DX2                !
 ! D242  D(54,50,59,62)        171.0444         estimate D2E/DX2                !
 ! D243  D(46,58,66,67)       -137.5257         estimate D2E/DX2                !
 ! D244  D(46,58,66,68)        -21.603          estimate D2E/DX2                !
 ! D245  D(46,58,66,69)        102.0104         estimate D2E/DX2                !
 ! D246  D(50,59,62,63)        -79.6919         estimate D2E/DX2                !
 ! D247  D(50,59,62,83)         36.2209         estimate D2E/DX2                !
 ! D248  D(60,59,62,63)        160.6259         estimate D2E/DX2                !
 ! D249  D(60,59,62,83)        -83.4612         estimate D2E/DX2                !
 ! D250  D(61,59,62,63)         42.3232         estimate D2E/DX2                !
 ! D251  D(61,59,62,83)        158.2361         estimate D2E/DX2                !
 ! D252  D(59,62,63,24)        -19.8205         estimate D2E/DX2                !
 ! D253  D(83,62,63,24)       -149.1677         estimate D2E/DX2                !
 ! D254  D(59,62,83,81)         -5.4368         estimate D2E/DX2                !
 ! D255  D(63,62,83,81)        111.1154         estimate D2E/DX2                !
 ! D256  D(58,66,69,70)        -64.2046         estimate D2E/DX2                !
 ! D257  D(58,66,69,71)       -177.3075         estimate D2E/DX2                !
 ! D258  D(58,66,69,72)         63.4911         estimate D2E/DX2                !
 ! D259  D(67,66,69,70)        178.3466         estimate D2E/DX2                !
 ! D260  D(67,66,69,71)         65.2437         estimate D2E/DX2                !
 ! D261  D(67,66,69,72)        -53.9577         estimate D2E/DX2                !
 ! D262  D(68,66,69,70)         58.7726         estimate D2E/DX2                !
 ! D263  D(68,66,69,71)        -54.3303         estimate D2E/DX2                !
 ! D264  D(68,66,69,72)       -173.5317         estimate D2E/DX2                !
 ! D265  D(66,69,72,73)         49.5709         estimate D2E/DX2                !
 ! D266  D(66,69,72,74)        163.2862         estimate D2E/DX2                !
 ! D267  D(66,69,72,75)        -73.6707         estimate D2E/DX2                !
 ! D268  D(70,69,72,73)        176.1702         estimate D2E/DX2                !
 ! D269  D(70,69,72,74)        -70.1145         estimate D2E/DX2                !
 ! D270  D(70,69,72,75)         52.9286         estimate D2E/DX2                !
 ! D271  D(71,69,72,73)        -68.8789         estimate D2E/DX2                !
 ! D272  D(71,69,72,74)         44.8364         estimate D2E/DX2                !
 ! D273  D(71,69,72,75)        167.8794         estimate D2E/DX2                !
 ! D274  D(69,72,75,76)         61.2653         estimate D2E/DX2                !
 ! D275  D(69,72,75,77)        176.3462         estimate D2E/DX2                !
 ! D276  D(69,72,75,78)        -64.3897         estimate D2E/DX2                !
 ! D277  D(73,72,75,76)        -62.444          estimate D2E/DX2                !
 ! D278  D(73,72,75,77)         52.6369         estimate D2E/DX2                !
 ! D279  D(73,72,75,78)        171.9009         estimate D2E/DX2                !
 ! D280  D(74,72,75,76)       -175.5484         estimate D2E/DX2                !
 ! D281  D(74,72,75,77)        -60.4675         estimate D2E/DX2                !
 ! D282  D(74,72,75,78)         58.7966         estimate D2E/DX2                !
 ! D283  D(72,75,78,79)        -21.9528         estimate D2E/DX2                !
 ! D284  D(72,75,78,80)       -141.9312         estimate D2E/DX2                !
 ! D285  D(72,75,78,81)         98.5093         estimate D2E/DX2                !
 ! D286  D(76,75,78,79)       -148.2405         estimate D2E/DX2                !
 ! D287  D(76,75,78,80)         91.7812         estimate D2E/DX2                !
 ! D288  D(76,75,78,81)        -27.7784         estimate D2E/DX2                !
 ! D289  D(77,75,78,79)         97.4075         estimate D2E/DX2                !
 ! D290  D(77,75,78,80)        -22.5709         estimate D2E/DX2                !
 ! D291  D(77,75,78,81)       -142.1305         estimate D2E/DX2                !
 ! D292  D(75,78,81,82)        -44.9073         estimate D2E/DX2                !
 ! D293  D(75,78,81,83)       -161.5473         estimate D2E/DX2                !
 ! D294  D(75,78,81,84)         75.6075         estimate D2E/DX2                !
 ! D295  D(79,78,81,82)         77.9546         estimate D2E/DX2                !
 ! D296  D(79,78,81,83)        -38.6853         estimate D2E/DX2                !
 ! D297  D(79,78,81,84)       -161.5306         estimate D2E/DX2                !
 ! D298  D(80,78,81,82)       -167.3618         estimate D2E/DX2                !
 ! D299  D(80,78,81,83)         75.9982         estimate D2E/DX2                !
 ! D300  D(80,78,81,84)        -46.847          estimate D2E/DX2                !
 ! D301  D(78,81,82,45)       -167.2231         estimate D2E/DX2                !
 ! D302  D(83,81,82,45)        -44.789          estimate D2E/DX2                !
 ! D303  D(84,81,82,45)         68.8909         estimate D2E/DX2                !
 ! D304  D(78,81,83,62)        133.801          estimate D2E/DX2                !
 ! D305  D(82,81,83,62)         11.4523         estimate D2E/DX2                !
 ! D306  D(84,81,83,62)       -100.9894         estimate D2E/DX2                !
 --------------------------------------------------------------------------------
 Trust Radius=3.00D-01 FncErr=1.00D-07 GrdErr=1.00D-06
 Number of steps in this run=    504 maximum allowed number of steps=    504.
 GradGradGradGradGradGradGradGradGradGradGradGradGradGradGradGradGradGrad

 Leave Link  103 at Wed Apr  6 15:55:05 2016, MaxMem= 10737418240 cpu:         1.1
 (Enter /share/apps//g09/l202.exe)
 Stoichiometry    C23H44NO16(1+)
 Framework group  C1[X(C23H44NO16)]
 Deg. of freedom   246
 Full point group                 C1      NOp   1
 Largest Abelian subgroup         C1      NOp   1
 Largest concise Abelian subgroup C1      NOp   1
                         Standard orientation:                         
 ---------------------------------------------------------------------
 Center     Atomic      Atomic             Coordinates (Angstroms)
 Number     Number       Type             X           Y           Z
 ---------------------------------------------------------------------
      1          8           0        2.789151   -1.307173    1.140725
      2          6           0        3.872346   -0.382929    0.874703
      3          6           0        5.044505   -1.183311    0.279804
      4          6           0        4.607457   -1.896954   -1.002045
      5          6           0        3.367033   -2.768844   -0.748898
      6          6           0        2.280022   -1.931481   -0.077506
      7          1           0        4.133823    0.030290    1.865009
      8          1           0        5.309715   -1.947898    1.029040
      9          1           0        4.362340   -1.134073   -1.763827
     10          1           0        2.978180   -3.093434   -1.736243
     11          1           0        1.992398   -1.134511   -0.786161
     12          8           0        3.667257   -3.894703    0.064852
     13          8           0        5.627744   -2.773669   -1.475541
     14          8           0        6.169356   -0.368297   -0.052171
     15          8           0        3.491236    0.622480   -0.024400
     16          6           0        1.030345   -2.722574    0.288130
     17          1           0        0.833204   -3.460177   -0.502918
     18          1           0        1.184677   -3.273270    1.226553
     19          8           0       -0.140398   -1.882310    0.381941
     20          1           0       -0.273752   -1.568685    1.317108
     21          1           0        4.502084   -4.263405   -0.284270
     22          1           0        6.456833   -2.260484   -1.491544
     23          1           0        6.743167   -0.288247    0.728465
     24          8           0        0.241930    3.255843    0.192910
     25          6           0        0.448760    2.497311    1.401311
     26          6           0        1.358545    1.279021    1.143164
     27          6           0        2.671287    1.703800    0.446899
     28          6           0        2.334791    2.513359   -0.810825
     29          6           0        1.467408    3.720940   -0.419839
     30          1           0        0.911714    3.152640    2.160922
     31          1           0        0.850127    0.584472    0.455682
     32          1           0        3.261829    2.327819    1.145435
     33          1           0        3.282850    2.871511   -1.253965
     34          1           0        2.017244    4.350415    0.307897
     35          8           0        1.643783    1.647677   -1.717174
     36          8           0        1.565018    0.665014    2.419994
     37          8           0       -0.809811    2.182322    1.941311
     38          6           0        1.080673    4.624414   -1.593952
     39          1           0        0.396638    5.408948   -1.233922
     40          1           0        1.990368    5.114306   -1.969251
     41          8           0        0.516474    3.925654   -2.716621
     42          1           0       -0.425819    3.736654   -2.534758
     43          1           0        1.311859    2.239027   -2.430589
     44          1           0        1.948118   -0.223520    2.195616
     45          8           0       -3.564938    0.516255    0.135650
     46          6           0       -4.112477   -0.395172    1.133985
     47          6           0       -3.017886   -0.913810    2.073112
     48          6           0       -1.933096    0.117693    2.437825
     49          6           0       -1.592641    1.128826    1.335256
     50          6           0       -2.870469    1.664819    0.670905
     51          1           0       -4.905077    0.143168    1.691267
     52          1           0       -2.523398   -1.737514    1.525570
     53          1           0       -2.280675    0.688770    3.317645
     54          1           0       -3.512391    2.176228    1.412681
     55          1           0       -1.004412    0.627179    0.554259
     56          8           0       -0.781795   -0.667753    2.796726
     57          8           0       -3.679252   -1.406180    3.229234
     58          8           0       -4.598597   -1.494642    0.449180
     59          6           0       -2.627023    2.623582   -0.494521
     60          1           0       -3.568417    2.744379   -1.047482
     61          1           0       -2.325847    3.601361   -0.090466
     62          8           0       -1.639374    2.146195   -1.426430
     63          1           0       -0.775199    2.355990   -0.991596
     64          1           0       -0.017722   -0.053157    2.956554
     65          1           0       -3.046025   -1.942745    3.737786
     66          6           0       -5.779120   -1.276327   -0.365586
     67          1           0       -6.422577   -2.150564   -0.182801
     68          1           0       -6.311009   -0.379919   -0.008408
     69          6           0       -5.457232   -1.153167   -1.853873
     70          1           0       -4.837541   -0.257746   -2.025731
     71          1           0       -6.414998   -0.942481   -2.357795
     72          6           0       -4.851285   -2.404142   -2.516174
     73          1           0       -5.473811   -3.274940   -2.253360
     74          1           0       -4.950737   -2.293123   -3.608703
     75          6           0       -3.384386   -2.773353   -2.213818
     76          1           0       -3.241683   -2.975104   -1.141413
     77          1           0       -3.174063   -3.723227   -2.726937
     78          6           0       -2.336556   -1.757983   -2.695077
     79          1           0       -2.732277   -1.126760   -3.502993
     80          1           0       -1.438733   -2.259032   -3.078663
     81          7           0       -1.872895   -0.836656   -1.599687
     82          1           0       -2.663484   -0.460966   -1.017065
     83          1           0       -1.416871    0.020362   -1.955993
     84          1           0       -1.208677   -1.307951   -0.932180
 ---------------------------------------------------------------------
 Rotational constants (GHZ):      0.1211174      0.0667126      0.0570137
 Leave Link  202 at Wed Apr  6 15:55:07 2016, MaxMem= 10737418240 cpu:         4.5
 (Enter /share/apps//g09/l301.exe)
 Standard basis: 6-311+G(d,p) (5D, 7F)
 Ernie: Thresh=  0.10000D-02 Tol=  0.10000D-05 Strict=F.
 There are  1184 symmetry adapted cartesian basis functions of A   symmetry.
 There are  1144 symmetry adapted basis functions of A   symmetry.
  1144 basis functions,  1792 primitive gaussians,  1184 cartesian basis functions
   158 alpha electrons      158 beta electrons
       nuclear repulsion energy      5936.2757917796 Hartrees.
 IExCor= 1009 DFT=T Ex+Corr=PBE1PBE ExCW=0 ScaHFX=  0.250000
 ScaDFX=  0.750000  0.750000  1.000000  1.000000 ScalE2=  1.000000  1.000000
 IRadAn=      0 IRanWt=     -1 IRanGd=            0 ICorTp=0 IEmpDi=131
 NAtoms=   84 NActive=   84 NUniq=   84 SFac= 1.00D+00 NAtFMM=   60 NAOKFM=T Big=T
 Integral buffers will be    131072 words long.
 Raffenetti 2 integral format.
 Two-electron integral symmetry is turned on.
 R6Disp:  Grimme-D3 Dispersion energy=       -0.0876314283 Hartrees.
 Nuclear repulsion after empirical dispersion term =     5936.1881603513 Hartrees.
 Leave Link  301 at Wed Apr  6 15:55:08 2016, MaxMem= 10737418240 cpu:         2.7
 (Enter /share/apps//g09/l302.exe)
 NPDir=0 NMtPBC=     1 NCelOv=     1 NCel=       1 NClECP=     1 NCelD=      1
         NCelK=      1 NCelE2=     1 NClLst=     1 CellRange=     0.0.
 One-electron integrals computed using PRISM.
 NBasis=  1144 RedAO= T EigKep=  1.01D-06  NBF=  1144
 NBsUse=  1144 1.00D-06 EigRej= -1.00D+00 NBFU=  1144
 Precomputing XC quadrature grid using
 IXCGrd= 4 IRadAn=           0 IRanWt=          -1 IRanGd=           0 AccXCQ= 0.00D+00.
 Generated NRdTot=       0 NPtTot=           0 NUsed=           0 NTot=          32
 NSgBfM=  1054  1058  1067  1068  1076 MxSgAt=    84 MxSgA2=    84.
 Leave Link  302 at Wed Apr  6 15:55:14 2016, MaxMem= 10737418240 cpu:        74.9
 (Enter /share/apps//g09/l303.exe)
 DipDrv:  MaxL=1.
 Leave Link  303 at Wed Apr  6 15:55:17 2016, MaxMem= 10737418240 cpu:        25.9
 (Enter /share/apps//g09/l401.exe)
 ExpMin= 4.38D-02 ExpMax= 8.59D+03 ExpMxC= 1.30D+03 IAcc=2 IRadAn=         4 AccDes= 0.00D+00
 Harris functional with IExCor= 1009 and IRadAn=       4 diagonalized for initial guess.
 HarFok:  IExCor= 1009 AccDes= 0.00D+00 IRadAn=         4 IDoV= 1 UseB2=F ITyADJ=14
 ICtDFT=  3500011 ScaDFX=  1.000000  1.000000  1.000000  1.000000
 FoFCou: FMM=F IPFlag=           0 FMFlag=      100000 FMFlg1=        2001
         NFxFlg=           0 DoJE=T BraDBF=F KetDBF=T FulRan=T
         wScrn=  0.000000 ICntrl=     500 IOpCl=  0 I1Cent=   200000004 NGrid=           0
         NMat0=    1 NMatS0=      1 NMatT0=    0 NMatD0=    1 NMtDS0=    0 NMtDT0=    0
 Petite list used in FoFCou.
 Harris En= -2159.70689195501    
 JPrj=0 DoOrth=F DoCkMO=F.
 Leave Link  401 at Wed Apr  6 15:55:23 2016, MaxMem= 10737418240 cpu:       118.3
 (Enter /share/apps//g09/l502.exe)
 Closed shell SCF:
 Using DIIS extrapolation, IDIIS=  1040.
 Integral symmetry usage will be decided dynamically.
 IVT=     4256630 IEndB=     4256630 NGot= 10737418240 MDV= 10734581291
 LenX= 10734581291 LenY= 10733178251
 Requested convergence on RMS density matrix=1.00D-08 within 128 cycles.
 Requested convergence on MAX density matrix=1.00D-06.
 Requested convergence on             energy=1.00D-06.
 No special actions if energy rises.
 Fock matrices will be formed incrementally for  20 cycles.

 Cycle   1  Pass 1  IDiag  1:
 FoFJK:  IHMeth= 1 ICntrl=       0 DoSepK=F KAlg= 0 I1Cent=   0 FoldK=F
 IRaf= 790000000 NMat=   1 IRICut=       1 DoRegI=T DoRafI=F ISym2E= 0.
 FoFCou: FMM=T IPFlag=           0 FMFlag=      100000 FMFlg1=        2001
         NFxFlg=           0 DoJE=F BraDBF=F KetDBF=F FulRan=T
         wScrn=  0.000000 ICntrl=       0 IOpCl=  0 I1Cent=           0 NGrid=           0
         NMat0=    1 NMatS0=      1 NMatT0=    0 NMatD0=    1 NMtDS0=    0 NMtDT0=    0
 Symmetry not used in FoFCou.
 FMM levels:  10  Number of levels for PrismC:   9
 E= -2158.69157964548    
 DIIS: error= 1.32D-02 at cycle   1 NSaved=   1.
 NSaved= 1 IEnMin= 1 EnMin= -2158.69157964548     IErMin= 1 ErrMin= 1.32D-02
 ErrMax= 1.32D-02  0.00D+00 EMaxC= 1.00D-01 BMatC= 1.02D+00 BMatP= 1.02D+00
 IDIUse=3 WtCom= 8.68D-01 WtEn= 1.32D-01
 Coeff-Com:  0.100D+01
 Coeff-En:   0.100D+01
 Coeff:      0.100D+01
 Gap=     0.291 Goal=   None    Shift=    0.000
 GapD=    0.291 DampG=1.000 DampE=0.500 DampFc=0.5000 IDamp=-1.
 Damping current iteration by 5.00D-01
 RMSDP=1.64D-02 MaxDP=4.67D+00              OVMax= 1.45D-01

 Cycle   2  Pass 1  IDiag  1:
 RMSU=  7.63D-03    CP:  1.05D+00
 E= -2158.97196470225     Delta-E=       -0.280385056772 Rises=F Damp=T
 DIIS: error= 3.24D-03 at cycle   2 NSaved=   2.
 NSaved= 2 IEnMin= 2 EnMin= -2158.97196470225     IErMin= 2 ErrMin= 3.24D-03
 ErrMax= 3.24D-03  0.00D+00 EMaxC= 1.00D-01 BMatC= 8.16D-02 BMatP= 1.02D+00
 IDIUse=3 WtCom= 9.68D-01 WtEn= 3.24D-02
 Coeff-Com:  0.609D-01 0.939D+00
 Coeff-En:   0.159D+00 0.841D+00
 Coeff:      0.641D-01 0.936D+00
 Gap=     0.292 Goal=   None    Shift=    0.000
 RMSDP=7.72D-03 MaxDP=3.32D+00 DE=-2.80D-01 OVMax= 8.20D-02

 Cycle   3  Pass 1  IDiag  1:
 RMSU=  3.48D-03    CP:  9.41D-01  8.00D-01
 E= -2159.33947176262     Delta-E=       -0.367507060365 Rises=F Damp=F
 DIIS: error= 2.85D-03 at cycle   3 NSaved=   3.
 NSaved= 3 IEnMin= 3 EnMin= -2159.33947176262     IErMin= 3 ErrMin= 2.85D-03
 ErrMax= 2.85D-03  0.00D+00 EMaxC= 1.00D-01 BMatC= 4.55D-02 BMatP= 8.16D-02
 IDIUse=3 WtCom= 9.72D-01 WtEn= 2.85D-02
 Coeff-Com: -0.667D-01 0.410D+00 0.656D+00
 Coeff-En:   0.000D+00 0.000D+00 0.100D+01
 Coeff:     -0.648D-01 0.399D+00 0.666D+00
 Gap=     0.279 Goal=   None    Shift=    0.000
 RMSDP=1.76D-03 MaxDP=7.53D-01 DE=-3.68D-01 OVMax= 1.68D-02

 Cycle   4  Pass 1  IDiag  1:
 RMSU=  1.30D-03    CP:  9.55D-01  8.85D-01  8.77D-01
 E= -2159.36803706520     Delta-E=       -0.028565302589 Rises=F Damp=F
 DIIS: error= 9.77D-04 at cycle   4 NSaved=   4.
[...]
 3372,-0.00000817,0.00002951,0.00004307,-0.00000920,0.00002189,0.000047
 85,-0.00046585,0.00005164,0.00046944,-0.00014450,-0.00010660,-0.000153
 96,-0.00021876,-0.00041844,-0.00048828,0.00022119,-0.00023898,-0.00039
 557,-0.00004431,0.00003885,0.00003134,-0.00002059,0.00001540,0.0000621
 4,-0.00005967,0.00025257,0.00059233,-0.00021789,-0.00028888,-0.0003357
 1,0.00006625,0.00003344,-0.00061652,-0.00000282,0.00007330,0.00008709,
 -0.00003044,-0.00128153,-0.00014809,-0.00013720,0.00006474,0.00001611,
 -0.00007863,0.00005018,-0.00000608,-0.00000319,-0.00012219,0.00004982,
 -0.00013123,0.00106113,-0.00017719,0.00050410,0.00089490,0.00049237,0.
 00006829,-0.00005920,0.00004721,0.00001119,-0.00001476,-0.00001225,0.0
 0007698,-0.00003093,0.00001501,-0.00020516,-0.00014671,-0.00009514,-0.
 00018283,0.00004444,0.00054255,-0.00001704,-0.00021702,-0.00006734,0.0
 0005623,-0.00005887,-0.00000775,0.00004077,-0.00026515,-0.00000613,0.0
 0125815,-0.00112917,0.00240381,-0.00004922,0.00002402,-0.00010433,-0.0
 0029984,0.00066643,-0.00027244,-0.00401564,0.00141680,-0.00175674,0.00
 081973,0.00043834,-0.00097233,0.00001175,0.00002622,0.00010616,-0.0000
 2145,0.00002525,0.00000716,-0.00002377,0.00005654,-0.00017201,-0.00002
 206,0.00002451,0.00000204,0.00001737,-0.00005000,-0.00000282,-0.000013
 08,0.00011718,0.00021142,0.00005651,0.00002161,-0.00012302,0.00000026,
 -0.00006652,0.00006330,0.00036570,0.00004571,-0.00010294,-0.00004947,-
 0.00015568,0.00014161,-0.00003063,0.00002178,-0.00001283,-0.00114952,0
 .00292185,0.00156254,0.00007505,-0.00013064,-0.00020107,0.00064987,0.0
 0009483,0.00079094,0.01322988,-0.00150076,0.00784540,0.00050397,0.0002
 5003,0.00107138,-0.00011639,0.00013238,-0.00012868,-0.26556336,-0.0413
 1497,-0.16089596,-0.00684360,0.00030248,-0.00488361,0.28073257,0.00009
 707,-0.00035580,-0.00048475,0.00036123,0.00015855,0.00023250,-0.000022
 96,0.00004995,0.00004234,0.00001375,-0.00001280,0.00007896,-0.00009597
 ,-0.00006378,0.00009866,-0.00037626,0.00020137,0.00032187,-0.00001871,
 -0.00001113,-0.00004665,-0.00000025,-0.00001685,0.00000551,0.00001301,
 0.00001517,0.00002338,0.00002647,-0.00008510,-0.00003802,0.00010961,0.
 00006542,0.00015367,0.00012605,0.00006468,-0.00012877,0.00001511,0.000
 00540,-0.00010318,-0.00002013,-0.00005279,-0.00009885,-0.00031243,-0.0
 0042574,0.00001420,-0.00010826,-0.00014165,0.00013261,-0.00006550,-0.0
 0009843,-0.00004831,0.00004042,0.00002283,-0.00003908,0.00074988,-0.00
 046440,-0.00044931,-0.00000141,0.00068474,0.00010302,-0.00000852,-0.00
 000442,0.00004332,-0.00000854,0.00001185,0.00002523,0.00000211,0.00001
 597,0.00000782,-0.00042199,0.00017401,0.00129888,0.00072461,0.00018246
 ,-0.00041119,0.00013571,-0.00000145,0.00002138,0.00006676,0.00035515,-
 0.00011104,-0.00010141,0.00020327,0.00014545,-0.00038668,0.00030669,-0
 .00056582,-0.00010074,-0.00000876,0.00007530,0.00004372,0.00017639,-0.
 00000255,0.00002446,-0.00003843,-0.00001556,0.00000261,-0.00005627,-0.
 00001582,0.00001999,-0.00005360,0.00014396,0.00005512,-0.00087798,-0.0
 0009224,-0.00025380,-0.00028645,0.00008537,-0.00029081,-0.00004721,0.0
 0023740,0.00011195,-0.00017937,-0.00023327,-0.00006408,-0.00002250,-0.
 00001634,0.00001228,0.00000800,0.00006744,0.00024787,-0.00017687,0.000
 57215,-0.00072118,0.00007540,-0.00057758,0.00010099,0.00058871,-0.0000
 3500,0.00001775,0.00028471,0.00003379,-0.00194128,-0.00204588,-0.00172
 948,0.00065526,0.00127656,0.00090999,0.00000056,0.00053068,0.00005435,
 0.00041960,0.00034666,0.00005987,0.00003500,-0.00040238,-0.00036210,0.
 00074494,-0.00003419,0.00078300,-0.00015466,-0.00011177,-0.00003551,-0
 .00013629,-0.00017768,0.00000563,-0.00010225,-0.00006272,-0.00004290,-
 0.00027403,-0.00004789,-0.00026783,0.00056478,0.00026210,-0.00028803,-
 0.00032113,-0.00048082,0.00010368,-0.00010664,-0.00026173,-0.00009324,
 0.00025198,-0.00092340,-0.00009767,0.00195995,-0.00356149,0.00286758,-
 0.00013665,0.00025357,-0.00021438,-0.00041920,0.00114729,-0.00030091,0
 .00072020,0.00495033,0.00048458,-0.00014698,0.00010762,-0.00286845,0.0
 0009916,0.00004720,-0.00003281,0.00000132,0.00007404,0.00004285,0.0000
 3791,0.00010071,-0.00018446,-0.00001258,0.00000081,-0.00000463,0.00000
 578,-0.00007787,0.00003934,0.00000304,0.00000729,0.00009133,0.00005409
 ,0.00011705,0.00006770,0.00001842,-0.00002762,0.00004955,-0.00012547,-
 0.00012101,-0.00035434,0.00006395,-0.00000996,0.00001083,-0.00000832,-
 0.00002575,-0.00005233,0.00142582,-0.00267565,-0.00150292,0.00016133,-
 0.00000416,0.00024381,-0.00048902,0.00018547,-0.00065848,-0.01775023,-
 0.00292385,-0.01346658,0.00001365,0.00169122,0.00044580,-0.00062466,-0
 .00081596,0.00015527,-0.04354150,-0.06387084,-0.03648376,0.02717363,0.
 01008190,0.02051214,0.04006001,0.05971368,-0.00023644,-0.00013174,-0.0
 0017301,0.00040306,0.00016062,0.00004683,-0.00001921,0.00002996,-0.000
 04087,0.00007212,0.00010228,-0.00000034,-0.00001635,0.00005553,-0.0000
 4605,0.00037613,0.00018343,0.00011926,-0.00003495,0.00000187,-0.000011
 69,-0.00000745,-0.00001514,0.00001656,-0.00002425,0.00001670,-0.000010
 88,0.00000839,-0.00001257,0.00000650,-0.00000468,0.00005054,-0.0000691
 0,-0.00009061,-0.00008938,-0.00004079,-0.00003525,-0.00009157,-0.00000
 716,-0.00001721,-0.00005456,0.00001510,-0.00034205,-0.00023534,0.00008
 836,0.00005866,-0.00051794,0.00020604,-0.00002918,-0.00002557,0.000052
 21,-0.00000689,0.00008601,-0.00006575,0.00083481,0.00016943,-0.0020094
 0,0.00002640,0.00030933,-0.00002018,-0.00000156,0.00001428,0.00002157,
 0.00000219,0.00002544,-0.00000708,0.00000902,0.00001974,-0.00001893,-0
 .00029700,0.00028073,0.00020501,0.00057914,-0.00029688,0.00013014,0.00
 026881,-0.00018605,-0.00024026,0.00013397,0.00022832,-0.00007414,0.000
 47101,-0.00061265,-0.00065122,-0.00012753,-0.00005105,0.00002979,-0.00
 003897,0.00003465,0.00000077,0.00030074,0.00003041,-0.00004294,-0.0000
 5092,-0.00002619,0.00004050,-0.00001552,0.00013441,0.00024266,0.000001
 57,0.00008359,0.00003105,-0.00026895,0.00041430,0.00155806,-0.00046404
 ,0.00003298,0.00003221,-0.00024341,0.00010996,-0.00041194,0.00001213,-
 0.00016417,-0.00020216,-0.00001329,0.00003725,0.00000270,-0.00001560,-
 0.00000283,0.00002879,0.00029241,0.00026595,0.00022697,-0.00030572,-0.
 00011984,-0.00005598,-0.00047998,-0.00004539,-0.00046665,0.00006969,0.
 00010627,0.00004970,0.00048286,-0.00133799,-0.00024532,-0.00021693,0.0
 0004420,-0.00002743,-0.00006442,0.00035030,0.00013490,0.00012193,0.000
 19873,0.00015926,0.00001544,-0.00034753,0.00014349,0.00027373,0.000768
 92,0.00097321,0.00008638,-0.00005937,0.00006146,-0.00012292,-0.0000995
 7,-0.00001254,-0.00006979,-0.00002520,-0.00004431,-0.00009574,-0.00008
 530,-0.00020843,0.00043567,0.00000185,0.00005165,-0.00009785,-0.000166
 60,-0.00023887,0.00013583,-0.00018909,-0.00012791,0.00007528,-0.000220
 65,-0.00020097,0.00140246,-0.00080667,0.00183081,0.00000972,0.00033642
 ,-0.00017215,-0.00020886,0.00052747,-0.00025638,-0.00108949,0.00248356
 ,-0.00444751,-0.00074462,-0.00239271,-0.00142902,0.00013202,-0.0000264
 2,0.00018106,-0.00001131,0.00004774,0.00006169,-0.00008638,0.00011380,
 0.00015653,0.00006719,-0.00003186,-0.00001305,0.00000164,-0.00002816,-
 0.00000692,-0.00013772,-0.00009490,-0.00021429,0.00013766,0.00026340,-
 0.00002577,0.00004780,-0.00000647,0.00007470,-0.00019906,-0.00003610,-
 0.00003056,0.00008328,0.00007008,0.00000948,0.00001191,-0.00006521,-0.
 00004467,0.00129115,-0.00415314,-0.00123190,0.00034879,0.00004717,0.00
 026047,-0.00039581,0.00023177,-0.00093595,-0.01513117,-0.00176642,-0.0
 1378456,0.00029688,0.00075452,0.00040275,0.00012757,0.00029268,0.00061
 015,-0.16042329,-0.03414763,-0.18754017,-0.01548083,-0.00095441,-0.011
 32492,0.17349440,0.03724935,0.19977222,-0.00064781,-0.00027230,-0.0014
 2369,0.00108990,0.00034878,0.00096421,-0.00005565,-0.00004505,0.000253
 40,0.00036518,0.00013628,0.00032184,-0.00009448,-0.00064580,-0.0006172
 4,0.00115403,0.00149257,0.00063062,-0.00007433,-0.00002694,-0.00013322
 ,-0.00002749,-0.00002101,0.00002952,-0.00002097,0.00000531,-0.00002462
 ,0.00000302,0.00000861,0.00004950,0.00001124,-0.00010243,-0.00005317,-
 0.00006073,0.00032771,-0.00029571,-0.00020558,0.00029538,-0.00043841,-
 0.00013442,0.00004321,-0.00041734,-0.00083188,-0.00058969,-0.00014951,
 0.00128566,-0.00859250,0.00167308,-0.00022681,0.00058923,0.00016617,0.
 00022667,0.00150851,-0.00094462,0.00073345,0.00123283,-0.00517393,-0.0
 0088343,0.00581328,-0.00152093,-0.00006428,-0.00010231,0.00004263,0.00
 004490,-0.00000340,0.00003052,-0.00000331,-0.00000254,0.00006582,-0.00
 058296,0.00003998,0.00043895,0.00073715,0.00025118,-0.00035358,0.00036
 248,-0.00013692,0.00003412,0.00024114,0.00042299,-0.00005675,0.0003514
 8,-0.00024022,-0.00044435,-0.00009627,0.00010463,0.00003181,-0.0000573
 2,-0.00005783,0.00006492,0.00048300,0.00022274,0.00012018,-0.00004708,
 -0.00005202,-0.00004479,-0.00002271,0.00006738,0.00010658,0.00000421,0
 .00004786,0.00003995,-0.00043044,0.00017218,0.00090167,-0.00074190,-0.
 00032849,-0.00023120,-0.00045643,-0.00011341,0.00036441,0.00017397,-0.
 00018497,-0.00028551,-0.00004143,0.00001262,0.00002207,-0.00000859,0.0
 0000761,0.00003942,-0.00004075,0.00013005,0.00042217,-0.00014673,-0.00
 008032,-0.00023739,-0.00001348,-0.00001216,-0.00033867,0.00007936,0.00
 049434,0.00047048,-0.00185209,0.00288295,0.00042310,0.00223613,-0.0003
 5221,-0.00013576,-0.00023748,0.00151652,-0.00015939,0.00081278,0.00102
 440,-0.00076617,0.00018503,-0.00023083,-0.00009810,-0.00027276,-0.0006
 1959,-0.00127245,-0.00036577,0.00007325,0.00008340,-0.00049418,0.00003
 931,-0.00071637,-0.00019762,-0.00025704,0.00003126,-0.00006374,0.00018
 586,0.00020716,0.00086060,0.00039134,-0.00025507,0.00002114,-0.0025472
 4,0.00046390,0.00017325,-0.00076427,0.00037988,-0.00093165,0.00040547,
 0.00050494,0.00037807,-0.00092004,0.00047958,-0.00014683,0.00000479,-0
 .00003301,-0.00001039,0.00020693,-0.00001966,0.00041888,0.00144593,0.0
 0043524,0.00000002,-0.00030338,-0.00087719,0.00006657,0.00016676,0.000
 37080,-0.00017952,0.00021439,-0.00005539,0.00048332,-0.00029064,-0.000
 26165,-0.00011364,0.00000386,0.00003997,-0.00003411,0.00004927,0.00006
 795,0.00040314,0.00010035,0.00031137,-0.00034720,-0.00028462,-0.000076
 28,-0.00011863,0.00007257,-0.00018401,-0.00057013,0.00010261,-0.000093
 59,-0.00002608,0.00011471,-0.00026479,-0.00010813,0.00004187,0.0001200
 5,0.00193515,-0.00098893,0.00040114,-0.00025349,0.00041480,-0.00018107
 ,-0.00018648,-0.00002808,-0.00055406,-0.00108022,0.00552589,0.00451446
 ,0.00122793,-0.00059735,-0.00111667,0.00041390,-0.00041251,-0.00069192
 ,-0.24372830,-0.05922402,0.11925884,0.01113233,-0.00381813,-0.00551589
 ,-0.01948993,-0.00791836,0.01476338,0.24873052,-0.00000530,-0.00037226
 ,-0.00078071,0.00045895,0.00016883,0.00036372,-0.00003285,0.00002273,0
 .00007602,0.00010447,-0.00003148,0.00010809,-0.00011099,-0.00014607,0.
 00005822,-0.00023932,0.00012821,0.00055318,-0.00002877,-0.00001431,-0.
 00007249,-0.00000534,-0.00001165,0.00001026,0.00000940,0.00000978,0.00
 001070,0.00005319,-0.00009152,-0.00002487,0.00021331,0.00006859,0.0002
 0799,0.00012417,0.00011727,-0.00017173,-0.00003238,0.00007567,-0.00015
 775,-0.00003875,-0.00002232,-0.00016465,-0.00032298,-0.00038636,-0.000
 02277,-0.00233270,-0.00023016,0.00196046,-0.00022096,-0.00043624,0.000
 01521,0.00005788,-0.00037012,0.00002793,0.00283645,-0.01041080,-0.0002
 0478,0.00128809,0.00323606,-0.00225968,-0.00001356,-0.00002558,0.00005
 766,0.00000527,0.00000083,0.00002503,-0.00000334,0.00000719,0.00002027
 ,0.00018852,-0.00012044,0.00025406,-0.00029618,0.00030530,-0.00065475,
 0.00017374,-0.00017150,-0.00001513,0.00002367,0.00036279,-0.00005382,-
 0.00001796,0.00002630,0.00003798,-0.00010631,0.00010911,-0.00017418,0.
 00002863,-0.00003041,0.00007188,0.00005874,0.00018264,-0.00010086,0.00
 001584,-0.00004357,0.00000418,0.00001332,-0.00000628,0.00000257,0.0000
 0437,-0.00001058,0.00002638,-0.00001784,-0.00020123,0.00003720,-0.0001
 8403,-0.00025572,0.00012865,0.00006550,0.00057835,0.00079294,0.0000234
 3,-0.00002505,0.00000606,-0.00001866,-0.00000934,-0.00000242,0.0000141
 6,-0.00000061,0.00000705,-0.00000531,-0.00004086,0.00005753,-0.0000584
 4,0.00001116,-0.00006435,0.00003228,0.00009220,-0.00004098,0.00003648,
 0.00035015,0.00007448,0.00091787,0.00029814,-0.00075820,0.00036538,-0.
 00060827,0.00061784,0.00016588,-0.00104028,0.00020717,0.00072992,0.000
 20799,-0.00059333,0.00026583,-0.00162368,0.00012346,-0.00023647,-0.000
 39279,-0.00008009,-0.00000217,0.00005679,-0.00004519,0.00049181,0.0004
 8749,0.00006785,-0.00019890,-0.00002894,0.00009149,0.00005239,0.000112
 72,-0.00007030,-0.00013842,-0.00023645,-0.00123960,-0.00020457,-0.0009
 6511,0.00051687,-0.00052181,0.00041971,-0.00014414,0.00006709,0.000054
 10,-0.00053820,-0.00017442,0.00001577,0.00001788,0.00003536,0.00001710
 ,-0.00000737,0.00002755,0.00001680,-0.00000027,0.00046927,0.00002451,-
 0.00022160,-0.00025031,-0.00012513,-0.00028181,0.00000801,0.00009081,-
 0.00011259,0.00010786,0.00005177,-0.00007451,-0.00022151,0.00006261,0.
 00029421,0.00003403,-0.00001098,-0.00005304,0.00002407,0.00000788,-0.0
 0002057,-0.00020494,-0.00009080,-0.00002363,0.00011266,0.00003003,0.00
 002424,0.00006734,-0.00003262,0.00004209,-0.00004500,0.00004376,-0.000
 12306,-0.00006739,0.00008243,-0.00000470,-0.00010762,-0.00000496,0.000
 18450,0.00054594,-0.00025233,0.00102913,-0.00050983,0.00045874,-0.0000
 3907,0.00005669,-0.00011499,-0.00009437,0.02455556,0.00841695,-0.01450
 866,0.00065781,-0.00436165,-0.00434593,0.00070720,0.00025874,0.0002491
 6,-0.06192071,-0.08162162,0.04040103,-0.02791648,-0.00531569,0.0160385
 0,-0.00189131,-0.00240050,0.00295429,0.06240847,0.09562329,0.00010287,
 0.00028437,0.00139349,-0.00075545,-0.00022148,-0.00098322,0.00004753,0
 .00004681,-0.00027997,-0.00026233,0.00003504,-0.00030713,-0.00000934,0
 .00067254,0.00029060,0.00033777,-0.00072886,-0.00089427,0.00004871,0.0
 0003471,0.00012504,0.00001837,0.00001001,-0.00001138,-0.00001831,-0.00
 000241,0.00000161,-0.00000806,0.00002813,-0.00000549,-0.00036587,0.000
 10833,-0.00034783,-0.00015012,-0.00049794,0.00030236,0.00013588,-0.000
 34573,0.00040415,0.00011418,-0.00006607,0.00043217,0.00059163,0.000449
 66,0.00024020,-0.00139900,0.00616917,-0.00219087,0.00026526,-0.0005433
 4,0.00027735,-0.00033224,-0.00148016,0.00088825,-0.00371162,0.00153666
 ,0.00011932,-0.00037595,-0.00552350,0.00118117,0.00004664,0.00009911,-
 0.00003825,-0.00003665,0.00002500,-0.00004444,0.00001006,0.00001279,-0
 .00007761,0.00049048,0.00009616,-0.00045333,-0.00058870,-0.00049251,0.
 00046594,0.00006840,-0.00018673,-0.00049787,-0.00024403,-0.00025288,0.
 00002931,-0.00010464,-0.00006247,0.00002514,0.00004801,-0.00014847,0.0
 0003892,0.00006709,0.00010519,-0.00006131,-0.00022040,-0.00029521,-0.0
 0035860,0.00003760,0.00002945,0.00010003,0.00002074,-0.00000194,0.0000
 1214,-0.00000545,0.00000278,-0.00003424,0.00048506,0.00017968,-0.00015
 999,0.00016514,0.00044122,0.00027430,0.00012983,0.00048477,-0.00055081
 ,-0.00020034,0.00012414,0.00022215,0.00004605,0.00000855,-0.00002321,0
 .00000062,-0.00001521,-0.00003414,0.00017738,0.00000656,-0.00038546,0.
 00009142,0.00004924,0.00025826,-0.00018543,-0.00009178,0.00032127,0.00
 002884,-0.00042775,-0.00036665,0.00030724,-0.00224800,-0.00049222,-0.0
 0110333,0.00109297,0.00034000,-0.00005689,0.00064105,0.00007893,-0.000
 60428,-0.00074938,0.00114457,0.00029612,-0.00065510,0.00037282,0.00010
 859,0.00081584,0.00145476,0.00013323,-0.00017082,-0.00002457,-0.000357
 42,-0.00028934,0.00054034,0.00005721,0.00016779,-0.00020149,0.00011951
 ,-0.00010080,-0.00026029,-0.00042584,-0.00099743,-0.00023959,-0.000154
 69,0.00217810,-0.00083529,0.00036673,-0.00022434,-0.00034311,0.0005377
 7,-0.00088003,-0.00008405,-0.00029806,0.00054558,-0.00050408,0.0001394
 0,0.00004511,0.00001149,-0.00001085,-0.00020410,0.00002394,-0.00004208
 ,-0.00147837,-0.00131592,-0.00033191,-0.00026608,0.00073438,0.00012786
 ,-0.00020193,-0.00007282,0.00002155,-0.00005068,0.00021321,-0.00005329
 ,0.00014490,-0.00020016,0.00002767,0.00001485,0.00001993,-0.00000262,-
 0.00009923,0.00000314,-0.00006979,0.00005155,-0.00002125,0.00009694,0.
 00008532,-0.00006683,0.00001257,-0.00009928,0.00008496,0.00000998,0.00
 049079,-0.00025354,-0.00002567,-0.00006036,0.00017101,-0.00016081,-0.0
 0012361,0.00015017,0.00093195,0.00036808,-0.00000131,-0.00113603,0.000
 11110,-0.00065942,-0.00006613,0.00008896,0.00059979,0.01524022,0.00214
 458,-0.01248255,-0.00032593,-0.00173971,-0.00083659,-0.00053651,0.0010
 0112,0.00187873,0.12430836,0.03979216,-0.14792653,0.01114472,0.0062991
 3,-0.00885641,-0.01919986,-0.00558671,0.01919551,-0.12362734,-0.039509
 31,0.14936321\\-0.00000746,-0.00000303,-0.00000483,0.00000682,0.000004
 34,-0.00000358,-0.00000374,0.00000194,0.00001169,-0.00000007,-0.000008
 36,0.00000173,-0.00001958,-0.00000637,0.00000140,-0.00000386,0.0000119
 5,0.00000973,-0.00000530,0.00000323,0.00000281,-0.00001005,0.00000510,
 -0.00000230,-0.00000363,-0.00000020,-0.00000260,-0.00000278,0.00000225
 ,-0.00000569,0.00000109,-0.00000221,-0.00000136,-0.00000025,0.00000561
 ,-0.00001127,-0.00000799,0.00000187,-0.00000939,-0.00000214,0.00000074
 ,-0.00000780,-0.00000281,0.00000035,0.00000341,0.00001097,0.00000356,-
 0.00001490,-0.00000834,0.00000050,-0.00000312,-0.00000684,0.00000266,0
 .00000387,-0.00000812,0.00001920,-0.00001561,-0.00001717,0.00000479,0.
 00002650,-0.00000807,-0.00000020,0.00000886,-0.00000957,0.00000262,0.0
 0000684,-0.00001006,0.00000125,0.00000396,0.00000188,-0.00000559,0.000
 00281,0.00000858,0.00000856,-0.00001184,-0.00001279,-0.00000519,0.0000
 0517,0.00000299,-0.00000729,-0.00000012,-0.00000385,-0.00000062,0.0000
 0981,-0.00000794,0.00000077,-0.00000600,0.00000152,0.00000079,0.000004
 94,0.00000053,-0.00000114,-0.00000182,0.00000091,0.00000297,0.00000299
 ,-0.00000123,-0.00000490,0.00000226,0.00000507,0.00000037,0.00000335,-
 0.00000698,-0.00002109,-0.00000731,0.00001040,0.00000942,-0.00000063,0
 .00000330,-0.00000414,0.00000051,0.00000486,-0.00001983,-0.00001328,0.
 00000416,-0.00000097,0.00000260,-0.00000029,-0.00000626,0.00000603,0.0
 0001992,0.00000105,0.00001624,-0.00000922,-0.00000978,-0.00000673,-0.0
 0000166,0.00001489,0.00000189,-0.00000572,-0.00000143,-0.00000297,0.00
 000155,0.00000366,-0.00000808,0.00000707,0.00000109,-0.00000259,-0.000
 00586,0.00000142,-0.00000021,-0.00000953,-0.00000537,0.00000326,0.0000
 1084,0.00000386,0.00000614,0.00000322,-0.00000473,-0.00000432,0.000005
 08,0.00000562,-0.00000229,0.00000413,-0.00000073,-0.00000324,0.0000041
 9,0.00000739,-0.00000007,0.00000422,0.00000264,0.00000006,0.00000068,-
 0.00000135,-0.00000112,0.00000623,0.00000255,-0.00001299,0.00001331,0.
 00000003,-0.00000877,0.00001045,0.00000169,-0.00000155,0.00000855,-0.0
 0001327,0.00000454,0.00000541,-0.00000087,-0.00000195,0.00000445,0.000
 00088,0.00000112,0.00000684,-0.00000512,-0.00001461,-0.00000730,0.0000
 0952,0.00001901,0.00000405,0.00000329,-0.00000102,0.00000059,0.0000079
 2,0.00000649,-0.00000524,-0.00000124,0.00000933,0.00000175,0.00000221,
 -0.00000260,0.00000629,0.00000341,-0.00000196,0.00000568,-0.00000003,-
 0.00000206,0.00000329,-0.00000137,0.00000353,0.00000454,-0.00000255,0.
 00000093,0.00000020,-0.00000018,0.00000089,-0.00000062,-0.00000046,-0.
 00000100,0.00000200,-0.00000319,-0.00000014,0.00000054,0.00000076,-0.0
 0000164,-0.00000254,0.00000086,0.00000107,-0.00000010,-0.00000216,-0.0
 0000012,-0.00000504,0.00000046,0.00000354,0.00000168,-0.00000334,-0.00
 000053,-0.00000348,-0.00000370,0.00000178,-0.00000357,-0.00001113,-0.0
 0000543,0.00000456,0.00001512,0.00000721,0.00000765,-0.00000358,0.0000
 0445,0.00000875,-0.00001220,-0.00000129\\\@


 KEEP CLOSE TO NATURES HEART, YOURSELF;
 AND BREAK CLEAR AWAY, ONCE IN A WHILE, AND
 CLIMB A MOUNTAIN OR SPEND A WEEK IN THE
 WOODS.  WASH YOUR SPIRIT CLEAN...
                                         -- JOHN MUIR
 Job cpu time:      19 days  6 hours 39 minutes 10.5 seconds.
 File lengths (MBytes):  RWF=  17122 Int=      0 D2E=      0 Chk=     98 Scr=      1
 Normal termination of Gaussian 09 at Fri Apr  8 14:57:04 2016.
