 Entering Gaussian System, Link 0=g09
 Initial command:
 /share/apps//g09/l1.exe "/scratch/Gau-23957.inp" -scrdir="/scratch/"
 Entering Link 1 = /share/apps//g09/l1.exe PID=     23958.
  
 Copyright (c) 1988,1990,1992,1993,1995,1998,2003,2009,2013,
            Gaussian, Inc.  All Rights Reserved.
  
 This is part of the Gaussian(R) 09 program.  It is based on
 the Gaussian(R) 03 system (copyright 2003, Gaussian, Inc.),
 the Gaussian(R) 98 system (copyright 1998, Gaussian, Inc.),
 the Gaussian(R) 94 system (copyright 1995, Gaussian, Inc.),
 the Gaussian 92(TM) system (copyright 1992, Gaussian, Inc.),
 the Gaussian 90(TM) system (copyright 1990, Gaussian, Inc.),
 the Gaussian 88(TM) system (copyright 1988, Gaussian, Inc.),
 the Gaussian 86(TM) system (copyright 1986, Carnegie Mellon
 University), and the Gaussian 82(TM) system (copyright 1983,
 Carnegie Mellon University). Gaussian is a federally registered
 trademark of Gaussian, Inc.
  
 This software contains proprietary and confidential information,
 including trade secrets, belonging to Gaussian, Inc.
  
 This software is provided under written license and may be
 used, copied, transmitted, or stored only in accord with that
 written license.
  
 The following legend is applicable only to US Government
 contracts under FAR:
  
                    RESTRICTED RIGHTS LEGEND
  
 Use, reproduction and disclosure by the US Government is
 subject to restrictions as set forth in subparagraphs (a)
 and (c) of the Commercial Computer Software - Restricted
 Rights clause in FAR 52.227-19.
  
 Gaussian, Inc.
 340 Quinnipiac St., Bldg. 40, Wallingford CT 06492
  
  
 ---------------------------------------------------------------
 Warning -- This program may not be used in any manner that
 competes with the business of Gaussian, Inc. or will provide
 assistance to any competitor of Gaussian, Inc.  The licensee
 of this program is prohibited from giving any competitor of
 Gaussian, Inc. access to this program.  By using this program,
 the user acknowledges that Gaussian, Inc. is engaged in the
 business of creating and licensing software in the field of
 computational chemistry and represents and warrants to the
 licensee that it is not a competitor of Gaussian, Inc. and that
 it will not use this program in any manner prohibited above.
 ---------------------------------------------------------------
  

 Cite this work as:
 Gaussian 09, Revision D.01,
 M. J. Frisch, G. W. Trucks, H. B. Schlegel, G. E. Scuseria, 
 M. A. Robb, J. R. Cheeseman, G. Scalmani, V. Barone, B. Mennucci, 
 G. A. Petersson, H. Nakatsuji, M. Caricato, X. Li, H. P. Hratchian, 
 A. F. Izmaylov, J. Bloino, G. Zheng, J. L. Sonnenberg, M. Hada, 
 M. Ehara, K. Toyota, R. Fukuda, J. Hasegawa, M. Ishida, T. Nakajima, 
 Y. Honda, O. Kitao, H. Nakai, T. Vreven, J. A. Montgomery, Jr., 
 J. E. Peralta, F. Ogliaro, M. Bearpark, J. J. Heyd, E. Brothers, 
 K. N. Kudin, V. N. Staroverov, T. Keith, R. Kobayashi, J. Normand, 
 K. Raghavachari, A. Rendell, J. C. Burant, S. S. Iyengar, J. Tomasi, 
 M. Cossi, N. Rega, J. M. Millam, M. Klene, J. E. Knox, J. B. Cross, 
 V. Bakken, C. Adamo, J. Jaramillo, R. Gomperts, R. E. Stratmann, 
 O. Yazyev, A. J. Austin, R. Cammi, C. Pomelli, J. W. Ochterski, 
 R. L. Martin, K. Morokuma, V. G. Zakrzewski, G. A. Voth, 
 P. Salvador, J. J. Dannenberg, S. Dapprich, A. D. Daniels, 
 O. Farkas, J. B. Foresman, J. V. Ortiz, J. Cioslowski, 
 and D. J. Fox, Gaussian, Inc., Wallingford CT, 2013.
 
 ******************************************
 Gaussian 09:  EM64L-G09RevD.01 24-Apr-2013
                24-Mar-2016 
 ******************************************
 %nproc=20
 Will use up to   20 processors via shared memory.
 %mem=80GB
 %chk=Tri_A154_of.chk
 -------------------------------------------------------------------
 #P PBE1PBE/6-311+G(d,p) opt optcyc=999 freq EmpiricalDispersion=GD3
 -------------------------------------------------------------------
 1/6=999,14=-1,18=20,19=15,26=3,38=1/1,3;
 2/9=110,12=2,17=6,18=5,40=1/2;
 3/5=4,6=6,7=111,11=2,16=1,25=1,30=1,71=1,74=-13,124=31/1,2,3;
 4//1;
 5/5=2,38=5/2;
 6/7=2,8=2,9=2,10=2,28=1/1;
 7//1,2,3,16;
 1/6=999,14=-1,18=20,19=15,26=3/3(2);
 2/9=110/2;
 99//99;
 2/9=110/2;
 3/5=4,6=6,7=111,11=2,16=1,25=1,30=1,71=1,74=-13,124=31/1,2,3;
 4/5=5,16=3,69=1/1;
 5/5=2,38=5/2;
 7//1,2,3,16;
 1/6=999,14=-1,18=20,19=15,26=3/3(-5);
 2/9=110/2;
 6/7=2,8=2,9=2,10=2,19=2,28=1/1;
 99/9=1/99;
 Leave Link    1 at Thu Mar 24 21:45:17 2016, MaxMem= 10737418240 cpu:         1.6
 (Enter /share/apps//g09/l101.exe)
 -------
 disacch
 -------
 Symbolic Z-matrix:
 Charge =  1 Multiplicity = 1
 O                     0.97071   2.34399   0.34394 
 C                     1.51408   1.96635  -0.90049 
 C                     0.86562   2.77148  -2.0142 
 C                     1.10772   4.24806  -1.77409 
 C                     0.69065   4.65577  -0.37306 
 C                     1.26901   3.69126   0.65536 
 C                     0.80411   3.97289   2.06879 
 O                    -0.60042   3.86568   2.23376 
 O                    -0.72515   4.67583  -0.27389 
 O                     0.37322   5.05031  -2.66553 
 O                     1.40685   2.47235  -3.26682 
 O                     1.23236   0.61935  -1.07321 
 C                     2.30779  -0.24705  -1.38796 
 C                     1.90529  -1.12694  -2.55059 
 O                     1.61916  -0.33027  -3.67501 
 C                     0.70013  -1.96749  -2.1795 
 C                     0.93769  -2.73181  -0.87467 
 O                     1.42903  -1.86717   0.14647 
 C                     2.60106  -1.14872  -0.20026 
 C                     3.02568  -0.37322   1.03747 
 O                     4.12212   0.46598   0.76955 
 O                    -0.18156  -3.38293  -0.38081 
 C                    -1.38398  -2.65158  -0.24476 
 C                    -2.47799  -3.30951  -1.06181 
 C                    -3.78882  -2.57573  -0.86605 
 C                    -4.11765  -2.35522   0.60184 
 O                    -3.00622  -1.78341   1.26418 
 C                    -1.8535   -2.60316   1.21066 
 C                    -0.83248  -2.04131   2.1718 
 O                    -0.35982  -0.76517   1.79247 
 O                    -5.1765   -1.47795   0.61922 
 C                    -5.68186  -1.08041   1.88796 
 C                    -5.03863   0.21964   2.34255 
 C                    -5.21874   1.34646   1.32468 
 C                    -4.06756   2.34446   1.25424 
 C                    -2.74208   1.69755   0.85702 
 N                    -1.84965   1.46964   2.02695 
 O                    -4.7723   -3.32188  -1.53164 
 O                    -2.13554  -3.29553  -2.43096 
 O                     0.45929  -2.84277  -3.24074 
 H                     2.60187   2.13183  -0.89243 
 H                    -0.21353   2.56841  -1.97432 
 H                     2.18461   4.43337  -1.88586 
 H                     1.08618   5.65711  -0.16434 
 H                     2.36026   3.83509   0.64653 
 H                     1.14081   4.97348   2.35646 
 H                     1.26297   3.25474   2.74834 
 H                    -0.99894   4.36114   1.50077 
 H                    -1.04728   5.10397  -1.07513 
 H                     0.50948   4.70883  -3.55319 
 H                     1.32631   1.5235   -3.45174 
 H                     3.20073   0.32526  -1.64749 
 H                     2.74603  -1.79735  -2.77383 
 H                     1.21624  -0.90097  -4.33635 
 H                    -0.13209  -1.26852  -2.04949 
 H                     1.67312  -3.52359  -1.05397 
 H                     3.39503  -1.85501  -0.48198 
 H                     2.20455   0.27489   1.34802 
 H                     3.22737  -1.07454   1.85168 
 H                     4.93892  -0.02748   0.84844 
 H                    -1.25638  -1.6169   -0.57124 
 H                    -2.5862   -4.34648  -0.71814 
 H                    -3.68301  -1.57676  -1.31173 
 H                    -4.37659  -3.30504   1.09945 
 H                    -2.09648  -3.62167   1.54807 
 H                    -1.29632  -1.94732   3.15462 
 H                     0.00221  -2.74      2.25144 
 H                     0.31258  -0.91178   1.10294 
 H                    -5.5219   -1.87526   2.62235 
 H                    -6.75768  -0.95299   1.75452 
 H                    -3.98306  -0.00311   2.50096 
 H                    -5.45737   0.50067   3.31255 
 H                    -6.14928   1.88153   1.52426 
 H                    -5.32609   0.90369   0.33186 
 H                    -3.94784   2.87805   2.20379 
 H                    -4.31574   3.11199   0.51953 
 H                    -2.91182   0.72799   0.38925 
 H                    -2.17204   2.3195    0.16812 
 H                    -1.21606   0.65068   1.87354 
 H                    -2.39694   1.26986   2.85821 
 H                    -1.28597   2.33519   2.19866 
 H                    -5.60023  -2.83777  -1.50627 
 H                    -2.88729  -3.63867  -2.92227 
 H                    -0.44127  -3.18441  -3.13346 
 
 NAtoms=     84 NQM=       84 NQMF=       0 NMMI=      0 NMMIF=      0
                NMic=       0 NMicF=      0.
                    Isotopes and Nuclear Properties:
 (Nuclear quadrupole moments (NQMom) in fm**2, nuclear magnetic moments (NMagM)
  in nuclear magnetons)

  Atom         1           2           3           4           5           6           7           8           9          10
 IAtWgt=          16          12          12          12          12          12          12          16          16          16
 AtmWgt=  15.9949146  12.0000000  12.0000000  12.0000000  12.0000000  12.0000000  12.0000000  15.9949146  15.9949146  15.9949146
 NucSpn=           0           0           0           0           0           0           0           0           0           0
 AtZEff=   0.0000000   0.0000000   0.0000000   0.0000000   0.0000000   0.0000000   0.0000000   0.0000000   0.0000000   0.0000000
 NQMom=    0.0000000   0.0000000   0.0000000   0.0000000   0.0000000   0.0000000   0.0000000   0.0000000   0.0000000   0.0000000
 NMagM=    0.0000000   0.0000000   0.0000000   0.0000000   0.0000000   0.0000000   0.0000000   0.0000000   0.0000000   0.0000000
 AtZNuc=   8.0000000   6.0000000   6.0000000   6.0000000   6.0000000   6.0000000   6.0000000   8.0000000   8.0000000   8.0000000

  Atom        11          12          13          14          15          16          17          18          19          20
 IAtWgt=          16          16          12          12          16          12          12          16          12          12
 AtmWgt=  15.9949146  15.9949146  12.0000000  12.0000000  15.9949146  12.0000000  12.0000000  15.9949146  12.0000000  12.0000000
 NucSpn=           0           0           0           0           0           0           0           0           0           0
 AtZEff=   0.0000000   0.0000000   0.0000000   0.0000000   0.0000000   0.0000000   0.0000000   0.0000000   0.0000000   0.0000000
 NQMom=    0.0000000   0.0000000   0.0000000   0.0000000   0.0000000   0.0000000   0.0000000   0.0000000   0.0000000   0.0000000
 NMagM=    0.0000000   0.0000000   0.0000000   0.0000000   0.0000000   0.0000000   0.0000000   0.0000000   0.0000000   0.0000000
 AtZNuc=   8.0000000   8.0000000   6.0000000   6.0000000   8.0000000   6.0000000   6.0000000   8.0000000   6.0000000   6.0000000

  Atom        21          22          23          24          25          26          27          28          29          30
 IAtWgt=          16          16          12          12          12          12          16          12          12          16
 AtmWgt=  15.9949146  15.9949146  12.0000000  12.0000000  12.0000000  12.0000000  15.9949146  12.0000000  12.0000000  15.9949146
 NucSpn=           0           0           0           0           0           0           0           0           0           0
 AtZEff=   0.0000000   0.0000000   0.0000000   0.0000000   0.0000000   0.0000000   0.0000000   0.0000000   0.0000000   0.0000000
 NQMom=    0.0000000   0.0000000   0.0000000   0.0000000   0.0000000   0.0000000   0.0000000   0.0000000   0.0000000   0.0000000
 NMagM=    0.0000000   0.0000000   0.0000000   0.0000000   0.0000000   0.0000000   0.0000000   0.0000000   0.0000000   0.0000000
 AtZNuc=   8.0000000   8.0000000   6.0000000   6.0000000   6.0000000   6.0000000   8.0000000   6.0000000   6.0000000   8.0000000

  Atom        31          32          33          34          35          36          37          38          39          40
 IAtWgt=          16          12          12          12          12          12          14          16          16          16
 AtmWgt=  15.9949146  12.0000000  12.0000000  12.0000000  12.0000000  12.0000000  14.0030740  15.9949146  15.9949146  15.9949146
 NucSpn=           0           0           0           0           0           0           2           0           0           0
 AtZEff=   0.0000000   0.0000000   0.0000000   0.0000000   0.0000000   0.0000000   0.0000000   0.0000000   0.0000000   0.0000000
 NQMom=    0.0000000   0.0000000   0.0000000   0.0000000   0.0000000   0.0000000   2.0440000   0.0000000   0.0000000   0.0000000
 NMagM=    0.0000000   0.0000000   0.0000000   0.0000000   0.0000000   0.0000000   0.4037610   0.0000000   0.0000000   0.0000000
 AtZNuc=   8.0000000   6.0000000   6.0000000   6.0000000   6.0000000   6.0000000   7.0000000   8.0000000   8.0000000   8.0000000

  Atom        41          42          43          44          45          46          47          48          49          50
 IAtWgt=           1           1           1           1           1           1           1           1           1           1
 AtmWgt=   1.0078250   1.0078250   1.0078250   1.0078250   1.0078250   1.0078250   1.0078250   1.0078250   1.0078250   1.0078250
 NucSpn=           1           1           1           1           1           1           1           1           1           1
 AtZEff=   0.0000000   0.0000000   0.0000000   0.0000000   0.0000000   0.0000000   0.0000000   0.0000000   0.0000000   0.0000000
 NQMom=    0.0000000   0.0000000   0.0000000   0.0000000   0.0000000   0.0000000   0.0000000   0.0000000   0.0000000   0.0000000
 NMagM=    2.7928460   2.7928460   2.7928460   2.7928460   2.7928460   2.7928460   2.7928460   2.7928460   2.7928460   2.7928460
 AtZNuc=   1.0000000   1.0000000   1.0000000   1.0000000   1.0000000   1.0000000   1.0000000   1.0000000   1.0000000   1.0000000

  Atom        51          52          53          54          55          56          57          58          59          60
 IAtWgt=           1           1           1           1           1           1           1           1           1           1
 AtmWgt=   1.0078250   1.0078250   1.0078250   1.0078250   1.0078250   1.0078250   1.0078250   1.0078250   1.0078250   1.0078250
 NucSpn=           1           1           1           1           1           1           1           1           1           1
 AtZEff=   0.0000000   0.0000000   0.0000000   0.0000000   0.0000000   0.0000000   0.0000000   0.0000000   0.0000000   0.0000000
 NQMom=    0.0000000   0.0000000   0.0000000   0.0000000   0.0000000   0.0000000   0.0000000   0.0000000   0.0000000   0.0000000
 NMagM=    2.7928460   2.7928460   2.7928460   2.7928460   2.7928460   2.7928460   2.7928460   2.7928460   2.7928460   2.7928460
 AtZNuc=   1.0000000   1.0000000   1.0000000   1.0000000   1.0000000   1.0000000   1.0000000   1.0000000   1.0000000   1.0000000

  Atom        61          62          63          64          65          66          67          68          69          70
 IAtWgt=           1           1           1           1           1           1           1           1           1           1
 AtmWgt=   1.0078250   1.0078250   1.0078250   1.0078250   1.0078250   1.0078250   1.0078250   1.0078250   1.0078250   1.0078250
 NucSpn=           1           1           1           1           1           1           1           1           1           1
 AtZEff=   0.0000000   0.0000000   0.0000000   0.0000000   0.0000000   0.0000000   0.0000000   0.0000000   0.0000000   0.0000000
 NQMom=    0.0000000   0.0000000   0.0000000   0.0000000   0.0000000   0.0000000   0.0000000   0.0000000   0.0000000   0.0000000
 NMagM=    2.7928460   2.7928460   2.7928460   2.7928460   2.7928460   2.7928460   2.7928460   2.7928460   2.7928460   2.7928460
 AtZNuc=   1.0000000   1.0000000   1.0000000   1.0000000   1.0000000   1.0000000   1.0000000   1.0000000   1.0000000   1.0000000

  Atom        71          72          73          74          75          76          77          78          79          80
 IAtWgt=           1           1           1           1           1           1           1           1           1           1
 AtmWgt=   1.0078250   1.0078250   1.0078250   1.0078250   1.0078250   1.0078250   1.0078250   1.0078250   1.0078250   1.0078250
 NucSpn=           1           1           1           1           1           1           1           1           1           1
 AtZEff=   0.0000000   0.0000000   0.0000000   0.0000000   0.0000000   0.0000000   0.0000000   0.0000000   0.0000000   0.0000000
 NQMom=    0.0000000   0.0000000   0.0000000   0.0000000   0.0000000   0.0000000   0.0000000   0.0000000   0.0000000   0.0000000
 NMagM=    2.7928460   2.7928460   2.7928460   2.7928460   2.7928460   2.7928460   2.7928460   2.7928460   2.7928460   2.7928460
 AtZNuc=   1.0000000   1.0000000   1.0000000   1.0000000   1.0000000   1.0000000   1.0000000   1.0000000   1.0000000   1.0000000

  Atom        81          82          83          84
 IAtWgt=           1           1           1           1
 AtmWgt=   1.0078250   1.0078250   1.0078250   1.0078250
 NucSpn=           1           1           1           1
 AtZEff=   0.0000000   0.0000000   0.0000000   0.0000000
 NQMom=    0.0000000   0.0000000   0.0000000   0.0000000
 NMagM=    2.7928460   2.7928460   2.7928460   2.7928460
 AtZNuc=   1.0000000   1.0000000   1.0000000   1.0000000
 Leave Link  101 at Thu Mar 24 21:45:17 2016, MaxMem= 10737418240 cpu:         5.4
 (Enter /share/apps//g09/l103.exe)

 GradGradGradGradGradGradGradGradGradGradGradGradGradGradGradGradGradGrad
 Berny optimization.
 Initialization pass.
                           ----------------------------
                           !    Initial Parameters    !
                           ! (Angstroms and Degrees)  !
 --------------------------                            --------------------------
 ! Name  Definition              Value          Derivative Info.                !
 --------------------------------------------------------------------------------
 ! R1    R(1,2)                  1.4094         estimate D2E/DX2                !
 ! R2    R(1,6)                  1.4146         estimate D2E/DX2                !
 ! R3    R(2,3)                  1.5196         estimate D2E/DX2                !
 ! R4    R(2,12)                 1.3869         estimate D2E/DX2                !
 ! R5    R(2,41)                 1.1003         estimate D2E/DX2                !
 ! R6    R(3,4)                  1.5154         estimate D2E/DX2                !
 ! R7    R(3,11)                 1.3969         estimate D2E/DX2                !
 ! R8    R(3,42)                 1.0988         estimate D2E/DX2                !
 ! R9    R(4,5)                  1.5176         estimate D2E/DX2                !
 ! R10   R(4,10)                 1.4063         estimate D2E/DX2                !
 ! R11   R(4,43)                 1.0984         estimate D2E/DX2                !
 ! R12   R(5,6)                  1.524          estimate D2E/DX2                !
 ! R13   R(5,9)                  1.4194         estimate D2E/DX2                !
 ! R14   R(5,44)                 1.0967         estimate D2E/DX2                !
 ! R15   R(6,7)                  1.5143         estimate D2E/DX2                !
 ! R16   R(6,45)                 1.1007         estimate D2E/DX2                !
 ! R17   R(7,8)                  1.4182         estimate D2E/DX2                !
 ! R18   R(7,46)                 1.0942         estimate D2E/DX2                !
 ! R19   R(7,47)                 1.09           estimate D2E/DX2                !
 ! R20   R(8,48)                 0.9703         estimate D2E/DX2                !
 ! R21   R(9,49)                 0.9639         estimate D2E/DX2                !
 ! R22   R(10,50)                0.9608         estimate D2E/DX2                !
 ! R23   R(11,51)                0.9701         estimate D2E/DX2                !
 ! R24   R(12,13)                1.4164         estimate D2E/DX2                !
 ! R25   R(13,14)                1.5126         estimate D2E/DX2                !
 ! R26   R(13,19)                1.5198         estimate D2E/DX2                !
 ! R27   R(13,52)                1.0919         estimate D2E/DX2                !
 ! R28   R(14,15)                1.4074         estimate D2E/DX2                !
 ! R29   R(14,16)                1.5155         estimate D2E/DX2                !
 ! R30   R(14,53)                1.0982         estimate D2E/DX2                !
 ! R31   R(15,54)                0.962          estimate D2E/DX2                !
 ! R32   R(16,17)                1.5308         estimate D2E/DX2                !
 ! R33   R(16,40)                1.3965         estimate D2E/DX2                !
 ! R34   R(16,55)                1.0946         estimate D2E/DX2                !
 ! R35   R(17,18)                1.4254         estimate D2E/DX2                !
 ! R36   R(17,22)                1.3858         estimate D2E/DX2                !
 ! R37   R(17,56)                1.0954         estimate D2E/DX2                !
 ! R38   R(18,19)                1.4178         estimate D2E/DX2                !
 ! R39   R(19,20)                1.5211         estimate D2E/DX2                !
 ! R40   R(19,57)                1.0994         estimate D2E/DX2                !
 ! R41   R(20,21)                1.4065         estimate D2E/DX2                !
 ! R42   R(20,58)                1.0912         estimate D2E/DX2                !
 ! R43   R(20,59)                1.0934         estimate D2E/DX2                !
 ! R44   R(21,60)                0.9575         estimate D2E/DX2                !
 ! R45   R(22,23)                1.4139         estimate D2E/DX2                !
 ! R46   R(23,24)                1.5157         estimate D2E/DX2                !
 ! R47   R(23,28)                1.53           estimate D2E/DX2                !
 ! R48   R(23,61)                1.0924         estimate D2E/DX2                !
 ! R49   R(24,25)                1.5149         estimate D2E/DX2                !
 ! R50   R(24,39)                1.4114         estimate D2E/DX2                !
 ! R51   R(24,62)                1.0978         estimate D2E/DX2                !
 ! R52   R(25,26)                1.5203         estimate D2E/DX2                !
 ! R53   R(25,38)                1.4025         estimate D2E/DX2                !
 ! R54   R(25,63)                1.099          estimate D2E/DX2                !
 ! R55   R(26,27)                1.4145         estimate D2E/DX2                !
 ! R56   R(26,31)                1.3752         estimate D2E/DX2                !
 ! R57   R(26,64)                1.1031         estimate D2E/DX2                !
 ! R58   R(27,28)                1.4155         estimate D2E/DX2                !
 ! R59   R(28,29)                1.5106         estimate D2E/DX2                !
 ! R60   R(28,65)                1.1001         estimate D2E/DX2                !
 ! R61   R(29,30)                1.4127         estimate D2E/DX2                !
 ! R62   R(29,66)                1.0908         estimate D2E/DX2                !
 ! R63   R(29,67)                1.0914         estimate D2E/DX2                !
 ! R64   R(30,68)                0.9742         estimate D2E/DX2                !
 ! R65   R(31,32)                1.4224         estimate D2E/DX2                !
 ! R66   R(32,33)                1.52           estimate D2E/DX2                !
 ! R67   R(32,69)                1.0939         estimate D2E/DX2                !
 ! R68   R(32,70)                1.0915         estimate D2E/DX2                !
 ! R69   R(33,34)                1.5291         estimate D2E/DX2                !
 ! R70   R(33,71)                1.0904         estimate D2E/DX2                !
 ! R71   R(33,72)                1.0933         estimate D2E/DX2                !
 ! R72   R(34,35)                1.5252         estimate D2E/DX2                !
 ! R73   R(34,73)                1.0918         estimate D2E/DX2                !
 ! R74   R(34,74)                1.0924         estimate D2E/DX2                !
 ! R75   R(35,36)                1.5275         estimate D2E/DX2                !
 ! R76   R(35,75)                1.0958         estimate D2E/DX2                !
 ! R77   R(35,76)                1.0911         estimate D2E/DX2                !
 ! R78   R(36,37)                1.489          estimate D2E/DX2                !
 ! R79   R(36,77)                1.0898         estimate D2E/DX2                !
 ! R80   R(36,78)                1.0892         estimate D2E/DX2                !
 ! R81   R(37,79)                1.0467         estimate D2E/DX2                !
 ! R82   R(37,80)                1.0151         estimate D2E/DX2                !
 ! R83   R(37,81)                1.0471         estimate D2E/DX2                !
 ! R84   R(38,82)                0.9594         estimate D2E/DX2                !
 ! R85   R(39,83)                0.9614         estimate D2E/DX2                !
 ! R86   R(40,84)                0.9691         estimate D2E/DX2                !
 ! A1    A(2,1,6)              111.6086         estimate D2E/DX2                !
 ! A2    A(1,2,3)              109.9153         estimate D2E/DX2                !
 ! A3    A(1,2,12)             106.9699         estimate D2E/DX2                !
 ! A4    A(1,2,41)             109.5341         estimate D2E/DX2                !
 ! A5    A(3,2,12)             109.6717         estimate D2E/DX2                !
 ! A6    A(3,2,41)             110.3382         estimate D2E/DX2                !
 ! A7    A(12,2,41)            110.3515         estimate D2E/DX2                !
 ! A8    A(2,3,4)              109.3876         estimate D2E/DX2                !
 ! A9    A(2,3,11)             112.2346         estimate D2E/DX2                !
 ! A10   A(2,3,42)             107.1326         estimate D2E/DX2                !
 ! A11   A(4,3,11)             106.7872         estimate D2E/DX2                !
 ! A12   A(4,3,42)             109.3426         estimate D2E/DX2                !
 ! A13   A(11,3,42)            111.9301         estimate D2E/DX2                !
 ! A14   A(3,4,5)              111.3545         estimate D2E/DX2                !
 ! A15   A(3,4,10)             111.8365         estimate D2E/DX2                !
 ! A16   A(3,4,43)             107.7511         estimate D2E/DX2                !
 ! A17   A(5,4,10)             106.7622         estimate D2E/DX2                !
 ! A18   A(5,4,43)             108.5453         estimate D2E/DX2                !
 ! A19   A(10,4,43)            110.5672         estimate D2E/DX2                !
 ! A20   A(4,5,6)              110.4063         estimate D2E/DX2                !
 ! A21   A(4,5,9)              110.0246         estimate D2E/DX2                !
 ! A22   A(4,5,44)             108.7771         estimate D2E/DX2                !
 ! A23   A(6,5,9)              109.8978         estimate D2E/DX2                !
 ! A24   A(6,5,44)             108.2142         estimate D2E/DX2                !
 ! A25   A(9,5,44)             109.4841         estimate D2E/DX2                !
 ! A26   A(1,6,5)              111.9739         estimate D2E/DX2                !
 ! A27   A(1,6,7)              108.5337         estimate D2E/DX2                !
 ! A28   A(1,6,45)             109.3744         estimate D2E/DX2                !
 ! A29   A(5,6,7)              113.3068         estimate D2E/DX2                !
 ! A30   A(5,6,45)             106.7462         estimate D2E/DX2                !
 ! A31   A(7,6,45)             106.7109         estimate D2E/DX2                !
 ! A32   A(6,7,8)              113.4869         estimate D2E/DX2                !
 ! A33   A(6,7,46)             108.7221         estimate D2E/DX2                !
 ! A34   A(6,7,47)             109.2767         estimate D2E/DX2                !
 ! A35   A(8,7,46)             110.0768         estimate D2E/DX2                !
 ! A36   A(8,7,47)             107.1324         estimate D2E/DX2                !
 ! A37   A(46,7,47)            108.0015         estimate D2E/DX2                !
 ! A38   A(7,8,48)             106.2759         estimate D2E/DX2                !
 ! A39   A(5,9,49)             106.3528         estimate D2E/DX2                !
 ! A40   A(4,10,50)            107.9876         estimate D2E/DX2                !
 ! A41   A(3,11,51)            110.3783         estimate D2E/DX2                !
 ! A42   A(2,12,13)            117.8731         estimate D2E/DX2                !
 ! A43   A(12,13,14)           108.9404         estimate D2E/DX2                !
 ! A44   A(12,13,19)           109.6189         estimate D2E/DX2                !
 ! A45   A(12,13,52)           110.6783         estimate D2E/DX2                !
 ! A46   A(14,13,19)           107.8735         estimate D2E/DX2                !
 ! A47   A(14,13,52)           109.8658         estimate D2E/DX2                !
 ! A48   A(19,13,52)           109.811          estimate D2E/DX2                !
 ! A49   A(13,14,15)           109.8098         estimate D2E/DX2                !
 ! A50   A(13,14,16)           110.2455         estimate D2E/DX2                !
 ! A51   A(13,14,53)           107.9166         estimate D2E/DX2                !
 ! A52   A(15,14,16)           110.3597         estimate D2E/DX2                !
 ! A53   A(15,14,53)           109.8021         estimate D2E/DX2                !
 ! A54   A(16,14,53)           108.6616         estimate D2E/DX2                !
 ! A55   A(14,15,54)           107.3721         estimate D2E/DX2                !
 ! A56   A(14,16,17)           111.2387         estimate D2E/DX2                !
 ! A57   A(14,16,40)           107.3788         estimate D2E/DX2                !
 ! A58   A(14,16,55)           106.2325         estimate D2E/DX2                !
 ! A59   A(17,16,40)           111.1968         estimate D2E/DX2                !
 ! A60   A(17,16,55)           109.6091         estimate D2E/DX2                !
 ! A61   A(40,16,55)           111.0616         estimate D2E/DX2                !
 ! A62   A(16,17,18)           111.1786         estimate D2E/DX2                !
 ! A63   A(16,17,22)           114.3947         estimate D2E/DX2                !
 ! A64   A(16,17,56)           109.0005         estimate D2E/DX2                !
 ! A65   A(18,17,22)           107.9448         estimate D2E/DX2                !
 ! A66   A(18,17,56)           108.9228         estimate D2E/DX2                !
 ! A67   A(22,17,56)           105.1262         estimate D2E/DX2                !
 ! A68   A(17,18,19)           114.6548         estimate D2E/DX2                !
 ! A69   A(13,19,18)           109.4058         estimate D2E/DX2                !
 ! A70   A(13,19,20)           112.7874         estimate D2E/DX2                !
 ! A71   A(13,19,57)           108.6791         estimate D2E/DX2                !
 ! A72   A(18,19,20)           106.8656         estimate D2E/DX2                !
 ! A73   A(18,19,57)           109.5203         estimate D2E/DX2                !
 ! A74   A(20,19,57)           109.5396         estimate D2E/DX2                !
 ! A75   A(19,20,21)           111.5193         estimate D2E/DX2                !
 ! A76   A(19,20,58)           108.9246         estimate D2E/DX2                !
 ! A77   A(19,20,59)           109.2949         estimate D2E/DX2                !
 ! A78   A(21,20,58)           106.6452         estimate D2E/DX2                !
 ! A79   A(21,20,59)           112.3811         estimate D2E/DX2                !
 ! A80   A(58,20,59)           107.9295         estimate D2E/DX2                !
 ! A81   A(20,21,60)           109.9864         estimate D2E/DX2                !
 ! A82   A(17,22,23)           118.5603         estimate D2E/DX2                !
 ! A83   A(22,23,24)           109.72           estimate D2E/DX2                !
 ! A84   A(22,23,28)           111.6453         estimate D2E/DX2                !
 ! A85   A(22,23,61)           111.2114         estimate D2E/DX2                !
 ! A86   A(24,23,28)           107.759          estimate D2E/DX2                !
 ! A87   A(24,23,61)           109.5321         estimate D2E/DX2                !
 ! A88   A(28,23,61)           106.8667         estimate D2E/DX2                !
 ! A89   A(23,24,25)           110.1595         estimate D2E/DX2                !
 ! A90   A(23,24,39)           110.0902         estimate D2E/DX2                !
 ! A91   A(23,24,62)           108.2054         estimate D2E/DX2                !
 ! A92   A(25,24,39)           109.2989         estimate D2E/DX2                !
 ! A93   A(25,24,62)           109.3773         estimate D2E/DX2                !
 ! A94   A(39,24,62)           109.6918         estimate D2E/DX2                !
 ! A95   A(24,25,26)           112.4675         estimate D2E/DX2                !
 ! A96   A(24,25,38)           106.7231         estimate D2E/DX2                !
 ! A97   A(24,25,63)           107.7324         estimate D2E/DX2                !
 ! A98   A(26,25,38)           112.5629         estimate D2E/DX2                !
 ! A99   A(26,25,63)           106.2918         estimate D2E/DX2                !
 ! A100  A(38,25,63)           111.0177         estimate D2E/DX2                !
 ! A101  A(25,26,27)           109.9238         estimate D2E/DX2                !
 ! A102  A(25,26,31)           105.7396         estimate D2E/DX2                !
 ! A103  A(25,26,64)           111.1876         estimate D2E/DX2                !
 ! A104  A(27,26,31)           109.9495         estimate D2E/DX2                !
 ! A105  A(27,26,64)           108.7405         estimate D2E/DX2                !
 ! A106  A(31,26,64)           111.2754         estimate D2E/DX2                !
 ! A107  A(26,27,28)           112.833          estimate D2E/DX2                !
 ! A108  A(23,28,27)           107.7096         estimate D2E/DX2                !
 ! A109  A(23,28,29)           114.1788         estimate D2E/DX2                !
 ! A110  A(23,28,65)           109.2824         estimate D2E/DX2                !
 ! A111  A(27,28,29)           108.1177         estimate D2E/DX2                !
 ! A112  A(27,28,65)           110.1639         estimate D2E/DX2                !
 ! A113  A(29,28,65)           107.3668         estimate D2E/DX2                !
 ! A114  A(28,29,30)           113.0334         estimate D2E/DX2                !
 ! A115  A(28,29,66)           108.5361         estimate D2E/DX2                !
 ! A116  A(28,29,67)           108.9797         estimate D2E/DX2                !
 ! A117  A(30,29,66)           107.8395         estimate D2E/DX2                !
 ! A118  A(30,29,67)           109.998          estimate D2E/DX2                !
 ! A119  A(66,29,67)           108.3371         estimate D2E/DX2                !
 ! A120  A(29,30,68)           106.5605         estimate D2E/DX2                !
 ! A121  A(26,31,32)           117.5901         estimate D2E/DX2                !
 ! A122  A(31,32,33)           110.8214         estimate D2E/DX2                !
 ! A123  A(31,32,69)           110.1078         estimate D2E/DX2                !
 ! A124  A(31,32,70)           105.8883         estimate D2E/DX2                !
 ! A125  A(33,32,69)           111.0259         estimate D2E/DX2                !
 ! A126  A(33,32,70)           110.7197         estimate D2E/DX2                !
 ! A127  A(69,32,70)           108.1201         estimate D2E/DX2                !
 ! A128  A(32,33,34)           112.4166         estimate D2E/DX2                !
 ! A129  A(32,33,71)           106.1637         estimate D2E/DX2                !
 ! A130  A(32,33,72)           108.8516         estimate D2E/DX2                !
 ! A131  A(34,33,71)           111.1782         estimate D2E/DX2                !
 ! A132  A(34,33,72)           110.8587         estimate D2E/DX2                !
 ! A133  A(71,33,72)           107.1218         estimate D2E/DX2                !
 ! A134  A(33,34,35)           115.0894         estimate D2E/DX2                !
 ! A135  A(33,34,73)           109.8677         estimate D2E/DX2                !
 ! A136  A(33,34,74)           108.5348         estimate D2E/DX2                !
 ! A137  A(35,34,73)           109.333          estimate D2E/DX2                !
 ! A138  A(35,34,74)           107.3031         estimate D2E/DX2                !
 ! A139  A(73,34,74)           106.3215         estimate D2E/DX2                !
 ! A140  A(34,35,36)           112.9453         estimate D2E/DX2                !
 ! A141  A(34,35,75)           111.1667         estimate D2E/DX2                !
 ! A142  A(34,35,76)           108.6458         estimate D2E/DX2                !
 ! A143  A(36,35,75)           109.6806         estimate D2E/DX2                !
 ! A144  A(36,35,76)           108.6745         estimate D2E/DX2                !
 ! A145  A(75,35,76)           105.4157         estimate D2E/DX2                !
 ! A146  A(35,36,37)           112.3703         estimate D2E/DX2                !
 ! A147  A(35,36,77)           110.6864         estimate D2E/DX2                !
 ! A148  A(35,36,78)           112.1351         estimate D2E/DX2                !
 ! A149  A(37,36,77)           107.1231         estimate D2E/DX2                !
 ! A150  A(37,36,78)           105.7048         estimate D2E/DX2                !
 ! A151  A(77,36,78)           108.5451         estimate D2E/DX2                !
 ! A152  A(36,37,79)           111.5545         estimate D2E/DX2                !
 ! A153  A(36,37,80)           110.512          estimate D2E/DX2                !
 ! A154  A(36,37,81)           108.9638         estimate D2E/DX2                !
 ! A155  A(79,37,80)           107.0006         estimate D2E/DX2                !
 ! A156  A(79,37,81)           110.1773         estimate D2E/DX2                !
 ! A157  A(80,37,81)           108.5805         estimate D2E/DX2                !
 ! A158  A(25,38,82)           108.9133         estimate D2E/DX2                !
 ! A159  A(24,39,83)           107.6071         estimate D2E/DX2                !
 ! A160  A(16,40,84)           107.2818         estimate D2E/DX2                !
 ! D1    D(6,1,2,3)            -64.3249         estimate D2E/DX2                !
 ! D2    D(6,1,2,12)           176.6693         estimate D2E/DX2                !
 ! D3    D(6,1,2,41)            57.0599         estimate D2E/DX2                !
 ! D4    D(2,1,6,5)             61.0188         estimate D2E/DX2                !
 ! D5    D(2,1,6,7)           -173.16           estimate D2E/DX2                !
 ! D6    D(2,1,6,45)           -57.0964         estimate D2E/DX2                !
 ! D7    D(1,2,3,4)             59.3258         estimate D2E/DX2                !
 ! D8    D(1,2,3,11)           177.6615         estimate D2E/DX2                !
 ! D9    D(1,2,3,42)           -59.093          estimate D2E/DX2                !
 ! D10   D(12,2,3,4)           176.6609         estimate D2E/DX2                !
 ! D11   D(12,2,3,11)          -65.0035         estimate D2E/DX2                !
 ! D12   D(12,2,3,42)           58.2421         estimate D2E/DX2                !
 ! D13   D(41,2,3,4)           -61.5764         estimate D2E/DX2                !
 ! D14   D(41,2,3,11)           56.7593         estimate D2E/DX2                !
 ! D15   D(41,2,3,42)         -179.9952         estimate D2E/DX2                !
 ! D16   D(1,2,12,13)         -127.6411         estimate D2E/DX2                !
 ! D17   D(3,2,12,13)          113.1955         estimate D2E/DX2                !
 ! D18   D(41,2,12,13)          -8.5592         estimate D2E/DX2                !
 ! D19   D(2,3,4,5)            -52.248          estimate D2E/DX2                !
 ! D20   D(2,3,4,10)          -171.6061         estimate D2E/DX2                !
 ! D21   D(2,3,4,43)            66.6815         estimate D2E/DX2                !
 ! D22   D(11,3,4,5)          -173.9275         estimate D2E/DX2                !
 ! D23   D(11,3,4,10)           66.7145         estimate D2E/DX2                !
 ! D24   D(11,3,4,43)          -54.9979         estimate D2E/DX2                !
 ! D25   D(42,3,4,5)            64.7851         estimate D2E/DX2                !
 ! D26   D(42,3,4,10)          -54.5729         estimate D2E/DX2                !
 ! D27   D(42,3,4,43)         -176.2853         estimate D2E/DX2                !
 ! D28   D(2,3,11,51)           56.8193         estimate D2E/DX2                !
 ! D29   D(4,3,11,51)          176.6811         estimate D2E/DX2                !
 ! D30   D(42,3,11,51)         -63.6886         estimate D2E/DX2                !
 ! D31   D(3,4,5,6)             48.7025         estimate D2E/DX2                !
 ! D32   D(3,4,5,9)            -72.7697         estimate D2E/DX2                !
 ! D33   D(3,4,5,44)           167.3049         estimate D2E/DX2                !
 ! D34   D(10,4,5,6)           171.0371         estimate D2E/DX2                !
 ! D35   D(10,4,5,9)            49.5649         estimate D2E/DX2                !
 ! D36   D(10,4,5,44)          -70.3605         estimate D2E/DX2                !
 ! D37   D(43,4,5,6)           -69.7514         estimate D2E/DX2                !
 ! D38   D(43,4,5,9)           168.7764         estimate D2E/DX2                !
 ! D39   D(43,4,5,44)           48.851          estimate D2E/DX2                !
 ! D40   D(3,4,10,50)          -48.5104         estimate D2E/DX2                !
 ! D41   D(5,4,10,50)         -170.5419         estimate D2E/DX2                !
 ! D42   D(43,4,10,50)          71.5666         estimate D2E/DX2                !
 ! D43   D(4,5,6,1)            -52.2907         estimate D2E/DX2                !
 ! D44   D(4,5,6,7)           -175.4554         estimate D2E/DX2                !
 ! D45   D(4,5,6,45)            67.3777         estimate D2E/DX2                !
 ! D46   D(9,5,6,1)             69.2566         estimate D2E/DX2                !
 ! D47   D(9,5,6,7)            -53.9081         estimate D2E/DX2                !
 ! D48   D(9,5,6,45)          -171.075          estimate D2E/DX2                !
 ! D49   D(44,5,6,1)          -171.236          estimate D2E/DX2                !
 ! D50   D(44,5,6,7)            65.5993         estimate D2E/DX2                !
 ! D51   D(44,5,6,45)          -51.5676         estimate D2E/DX2                !
 ! D52   D(4,5,9,49)           -43.6197         estimate D2E/DX2                !
 ! D53   D(6,5,9,49)          -165.3949         estimate D2E/DX2                !
 ! D54   D(44,5,9,49)           75.876          estimate D2E/DX2                !
 ! D55   D(1,6,7,8)            -63.9486         estimate D2E/DX2                !
 ! D56   D(1,6,7,46)           173.1993         estimate D2E/DX2                !
 ! D57   D(1,6,7,47)            55.5396         estimate D2E/DX2                !
 ! D58   D(5,6,7,8)             61.0912         estimate D2E/DX2                !
 ! D59   D(5,6,7,46)           -61.7609         estimate D2E/DX2                !
 ! D60   D(5,6,7,47)          -179.4206         estimate D2E/DX2                !
 ! D61   D(45,6,7,8)           178.2788         estimate D2E/DX2                !
 ! D62   D(45,6,7,46)           55.4268         estimate D2E/DX2                !
 ! D63   D(45,6,7,47)          -62.233          estimate D2E/DX2                !
 ! D64   D(6,7,8,48)           -47.4188         estimate D2E/DX2                !
 ! D65   D(46,7,8,48)           74.6838         estimate D2E/DX2                !
 ! D66   D(47,7,8,48)         -168.1238         estimate D2E/DX2                !
 ! D67   D(2,12,13,14)        -132.3242         estimate D2E/DX2                !
 ! D68   D(2,12,13,19)         109.8485         estimate D2E/DX2                !
 ! D69   D(2,12,13,52)         -11.4248         estimate D2E/DX2                !
 ! D70   D(12,13,14,15)         60.8792         estimate D2E/DX2                !
 ! D71   D(12,13,14,16)        -60.9241         estimate D2E/DX2                !
 ! D72   D(12,13,14,53)       -179.458          estimate D2E/DX2                !
 ! D73   D(19,13,14,15)        179.8031         estimate D2E/DX2                !
 ! D74   D(19,13,14,16)         57.9998         estimate D2E/DX2                !
 ! D75   D(19,13,14,53)        -60.5341         estimate D2E/DX2                !
 ! D76   D(52,13,14,15)        -60.5168         estimate D2E/DX2                !
 ! D77   D(52,13,14,16)        177.68           estimate D2E/DX2                !
 ! D78   D(52,13,14,53)         59.1461         estimate D2E/DX2                !
 ! D79   D(12,13,19,18)         57.0216         estimate D2E/DX2                !
 ! D80   D(12,13,19,20)        -61.7705         estimate D2E/DX2                !
 ! D81   D(12,13,19,57)        176.5634         estimate D2E/DX2                !
 ! D82   D(14,13,19,18)        -61.469          estimate D2E/DX2                !
 ! D83   D(14,13,19,20)        179.7389         estimate D2E/DX2                !
 ! D84   D(14,13,19,57)         58.0728         estimate D2E/DX2                !
 ! D85   D(52,13,19,18)        178.8162         estimate D2E/DX2                !
 ! D86   D(52,13,19,20)         60.0241         estimate D2E/DX2                !
 ! D87   D(52,13,19,57)        -61.642          estimate D2E/DX2                !
 ! D88   D(13,14,15,54)       -169.8254         estimate D2E/DX2                !
 ! D89   D(16,14,15,54)        -48.0903         estimate D2E/DX2                !
 ! D90   D(53,14,15,54)         71.6697         estimate D2E/DX2                !
 ! D91   D(13,14,16,17)        -52.5797         estimate D2E/DX2                !
 ! D92   D(13,14,16,40)       -174.4578         estimate D2E/DX2                !
 ! D93   D(13,14,16,55)         66.64           estimate D2E/DX2                !
 ! D94   D(15,14,16,17)       -174.0567         estimate D2E/DX2                !
 ! D95   D(15,14,16,40)         64.0652         estimate D2E/DX2                !
 ! D96   D(15,14,16,55)        -54.837          estimate D2E/DX2                !
 ! D97   D(53,14,16,17)         65.497          estimate D2E/DX2                !
 ! D98   D(53,14,16,40)        -56.3811         estimate D2E/DX2                !
 ! D99   D(53,14,16,55)       -175.2833         estimate D2E/DX2                !
 ! D100  D(14,16,17,18)         49.3637         estimate D2E/DX2                !
 ! D101  D(14,16,17,22)        171.9465         estimate D2E/DX2                !
 ! D102  D(14,16,17,56)        -70.7181         estimate D2E/DX2                !
 ! D103  D(40,16,17,18)        168.9959         estimate D2E/DX2                !
 ! D104  D(40,16,17,22)        -68.4213         estimate D2E/DX2                !
 ! D105  D(40,16,17,56)         48.9141         estimate D2E/DX2                !
 ! D106  D(55,16,17,18)        -67.8193         estimate D2E/DX2                !
 ! D107  D(55,16,17,22)         54.7636         estimate D2E/DX2                !
 ! D108  D(55,16,17,56)        172.099          estimate D2E/DX2                !
 ! D109  D(14,16,40,84)       -163.3065         estimate D2E/DX2                !
 ! D110  D(17,16,40,84)         74.7892         estimate D2E/DX2                !
 ! D111  D(55,16,40,84)        -47.5593         estimate D2E/DX2                !
 ! D112  D(16,17,18,19)        -55.1792         estimate D2E/DX2                !
 ! D113  D(22,17,18,19)        178.5883         estimate D2E/DX2                !
 ! D114  D(56,17,18,19)         64.9486         estimate D2E/DX2                !
 ! D115  D(16,17,22,23)        -50.7887         estimate D2E/DX2                !
 ! D116  D(18,17,22,23)         73.5336         estimate D2E/DX2                !
 ! D117  D(56,17,22,23)       -170.3209         estimate D2E/DX2                !
 ! D118  D(17,18,19,13)         61.7986         estimate D2E/DX2                !
 ! D119  D(17,18,19,20)       -175.7968         estimate D2E/DX2                !
 ! D120  D(17,18,19,57)        -57.2237         estimate D2E/DX2                !
 ! D121  D(13,19,20,21)        -54.7909         estimate D2E/DX2                !
 ! D122  D(13,19,20,58)         62.6407         estimate D2E/DX2                !
 ! D123  D(13,19,20,59)       -179.6596         estimate D2E/DX2                !
 ! D124  D(18,19,20,21)       -175.0522         estimate D2E/DX2                !
 ! D125  D(18,19,20,58)        -57.6206         estimate D2E/DX2                !
 ! D126  D(18,19,20,59)         60.0792         estimate D2E/DX2                !
 ! D127  D(57,19,20,21)         66.3872         estimate D2E/DX2                !
 ! D128  D(57,19,20,58)       -176.1812         estimate D2E/DX2                !
 ! D129  D(57,19,20,59)        -58.4814         estimate D2E/DX2                !
 ! D130  D(19,20,21,60)        -84.5557         estimate D2E/DX2                !
 ! D131  D(58,20,21,60)        156.6441         estimate D2E/DX2                !
 ! D132  D(59,20,21,60)         38.5709         estimate D2E/DX2                !
 ! D133  D(17,22,23,24)        121.6192         estimate D2E/DX2                !
 ! D134  D(17,22,23,28)       -118.9847         estimate D2E/DX2                !
 ! D135  D(17,22,23,61)          0.281          estimate D2E/DX2                !
 ! D136  D(22,23,24,25)        177.0562         estimate D2E/DX2                !
 ! D137  D(22,23,24,39)        -62.3363         estimate D2E/DX2                !
 ! D138  D(22,23,24,62)         57.5309         estimate D2E/DX2                !
 ! D139  D(28,23,24,25)         55.304          estimate D2E/DX2                !
 ! D140  D(28,23,24,39)        175.9114         estimate D2E/DX2                !
 ! D141  D(28,23,24,62)        -64.2214         estimate D2E/DX2                !
 ! D142  D(61,23,24,25)        -60.6013         estimate D2E/DX2                !
 ! D143  D(61,23,24,39)         60.0061         estimate D2E/DX2                !
 ! D144  D(61,23,24,62)        179.8733         estimate D2E/DX2                !
 ! D145  D(22,23,28,27)        176.2339         estimate D2E/DX2                !
 ! D146  D(22,23,28,29)         56.1545         estimate D2E/DX2                !
 ! D147  D(22,23,28,65)        -64.0913         estimate D2E/DX2                !
 ! D148  D(24,23,28,27)        -63.2164         estimate D2E/DX2                !
 ! D149  D(24,23,28,29)        176.7042         estimate D2E/DX2                !
 ! D150  D(24,23,28,65)         56.4584         estimate D2E/DX2                !
 ! D151  D(61,23,28,27)         54.4258         estimate D2E/DX2                !
 ! D152  D(61,23,28,29)        -65.6536         estimate D2E/DX2                !
 ! D153  D(61,23,28,65)        174.1006         estimate D2E/DX2                !
 ! D154  D(23,24,25,26)        -49.8786         estimate D2E/DX2                !
 ! D155  D(23,24,25,38)       -173.7825         estimate D2E/DX2                !
 ! D156  D(23,24,25,63)         66.9262         estimate D2E/DX2                !
 ! D157  D(39,24,25,26)       -170.9603         estimate D2E/DX2                !
 ! D158  D(39,24,25,38)         65.1358         estimate D2E/DX2                !
 ! D159  D(39,24,25,63)        -54.1555         estimate D2E/DX2                !
 ! D160  D(62,24,25,26)         68.9324         estimate D2E/DX2                !
 ! D161  D(62,24,25,38)        -54.9716         estimate D2E/DX2                !
 ! D162  D(62,24,25,63)       -174.2628         estimate D2E/DX2                !
 ! D163  D(23,24,39,83)       -174.4215         estimate D2E/DX2                !
 ! D164  D(25,24,39,83)        -53.2977         estimate D2E/DX2                !
 ! D165  D(62,24,39,83)         66.6165         estimate D2E/DX2                !
 ! D166  D(24,25,26,27)         50.4002         estimate D2E/DX2                !
 ! D167  D(24,25,26,31)        169.0337         estimate D2E/DX2                !
 ! D168  D(24,25,26,64)        -70.0649         estimate D2E/DX2                !
 ! D169  D(38,25,26,27)        170.9987         estimate D2E/DX2                !
 ! D170  D(38,25,26,31)        -70.3678         estimate D2E/DX2                !
 ! D171  D(38,25,26,64)         50.5337         estimate D2E/DX2                !
 ! D172  D(63,25,26,27)        -67.2611         estimate D2E/DX2                !
 ! D173  D(63,25,26,31)         51.3724         estimate D2E/DX2                !
 ! D174  D(63,25,26,64)        172.2739         estimate D2E/DX2                !
 ! D175  D(24,25,38,82)       -174.1253         estimate D2E/DX2                !
 ! D176  D(26,25,38,82)         62.0297         estimate D2E/DX2                !
 ! D177  D(63,25,38,82)        -56.9878         estimate D2E/DX2                !
 ! D178  D(25,26,27,28)        -60.3329         estimate D2E/DX2                !
 ! D179  D(31,26,27,28)       -176.3423         estimate D2E/DX2                !
 ! D180  D(64,26,27,28)         61.6002         estimate D2E/DX2                !
 ! D181  D(25,26,31,32)       -179.1746         estimate D2E/DX2                !
 ! D182  D(27,26,31,32)        -60.5581         estimate D2E/DX2                !
 ! D183  D(64,26,31,32)         59.981          estimate D2E/DX2                !
 ! D184  D(26,27,28,23)         67.5608         estimate D2E/DX2                !
 ! D185  D(26,27,28,29)       -168.5995         estimate D2E/DX2                !
 ! D186  D(26,27,28,65)        -51.553          estimate D2E/DX2                !
 ! D187  D(23,28,29,30)         54.3132         estimate D2E/DX2                !
 ! D188  D(23,28,29,66)        173.8946         estimate D2E/DX2                !
 ! D189  D(23,28,29,67)        -68.3164         estimate D2E/DX2                !
 ! D190  D(27,28,29,30)        -65.5375         estimate D2E/DX2                !
 ! D191  D(27,28,29,66)         54.044          estimate D2E/DX2                !
 ! D192  D(27,28,29,67)        171.833          estimate D2E/DX2                !
 ! D193  D(65,28,29,30)        175.6242         estimate D2E/DX2                !
 ! D194  D(65,28,29,66)        -64.7943         estimate D2E/DX2                !
 ! D195  D(65,28,29,67)         52.9946         estimate D2E/DX2                !
 ! D196  D(28,29,30,68)        -80.1221         estimate D2E/DX2                !
 ! D197  D(66,29,30,68)        159.8965         estimate D2E/DX2                !
 ! D198  D(67,29,30,68)         41.9384         estimate D2E/DX2                !
 ! D199  D(26,31,32,33)         94.0796         estimate D2E/DX2                !
 ! D200  D(26,31,32,69)        -29.1503         estimate D2E/DX2                !
 ! D201  D(26,31,32,70)       -145.8015         estimate D2E/DX2                !
 ! D202  D(31,32,33,34)         56.1341         estimate D2E/DX2                !
 ! D203  D(31,32,33,71)        -65.6316         estimate D2E/DX2                !
 ! D204  D(31,32,33,72)        179.3535         estimate D2E/DX2                !
 ! D205  D(69,32,33,34)        178.8329         estimate D2E/DX2                !
 ! D206  D(69,32,33,71)         57.0672         estimate D2E/DX2                !
 ! D207  D(69,32,33,72)        -57.9478         estimate D2E/DX2                !
 ! D208  D(70,32,33,34)        -61.0591         estimate D2E/DX2                !
 ! D209  D(70,32,33,71)        177.1752         estimate D2E/DX2                !
 ! D210  D(70,32,33,72)         62.1602         estimate D2E/DX2                !
 ! D211  D(32,33,34,35)       -147.1747         estimate D2E/DX2                !
 ! D212  D(32,33,34,73)         88.9165         estimate D2E/DX2                !
 ! D213  D(32,33,34,74)        -26.9523         estimate D2E/DX2                !
 ! D214  D(71,33,34,35)        -28.3081         estimate D2E/DX2                !
 ! D215  D(71,33,34,73)       -152.217          estimate D2E/DX2                !
 ! D216  D(71,33,34,74)         91.9142         estimate D2E/DX2                !
 ! D217  D(72,33,34,35)         90.737          estimate D2E/DX2                !
 ! D218  D(72,33,34,73)        -33.1719         estimate D2E/DX2                !
 ! D219  D(72,33,34,74)       -149.0407         estimate D2E/DX2                !
 ! D220  D(33,34,35,36)         60.8285         estimate D2E/DX2                !
 ! D221  D(33,34,35,75)        -62.9576         estimate D2E/DX2                !
 ! D222  D(33,34,35,76)       -178.5201         estimate D2E/DX2                !
 ! D223  D(73,34,35,36)       -174.9809         estimate D2E/DX2                !
 ! D224  D(73,34,35,75)         61.233          estimate D2E/DX2                !
 ! D225  D(73,34,35,76)        -54.3295         estimate D2E/DX2                !
 ! D226  D(74,34,35,36)        -60.0684         estimate D2E/DX2                !
 ! D227  D(74,34,35,75)        176.1455         estimate D2E/DX2                !
 ! D228  D(74,34,35,76)         60.583          estimate D2E/DX2                !
 ! D229  D(34,35,36,37)       -101.3478         estimate D2E/DX2                !
 ! D230  D(34,35,36,77)         18.3702         estimate D2E/DX2                !
 ! D231  D(34,35,36,78)        139.7438         estimate D2E/DX2                !
 ! D232  D(75,35,36,37)         23.2528         estimate D2E/DX2                !
 ! D233  D(75,35,36,77)        142.9709         estimate D2E/DX2                !
 ! D234  D(75,35,36,78)        -95.6556         estimate D2E/DX2                !
 ! D235  D(76,35,36,37)        138.0171         estimate D2E/DX2                !
 ! D236  D(76,35,36,77)       -102.2648         estimate D2E/DX2                !
 ! D237  D(76,35,36,78)         19.1087         estimate D2E/DX2                !
 ! D238  D(35,36,37,79)        151.3675         estimate D2E/DX2                !
 ! D239  D(35,36,37,80)         32.458          estimate D2E/DX2                !
 ! D240  D(35,36,37,81)        -86.7702         estimate D2E/DX2                !
 ! D241  D(77,36,37,79)         29.5974         estimate D2E/DX2                !
 ! D242  D(77,36,37,80)        -89.3121         estimate D2E/DX2                !
 ! D243  D(77,36,37,81)        151.4597         estimate D2E/DX2                !
 ! D244  D(78,36,37,79)        -86.0184         estimate D2E/DX2                !
 ! D245  D(78,36,37,80)        155.0721         estimate D2E/DX2                !
 ! D246  D(78,36,37,81)         35.8439         estimate D2E/DX2                !
 --------------------------------------------------------------------------------
 Trust Radius=3.00D-01 FncErr=1.00D-07 GrdErr=1.00D-06
 Number of steps in this run=    504 maximum allowed number of steps=    504.
 GradGradGradGradGradGradGradGradGradGradGradGradGradGradGradGradGradGrad

 Leave Link  103 at Thu Mar 24 21:45:18 2016, MaxMem= 10737418240 cpu:         0.4
 (Enter /share/apps//g09/l202.exe)
 Stoichiometry    C23H44NO16(1+)
 Framework group  C1[X(C23H44NO16)]
 Deg. of freedom   246
 Full point group                 C1      NOp   1
 Largest Abelian subgroup         C1      NOp   1
 Largest concise Abelian subgroup C1      NOp   1
                         Standard orientation:                         
 ---------------------------------------------------------------------
 Center     Atomic      Atomic             Coordinates (Angstroms)
 Number     Number       Type             X           Y           Z
 ---------------------------------------------------------------------
      1          8           0        2.601018    0.815962    0.642804
      2          6           0        2.914240   -0.302654   -0.155356
      3          6           0        3.165646    0.137677   -1.587833
      4          6           0        4.313198    1.127064   -1.615948
      5          6           0        4.087717    2.262891   -0.635073
      6          6           0        3.689777    1.714896    0.730127
      7          6           0        3.342061    2.796227    1.731650
      8          8           0        2.240919    3.598553    1.337731
      9          8           0        3.075264    3.130950   -1.121014
     10          8           0        4.468422    1.712176   -2.885322
     11          8           0        3.532244   -0.928931   -2.412102
     12          8           0        1.817084   -1.150045   -0.113120
     13          6           0        2.039227   -2.503962    0.238771
     14          6           0        1.321066   -3.392961   -0.752111
     15          8           0        1.827143   -3.170652   -2.046460
     16          6           0       -0.169572   -3.122271   -0.715127
     17          6           0       -0.714796   -3.215217    0.712210
     18          8           0        0.077249   -2.449721    1.616879
     19          6           0        1.457115   -2.775321    1.616144
     20          6           0        2.108619   -1.938340    2.706412
     21          8           0        3.505460   -2.102453    2.717482
     22          8           0       -2.032570   -2.808659    0.849167
     23          6           0       -2.411496   -1.553962    0.318746
     24          6           0       -3.522815   -1.741678   -0.694680
     25          6           0       -3.986331   -0.397030   -1.216315
     26          6           0       -4.286653    0.587951   -0.097801
     27          8           0       -3.199004    0.638175    0.805214
     28          6           0       -2.928207   -0.613084    1.409067
     29          6           0       -1.955976   -0.386905    2.542892
     30          8           0       -0.689553    0.059892    2.104283
     31          8           0       -4.445716    1.809445   -0.709127
     32          6           0       -4.721750    2.930744    0.121306
     33          6           0       -3.439929    3.662284    0.485052
     34          6           0       -2.647983    4.099292   -0.747857
     35          6           0       -1.132503    4.100457   -0.576100
     36          6           0       -0.569431    2.719203   -0.247068
     37          7           0       -0.260002    2.563624    1.201089
     38          8           0       -5.101326   -0.642688   -2.030822
     39          8           0       -3.066921   -2.528733   -1.773913
     40          8           0       -0.784009   -4.056159   -1.552186
     41          1           0        3.803446   -0.807354    0.251247
     42          1           0        2.249842    0.632427   -1.939851
     43          1           0        5.225829    0.589769   -1.324498
     44          1           0        5.024465    2.821509   -0.520440
     45          1           0        4.569134    1.185810    1.128108
     46          1           0        4.224634    3.422646    1.892789
     47          1           0        3.078626    2.334230    2.683092
     48          1           0        2.403023    3.848322    0.414199
     49          1           0        3.255954    3.260413   -2.058909
     50          1           0        4.462955    1.008226   -3.539187
     51          1           0        2.852948   -1.621110   -2.391014
     52          1           0        3.106889   -2.732721    0.236605
     53          1           0        1.496101   -4.436611   -0.458366
     54          1           0        1.246326   -3.625347   -2.663969
     55          1           0       -0.305253   -2.104619   -1.094636
     56          1           0       -0.704490   -4.263352    1.030372
     57          1           0        1.582805   -3.842698    1.847463
     58          1           0        1.919484   -0.883059    2.503059
     59          1           0        1.653118   -2.182354    3.669969
     60          1           0        3.739919   -2.877295    3.228890
     61          1           0       -1.564549   -1.053638   -0.156429
     62          1           0       -4.360006   -2.247149   -0.195945
     63          1           0       -3.161821    0.038743   -1.797738
     64          1           0       -5.194603    0.296680    0.456826
     65          1           0       -3.848141   -1.031348    1.843836
     66          1           0       -2.367852    0.374948    3.206107
     67          1           0       -1.849217   -1.313802    3.109180
     68          1           0       -0.207852   -0.729155    1.796976
     69          1           0       -5.259282    2.610828    1.018756
     70          1           0       -5.383602    3.576447   -0.458738
     71          1           0       -2.861426    2.973105    1.100932
     72          1           0       -3.689763    4.522232    1.112182
     73          1           0       -2.976262    5.090245   -1.067674
     74          1           0       -2.881296    3.418541   -1.569686
     75          1           0       -0.821860    4.818044    0.191536
     76          1           0       -0.676642    4.451823   -1.503045
     77          1           0       -1.284963    1.939666   -0.507840
     78          1           0        0.364716    2.521343   -0.771063
     79          1           0       -0.344862    1.566334    1.507483
     80          1           0       -0.910109    3.103305    1.763705
     81          1           0        0.709461    2.915678    1.381635
     82          1           0       -5.365489    0.177790   -2.452139
     83          1           0       -3.766370   -2.551495   -2.433088
     84          1           0       -1.676919   -3.730070   -1.740901
 ---------------------------------------------------------------------
 Rotational constants (GHZ):      0.1069172      0.0784935      0.0592914
 Leave Link  202 at Thu Mar 24 21:45:18 2016, MaxMem= 10737418240 cpu:         0.6
 (Enter /share/apps//g09/l301.exe)
 Standard basis: 6-311+G(d,p) (5D, 7F)
 Ernie: Thresh=  0.10000D-02 Tol=  0.10000D-05 Strict=F.
 There are  1184 symmetry adapted cartesian basis functions of A   symmetry.
 There are  1144 symmetry adapted basis functions of A   symmetry.
  1144 basis functions,  1792 primitive gaussians,  1184 cartesian basis functions
   158 alpha electrons      158 beta electrons
       nuclear repulsion energy      5956.4939944535 Hartrees.
 IExCor= 1009 DFT=T Ex+Corr=PBE1PBE ExCW=0 ScaHFX=  0.250000
 ScaDFX=  0.750000  0.750000  1.000000  1.000000 ScalE2=  1.000000  1.000000
 IRadAn=      0 IRanWt=     -1 IRanGd=            0 ICorTp=0 IEmpDi=131
 NAtoms=   84 NActive=   84 NUniq=   84 SFac= 1.00D+00 NAtFMM=   60 NAOKFM=T Big=T
 Integral buffers will be    131072 words long.
 Raffenetti 2 integral format.
 Two-electron integral symmetry is turned on.
 R6Disp:  Grimme-D3 Dispersion energy=       -0.0844416280 Hartrees.
 Nuclear repulsion after empirical dispersion term =     5956.4095528255 Hartrees.
 Leave Link  301 at Thu Mar 24 21:45:18 2016, MaxMem= 10737418240 cpu:         1.7
 (Enter /share/apps//g09/l302.exe)
 NPDir=0 NMtPBC=     1 NCelOv=     1 NCel=       1 NClECP=     1 NCelD=      1
         NCelK=      1 NCelE2=     1 NClLst=     1 CellRange=     0.0.
 One-electron integrals computed using PRISM.
 NBasis=  1144 RedAO= T EigKep=  1.54D-06  NBF=  1144
 NBsUse=  1144 1.00D-06 EigRej= -1.00D+00 NBFU=  1144
 Precomputing XC quadrature grid using
 IXCGrd= 4 IRadAn=           0 IRanWt=          -1 IRanGd=           0 AccXCQ= 0.00D+00.
 Generated NRdTot=       0 NPtTot=           0 NUsed=           0 NTot=          32
 NSgBfM=  1068  1075  1082  1082  1082 MxSgAt=    84 MxSgA2=    84.
 Leave Link  302 at Thu Mar 24 21:45:22 2016, MaxMem= 10737418240 cpu:        56.4
 (Enter /share/apps//g09/l303.exe)
 DipDrv:  MaxL=1.
 Leave Link  303 at Thu Mar 24 21:45:24 2016, MaxMem= 10737418240 cpu:        27.6
 (Enter /share/apps//g09/l401.exe)
 ExpMin= 4.38D-02 ExpMax= 8.59D+03 ExpMxC= 1.30D+03 IAcc=2 IRadAn=         4 AccDes= 0.00D+00
 Harris functional with IExCor= 1009 and IRadAn=       4 diagonalized for initial guess.
 HarFok:  IExCor= 1009 AccDes= 0.00D+00 IRadAn=         4 IDoV= 1 UseB2=F ITyADJ=14
 ICtDFT=  3500011 ScaDFX=  1.000000  1.000000  1.000000  1.000000
 FoFCou: FMM=F IPFlag=           0 FMFlag=      100000 FMFlg1=        2001
         NFxFlg=           0 DoJE=T BraDBF=F KetDBF=T FulRan=T
         wScrn=  0.000000 ICntrl=     500 IOpCl=  0 I1Cent=   200000004 NGrid=           0
         NMat0=    1 NMatS0=      1 NMatT0=    0 NMatD0=    1 NMtDS0=    0 NMtDT0=    0
 Petite list used in FoFCou.
 Harris En= -2159.74010045740    
 JPrj=0 DoOrth=F DoCkMO=F.
 Leave Link  401 at Thu Mar 24 21:45:30 2016, MaxMem= 10737418240 cpu:       117.0
 (Enter /share/apps//g09/l502.exe)
 Closed shell SCF:
 Using DIIS extrapolation, IDIIS=  1040.
 Integral symmetry usage will be decided dynamically.
 IVT=     4256630 IEndB=     4256630 NGot= 10737418240 MDV= 10734581291
 LenX= 10734581291 LenY= 10733178251
 Requested convergence on RMS density matrix=1.00D-08 within 128 cycles.
 Requested convergence on MAX density matrix=1.00D-06.
 Requested convergence on             energy=1.00D-06.
 No special actions if energy rises.
 Fock matrices will be formed incrementally for  20 cycles.

 Cycle   1  Pass 1  IDiag  1:
 FoFJK:  IHMeth= 1 ICntrl=       0 DoSepK=F KAlg= 0 I1Cent=   0 FoldK=F
 IRaf= 790000000 NMat=   1 IRICut=       1 DoRegI=T DoRafI=F ISym2E= 0.
 FoFCou: FMM=T IPFlag=           0 FMFlag=      100000 FMFlg1=        2001
         NFxFlg=           0 DoJE=F BraDBF=F KetDBF=F FulRan=T
         wScrn=  0.000000 ICntrl=       0 IOpCl=  0 I1Cent=           0 NGrid=           0
         NMat0=    1 NMatS0=      1 NMatT0=    0 NMatD0=    1 NMtDS0=    0 NMtDT0=    0
 Symmetry not used in FoFCou.
 FMM levels:  10  Number of levels for PrismC:   9
 E= -2158.67896876541    
 DIIS: error= 1.31D-02 at cycle   1 NSaved=   1.
 NSaved= 1 IEnMin= 1 EnMin= -2158.67896876541     IErMin= 1 ErrMin= 1.31D-02
 ErrMax= 1.31D-02  0.00D+00 EMaxC= 1.00D-01 BMatC= 1.06D+00 BMatP= 1.06D+00
 IDIUse=3 WtCom= 8.69D-01 WtEn= 1.31D-01
 Coeff-Com:  0.100D+01
 Coeff-En:   0.100D+01
 Coeff:      0.100D+01
 Gap=     0.274 Goal=   None    Shift=    0.000
 GapD=    0.274 DampG=1.000 DampE=0.500 DampFc=0.5000 IDamp=-1.
 Damping current iteration by 5.00D-01
 RMSDP=1.01D-02 MaxDP=1.52D+00              OVMax= 1.40D-01

 Cycle   2  Pass 1  IDiag  1:
 RMSU=  5.02D-03    CP:  9.91D-01
 E= -2158.98085050387     Delta-E=       -0.301881738459 Rises=F Damp=T
 DIIS: error= 3.19D-03 at cycle   2 NSaved=   2.
 NSaved= 2 IEnMin= 2 EnMin= -2158.98085050387     IErMin= 2 ErrMin= 3.19D-03
 ErrMax= 3.19D-03  0.00D+00 EMaxC= 1.00D-01 BMatC= 7.89D-02 BMatP= 1.06D+00
 IDIUse=3 WtCom= 9.68D-01 WtEn= 3.19D-02
 Coeff-Com:  0.478D-01 0.952D+00
 Coeff-En:   0.136D+00 0.864D+00
 Coeff:      0.507D-01 0.949D+00
 Gap=     0.293 Goal=   None    Shift=    0.000
 RMSDP=4.58D-03 MaxDP=1.28D+00 DE=-3.02D-01 OVMax= 7.97D-02

 Cycle   3  Pass 1  IDiag  1:
 RMSU=  2.89D-03    CP:  9.02D-01  8.69D-01
 E= -2159.36239959489     Delta-E=       -0.381549091015 Rises=F Damp=F
 DIIS: error= 3.24D-03 at cycle   3 NSaved=   3.
 NSaved= 3 IEnMin= 3 EnMin= -2159.36239959489     IErMin= 2 ErrMin= 3.19D-03
 ErrMax= 3.24D-03  0.00D+00 EMaxC= 1.00D-01 BMatC= 4.23D-02 BMatP= 7.89D-02
 IDIUse=3 WtCom= 9.68D-01 WtEn= 3.24D-02
 Coeff-Com: -0.689D-01 0.404D+00 0.664D+00
 Coeff-En:   0.000D+00 0.000D+00 0.100D+01
 Coeff:     -0.667D-01 0.391D+00 0.675D+00
 Gap=     0.278 Goal=   None    Shift=    0.000
 RMSDP=1.78D-03 MaxDP=5.08D-01 DE=-3.82D-01 OVMax= 1.67D-02

 Cycle   4  Pass 1  IDiag  1:
 RMSU=  1.25D-03    CP:  9.25D-01  1.03D+00  8.71D-01
 E= -2159.38828563771     Delta-E=       -0.025886042829 Rises=F Damp=F
 DIIS: error= 1.04D-03 at cycle   4 NSaved=   4.
 NSaved= 4 IEnMin= 4 EnMin= -2159.38828563771     IErMin= 4 ErrMin= 1.04D-03
 ErrMax= 1.04D-03  0.00D+00 EMaxC= 1.00D-01 BMatC= 5.76D-03 BMatP= 4.23D-02
 IDIUse=3 WtCom= 9.90D-01 WtEn= 1.04D-02
 Coeff-Com: -0.364D-01 0.124D+00 0.344D+00 0.569D+00
 Coeff-En:   0.000D+00 0.000D+00 0.744D-01 0.926D+00
 Coeff:     -0.360D-01 0.122D+00 0.341D+00 0.573D+00
 Gap=     0.270 Goal=   None    Shift=    0.000
 RMSDP=1.23D-03 MaxDP=4.33D-01 DE=-2.59D-02 OVMax= 5.23D-03

 Cycle   5  Pass 1  IDiag  1:
 RMSU=  3.32D-04    CP:  8.99D-01  9.82D-01  8.69D-01  5.67D-01
 E= -2159.39309666851     Delta-E=       -0.004811030799 Rises=F Damp=F
 DIIS: error= 3.46D-04 at cycle   5 NSaved=   5.
 NSaved= 5 IEnMin= 5 EnMin= -2159.39309666851     IErMin= 5 ErrMin= 3.46D-04
 ErrMax= 3.46D-04  0.00D+00 EMaxC= 1.00D-01 BMatC= 2.61D-04 BMatP= 5.76D-03
 IDIUse=3 WtCom= 9.97D-01 WtEn= 3.46D-03
 Coeff-Com: -0.115D-01 0.268D-01 0.103D+00 0.250D+00 0.631D+00
 Coeff-En:   0.000D+00 0.000D+00 0.000D+00 0.000D+00 0.100D+01
 Coeff:     -0.115D-01 0.267D-01 0.103D+00 0.249D+00 0.633D+00
 Gap=     0.270 Goal=   None    Shift=    0.000
 RMSDP=1.79D-04 MaxDP=4.61D-02 DE=-4.81D-03 OVMax= 1.41D-03

 Cycle   6  Pass 1  IDiag  1:
 RMSU=  8.22D-05    CP:  9.02D-01  9.90D-01  8.86D-01  5.95D-01  7.28D-01
 E= -2159.39328312477     Delta-E=       -0.000186456258 Rises=F Damp=F
 DIIS: error= 1.05D-04 at cycle   6 NSaved=   6.
 NSaved= 6 IEnMin= 6 EnMin= -2159.39328312477     IErMin= 6 ErrMin= 1.05D-04
 ErrMax= 1.05D-04  0.00D+00 EMaxC= 1.00D-01 BMatC= 2.66D-05 BMatP= 2.61D-04
 IDIUse=3 WtCom= 9.99D-01 WtEn= 1.05D-03
 Coeff-Com: -0.408D-02 0.743D-02 0.358D-01 0.101D+00 0.333D+00 0.527D+00
 Coeff-En:   0.000D+00 0.000D+00 0.000D+00 0.000D+00 0.000D+00 0.100D+01
 Coeff:     -0.408D-02 0.743D-02 0.358D-01 0.101D+00 0.332D+00 0.527D+00
 Gap=     0.270 Goal=   None    Shift=    0.000
 RMSDP=3.49D-05 MaxDP=1.36D-02 DE=-1.86D-04 OVMax= 5.04D-04

 Cycle   7  Pass 1  IDiag  1:
 RMSU=  1.65D-05    CP:  9.02D-01  9.89D-01  8.86D-01  6.05D-01  7.45D-01
                    CP:  7.10D-01
 E= -2159.39330157197     Delta-E=       -0.000018447199 Rises=F Damp=F
 DIIS: error= 2.86D-05 at cycle   7 NSaved=   7.
 NSaved= 7 IEnMin= 7 EnMin= -2159.39330157197     IErMin= 7 ErrMin= 2.86D-05
 ErrMax= 2.86D-05  0.00D+00 EMaxC= 1.00D-01 BMatC= 1.83D-06 BMatP= 2.66D-05
 IDIUse=1 WtCom= 1.00D+00 WtEn= 0.00D+00
 Coeff-Com: -0.104D-02 0.147D-02 0.945D-02 0.309D-01 0.117D+00 0.266D+00
 Coeff-Com:  0.577D+00
 Coeff:     -0.104D-02 0.147D-02 0.945D-02 0.309D-01 0.117D+00 0.266D+00
 Coeff:      0.577D+00
 Gap=     0.270 Goal=   None    Shift=    0.000
 RMSDP=8.63D-06 MaxDP=1.56D-03 DE=-1.84D-05 OVMax= 1.36D-04

 Cycle   8  Pass 1  IDiag  1:
 RMSU=  6.39D-06    CP:  9.02D-01  9.90D-01  8.85D-01  6.08D-01  7.54D-01
                    CP:  7.14D-01  8.07D-01
 E= -2159.39330277297     Delta-E=       -0.000001201000 Rises=F Damp=F
 DIIS: error= 5.78D-06 at cycle   8 NSaved=   8.
 NSaved= 8 IEnMin= 8 EnMin= -2159.39330277297     IErMin= 8 ErrMin= 5.78D-06
 ErrMax= 5.78D-06  0.00D+00 EMaxC= 1.00D-01 BMatC= 1.30D-07 BMatP= 1.83D-06
 IDIUse=1 WtCom= 1.00D+00 WtEn= 0.00D+00
 Coeff-Com: -0.343D-05-0.179D-03 0.240D-03 0.251D-02 0.129D-01 0.535D-01
 Coeff-Com:  0.252D+00 0.679D+00
 Coeff:     -0.343D-05-0.179D-03 0.240D-03 0.251D-02 0.129D-01 0.535D-01
 Coeff:      0.252D+00 0.679D+00
 Gap=     0.270 Goal=   None    Shift=    0.000
 RMSDP=3.68D-06 MaxDP=1.26D-03 DE=-1.20D-06 OVMax= 3.72D-05

 Cycle   9  Pass 1  IDiag  1:
 RMSU=  2.03D-06    CP:  9.02D-01  9.89D-01  8.86D-01  6.07D-01  7.56D-01
                    CP:  7.14D-01  8.45D-01  8.81D-01
 E= -2159.39330286901     Delta-E=       -0.000000096036 Rises=F Damp=F
 DIIS: error= 2.38D-06 at cycle   9 NSaved=   9.
 NSaved= 9 IEnMin= 9 EnMin= -2159.39330286901     IErMin= 9 ErrMin= 2.38D-06
 ErrMax= 2.38D-06  0.00D+00 EMaxC= 1.00D-01 BMatC= 1.05D-08 BMatP= 1.30D-07
 IDIUse=1 WtCom= 1.00D+00 WtEn= 0.00D+00
 Coeff-Com:  0.642D-04-0.170D-03-0.525D-03-0.902D-03-0.218D-02 0.479D-02
 Coeff-Com:  0.711D-01 0.302D+00 0.625D+00
 Coeff:      0.642D-04-0.170D-03-0.525D-03-0.902D-03-0.218D-02 0.479D-02
 Coeff:      0.711D-01 0.302D+00 0.625D+00
 Gap=     0.270 Goal=   None    Shift=    0.000
 RMSDP=1.15D-06 MaxDP=3.18D-04 DE=-9.60D-08 OVMax= 9.42D-06

 Cycle  10  Pass 1  IDiag  1:
 RMSU=  6.42D-07    CP:  9.02D-01  9.89D-01  8.86D-01  6.07D-01  7.55D-01
                    CP:  7.22D-01  8.47D-01  8.91D-01  7.37D-01
 E= -2159.39330287689     Delta-E=       -0.000000007885 Rises=F Damp=F
 DIIS: error= 5.41D-07 at cycle  10 NSaved=  10.
 NSaved=10 IEnMin=10 EnMin= -2159.39330287689     IErMin=10 ErrMin= 5.41D-07
 ErrMax= 5.41D-07  0.00D+00 EMaxC= 1.00D-01 BMatC= 1.39D-09 BMatP= 1.05D-08
 IDIUse=1 WtCom= 1.00D+00 WtEn= 0.00D+00
 Coeff-Com:  0.306D-04-0.706D-04-0.285D-03-0.620D-03-0.200D-02-0.132D-02
 Coeff-Com:  0.192D-01 0.107D+00 0.332D+00 0.546D+00
 Coeff:      0.306D-04-0.706D-04-0.285D-03-0.620D-03-0.200D-02-0.132D-02
 Coeff:      0.192D-01 0.107D+00 0.332D+00 0.546D+00
 Gap=     0.270 Goal=   None    Shift=    0.000
 RMSDP=3.68D-07 MaxDP=8.42D-05 DE=-7.89D-09 OVMax= 3.30D-06

 Cycle  11  Pass 1  IDiag  1:
 RMSU=  1.52D-07    CP:  9.02D-01  9.89D-01  8.86D-01  6.07D-01  7.55D-01
                    CP:  7.20D-01  8.52D-01  9.02D-01  7.61D-01  6.55D-01
 E= -2159.39330287813     Delta-E=       -0.000000001241 Rises=F Damp=F
 DIIS: error= 1.39D-07 at cycle  11 NSaved=  11.
 NSaved=11 IEnMin=11 EnMin= -2159.39330287813     IErMin=11 ErrMin= 1.39D-07
 ErrMax= 1.39D-07  0.00D+00 EMaxC= 1.00D-01 BMatC= 1.00D-10 BMatP= 1.39D-09
 IDIUse=1 WtCom= 1.00D+00 WtEn= 0.00D+00
 Coeff-Com:  0.804D-05-0.173D-04-0.908D-04-0.210D-03-0.733D-03-0.104D-02
 Coeff-Com:  0.277D-02 0.234D-01 0.104D+00 0.265D+00 0.607D+00
 Coeff:      0.804D-05-0.173D-04-0.908D-04-0.210D-03-0.733D-03-0.104D-02
 Coeff:      0.277D-02 0.234D-01 0.104D+00 0.265D+00 0.607D+00
 Gap=     0.270 Goal=   None    Shift=    0.000
 RMSDP=6.95D-08 MaxDP=3.11D-05 DE=-1.24D-09 OVMax= 7.92D-07

 Cycle  12  Pass 1  IDiag  1:
 RMSU=  3.94D-08    CP:  9.02D-01  9.89D-01  8.86D-01  6.07D-01  7.55D-01
                    CP:  7.20D-01  8.52D-01  9.04D-01  7.73D-01  6.72D-01
                    CP:  7.80D-01
 E= -2159.39330287796     Delta-E=        0.000000000171 Rises=F Damp=F
 DIIS: error= 4.84D-08 at cycle  12 NSaved=  12.
 NSaved=12 IEnMin=11 EnMin= -2159.39330287813     IErMin=12 ErrMin= 4.84D-08
 ErrMax= 4.84D-08  0.00D+00 EMaxC= 1.00D-01 BMatC= 6.76D-12 BMatP= 1.00D-10
 IDIUse=1 WtCom= 1.00D+00 WtEn= 0.00D+00
 Coeff-Com:  0.226D-06-0.207D-06-0.115D-04-0.289D-04-0.119D-03-0.305D-03
 Coeff-Com: -0.745D-03-0.811D-03 0.106D-01 0.601D-01 0.256D+00 0.676D+00
 Coeff:      0.226D-06-0.207D-06-0.115D-04-0.289D-04-0.119D-03-0.305D-03
 Coeff:     -0.745D-03-0.811D-03 0.106D-01 0.601D-01 0.256D+00 0.676D+00
 Gap=     0.270 Goal=   None    Shift=    0.000
 RMSDP=2.21D-08 MaxDP=6.04D-06 DE= 1.71D-10 OVMax= 2.32D-07

 Cycle  13  Pass 1  IDiag  1:
 RMSU=  1.52D-08    CP:  9.02D-01  9.89D-01  8.86D-01  6.07D-01  7.55D-01
                    CP:  7.20D-01  8.52D-01  9.04D-01  7.72D-01  6.86D-01
                    CP:  7.79D-01  9.41D-01
 E= -2159.39330287811     Delta-E=       -0.000000000151 Rises=F Damp=F
 DIIS: error= 1.15D-08 at cycle  13 NSaved=  13.
 NSaved=13 IEnMin=11 EnMin= -2159.39330287813     IErMin=13 ErrMin= 1.15D-08
 ErrMax= 1.15D-08  0.00D+00 EMaxC= 1.00D-01 BMatC= 5.43D-13 BMatP= 6.76D-12
 IDIUse=1 WtCom= 1.00D+00 WtEn= 0.00D+00
 Coeff-Com: -0.352D-06 0.872D-06 0.956D-08-0.695D-06-0.948D-05-0.694D-04
 Coeff-Com: -0.485D-03-0.172D-02-0.170D-02 0.107D-01 0.755D-01 0.304D+00
 Coeff-Com:  0.614D+00
 Coeff:     -0.352D-06 0.872D-06 0.956D-08-0.695D-06-0.948D-05-0.694D-04
 Coeff:     -0.485D-03-0.172D-02-0.170D-02 0.107D-01 0.755D-01 0.304D+00
 Coeff:      0.614D+00
 Gap=     0.270 Goal=   None    Shift=    0.000
 RMSDP=6.97D-09 MaxDP=1.56D-06 DE=-1.51D-10 OVMax= 7.79D-08

 Cycle  14  Pass 1  IDiag  1:
[...]
 68,-0.00001463,-0.00000738,0.00002125,0.00002567,0.00002382,0.00000387
 ,-0.00000265,0.00003025,-0.00000001,0.00003972,-0.00009430,0.00005167,
 -0.00002013,0.00016419,-0.00108423,-0.00209453,-0.34253624,-0.13629961
 ,-0.21282864,-0.00099553,0.00022401,0.00109796,-0.00000067,0.00000815,
 0.00000230,-0.00000347,-0.00000607,0.00000094,-0.00000461,0.00000027,0
 .00000109,-0.00000711,0.00000496,0.00000215,-0.00000003,0.00000377,0.0
 0000047,-0.00000583,0.00000220,0.00000355,-0.00000276,-0.00000156,-0.0
 0000474,0.00001756,-0.00000278,-0.00000552,0.00001947,-0.00000594,-0.0
 0000423,0.00000954,-0.00001690,0.00000529,0.00000991,-0.00009265,-0.00
 000995,-0.00000496,0.00002036,0.00000742,0.00000788,-0.00001498,-0.000
 00628,-0.00007575,-0.00004528,0.00000595,-0.00002132,0.00004441,-0.000
 00528,0.00000569,0.00000662,-0.00001199,0.00000740,0.00000636,-0.00000
 962,0.00000203,-0.00000470,0.00000210,0.00000072,0.00000158,0.00000174
 ,-0.00001468,-0.00000684,-0.00001275,0.00000301,0.00012658,-0.00002927
 ,-0.00013176,-0.00056751,0.00123409,-0.00026841,-0.00021750,-0.0001650
 7,0.00001812,-0.00001654,0.00001239,-0.00000846,0.00006001,-0.00006821
 ,0.00007883,0.00006413,0.00013186,-0.00003479,-0.00001633,-0.00003766,
 0.00000008,-0.00005034,-0.00008058,0.00001786,-0.00000350,-0.00003472,
 -0.00000256,0.00000503,0.00000419,-0.00002379,-0.00000412,-0.00000755,
 -0.00000415,-0.00001524,-0.00001301,-0.00000827,-0.00000207,-0.0000000
 6,0.00000589,0.00001564,-0.00001120,-0.00001494,-0.00000699,-0.0000095
 6,-0.00000620,0.00000324,0.00000487,0.00004100,-0.00000069,-0.00000120
 ,-0.00000264,-0.00000862,-0.00000583,0.00011108,-0.00015417,-0.0000281
 5,0.00003478,0.00000217,0.00000449,0.00002144,0.00001732,-0.00000286,-
 0.00044385,-0.00008245,-0.00096305,0.33251791,0.00003370,-0.00000862,0
 .00001446,-0.00002555,0.00006409,-0.00001555,-0.00006243,-0.00001361,-
 0.00000437,-0.00000284,-0.00000824,-0.00000794,-0.00004050,-0.00000473
 ,-0.00000509,-0.00001062,-0.00000835,-0.00001079,-0.00004418,-0.000005
 29,-0.00000417,0.00005485,0.00003755,0.00001506,0.00004714,0.00002183,
 0.00001647,0.00003228,0.00001753,0.00001097,0.00006706,-0.00000404,0.0
 0002059,0.00006167,-0.00009609,-0.00000159,-0.00004066,0.00005643,0.00
 003800,-0.00010683,0.00014330,-0.00011903,0.00011416,-0.00007646,0.000
 07105,-0.00014805,-0.00022043,0.00010535,-0.00019372,-0.00010970,0.000
 12077,0.00003087,-0.00002501,-0.00005450,-0.00001022,0.00001492,0.0000
 0642,-0.00001791,0.00000595,-0.00000362,0.00002106,-0.00000572,0.00000
 525,0.00017508,0.00006200,0.00039792,0.00058738,-0.00040080,-0.0007507
 7,0.00157132,0.00046497,0.00191654,-0.00074549,0.00081337,-0.00131689,
 -0.00061853,-0.00031780,-0.00089206,0.00046338,-0.00005794,0.00031402,
 -0.00055734,0.00064192,0.00003737,0.00007418,0.00006045,-0.00003782,0.
 00004885,-0.00007786,0.00000201,-0.00022592,0.00017639,0.00060292,0.00
 007336,-0.00005953,-0.00023666,-0.00003309,0.00002208,0.00003062,0.000
 00247,-0.00002241,-0.00003596,-0.00000330,-0.00000543,0.00000486,-0.00
 003719,-0.00004064,-0.00006817,0.00007198,0.00001607,0.00004616,-0.000
 15802,-0.00103026,0.00173502,-0.13397793,-0.06004541,-0.08929186,0.000
 64612,-0.00001946,-0.00042122,0.00000865,-0.00000327,0.00000163,0.0000
 1977,-0.00000718,-0.00001171,0.00000863,0.00000579,0.00000046,0.000006
 52,0.00000563,0.00000250,0.00000708,0.00000030,-0.00000248,0.00000602,
 0.00000547,-0.00000237,0.00000032,-0.00000419,0.00000202,-0.00001217,-
 0.00001171,-0.00001409,-0.00001358,-0.00002076,-0.00000815,-0.00002269
 ,-0.00001988,0.00000156,-0.00006226,0.00002278,-0.00001591,0.00000330,
 -0.00000568,-0.00000878,-0.00000757,-0.00003643,0.00001764,-0.00010503
 ,0.00004476,-0.00000769,0.00001764,0.00016213,-0.00002855,0.00004982,0
 .00002055,-0.00002096,0.00001077,-0.00000470,-0.00000145,0.00000120,-0
 .00000011,-0.00000355,0.00000172,0.00000030,0.00000362,-0.00000789,0.0
 0000222,-0.00000146,0.00008625,0.00017354,0.00011187,0.00045320,0.0002
 6107,0.00130352,0.00027796,-0.00083969,-0.00041388,-0.00007274,0.00000
 085,0.00029988,0.00003017,-0.00003118,-0.00004160,-0.00003647,-0.00001
 133,-0.00001076,0.00002605,0.00000991,0.00001260,-0.00004385,0.0000142
 0,0.00002787,0.00000239,-0.00000585,0.00003617,-0.00002704,0.00003075,
 0.00002919,0.00001057,-0.00000885,-0.00001014,0.00000450,0.00002286,0.
 00002242,-0.00000343,0.00000961,0.00001003,0.00001759,-0.00001475,0.00
 001288,0.00000642,0.00001006,0.00001846,0.00000572,-0.00000827,-0.0000
 0829,-0.00001564,0.00001263,-0.00001990,-0.00000901,-0.00001080,-0.000
 00119,-0.00006340,0.00005794,-0.00000384,-0.00001636,-0.00000831,-0.00
 001448,-0.00003986,-0.00005933,-0.00000469,0.00025376,-0.00031977,-0.0
 0037021,0.13256970,0.06035328,0.00001110,0.00007953,0.00000588,-0.0000
 0227,-0.00015473,0.00000484,-0.00002438,0.00002446,0.00005290,0.000014
 56,-0.00004153,0.00002926,-0.00001457,-0.00000395,0.00000377,-0.000005
 55,-0.00005917,-0.00000616,-0.00003826,-0.00000094,0.00000247,0.000049
 08,0.00006293,-0.00000038,0.00001571,0.00002832,-0.00002394,-0.0000220
 9,0.00004188,-0.00005765,-0.00001267,0.00002360,-0.00007899,0.00001124
 ,0.00017019,0.00000702,0.00002261,-0.00003021,-0.00005871,-0.00000261,
 -0.00028589,0.00019224,0.00001557,0.00018153,-0.00022935,-0.00024266,-
 0.00001488,-0.00024875,-0.00057050,-0.00026534,-0.00021038,0.00025425,
 0.00021138,0.00012931,-0.00014549,-0.00006348,0.00004780,-0.00004298,-
 0.00003373,-0.00003636,0.00007354,0.00005434,0.00001829,0.00094977,0.0
 0025245,0.00091828,0.00378395,0.00136485,-0.00684086,-0.03254611,-0.01
 502509,-0.02798090,-0.00088743,-0.00220387,-0.00052924,-0.00078270,-0.
 00038599,-0.00113108,0.00063755,0.00020922,0.00057434,-0.00234300,-0.0
 0072678,-0.00065250,0.00051114,0.00007415,-0.00058113,0.00003521,0.000
 02758,0.00016852,-0.00037834,0.00054603,0.00087764,0.00014419,-0.00011
 560,-0.00039108,-0.00004440,0.00002485,0.00005380,0.00001358,-0.000015
 44,0.00000051,-0.00000788,-0.00000209,0.00000886,-0.00002567,-0.000046
 64,-0.00003474,0.00004410,0.00006780,0.00001931,-0.00080478,0.00076798
 ,-0.00021969,-0.16832445,-0.07221976,-0.16893287,0.00232129,0.00054099
 ,-0.00107756,0.00000813,0.00001108,0.00000050,0.00000942,-0.00000253,0
 .00000536,-0.00000206,0.00000287,-0.00000082,0.00000222,0.00000581,0.0
 0000101,0.00000639,0.00000280,-0.00000264,0.00000618,0.00000778,0.0000
 0087,-0.00000004,-0.00000357,-0.00000555,-0.00000510,-0.00002468,0.000
 01154,0.00000249,-0.00001281,0.00001746,0.00000982,-0.00000787,0.00002
 668,0.00002870,-0.00004948,0.00004448,0.00000462,0.00002841,0.00001218
 ,0.00005107,0.00006234,-0.00001965,0.00004267,-0.00005100,0.00017184,-
 0.00006498,-0.00029402,-0.00001687,0.00003167,-0.00001343,0.00003110,0
 .00001491,0.,-0.00001017,0.00000288,-0.00000545,0.00000118,-0.00000119
 ,0.00000160,0.00000063,-0.00002077,-0.00000515,-0.00000659,0.00028101,
 0.00004816,0.00026716,-0.00057293,0.00056182,0.00062695,0.00027556,-0.
 00001127,0.00002873,-0.00000436,0.00004627,0.00004887,-0.00002354,0.00
 003060,-0.00000006,-0.00016649,-0.00006786,-0.00013462,0.00002159,0.00
 002027,0.00000515,0.00000800,-0.00004084,-0.00005188,-0.00000003,0.000
 00569,0.00003689,-0.00004304,0.00003506,0.00004592,0.00000984,-0.00001
 536,-0.00002274,0.00000714,0.00004473,0.00002278,-0.00000833,0.0000172
 2,0.00001193,0.00001576,-0.00004431,0.00001740,0.00000323,0.00000812,0
 .00001288,0.00000620,0.00001378,-0.00001034,-0.00000870,-0.00002178,0.
 00000367,0.00000441,0.00000038,0.00001032,-0.00001964,-0.00003144,-0.0
 0001775,-0.00002149,-0.00002244,-0.00001782,-0.00005021,-0.00008700,-0
 .00000634,0.00028330,0.00018464,0.00109650,0.20081586,0.08616330,0.200
 83199,-0.00022294,0.00045732,0.00044665,0.00016764,-0.00104813,-0.0004
 2387,0.00024069,-0.00000542,-0.00019564,0.00001621,-0.00014983,0.00004
 673,0.00019715,0.00000756,-0.00004750,-0.00005376,-0.00026551,-0.00003
 395,0.00022856,0.00001571,-0.00007335,-0.00027677,-0.00011110,0.000077
 85,-0.00024100,0.00002727,0.00007771,-0.00011932,0.00018076,-0.0000575
 8,-0.00024528,0.00052745,0.00020960,-0.00025603,0.00122735,0.00043440,
 0.00101939,-0.00019346,-0.00062181,0.00029355,0.00073118,0.00092628,0.
 00052850,0.00151386,0.00013991,-0.00463526,-0.00580593,-0.00397058,0.0
 0175817,0.00191806,-0.00319422,0.00010301,0.00044969,0.00295400,-0.000
 53563,-0.00005821,-0.00019768,-0.00010322,-0.00025053,-0.00019679,0.00
 016856,0.00018684,0.00024317,-0.00379212,-0.00012204,0.00160086,0.0032
 4552,-0.00026962,0.00002483,0.00203148,-0.00033401,0.01076548,0.000061
 20,0.00059696,-0.00255707,0.00093438,0.00059403,0.00174157,-0.00092774
 ,-0.00023635,-0.00039873,-0.00056191,-0.00034128,-0.00009028,0.0007222
 0,0.00049406,-0.00023432,-0.00094270,-0.00036541,0.00038985,0.00061543
 ,-0.00077579,-0.00125353,-0.00017918,0.00022153,0.00060646,0.00006182,
 -0.00006208,-0.00008076,-0.00001141,0.00005443,0.00002096,0.00003393,-
 0.00000678,0.00000113,0.00009897,0.00010048,0.00010540,-0.00019561,-0.
 00010992,-0.00006221,0.00056048,-0.00018947,-0.00062659,-0.00213478,-0
 .00035418,-0.00812502,-0.42726847,-0.15248558,0.03316615,-0.00002177,0
 .00004393,0.00001020,-0.00005387,-0.00001110,0.00001977,-0.00002375,-0
 .00001030,0.00000483,-0.00003490,0.00002448,0.00001317,-0.00000486,0.0
 0001003,-0.00000082,-0.00003676,0.00000381,0.00002360,-0.00000428,-0.0
 0000458,-0.00001442,0.00006231,0.00001551,-0.00005310,0.00007108,-0.00
 001771,-0.00002745,0.00004808,-0.00007714,0.00002838,0.00020730,-0.000
 72994,-0.00004826,0.00004439,0.00032304,0.00024355,0.00005859,-0.00014
 741,-0.00001812,-0.00052143,-0.00147143,0.00075916,0.00086779,0.002705
 94,0.00218018,-0.00045213,0.00001208,-0.00018571,-0.00003626,0.0000352
 7,-0.00003526,0.00001895,0.00004579,-0.00000028,0.00004342,0.00000771,
 0.00006580,-0.00007706,-0.00003492,-0.00008602,0.00004698,0.00005199,-
 0.00015893,0.00046129,0.00032882,-0.00153892,-0.00015831,0.00004541,0.
 00012335,0.00000577,-0.00008254,-0.00013834,-0.00000307,-0.00002588,0.
 00013601,-0.00013376,-0.00008720,-0.00005943,-0.00003792,0.00000053,-0
 .00009273,0.00091728,-0.00026848,-0.00064852,-0.00000363,-0.00001055,-
 0.00005179,0.00005750,-0.00005672,-0.00007337,-0.00002982,0.00004524,0
 .00003061,-0.00000407,-0.00006439,-0.00003647,-0.00000476,-0.00002876,
 -0.00000749,-0.00001874,0.00005136,-0.00002988,-0.00001632,-0.00001770
 ,-0.00003403,-0.00000956,-0.00001051,0.00002086,0.00003954,0.00003904,
 -0.00001236,0.00002055,-0.00002187,-0.00001694,0.00016255,-0.00001587,
 -0.00002369,0.00006788,0.00005663,0.00002171,0.00018583,0.00023051,-0.
 00001604,-0.00028497,-0.00000699,-0.00006788,-0.00099501,-0.00044336,-
 0.00257987,0.42919615,-0.00000114,0.00012841,0.00015876,0.00002774,-0.
 00028545,-0.00014898,-0.00000145,-0.00002264,-0.00010299,0.00000810,-0
 .00006063,0.00001021,0.00002788,0.00000006,-0.00002614,-0.00003333,-0.
 00008440,-0.00002241,0.00002946,0.00000078,-0.00002673,-0.00003431,-0.
 00000114,0.00004015,-0.00003682,0.00003189,0.00004823,-0.00000613,0.00
 007551,-0.00000068,0.00002369,0.00018963,0.00013419,0.00029386,0.00049
 720,0.00030356,-0.00169763,-0.00059395,0.00064139,-0.00071195,-0.00381
 914,-0.00495191,0.00035408,0.00049727,-0.00036812,-0.02851895,-0.01541
 476,-0.00207027,0.00146777,0.00230375,-0.00056914,0.00006131,-0.000209
 65,0.00085449,-0.00013588,-0.00009454,0.00013452,-0.00007509,-0.000049
 13,-0.00002045,0.00004954,0.00003134,0.00000319,-0.00055013,-0.0007730
 3,-0.00054013,-0.00025310,0.00094702,-0.00005456,-0.00014510,-0.000750
 94,0.00130597,0.00012444,0.00017355,-0.00057466,0.00022029,0.00009813,
 0.00019168,-0.00009569,-0.00011336,-0.00005381,-0.00000373,-0.00024137
 ,-0.00007057,0.00007006,0.00015201,-0.00006617,-0.00010994,-0.00012593
 ,0.00014594,0.00005741,-0.00012724,-0.00014397,0.00000013,0.00003029,0
 .00005722,0.00000738,-0.00000827,-0.00001169,-0.00000045,0.00000958,-0
 .00000659,0.00002013,-0.00000670,0.00000871,-0.00000274,-0.00000265,-0
 .00002237,-0.00001936,-0.00000886,0.00001797,-0.00007365,-0.00014516,-
 0.00001101,0.00106365,-0.00349948,-0.00185449,-0.12294745,-0.06892981,
 -0.00710033,0.00003926,0.00005808,0.00000824,0.00002283,-0.00002835,-0
 .00000660,0.00000278,0.00000858,0.00000117,-0.00000592,0.00001422,0.00
 000848,0.00000526,0.00000756,-0.00000216,-0.00000594,0.00000600,0.0000
 0525,-0.00000220,-0.00000524,-0.00000059,0.00001021,-0.00000559,-0.000
 03303,0.00001514,-0.00002621,-0.00001908,-0.00000594,-0.00005074,0.000
 00814,-0.00006273,-0.00024942,-0.00006895,-0.00003922,-0.00023092,-0.0
 0039161,0.00007707,0.00016619,-0.00009671,-0.00040517,0.00003491,0.000
 18079,-0.00062342,0.00111083,0.00131897,0.00017493,-0.00003937,0.00011
 686,-0.00001457,0.00002154,-0.00002298,0.00000363,0.00000660,-0.000011
 84,0.00001153,-0.00000036,0.00001123,-0.00001774,-0.00000315,-0.000019
 47,0.00015593,-0.00031900,-0.00029564,-0.00028344,-0.00004556,0.000386
 81,0.00003643,-0.00008889,-0.00001355,-0.00001309,-0.00001820,-0.00000
 050,-0.00006067,-0.00002503,0.00012090,-0.00001274,-0.00001010,0.00000
 575,0.00001658,-0.00000481,0.00000102,0.00008975,-0.00001105,-0.000165
 93,0.00000249,-0.00000779,-0.00000108,0.00000355,-0.00000504,-0.000012
 13,-0.00000633,0.00000650,-0.00000061,-0.00000304,-0.00000750,0.000000
 95,-0.00000704,-0.00000419,0.00000271,0.00000466,0.00001028,-0.0000011
 5,-0.00000798,0.00000304,0.00000294,-0.00000075,-0.00000679,0.00000115
 ,0.00003071,0.00002796,-0.00002301,-0.00000347,-0.00002740,-0.00001052
 ,0.00001370,0.00000889,-0.00002940,0.00001527,0.00001162,-0.00000295,0
 .00002098,0.00001566,-0.00001064,0.00000734,0.00003210,-0.00002269,-0.
 00143584,0.00025046,0.00045061,0.15380433,0.08962145,0.00006486,-0.000
 03521,-0.00013233,-0.00003702,0.00010620,0.00011756,-0.00004560,0.0000
 3219,0.00007769,0.00000583,0.00000196,0.00002355,-0.00004187,-0.000003
 90,0.00001805,0.00001376,0.00000381,0.00000022,-0.00006797,-0.00000946
 ,0.00002433,0.00008482,0.00008063,-0.00002641,0.00004929,0.00001284,-0
 .00004702,-0.00000004,-0.00000836,-0.00004322,0.00000482,-0.00005730,-
 0.00011443,0.00011057,-0.00005790,-0.00012417,-0.00114702,-0.00052939,
 0.00101986,0.00003494,-0.00255518,-0.00516835,0.00021407,0.00073425,0.
 00056991,-0.03403617,-0.01444408,-0.00102527,-0.00471975,-0.00353922,-
 0.00098528,0.00095591,0.00081149,-0.00052236,-0.00017043,-0.00025032,0
 .00039113,-0.00003555,0.00000838,-0.00005871,0.00009879,0.00008903,-0.
 00005905,0.00147092,0.00123926,0.00136315,0.00099242,-0.00115980,-0.00
 102198,0.00169919,0.00003892,-0.00273767,0.00018400,-0.00021826,0.0003
 0050,0.00019846,-0.00014814,-0.00028063,-0.00031648,0.00018134,0.00019
 416,0.00035856,-0.00000653,-0.00019743,-0.00026662,-0.00023353,0.00006
 196,0.00019406,0.00031962,0.00002455,-0.00034154,0.00030010,0.00032791
 ,0.00010029,-0.00008655,-0.00021845,-0.00000030,0.00001475,0.00003085,
 0.00000210,-0.00001212,0.00000706,-0.00000307,0.00000272,-0.00000235,-
 0.00001022,-0.00005163,0.00000672,-0.00000144,0.00014730,0.00000794,-0
 .00053779,0.00008295,0.00001713,-0.00289204,-0.00084100,-0.00602809,0.
 06815321,0.00788844,-0.04116531,0.00001854,0.00000806,-0.00000192,0.00
 001247,0.00000321,0.00000907,0.00000078,0.00000231,-0.00000159,0.00000
 730,-0.00000155,-0.00000275,0.00000508,0.00000026,0.00000073,0.0000118
 3,0.00000586,-0.00000528,-0.00000080,-0.00000203,-0.00000533,-0.000009
 52,-0.00002350,0.00002960,-0.00000957,-0.00000144,0.00002342,0.0000029
 9,0.00001530,0.00001776,0.00003902,0.00003501,0.00005145,-0.00005655,-
 0.00020955,-0.00034396,0.00010364,0.00026759,-0.00009614,0.00051646,-0
 .00093675,0.00038312,0.00090000,-0.00074902,0.00046945,0.00000266,-0.0
 0000941,-0.00001301,0.00005285,0.00001333,-0.00002179,0.00000438,-0.00
 002784,0.00001339,-0.00002624,-0.00000553,-0.00003839,-0.00000621,0.00
 000087,0.00001361,-0.00015351,0.00001385,-0.00001357,0.00004320,-0.000
 02037,0.00014249,-0.00000075,0.00000106,-0.00000798,-0.00002157,0.0000
 1458,0.00001935,-0.00000254,0.00001650,0.00001544,0.00002712,0.0000677
 3,0.00005303,-0.00002085,0.00001656,-0.00005523,-0.00017312,-0.0000841
 2,0.00001827,0.00000906,0.00000962,0.00001570,-0.00002895,0.00002098,0
 .00002179,-0.00000363,-0.00002592,-0.00002399,-0.00000509,0.00002603,0
 .00001259,-0.00000750,0.00001474,0.00000438,0.00001067,-0.00002642,0.0
 0001016,0.00000030,0.00000413,0.00000981,-0.00000223,0.00001286,-0.000
 00936,0.00000488,-0.00002627,0.00001356,-0.00000381,0.00000694,0.00000
 985,0.00006244,-0.00019797,-0.00002513,-0.00000563,-0.00003178,-0.0000
 1441,-0.00008114,-0.00012518,0.00000041,0.00007380,-0.00002859,0.00009
 779,-0.00244761,0.00071473,0.00313918,-0.02916259,0.01339281,0.0514587
 3\\-0.00000376,0.00000760,0.00001310,0.00000573,-0.00000435,0.00000480
 ,0.00000009,0.00002203,-0.00001174,0.00000672,0.00001215,-0.00000279,-
 0.00001444,-0.00000165,0.00000710,0.00000281,-0.00000634,-0.00000305,0
 .00002185,0.00000808,0.00000464,-0.00002063,-0.00000012,-0.00001708,0.
 00000853,-0.00000970,0.00002327,-0.00000466,-0.00000422,0.00000646,0.0
 0000813,0.00002011,0.00001215,0.00000384,-0.00001430,0.00001140,0.0000
 0853,0.00002897,-0.00000518,0.00000584,-0.00001062,0.00000371,-0.00000
 192,-0.00000654,0.00001092,-0.00000449,0.00000979,-0.00001984,0.000000
 99,-0.00001100,0.00001344,0.00000605,0.00000483,-0.00000165,-0.0000057
 2,-0.00002236,-0.00000487,0.00001611,0.00003331,-0.00000638,-0.0000171
 0,-0.00001208,-0.00000006,-0.00000565,0.00000171,-0.00000086,0.0000101
 8,-0.00000140,-0.00000705,0.00001099,-0.00000673,0.00000162,-0.0000089
 0,0.00000500,-0.00000421,0.00001358,-0.00001020,0.00000705,0.00000982,
 -0.00000657,-0.00000168,-0.00002026,0.00000078,0.00001237,0.00000889,0
 .00000780,-0.00000116,0.00000364,-0.00000200,-0.00000129,-0.00001852,0
 .00000678,0.00001215,0.00000666,-0.00001711,-0.00002240,-0.00000298,0.
 00001213,0.00000937,0.00001407,0.00000152,0.00000071,-0.00001293,-0.00
 002257,-0.00000038,-0.00000560,0.00001189,0.00002340,-0.00002711,0.000
 00598,-0.00003952,0.00000394,-0.00000233,-0.00000131,0.00001105,0.0000
 0219,0.00000405,0.00000476,0.00000995,-0.00000454,-0.00000321,-0.00000
 104,-0.00000568,0.00000421,-0.00000212,0.00000228,-0.00000509,-0.00000
 504,0.00000041,-0.00000369,-0.00000127,0.00000479,0.00000078,-0.000001
 23,0.00000135,-0.00000304,-0.00000475,-0.00000116,0.00000326,-0.000007
 16,-0.00000047,-0.00000554,-0.00000456,0.00000572,0.00000003,0.0000073
 6,-0.00001007,0.00000087,0.00000182,-0.00000865,-0.00001302,-0.0000158
 8,-0.00001347,-0.00000367,-0.00000223,0.00000046,-0.00000330,0.0000020
 2,0.00000178,0.00000017,0.00000034,-0.00001047,-0.00000047,-0.00000192
 ,-0.00000402,-0.00000575,0.00000686,-0.00000086,-0.00000520,0.00000241
 ,0.00000357,0.00000195,-0.00000624,0.00000112,0.00000264,-0.00000137,0
 .00000316,0.00000398,-0.00000201,0.00000348,0.00000237,-0.00000202,-0.
 00000155,-0.00000334,0.00000573,-0.00000395,0.00000265,-0.00000171,0.0
 0000046,0.00000344,0.00000147,-0.00000332,0.00000181,0.00000211,-0.000
 00180,-0.00000439,-0.00000360,-0.00000156,-0.00000003,0.00000302,-0.00
 000580,-0.00000808,-0.00000388,-0.00000143,-0.00000169,-0.00000458,-0.
 00000418,0.00000111,-0.00000054,0.00000314,-0.00000771,-0.00000797,-0.
 00000257,0.00000422,0.00000270,-0.00000114,-0.00000026,0.00000248,0.00
 000165,0.00000272,0.00000329,0.00000732,0.00001103,0.00000691,-0.00000
 178,0.00000142,-0.00000731,-0.00000540,0.00000436,0.00000299,-0.000005
 26,-0.00000036,0.00000416,0.00000489,0.00002586,-0.00000163,0.00000381
 ,0.00000917,0.00002089,0.00000920,-0.00000495,-0.00002643,0.00001579,-
 0.00000659,0.00000517,0.00000141,-0.00000668,-0.00000149,-0.00000759,-
 0.00001010,-0.00000415,0.00000171\\\@


 SLITHERY-DITHERY
 FRIEDRICH A. KEKULE
 DREAMT ON A BUS OF THINGS
 FREUD WOULD THINK KEEN.
 MOST OF THE TIME THEY WERE
 HERPETOLOGICAL
 BITING THEIR TAILS IN THE
 SHAPE OF BENZENE.
 Job cpu time:      21 days 15 hours 29 minutes  1.6 seconds.
 File lengths (MBytes):  RWF=  24048 Int=      0 D2E=      0 Chk=     97 Scr=      1
 Normal termination of Gaussian 09 at Sun Mar 27 03:48:32 2016.
