 Entering Gaussian System, Link 0=g09
 Initial command:
 /share/apps//g09/l1.exe "/scratch/Gau-32744.inp" -scrdir="/scratch/"
 Entering Link 1 = /share/apps//g09/l1.exe PID=     32745.
  
 Copyright (c) 1988,1990,1992,1993,1995,1998,2003,2009,2013,
            Gaussian, Inc.  All Rights Reserved.
  
 This is part of the Gaussian(R) 09 program.  It is based on
 the Gaussian(R) 03 system (copyright 2003, Gaussian, Inc.),
 the Gaussian(R) 98 system (copyright 1998, Gaussian, Inc.),
 the Gaussian(R) 94 system (copyright 1995, Gaussian, Inc.),
 the Gaussian 92(TM) system (copyright 1992, Gaussian, Inc.),
 the Gaussian 90(TM) system (copyright 1990, Gaussian, Inc.),
 the Gaussian 88(TM) system (copyright 1988, Gaussian, Inc.),
 the Gaussian 86(TM) system (copyright 1986, Carnegie Mellon
 University), and the Gaussian 82(TM) system (copyright 1983,
 Carnegie Mellon University). Gaussian is a federally registered
 trademark of Gaussian, Inc.
  
 This software contains proprietary and confidential information,
 including trade secrets, belonging to Gaussian, Inc.
  
 This software is provided under written license and may be
 used, copied, transmitted, or stored only in accord with that
 written license.
  
 The following legend is applicable only to US Government
 contracts under FAR:
  
                    RESTRICTED RIGHTS LEGEND
  
 Use, reproduction and disclosure by the US Government is
 subject to restrictions as set forth in subparagraphs (a)
 and (c) of the Commercial Computer Software - Restricted
 Rights clause in FAR 52.227-19.
  
 Gaussian, Inc.
 340 Quinnipiac St., Bldg. 40, Wallingford CT 06492
  
  
 ---------------------------------------------------------------
 Warning -- This program may not be used in any manner that
 competes with the business of Gaussian, Inc. or will provide
 assistance to any competitor of Gaussian, Inc.  The licensee
 of this program is prohibited from giving any competitor of
 Gaussian, Inc. access to this program.  By using this program,
 the user acknowledges that Gaussian, Inc. is engaged in the
 business of creating and licensing software in the field of
 computational chemistry and represents and warrants to the
 licensee that it is not a competitor of Gaussian, Inc. and that
 it will not use this program in any manner prohibited above.
 ---------------------------------------------------------------
  

 Cite this work as:
 Gaussian 09, Revision D.01,
 M. J. Frisch, G. W. Trucks, H. B. Schlegel, G. E. Scuseria, 
 M. A. Robb, J. R. Cheeseman, G. Scalmani, V. Barone, B. Mennucci, 
 G. A. Petersson, H. Nakatsuji, M. Caricato, X. Li, H. P. Hratchian, 
 A. F. Izmaylov, J. Bloino, G. Zheng, J. L. Sonnenberg, M. Hada, 
 M. Ehara, K. Toyota, R. Fukuda, J. Hasegawa, M. Ishida, T. Nakajima, 
 Y. Honda, O. Kitao, H. Nakai, T. Vreven, J. A. Montgomery, Jr., 
 J. E. Peralta, F. Ogliaro, M. Bearpark, J. J. Heyd, E. Brothers, 
 K. N. Kudin, V. N. Staroverov, T. Keith, R. Kobayashi, J. Normand, 
 K. Raghavachari, A. Rendell, J. C. Burant, S. S. Iyengar, J. Tomasi, 
 M. Cossi, N. Rega, J. M. Millam, M. Klene, J. E. Knox, J. B. Cross, 
 V. Bakken, C. Adamo, J. Jaramillo, R. Gomperts, R. E. Stratmann, 
 O. Yazyev, A. J. Austin, R. Cammi, C. Pomelli, J. W. Ochterski, 
 R. L. Martin, K. Morokuma, V. G. Zakrzewski, G. A. Voth, 
 P. Salvador, J. J. Dannenberg, S. Dapprich, A. D. Daniels, 
 O. Farkas, J. B. Foresman, J. V. Ortiz, J. Cioslowski, 
 and D. J. Fox, Gaussian, Inc., Wallingford CT, 2013.
 
 ******************************************
 Gaussian 09:  EM64L-G09RevD.01 24-Apr-2013
                22-Mar-2016 
 ******************************************
 %nproc=20
 Will use up to   20 processors via shared memory.
 %mem=80GB
 %chk=Tri_A154_of.chk
 -------------------------------------------------------------------
 #P PBE1PBE/6-311+G(d,p) opt optcyc=999 freq EmpiricalDispersion=GD3
 -------------------------------------------------------------------
 1/6=999,14=-1,18=20,19=15,26=3,38=1/1,3;
 2/9=110,12=2,17=6,18=5,40=1/2;
 3/5=4,6=6,7=111,11=2,16=1,25=1,30=1,71=1,74=-13,124=31/1,2,3;
 4//1;
 5/5=2,38=5/2;
 6/7=2,8=2,9=2,10=2,28=1/1;
 7//1,2,3,16;
 1/6=999,14=-1,18=20,19=15,26=3/3(2);
 2/9=110/2;
 99//99;
 2/9=110/2;
 3/5=4,6=6,7=111,11=2,16=1,25=1,30=1,71=1,74=-13,124=31/1,2,3;
 4/5=5,16=3,69=1/1;
 5/5=2,38=5/2;
 7//1,2,3,16;
 1/6=999,14=-1,18=20,19=15,26=3/3(-5);
 2/9=110/2;
 6/7=2,8=2,9=2,10=2,19=2,28=1/1;
 99/9=1/99;
 Leave Link    1 at Tue Mar 22 21:57:32 2016, MaxMem= 10737418240 cpu:         1.8
 (Enter /share/apps//g09/l101.exe)
 -------
 disacch
 -------
 Symbolic Z-matrix:
 Charge =  1 Multiplicity = 1
 O                    -3.05159  -1.55121  -1.04052 
 C                    -2.18375  -2.46604  -1.6805 
 C                    -1.89533  -3.65387  -0.78362 
 C                    -3.19525  -4.32214  -0.38974 
 C                    -4.13979  -3.32211   0.25292 
 C                    -4.29597  -2.0818   -0.61846 
 C                    -5.04255  -0.95562   0.07407 
 O                    -4.35571  -0.44894   1.2032 
 O                    -3.65913  -2.95803   1.53375 
 O                    -2.98698  -5.34301   0.55289 
 O                    -1.11739  -4.60815  -1.4418 
 O                    -1.02316  -1.75509  -1.90297 
 C                    -0.49387  -1.65516  -3.21099 
 C                     0.97309  -2.02606  -3.13879 
 O                     1.11189  -3.3409   -2.65422 
 C                     1.68431  -1.04398  -2.23195 
 C                     1.48167   0.38518  -2.73432 
 O                     0.11206   0.66877  -2.92118 
 C                    -0.59664  -0.22836  -3.74048 
 C                    -2.01201   0.31782  -3.86277 
 O                    -2.59879   0.6864   -2.63638 
 O                     1.99435   1.35005  -1.88029 
 C                     1.47828   1.39832  -0.56412 
 C                     2.61488   1.17277   0.41691 
 C                     2.16391   1.41279   1.84271 
 C                     1.51694   2.77745   1.96504 
 O                     0.45315   2.86843   1.04185 
 C                     0.87638   2.78192  -0.30733 
 C                    -0.31664   3.12797  -1.16798 
 O                    -1.4344    2.32045  -0.87166 
 O                     1.00449   2.89268   3.2353 
 C                     0.56116   4.20217   3.5852 
 C                    -0.61978   4.08828   4.52462 
 C                    -1.75211   3.22864   3.97827 
 C                    -2.39024   3.7606    2.70118 
 C                    -3.31597   2.75727   2.0445 
 N                    -2.54953   1.63005   1.45166 
 O                     3.30154   1.27753   2.6526 
 O                     3.11438  -0.14184   0.28715 
 O                     3.03776  -1.39433  -2.20366 
 H                    -2.62696  -2.81147  -2.62864 
 H                    -1.39972  -3.26648   0.11616 
 H                    -3.6664   -4.72339  -1.29782 
 H                    -5.12969  -3.78417   0.3505 
 H                    -4.88787  -2.38153  -1.49558 
 H                    -6.03555  -1.31716   0.35969 
 H                    -5.17358  -0.12764  -0.62369 
 H                    -4.06756  -1.22426   1.71199 
 H                    -3.34979  -3.76707   1.95617 
 H                    -2.25613  -5.88612   0.24511 
 H                    -0.28317  -4.20767  -1.73783 
 H                    -1.01651  -2.33873  -3.88807 
 H                     1.39902  -1.9563   -4.14867 
 H                     2.03582  -3.44821  -2.40524 
 H                     1.23939  -1.14013  -1.23745 
 H                     2.03279   0.51704  -3.67369 
 H                    -0.17206  -0.23734  -4.75714 
 H                    -1.9786    1.22542  -4.46548 
 H                    -2.63309  -0.40904  -4.39818 
 H                    -2.7647   -0.09784  -2.08878 
 H                     0.69423   0.65038  -0.41769 
 H                     3.40901   1.89318   0.17789 
 H                     1.40079   0.66605   2.10412 
 H                     2.2516    3.57239   1.75362 
 H                     1.65401   3.53341  -0.50928 
 H                    -0.58111   4.17089  -0.97479 
 H                    -0.03809   3.02963  -2.21619 
 H                    -1.69169   1.74675  -1.62391 
 H                     0.28305   4.74249   2.6777 
 H                     1.38226   4.74334   4.06401 
 H                    -0.97606   5.09904   4.74255 
 H                    -0.2817    3.66607   5.47343 
 H                    -2.52317   3.12173   4.74542 
 H                    -1.34351   2.22553   3.81723 
 H                    -1.6258    4.04908   1.97645 
 H                    -2.96843   4.65964   2.9254 
 H                    -4.02287   2.33671   2.76073 
 H                    -3.88489   3.20804   1.23257 
 H                    -1.83012   1.31805   2.09854 
 H                    -2.0566    1.92738   0.56689 
 H                    -3.17706   0.82481   1.24682 
 H                     3.04444   1.38856   3.57017 
 H                     3.7497   -0.2745    0.99685 
 H                     3.40472  -0.99651  -1.402 
 
 NAtoms=     84 NQM=       84 NQMF=       0 NMMI=      0 NMMIF=      0
                NMic=       0 NMicF=      0.
                    Isotopes and Nuclear Properties:
 (Nuclear quadrupole moments (NQMom) in fm**2, nuclear magnetic moments (NMagM)
  in nuclear magnetons)

  Atom         1           2           3           4           5           6           7           8           9          10
 IAtWgt=          16          12          12          12          12          12          12          16          16          16
 AtmWgt=  15.9949146  12.0000000  12.0000000  12.0000000  12.0000000  12.0000000  12.0000000  15.9949146  15.9949146  15.9949146
 NucSpn=           0           0           0           0           0           0           0           0           0           0
 AtZEff=   0.0000000   0.0000000   0.0000000   0.0000000   0.0000000   0.0000000   0.0000000   0.0000000   0.0000000   0.0000000
 NQMom=    0.0000000   0.0000000   0.0000000   0.0000000   0.0000000   0.0000000   0.0000000   0.0000000   0.0000000   0.0000000
 NMagM=    0.0000000   0.0000000   0.0000000   0.0000000   0.0000000   0.0000000   0.0000000   0.0000000   0.0000000   0.0000000
 AtZNuc=   8.0000000   6.0000000   6.0000000   6.0000000   6.0000000   6.0000000   6.0000000   8.0000000   8.0000000   8.0000000

  Atom        11          12          13          14          15          16          17          18          19          20
 IAtWgt=          16          16          12          12          16          12          12          16          12          12
 AtmWgt=  15.9949146  15.9949146  12.0000000  12.0000000  15.9949146  12.0000000  12.0000000  15.9949146  12.0000000  12.0000000
 NucSpn=           0           0           0           0           0           0           0           0           0           0
 AtZEff=   0.0000000   0.0000000   0.0000000   0.0000000   0.0000000   0.0000000   0.0000000   0.0000000   0.0000000   0.0000000
 NQMom=    0.0000000   0.0000000   0.0000000   0.0000000   0.0000000   0.0000000   0.0000000   0.0000000   0.0000000   0.0000000
 NMagM=    0.0000000   0.0000000   0.0000000   0.0000000   0.0000000   0.0000000   0.0000000   0.0000000   0.0000000   0.0000000
 AtZNuc=   8.0000000   8.0000000   6.0000000   6.0000000   8.0000000   6.0000000   6.0000000   8.0000000   6.0000000   6.0000000

  Atom        21          22          23          24          25          26          27          28          29          30
 IAtWgt=          16          16          12          12          12          12          16          12          12          16
 AtmWgt=  15.9949146  15.9949146  12.0000000  12.0000000  12.0000000  12.0000000  15.9949146  12.0000000  12.0000000  15.9949146
 NucSpn=           0           0           0           0           0           0           0           0           0           0
 AtZEff=   0.0000000   0.0000000   0.0000000   0.0000000   0.0000000   0.0000000   0.0000000   0.0000000   0.0000000   0.0000000
 NQMom=    0.0000000   0.0000000   0.0000000   0.0000000   0.0000000   0.0000000   0.0000000   0.0000000   0.0000000   0.0000000
 NMagM=    0.0000000   0.0000000   0.0000000   0.0000000   0.0000000   0.0000000   0.0000000   0.0000000   0.0000000   0.0000000
 AtZNuc=   8.0000000   8.0000000   6.0000000   6.0000000   6.0000000   6.0000000   8.0000000   6.0000000   6.0000000   8.0000000

  Atom        31          32          33          34          35          36          37          38          39          40
 IAtWgt=          16          12          12          12          12          12          14          16          16          16
 AtmWgt=  15.9949146  12.0000000  12.0000000  12.0000000  12.0000000  12.0000000  14.0030740  15.9949146  15.9949146  15.9949146
 NucSpn=           0           0           0           0           0           0           2           0           0           0
 AtZEff=   0.0000000   0.0000000   0.0000000   0.0000000   0.0000000   0.0000000   0.0000000   0.0000000   0.0000000   0.0000000
 NQMom=    0.0000000   0.0000000   0.0000000   0.0000000   0.0000000   0.0000000   2.0440000   0.0000000   0.0000000   0.0000000
 NMagM=    0.0000000   0.0000000   0.0000000   0.0000000   0.0000000   0.0000000   0.4037610   0.0000000   0.0000000   0.0000000
 AtZNuc=   8.0000000   6.0000000   6.0000000   6.0000000   6.0000000   6.0000000   7.0000000   8.0000000   8.0000000   8.0000000

  Atom        41          42          43          44          45          46          47          48          49          50
 IAtWgt=           1           1           1           1           1           1           1           1           1           1
 AtmWgt=   1.0078250   1.0078250   1.0078250   1.0078250   1.0078250   1.0078250   1.0078250   1.0078250   1.0078250   1.0078250
 NucSpn=           1           1           1           1           1           1           1           1           1           1
 AtZEff=   0.0000000   0.0000000   0.0000000   0.0000000   0.0000000   0.0000000   0.0000000   0.0000000   0.0000000   0.0000000
 NQMom=    0.0000000   0.0000000   0.0000000   0.0000000   0.0000000   0.0000000   0.0000000   0.0000000   0.0000000   0.0000000
 NMagM=    2.7928460   2.7928460   2.7928460   2.7928460   2.7928460   2.7928460   2.7928460   2.7928460   2.7928460   2.7928460
 AtZNuc=   1.0000000   1.0000000   1.0000000   1.0000000   1.0000000   1.0000000   1.0000000   1.0000000   1.0000000   1.0000000

  Atom        51          52          53          54          55          56          57          58          59          60
 IAtWgt=           1           1           1           1           1           1           1           1           1           1
 AtmWgt=   1.0078250   1.0078250   1.0078250   1.0078250   1.0078250   1.0078250   1.0078250   1.0078250   1.0078250   1.0078250
 NucSpn=           1           1           1           1           1           1           1           1           1           1
 AtZEff=   0.0000000   0.0000000   0.0000000   0.0000000   0.0000000   0.0000000   0.0000000   0.0000000   0.0000000   0.0000000
 NQMom=    0.0000000   0.0000000   0.0000000   0.0000000   0.0000000   0.0000000   0.0000000   0.0000000   0.0000000   0.0000000
 NMagM=    2.7928460   2.7928460   2.7928460   2.7928460   2.7928460   2.7928460   2.7928460   2.7928460   2.7928460   2.7928460
 AtZNuc=   1.0000000   1.0000000   1.0000000   1.0000000   1.0000000   1.0000000   1.0000000   1.0000000   1.0000000   1.0000000

  Atom        61          62          63          64          65          66          67          68          69          70
 IAtWgt=           1           1           1           1           1           1           1           1           1           1
 AtmWgt=   1.0078250   1.0078250   1.0078250   1.0078250   1.0078250   1.0078250   1.0078250   1.0078250   1.0078250   1.0078250
 NucSpn=           1           1           1           1           1           1           1           1           1           1
 AtZEff=   0.0000000   0.0000000   0.0000000   0.0000000   0.0000000   0.0000000   0.0000000   0.0000000   0.0000000   0.0000000
 NQMom=    0.0000000   0.0000000   0.0000000   0.0000000   0.0000000   0.0000000   0.0000000   0.0000000   0.0000000   0.0000000
 NMagM=    2.7928460   2.7928460   2.7928460   2.7928460   2.7928460   2.7928460   2.7928460   2.7928460   2.7928460   2.7928460
 AtZNuc=   1.0000000   1.0000000   1.0000000   1.0000000   1.0000000   1.0000000   1.0000000   1.0000000   1.0000000   1.0000000

  Atom        71          72          73          74          75          76          77          78          79          80
 IAtWgt=           1           1           1           1           1           1           1           1           1           1
 AtmWgt=   1.0078250   1.0078250   1.0078250   1.0078250   1.0078250   1.0078250   1.0078250   1.0078250   1.0078250   1.0078250
 NucSpn=           1           1           1           1           1           1           1           1           1           1
 AtZEff=   0.0000000   0.0000000   0.0000000   0.0000000   0.0000000   0.0000000   0.0000000   0.0000000   0.0000000   0.0000000
 NQMom=    0.0000000   0.0000000   0.0000000   0.0000000   0.0000000   0.0000000   0.0000000   0.0000000   0.0000000   0.0000000
 NMagM=    2.7928460   2.7928460   2.7928460   2.7928460   2.7928460   2.7928460   2.7928460   2.7928460   2.7928460   2.7928460
 AtZNuc=   1.0000000   1.0000000   1.0000000   1.0000000   1.0000000   1.0000000   1.0000000   1.0000000   1.0000000   1.0000000

  Atom        81          82          83          84
 IAtWgt=           1           1           1           1
 AtmWgt=   1.0078250   1.0078250   1.0078250   1.0078250
 NucSpn=           1           1           1           1
 AtZEff=   0.0000000   0.0000000   0.0000000   0.0000000
 NQMom=    0.0000000   0.0000000   0.0000000   0.0000000
 NMagM=    2.7928460   2.7928460   2.7928460   2.7928460
 AtZNuc=   1.0000000   1.0000000   1.0000000   1.0000000
 Leave Link  101 at Tue Mar 22 21:57:33 2016, MaxMem= 10737418240 cpu:         2.7
 (Enter /share/apps//g09/l103.exe)

 GradGradGradGradGradGradGradGradGradGradGradGradGradGradGradGradGradGrad
 Berny optimization.
 Initialization pass.
                           ----------------------------
                           !    Initial Parameters    !
                           ! (Angstroms and Degrees)  !
 --------------------------                            --------------------------
 ! Name  Definition              Value          Derivative Info.                !
 --------------------------------------------------------------------------------
 ! R1    R(1,2)                  1.4141         estimate D2E/DX2                !
 ! R2    R(1,6)                  1.4171         estimate D2E/DX2                !
 ! R3    R(2,3)                  1.5161         estimate D2E/DX2                !
 ! R4    R(2,12)                 1.3791         estimate D2E/DX2                !
 ! R5    R(2,41)                 1.1021         estimate D2E/DX2                !
 ! R6    R(3,4)                  1.5138         estimate D2E/DX2                !
 ! R7    R(3,11)                 1.3961         estimate D2E/DX2                !
 ! R8    R(3,42)                 1.0979         estimate D2E/DX2                !
 ! R9    R(4,5)                  1.5183         estimate D2E/DX2                !
 ! R10   R(4,10)                 1.405          estimate D2E/DX2                !
 ! R11   R(4,43)                 1.0989         estimate D2E/DX2                !
 ! R12   R(5,6)                  1.5238         estimate D2E/DX2                !
 ! R13   R(5,9)                  1.4157         estimate D2E/DX2                !
 ! R14   R(5,44)                 1.0968         estimate D2E/DX2                !
 ! R15   R(6,7)                  1.5183         estimate D2E/DX2                !
 ! R16   R(6,45)                 1.0998         estimate D2E/DX2                !
 ! R17   R(7,8)                  1.4154         estimate D2E/DX2                !
 ! R18   R(7,46)                 1.0947         estimate D2E/DX2                !
 ! R19   R(7,47)                 1.0907         estimate D2E/DX2                !
 ! R20   R(8,48)                 0.9711         estimate D2E/DX2                !
 ! R21   R(9,49)                 0.9637         estimate D2E/DX2                !
 ! R22   R(10,50)                0.9612         estimate D2E/DX2                !
 ! R23   R(11,51)                0.9716         estimate D2E/DX2                !
 ! R24   R(12,13)                1.4146         estimate D2E/DX2                !
 ! R25   R(13,14)                1.5148         estimate D2E/DX2                !
 ! R26   R(13,19)                1.5253         estimate D2E/DX2                !
 ! R27   R(13,52)                1.0949         estimate D2E/DX2                !
 ! R28   R(14,15)                1.4081         estimate D2E/DX2                !
 ! R29   R(14,16)                1.5142         estimate D2E/DX2                !
 ! R30   R(14,53)                1.0982         estimate D2E/DX2                !
 ! R31   R(15,54)                0.9629         estimate D2E/DX2                !
 ! R32   R(16,17)                1.5284         estimate D2E/DX2                !
 ! R33   R(16,40)                1.3983         estimate D2E/DX2                !
 ! R34   R(16,55)                1.0937         estimate D2E/DX2                !
 ! R35   R(17,18)                1.4111         estimate D2E/DX2                !
 ! R36   R(17,22)                1.3868         estimate D2E/DX2                !
 ! R37   R(17,56)                1.0971         estimate D2E/DX2                !
 ! R38   R(18,19)                1.4065         estimate D2E/DX2                !
 ! R39   R(19,20)                1.522          estimate D2E/DX2                !
 ! R40   R(19,57)                1.1018         estimate D2E/DX2                !
 ! R41   R(20,21)                1.4086         estimate D2E/DX2                !
 ! R42   R(20,58)                1.09           estimate D2E/DX2                !
 ! R43   R(20,59)                1.0958         estimate D2E/DX2                !
 ! R44   R(21,60)                0.9708         estimate D2E/DX2                !
 ! R45   R(22,23)                1.4146         estimate D2E/DX2                !
 ! R46   R(23,24)                1.5183         estimate D2E/DX2                !
 ! R47   R(23,28)                1.5305         estimate D2E/DX2                !
 ! R48   R(23,61)                1.0934         estimate D2E/DX2                !
 ! R49   R(24,25)                1.5146         estimate D2E/DX2                !
 ! R50   R(24,39)                1.4123         estimate D2E/DX2                !
 ! R51   R(24,62)                1.0985         estimate D2E/DX2                !
 ! R52   R(25,26)                1.5152         estimate D2E/DX2                !
 ! R53   R(25,38)                1.403          estimate D2E/DX2                !
 ! R54   R(25,63)                1.0992         estimate D2E/DX2                !
 ! R55   R(26,27)                1.4115         estimate D2E/DX2                !
 ! R56   R(26,31)                1.3746         estimate D2E/DX2                !
 ! R57   R(26,64)                1.1029         estimate D2E/DX2                !
 ! R58   R(27,28)                1.4166         estimate D2E/DX2                !
 ! R59   R(28,29)                1.5112         estimate D2E/DX2                !
 ! R60   R(28,65)                1.1001         estimate D2E/DX2                !
 ! R61   R(29,30)                1.4104         estimate D2E/DX2                !
 ! R62   R(29,66)                1.0931         estimate D2E/DX2                !
 ! R63   R(29,67)                1.089          estimate D2E/DX2                !
 ! R64   R(30,68)                0.9804         estimate D2E/DX2                !
 ! R65   R(31,32)                1.4261         estimate D2E/DX2                !
 ! R66   R(32,33)                1.5133         estimate D2E/DX2                !
 ! R67   R(32,69)                1.0922         estimate D2E/DX2                !
 ! R68   R(32,70)                1.0938         estimate D2E/DX2                !
 ! R69   R(33,34)                1.523          estimate D2E/DX2                !
 ! R70   R(33,71)                1.0936         estimate D2E/DX2                !
 ! R71   R(33,72)                1.0922         estimate D2E/DX2                !
 ! R72   R(34,35)                1.5235         estimate D2E/DX2                !
 ! R73   R(34,73)                1.0929         estimate D2E/DX2                !
 ! R74   R(34,74)                1.095          estimate D2E/DX2                !
 ! R75   R(35,36)                1.5149         estimate D2E/DX2                !
 ! R76   R(35,75)                1.0922         estimate D2E/DX2                !
 ! R77   R(35,76)                1.0922         estimate D2E/DX2                !
 ! R78   R(36,37)                1.4864         estimate D2E/DX2                !
 ! R79   R(36,77)                1.0907         estimate D2E/DX2                !
 ! R80   R(36,78)                1.0891         estimate D2E/DX2                !
 ! R81   R(37,79)                1.0165         estimate D2E/DX2                !
 ! R82   R(37,80)                1.0556         estimate D2E/DX2                !
 ! R83   R(37,81)                1.0412         estimate D2E/DX2                !
 ! R84   R(38,82)                0.9594         estimate D2E/DX2                !
 ! R85   R(39,83)                0.9617         estimate D2E/DX2                !
 ! R86   R(40,84)                0.9673         estimate D2E/DX2                !
 ! A1    A(2,1,6)              115.5614         estimate D2E/DX2                !
 ! A2    A(1,2,3)              110.8479         estimate D2E/DX2                !
 ! A3    A(1,2,12)             104.8311         estimate D2E/DX2                !
 ! A4    A(1,2,41)             110.2003         estimate D2E/DX2                !
 ! A5    A(3,2,12)             109.8301         estimate D2E/DX2                !
 ! A6    A(3,2,41)             109.8682         estimate D2E/DX2                !
 ! A7    A(12,2,41)            111.1749         estimate D2E/DX2                !
 ! A8    A(2,3,4)              109.66           estimate D2E/DX2                !
 ! A9    A(2,3,11)             111.2633         estimate D2E/DX2                !
 ! A10   A(2,3,42)             107.1132         estimate D2E/DX2                !
 ! A11   A(4,3,11)             107.423          estimate D2E/DX2                !
 ! A12   A(4,3,42)             109.2796         estimate D2E/DX2                !
 ! A13   A(11,3,42)            112.0879         estimate D2E/DX2                !
 ! A14   A(3,4,5)              110.7068         estimate D2E/DX2                !
 ! A15   A(3,4,10)             111.5943         estimate D2E/DX2                !
 ! A16   A(3,4,43)             108.3218         estimate D2E/DX2                !
 ! A17   A(5,4,10)             106.6668         estimate D2E/DX2                !
 ! A18   A(5,4,43)             108.8776         estimate D2E/DX2                !
 ! A19   A(10,4,43)            110.6494         estimate D2E/DX2                !
 ! A20   A(4,5,6)              110.9664         estimate D2E/DX2                !
 ! A21   A(4,5,9)              109.9457         estimate D2E/DX2                !
 ! A22   A(4,5,44)             108.7632         estimate D2E/DX2                !
 ! A23   A(6,5,9)              110.05           estimate D2E/DX2                !
 ! A24   A(6,5,44)             107.5343         estimate D2E/DX2                !
 ! A25   A(9,5,44)             109.5296         estimate D2E/DX2                !
 ! A26   A(1,6,5)              112.6481         estimate D2E/DX2                !
 ! A27   A(1,6,7)              106.853          estimate D2E/DX2                !
 ! A28   A(1,6,45)             109.701          estimate D2E/DX2                !
 ! A29   A(5,6,7)              113.16           estimate D2E/DX2                !
 ! A30   A(5,6,45)             106.8216         estimate D2E/DX2                !
 ! A31   A(7,6,45)             107.5345         estimate D2E/DX2                !
 ! A32   A(6,7,8)              113.0026         estimate D2E/DX2                !
 ! A33   A(6,7,46)             108.6677         estimate D2E/DX2                !
 ! A34   A(6,7,47)             109.2901         estimate D2E/DX2                !
 ! A35   A(8,7,46)             110.5036         estimate D2E/DX2                !
 ! A36   A(8,7,47)             107.2712         estimate D2E/DX2                !
 ! A37   A(46,7,47)            107.9786         estimate D2E/DX2                !
 ! A38   A(7,8,48)             106.0304         estimate D2E/DX2                !
 ! A39   A(5,9,49)             106.8381         estimate D2E/DX2                !
 ! A40   A(4,10,50)            107.9652         estimate D2E/DX2                !
 ! A41   A(3,11,51)            109.8981         estimate D2E/DX2                !
 ! A42   A(2,12,13)            120.0306         estimate D2E/DX2                !
 ! A43   A(12,13,14)           107.516          estimate D2E/DX2                !
 ! A44   A(12,13,19)           111.2137         estimate D2E/DX2                !
 ! A45   A(12,13,52)           110.4318         estimate D2E/DX2                !
 ! A46   A(14,13,19)           108.1084         estimate D2E/DX2                !
 ! A47   A(14,13,52)           109.8072         estimate D2E/DX2                !
 ! A48   A(19,13,52)           109.7038         estimate D2E/DX2                !
 ! A49   A(13,14,15)           109.9058         estimate D2E/DX2                !
 ! A50   A(13,14,16)           108.9417         estimate D2E/DX2                !
 ! A51   A(13,14,53)           108.4327         estimate D2E/DX2                !
 ! A52   A(15,14,16)           110.6848         estimate D2E/DX2                !
 ! A53   A(15,14,53)           109.7255         estimate D2E/DX2                !
 ! A54   A(16,14,53)           109.1082         estimate D2E/DX2                !
 ! A55   A(14,15,54)           106.7157         estimate D2E/DX2                !
 ! A56   A(14,16,17)           110.3258         estimate D2E/DX2                !
 ! A57   A(14,16,40)           107.7128         estimate D2E/DX2                !
 ! A58   A(14,16,55)           107.2462         estimate D2E/DX2                !
 ! A59   A(17,16,40)           111.6699         estimate D2E/DX2                !
 ! A60   A(17,16,55)           109.0956         estimate D2E/DX2                !
 ! A61   A(40,16,55)           110.69           estimate D2E/DX2                !
 ! A62   A(16,17,18)           111.1088         estimate D2E/DX2                !
 ! A63   A(16,17,22)           113.5254         estimate D2E/DX2                !
 ! A64   A(16,17,56)           109.1011         estimate D2E/DX2                !
 ! A65   A(18,17,22)           107.4903         estimate D2E/DX2                !
 ! A66   A(18,17,56)           110.4904         estimate D2E/DX2                !
 ! A67   A(22,17,56)           104.9497         estimate D2E/DX2                !
 ! A68   A(17,18,19)           115.9763         estimate D2E/DX2                !
 ! A69   A(13,19,18)           111.1293         estimate D2E/DX2                !
 ! A70   A(13,19,20)           115.2275         estimate D2E/DX2                !
 ! A71   A(13,19,57)           106.6616         estimate D2E/DX2                !
 ! A72   A(18,19,20)           106.6468         estimate D2E/DX2                !
 ! A73   A(18,19,57)           110.3968         estimate D2E/DX2                !
 ! A74   A(20,19,57)           106.6867         estimate D2E/DX2                !
 ! A75   A(19,20,21)           114.2879         estimate D2E/DX2                !
 ! A76   A(19,20,58)           108.3442         estimate D2E/DX2                !
 ! A77   A(19,20,59)           109.1656         estimate D2E/DX2                !
 ! A78   A(21,20,58)           106.0398         estimate D2E/DX2                !
 ! A79   A(21,20,59)           111.2762         estimate D2E/DX2                !
 ! A80   A(58,20,59)           107.4289         estimate D2E/DX2                !
 ! A81   A(20,21,60)           110.5435         estimate D2E/DX2                !
 ! A82   A(17,22,23)           117.5078         estimate D2E/DX2                !
 ! A83   A(22,23,24)           108.8459         estimate D2E/DX2                !
 ! A84   A(22,23,28)           109.2947         estimate D2E/DX2                !
 ! A85   A(22,23,61)           111.2762         estimate D2E/DX2                !
 ! A86   A(24,23,28)           108.6801         estimate D2E/DX2                !
 ! A87   A(24,23,61)           110.4047         estimate D2E/DX2                !
 ! A88   A(28,23,61)           108.2945         estimate D2E/DX2                !
 ! A89   A(23,24,25)           111.2129         estimate D2E/DX2                !
 ! A90   A(23,24,39)           110.1017         estimate D2E/DX2                !
 ! A91   A(23,24,62)           107.6476         estimate D2E/DX2                !
 ! A92   A(25,24,39)           109.8356         estimate D2E/DX2                !
 ! A93   A(25,24,62)           108.4304         estimate D2E/DX2                !
 ! A94   A(39,24,62)           109.5587         estimate D2E/DX2                !
 ! A95   A(24,25,26)           110.235          estimate D2E/DX2                !
 ! A96   A(24,25,38)           106.6611         estimate D2E/DX2                !
 ! A97   A(24,25,63)           108.8402         estimate D2E/DX2                !
 ! A98   A(26,25,38)           112.7336         estimate D2E/DX2                !
 ! A99   A(26,25,63)           107.23           estimate D2E/DX2                !
 ! A100  A(38,25,63)           111.1094         estimate D2E/DX2                !
 ! A101  A(25,26,27)           109.0904         estimate D2E/DX2                !
 ! A102  A(25,26,31)           108.0166         estimate D2E/DX2                !
 ! A103  A(25,26,64)           110.4425         estimate D2E/DX2                !
 ! A104  A(27,26,31)           108.5452         estimate D2E/DX2                !
 ! A105  A(27,26,64)           109.2812         estimate D2E/DX2                !
 ! A106  A(31,26,64)           111.4115         estimate D2E/DX2                !
 ! A107  A(26,27,28)           113.1922         estimate D2E/DX2                !
 ! A108  A(23,28,27)           109.4192         estimate D2E/DX2                !
 ! A109  A(23,28,29)           114.9551         estimate D2E/DX2                !
 ! A110  A(23,28,65)           107.9834         estimate D2E/DX2                !
 ! A111  A(27,28,29)           107.0108         estimate D2E/DX2                !
 ! A112  A(27,28,65)           110.1388         estimate D2E/DX2                !
 ! A113  A(29,28,65)           107.2814         estimate D2E/DX2                !
 ! A114  A(28,29,30)           112.017          estimate D2E/DX2                !
 ! A115  A(28,29,66)           107.9878         estimate D2E/DX2                !
 ! A116  A(28,29,67)           108.9995         estimate D2E/DX2                !
 ! A117  A(30,29,66)           108.5041         estimate D2E/DX2                !
 ! A118  A(30,29,67)           110.6844         estimate D2E/DX2                !
 ! A119  A(66,29,67)           108.5503         estimate D2E/DX2                !
 ! A120  A(29,30,68)           112.4455         estimate D2E/DX2                !
 ! A121  A(26,31,32)           114.8098         estimate D2E/DX2                !
 ! A122  A(31,32,33)           109.014          estimate D2E/DX2                !
 ! A123  A(31,32,69)           109.2421         estimate D2E/DX2                !
 ! A124  A(31,32,70)           109.169          estimate D2E/DX2                !
 ! A125  A(33,32,69)           110.7522         estimate D2E/DX2                !
 ! A126  A(33,32,70)           110.5678         estimate D2E/DX2                !
 ! A127  A(69,32,70)           108.0668         estimate D2E/DX2                !
 ! A128  A(32,33,34)           113.5764         estimate D2E/DX2                !
 ! A129  A(32,33,71)           107.9609         estimate D2E/DX2                !
 ! A130  A(32,33,72)           109.0762         estimate D2E/DX2                !
 ! A131  A(34,33,71)           110.5441         estimate D2E/DX2                !
 ! A132  A(34,33,72)           108.88           estimate D2E/DX2                !
 ! A133  A(71,33,72)           106.5597         estimate D2E/DX2                !
 ! A134  A(33,34,35)           114.5207         estimate D2E/DX2                !
 ! A135  A(33,34,73)           109.1434         estimate D2E/DX2                !
 ! A136  A(33,34,74)           107.0004         estimate D2E/DX2                !
 ! A137  A(35,34,73)           109.0892         estimate D2E/DX2                !
 ! A138  A(35,34,74)           110.6625         estimate D2E/DX2                !
 ! A139  A(73,34,74)           106.0733         estimate D2E/DX2                !
 ! A140  A(34,35,36)           112.8341         estimate D2E/DX2                !
 ! A141  A(34,35,75)           110.8116         estimate D2E/DX2                !
 ! A142  A(34,35,76)           109.6981         estimate D2E/DX2                !
 ! A143  A(36,35,75)           108.3616         estimate D2E/DX2                !
 ! A144  A(36,35,76)           108.1002         estimate D2E/DX2                !
 ! A145  A(75,35,76)           106.8184         estimate D2E/DX2                !
 ! A146  A(35,36,37)           111.1034         estimate D2E/DX2                !
 ! A147  A(35,36,77)           111.5178         estimate D2E/DX2                !
 ! A148  A(35,36,78)           111.6086         estimate D2E/DX2                !
 ! A149  A(37,36,77)           107.6791         estimate D2E/DX2                !
 ! A150  A(37,36,78)           106.6121         estimate D2E/DX2                !
 ! A151  A(77,36,78)           108.0952         estimate D2E/DX2                !
 ! A152  A(36,37,79)           110.1122         estimate D2E/DX2                !
 ! A153  A(36,37,80)           111.1911         estimate D2E/DX2                !
 ! A154  A(36,37,81)           110.7424         estimate D2E/DX2                !
 ! A155  A(79,37,80)           106.8197         estimate D2E/DX2                !
 ! A156  A(79,37,81)           108.3215         estimate D2E/DX2                !
 ! A157  A(80,37,81)           109.535          estimate D2E/DX2                !
 ! A158  A(25,38,82)           108.8839         estimate D2E/DX2                !
 ! A159  A(24,39,83)           107.1122         estimate D2E/DX2                !
 ! A160  A(16,40,84)           106.3153         estimate D2E/DX2                !
 ! D1    D(6,1,2,3)            -57.2519         estimate D2E/DX2                !
 ! D2    D(6,1,2,12)          -175.699          estimate D2E/DX2                !
 ! D3    D(6,1,2,41)            64.5929         estimate D2E/DX2                !
 ! D4    D(2,1,6,5)             53.3629         estimate D2E/DX2                !
 ! D5    D(2,1,6,7)            178.2305         estimate D2E/DX2                !
 ! D6    D(2,1,6,45)           -65.4842         estimate D2E/DX2                !
 ! D7    D(1,2,3,4)             57.0314         estimate D2E/DX2                !
 ! D8    D(1,2,3,11)           175.7307         estimate D2E/DX2                !
 ! D9    D(1,2,3,42)           -61.4491         estimate D2E/DX2                !
 ! D10   D(12,2,3,4)           172.4038         estimate D2E/DX2                !
 ! D11   D(12,2,3,11)          -68.8969         estimate D2E/DX2                !
 ! D12   D(12,2,3,42)           53.9233         estimate D2E/DX2                !
 ! D13   D(41,2,3,4)           -65.0077         estimate D2E/DX2                !
 ! D14   D(41,2,3,11)           53.6917         estimate D2E/DX2                !
 ! D15   D(41,2,3,42)          176.5119         estimate D2E/DX2                !
 ! D16   D(1,2,12,13)         -124.5226         estimate D2E/DX2                !
 ! D17   D(3,2,12,13)          116.3437         estimate D2E/DX2                !
 ! D18   D(41,2,12,13)          -5.4682         estimate D2E/DX2                !
 ! D19   D(2,3,4,5)            -55.1821         estimate D2E/DX2                !
 ! D20   D(2,3,4,10)          -173.8268         estimate D2E/DX2                !
 ! D21   D(2,3,4,43)            64.1279         estimate D2E/DX2                !
 ! D22   D(11,3,4,5)          -176.229          estimate D2E/DX2                !
 ! D23   D(11,3,4,10)           65.1264         estimate D2E/DX2                !
 ! D24   D(11,3,4,43)          -56.919          estimate D2E/DX2                !
 ! D25   D(42,3,4,5)            61.9479         estimate D2E/DX2                !
 ! D26   D(42,3,4,10)          -56.6967         estimate D2E/DX2                !
 ! D27   D(42,3,4,43)         -178.7421         estimate D2E/DX2                !
 ! D28   D(2,3,11,51)           58.083          estimate D2E/DX2                !
 ! D29   D(4,3,11,51)          178.1159         estimate D2E/DX2                !
 ! D30   D(42,3,11,51)         -61.8301         estimate D2E/DX2                !
 ! D31   D(3,4,5,6)             51.2589         estimate D2E/DX2                !
 ! D32   D(3,4,5,9)            -70.722          estimate D2E/DX2                !
 ! D33   D(3,4,5,44)           169.353          estimate D2E/DX2                !
 ! D34   D(10,4,5,6)           172.8511         estimate D2E/DX2                !
 ! D35   D(10,4,5,9)            50.8702         estimate D2E/DX2                !
 ! D36   D(10,4,5,44)          -69.0548         estimate D2E/DX2                !
 ! D37   D(43,4,5,6)           -67.7156         estimate D2E/DX2                !
 ! D38   D(43,4,5,9)           170.3035         estimate D2E/DX2                !
 ! D39   D(43,4,5,44)           50.3785         estimate D2E/DX2                !
 ! D40   D(3,4,10,50)          -47.2536         estimate D2E/DX2                !
 ! D41   D(5,4,10,50)         -168.2813         estimate D2E/DX2                !
 ! D42   D(43,4,10,50)          73.4408         estimate D2E/DX2                !
 ! D43   D(4,5,6,1)            -49.1634         estimate D2E/DX2                !
 ! D44   D(4,5,6,7)           -170.5066         estimate D2E/DX2                !
 ! D45   D(4,5,6,45)            71.351          estimate D2E/DX2                !
 ! D46   D(9,5,6,1)             72.7567         estimate D2E/DX2                !
 ! D47   D(9,5,6,7)            -48.5865         estimate D2E/DX2                !
 ! D48   D(9,5,6,45)          -166.729          estimate D2E/DX2                !
 ! D49   D(44,5,6,1)          -168.0005         estimate D2E/DX2                !
 ! D50   D(44,5,6,7)            70.6563         estimate D2E/DX2                !
 ! D51   D(44,5,6,45)          -47.4862         estimate D2E/DX2                !
 ! D52   D(4,5,9,49)           -42.2551         estimate D2E/DX2                !
 ! D53   D(6,5,9,49)          -164.7793         estimate D2E/DX2                !
 ! D54   D(44,5,9,49)           77.2033         estimate D2E/DX2                !
 ! D55   D(1,6,7,8)            -60.3473         estimate D2E/DX2                !
 ! D56   D(1,6,7,46)           176.6225         estimate D2E/DX2                !
 ! D57   D(1,6,7,47)            59.0138         estimate D2E/DX2                !
 ! D58   D(5,6,7,8)             64.2081         estimate D2E/DX2                !
 ! D59   D(5,6,7,46)           -58.8221         estimate D2E/DX2                !
 ! D60   D(5,6,7,47)          -176.4308         estimate D2E/DX2                !
 ! D61   D(45,6,7,8)          -178.065          estimate D2E/DX2                !
 ! D62   D(45,6,7,46)           58.9048         estimate D2E/DX2                !
 ! D63   D(45,6,7,47)          -58.704          estimate D2E/DX2                !
 ! D64   D(6,7,8,48)           -46.6732         estimate D2E/DX2                !
 ! D65   D(46,7,8,48)           75.3323         estimate D2E/DX2                !
 ! D66   D(47,7,8,48)         -167.1923         estimate D2E/DX2                !
 ! D67   D(2,12,13,14)        -129.9751         estimate D2E/DX2                !
 ! D68   D(2,12,13,19)         111.8528         estimate D2E/DX2                !
 ! D69   D(2,12,13,52)         -10.1892         estimate D2E/DX2                !
 ! D70   D(12,13,14,15)         59.8951         estimate D2E/DX2                !
 ! D71   D(12,13,14,16)        -61.5345         estimate D2E/DX2                !
 ! D72   D(12,13,14,53)        179.8329         estimate D2E/DX2                !
 ! D73   D(19,13,14,15)       -179.9446         estimate D2E/DX2                !
 ! D74   D(19,13,14,16)         58.6258         estimate D2E/DX2                !
 ! D75   D(19,13,14,53)        -60.0068         estimate D2E/DX2                !
 ! D76   D(52,13,14,15)        -60.2873         estimate D2E/DX2                !
 ! D77   D(52,13,14,16)        178.2831         estimate D2E/DX2                !
 ! D78   D(52,13,14,53)         59.6505         estimate D2E/DX2                !
 ! D79   D(12,13,19,18)         59.9481         estimate D2E/DX2                !
 ! D80   D(12,13,19,20)        -61.4901         estimate D2E/DX2                !
 ! D81   D(12,13,19,57)       -179.6757         estimate D2E/DX2                !
 ! D82   D(14,13,19,18)        -57.8659         estimate D2E/DX2                !
 ! D83   D(14,13,19,20)       -179.304          estimate D2E/DX2                !
 ! D84   D(14,13,19,57)         62.5103         estimate D2E/DX2                !
 ! D85   D(52,13,19,18)       -177.5883         estimate D2E/DX2                !
 ! D86   D(52,13,19,20)         60.9735         estimate D2E/DX2                !
 ! D87   D(52,13,19,57)        -57.2122         estimate D2E/DX2                !
 ! D88   D(13,14,15,54)       -165.2616         estimate D2E/DX2                !
 ! D89   D(16,14,15,54)        -44.8811         estimate D2E/DX2                !
 ! D90   D(53,14,15,54)         75.5896         estimate D2E/DX2                !
 ! D91   D(13,14,16,17)        -56.7922         estimate D2E/DX2                !
 ! D92   D(13,14,16,40)       -178.9115         estimate D2E/DX2                !
 ! D93   D(13,14,16,55)         61.9118         estimate D2E/DX2                !
 ! D94   D(15,14,16,17)       -177.746          estimate D2E/DX2                !
 ! D95   D(15,14,16,40)         60.1347         estimate D2E/DX2                !
 ! D96   D(15,14,16,55)        -59.042          estimate D2E/DX2                !
 ! D97   D(53,14,16,17)         61.4162         estimate D2E/DX2                !
 ! D98   D(53,14,16,40)        -60.7031         estimate D2E/DX2                !
 ! D99   D(53,14,16,55)       -179.8798         estimate D2E/DX2                !
 ! D100  D(14,16,17,18)         52.7133         estimate D2E/DX2                !
 ! D101  D(14,16,17,22)        174.0071         estimate D2E/DX2                !
 ! D102  D(14,16,17,56)        -69.3449         estimate D2E/DX2                !
 ! D103  D(40,16,17,18)        172.4692         estimate D2E/DX2                !
 ! D104  D(40,16,17,22)        -66.237          estimate D2E/DX2                !
 ! D105  D(40,16,17,56)         50.411          estimate D2E/DX2                !
 ! D106  D(55,16,17,18)        -64.8556         estimate D2E/DX2                !
 ! D107  D(55,16,17,22)         56.4382         estimate D2E/DX2                !
 ! D108  D(55,16,17,56)        173.0862         estimate D2E/DX2                !
 ! D109  D(14,16,40,84)       -159.4162         estimate D2E/DX2                !
 ! D110  D(17,16,40,84)         79.2998         estimate D2E/DX2                !
 ! D111  D(55,16,40,84)        -42.4598         estimate D2E/DX2                !
 ! D112  D(16,17,18,19)        -53.7506         estimate D2E/DX2                !
 ! D113  D(22,17,18,19)       -178.5185         estimate D2E/DX2                !
 ! D114  D(56,17,18,19)         67.4964         estimate D2E/DX2                !
 ! D115  D(16,17,22,23)        -59.7313         estimate D2E/DX2                !
 ! D116  D(18,17,22,23)         63.5677         estimate D2E/DX2                !
 ! D117  D(56,17,22,23)       -178.7858         estimate D2E/DX2                !
 ! D118  D(17,18,19,13)         56.9562         estimate D2E/DX2                !
 ! D119  D(17,18,19,20)       -176.7112         estimate D2E/DX2                !
 ! D120  D(17,18,19,57)        -61.1849         estimate D2E/DX2                !
 ! D121  D(13,19,20,21)         75.625          estimate D2E/DX2                !
 ! D122  D(13,19,20,58)       -166.4061         estimate D2E/DX2                !
 ! D123  D(13,19,20,59)        -49.7062         estimate D2E/DX2                !
 ! D124  D(18,19,20,21)        -48.2088         estimate D2E/DX2                !
 ! D125  D(18,19,20,58)         69.7601         estimate D2E/DX2                !
 ! D126  D(18,19,20,59)       -173.54           estimate D2E/DX2                !
 ! D127  D(57,19,20,21)       -166.2033         estimate D2E/DX2                !
 ! D128  D(57,19,20,58)        -48.2344         estimate D2E/DX2                !
 ! D129  D(57,19,20,59)         68.4655         estimate D2E/DX2                !
 ! D130  D(19,20,21,60)        -67.9352         estimate D2E/DX2                !
 ! D131  D(58,20,21,60)        172.7893         estimate D2E/DX2                !
 ! D132  D(59,20,21,60)         56.2761         estimate D2E/DX2                !
 ! D133  D(17,22,23,24)        120.1909         estimate D2E/DX2                !
 ! D134  D(17,22,23,28)       -121.2503         estimate D2E/DX2                !
 ! D135  D(17,22,23,61)         -1.6969         estimate D2E/DX2                !
 ! D136  D(22,23,24,25)        171.7241         estimate D2E/DX2                !
 ! D137  D(22,23,24,39)        -66.2945         estimate D2E/DX2                !
 ! D138  D(22,23,24,62)         53.0806         estimate D2E/DX2                !
 ! D139  D(28,23,24,25)         52.7798         estimate D2E/DX2                !
 ! D140  D(28,23,24,39)        174.7613         estimate D2E/DX2                !
 ! D141  D(28,23,24,62)        -65.8637         estimate D2E/DX2                !
 ! D142  D(61,23,24,25)        -65.8604         estimate D2E/DX2                !
 ! D143  D(61,23,24,39)         56.1211         estimate D2E/DX2                !
 ! D144  D(61,23,24,62)        175.4961         estimate D2E/DX2                !
 ! D145  D(22,23,28,27)       -175.4674         estimate D2E/DX2                !
 ! D146  D(22,23,28,29)         64.1219         estimate D2E/DX2                !
 ! D147  D(22,23,28,65)        -55.5833         estimate D2E/DX2                !
 ! D148  D(24,23,28,27)        -56.8054         estimate D2E/DX2                !
 ! D149  D(24,23,28,29)       -177.2161         estimate D2E/DX2                !
 ! D150  D(24,23,28,65)         63.0787         estimate D2E/DX2                !
 ! D151  D(61,23,28,27)         63.1554         estimate D2E/DX2                !
 ! D152  D(61,23,28,29)        -57.2553         estimate D2E/DX2                !
 ! D153  D(61,23,28,65)       -176.9605         estimate D2E/DX2                !
 ! D154  D(23,24,25,26)        -52.9987         estimate D2E/DX2                !
 ! D155  D(23,24,25,38)       -175.6984         estimate D2E/DX2                !
 ! D156  D(23,24,25,63)         64.346          estimate D2E/DX2                !
 ! D157  D(39,24,25,26)       -175.1346         estimate D2E/DX2                !
 ! D158  D(39,24,25,38)         62.1657         estimate D2E/DX2                !
 ! D159  D(39,24,25,63)        -57.7899         estimate D2E/DX2                !
 ! D160  D(62,24,25,26)         65.1734         estimate D2E/DX2                !
 ! D161  D(62,24,25,38)        -57.5262         estimate D2E/DX2                !
 ! D162  D(62,24,25,63)       -177.4819         estimate D2E/DX2                !
 ! D163  D(23,24,39,83)       -172.9521         estimate D2E/DX2                !
 ! D164  D(25,24,39,83)        -50.1577         estimate D2E/DX2                !
 ! D165  D(62,24,39,83)         68.8435         estimate D2E/DX2                !
 ! D166  D(24,25,26,27)         56.1242         estimate D2E/DX2                !
 ! D167  D(24,25,26,31)        173.9303         estimate D2E/DX2                !
 ! D168  D(24,25,26,64)        -64.0022         estimate D2E/DX2                !
 ! D169  D(38,25,26,27)        175.1865         estimate D2E/DX2                !
 ! D170  D(38,25,26,31)        -67.0074         estimate D2E/DX2                !
 ! D171  D(38,25,26,64)         55.0601         estimate D2E/DX2                !
 ! D172  D(63,25,26,27)        -62.2132         estimate D2E/DX2                !
 ! D173  D(63,25,26,31)         55.5929         estimate D2E/DX2                !
 ! D174  D(63,25,26,64)        177.6604         estimate D2E/DX2                !
 ! D175  D(24,25,38,82)       -177.7207         estimate D2E/DX2                !
 ! D176  D(26,25,38,82)         61.1591         estimate D2E/DX2                !
 ! D177  D(63,25,38,82)        -59.2399         estimate D2E/DX2                !
 ! D178  D(25,26,27,28)        -63.4505         estimate D2E/DX2                !
 ! D179  D(31,26,27,28)        179.0769         estimate D2E/DX2                !
 ! D180  D(64,26,27,28)         57.3886         estimate D2E/DX2                !
 ! D181  D(25,26,31,32)        169.8815         estimate D2E/DX2                !
 ! D182  D(27,26,31,32)        -71.9627         estimate D2E/DX2                !
 ! D183  D(64,26,31,32)         48.4123         estimate D2E/DX2                !
 ! D184  D(26,27,28,23)         64.3058         estimate D2E/DX2                !
 ! D185  D(26,27,28,29)       -170.5471         estimate D2E/DX2                !
 ! D186  D(26,27,28,65)        -54.2467         estimate D2E/DX2                !
 ! D187  D(23,28,29,30)         66.9695         estimate D2E/DX2                !
 ! D188  D(23,28,29,66)       -173.6094         estimate D2E/DX2                !
 ! D189  D(23,28,29,67)        -55.8634         estimate D2E/DX2                !
 ! D190  D(27,28,29,30)        -54.7568         estimate D2E/DX2                !
 ! D191  D(27,28,29,66)         64.6643         estimate D2E/DX2                !
 ! D192  D(27,28,29,67)       -177.5897         estimate D2E/DX2                !
 ! D193  D(65,28,29,30)       -172.9372         estimate D2E/DX2                !
 ! D194  D(65,28,29,66)        -53.5161         estimate D2E/DX2                !
 ! D195  D(65,28,29,67)         64.2299         estimate D2E/DX2                !
 ! D196  D(28,29,30,68)       -115.3623         estimate D2E/DX2                !
 ! D197  D(66,29,30,68)        125.5202         estimate D2E/DX2                !
 ! D198  D(67,29,30,68)          6.5107         estimate D2E/DX2                !
 ! D199  D(26,31,32,33)        147.2269         estimate D2E/DX2                !
 ! D200  D(26,31,32,69)         26.0798         estimate D2E/DX2                !
 ! D201  D(26,31,32,70)        -91.8962         estimate D2E/DX2                !
 ! D202  D(31,32,33,34)        -54.314          estimate D2E/DX2                !
 ! D203  D(31,32,33,71)       -177.2683         estimate D2E/DX2                !
 ! D204  D(31,32,33,72)         67.3196         estimate D2E/DX2                !
 ! D205  D(69,32,33,34)         65.9069         estimate D2E/DX2                !
 ! D206  D(69,32,33,71)        -57.0474         estimate D2E/DX2                !
 ! D207  D(69,32,33,72)       -172.4595         estimate D2E/DX2                !
 ! D208  D(70,32,33,34)       -174.331          estimate D2E/DX2                !
 ! D209  D(70,32,33,71)         62.7147         estimate D2E/DX2                !
 ! D210  D(70,32,33,72)        -52.6974         estimate D2E/DX2                !
 ! D211  D(32,33,34,35)        -62.4428         estimate D2E/DX2                !
 ! D212  D(32,33,34,73)        174.9521         estimate D2E/DX2                !
 ! D213  D(32,33,34,74)         60.584          estimate D2E/DX2                !
 ! D214  D(71,33,34,35)         59.0808         estimate D2E/DX2                !
 ! D215  D(71,33,34,73)        -63.5244         estimate D2E/DX2                !
 ! D216  D(71,33,34,74)       -177.8924         estimate D2E/DX2                !
 ! D217  D(72,33,34,35)        175.8144         estimate D2E/DX2                !
 ! D218  D(72,33,34,73)         53.2092         estimate D2E/DX2                !
 ! D219  D(72,33,34,74)        -61.1589         estimate D2E/DX2                !
 ! D220  D(33,34,35,36)        168.8192         estimate D2E/DX2                !
 ! D221  D(33,34,35,75)         47.1038         estimate D2E/DX2                !
 ! D222  D(33,34,35,76)        -70.597          estimate D2E/DX2                !
 ! D223  D(73,34,35,36)        -68.5462         estimate D2E/DX2                !
 ! D224  D(73,34,35,75)        169.7384         estimate D2E/DX2                !
 ! D225  D(73,34,35,76)         52.0375         estimate D2E/DX2                !
 ! D226  D(74,34,35,36)         47.7895         estimate D2E/DX2                !
 ! D227  D(74,34,35,75)        -73.9259         estimate D2E/DX2                !
 ! D228  D(74,34,35,76)        168.3732         estimate D2E/DX2                !
 ! D229  D(34,35,36,37)        -70.5607         estimate D2E/DX2                !
 ! D230  D(34,35,36,77)         49.5762         estimate D2E/DX2                !
 ! D231  D(34,35,36,78)        170.5919         estimate D2E/DX2                !
 ! D232  D(75,35,36,37)         52.5284         estimate D2E/DX2                !
 ! D233  D(75,35,36,77)        172.6653         estimate D2E/DX2                !
 ! D234  D(75,35,36,78)        -66.319          estimate D2E/DX2                !
 ! D235  D(76,35,36,37)        167.9464         estimate D2E/DX2                !
 ! D236  D(76,35,36,77)        -71.9167         estimate D2E/DX2                !
 ! D237  D(76,35,36,78)         49.0991         estimate D2E/DX2                !
 ! D238  D(35,36,37,79)         44.1244         estimate D2E/DX2                !
 ! D239  D(35,36,37,80)        -74.0704         estimate D2E/DX2                !
 ! D240  D(35,36,37,81)        163.9027         estimate D2E/DX2                !
 ! D241  D(77,36,37,79)        -78.2643         estimate D2E/DX2                !
 ! D242  D(77,36,37,80)        163.5409         estimate D2E/DX2                !
 ! D243  D(77,36,37,81)         41.5141         estimate D2E/DX2                !
 ! D244  D(78,36,37,79)        165.9323         estimate D2E/DX2                !
 ! D245  D(78,36,37,80)         47.7375         estimate D2E/DX2                !
 ! D246  D(78,36,37,81)        -74.2894         estimate D2E/DX2                !
 --------------------------------------------------------------------------------
 Trust Radius=3.00D-01 FncErr=1.00D-07 GrdErr=1.00D-06
 Number of steps in this run=    504 maximum allowed number of steps=    504.
 GradGradGradGradGradGradGradGradGradGradGradGradGradGradGradGradGradGrad

 Leave Link  103 at Tue Mar 22 21:57:33 2016, MaxMem= 10737418240 cpu:         0.4
 (Enter /share/apps//g09/l202.exe)
 Stoichiometry    C23H44NO16(1+)
 Framework group  C1[X(C23H44NO16)]
 Deg. of freedom   246
 Full point group                 C1      NOp   1
 Largest Abelian subgroup         C1      NOp   1
 Largest concise Abelian subgroup C1      NOp   1
                         Standard orientation:                         
 ---------------------------------------------------------------------
 Center     Atomic      Atomic             Coordinates (Angstroms)
 Number     Number       Type             X           Y           Z
 ---------------------------------------------------------------------
      1          8           0        2.486053    1.479834    0.602128
      2          6           0        3.243781    0.385447    0.124845
      3          6           0        3.648611    0.598915   -1.320515
      4          6           0        4.423735    1.893068   -1.446489
      5          6           0        3.622423    3.055353   -0.887723
      6          6           0        3.118443    2.745097    0.516488
      7          6           0        2.124856    3.769753    1.034298
      8          8           0        0.926060    3.806717    0.282679
      9          8           0        2.531339    3.344708   -1.742079
     10          8           0        4.699356    2.202144   -2.789101
     11          8           0        4.477189   -0.430215   -1.771504
     12          8           0        2.396021   -0.698308    0.218063
     13          6           0        2.789996   -1.844647    0.947269
     14          6           0        2.556524   -3.051045    0.061354
     15          8           0        3.318700   -2.935234   -1.117015
     16          6           0        1.080523   -3.144122   -0.263348
     17          6           0        0.257379   -3.213272    1.022572
     18          8           0        0.584985   -2.152326    1.893340
     19          6           0        1.948638   -2.012646    2.208447
     20          6           0        2.049679   -0.873030    3.212243
     21          8           0        1.341450    0.287668    2.844297
     22          8           0       -1.111719   -3.167561    0.806555
     23          6           0       -1.632604   -2.024943    0.155353
     24          6           0       -2.323995   -2.461966   -1.123765
     25          6           0       -3.074628   -1.311479   -1.761589
     26          6           0       -4.008054   -0.671910   -0.753870
     27          8           0       -3.262494   -0.268046    0.374510
     28          6           0       -2.663354   -1.350850    1.064048
     29          6           0       -2.109242   -0.799148    2.357242
     30          8           0       -1.235560    0.286113    2.137772
     31          8           0       -4.560768    0.444400   -1.335078
     32          6           0       -5.632098    1.033163   -0.600676
     33          6           0       -5.611841    2.531131   -0.814638
     34          6           0       -4.271590    3.175418   -0.485587
     35          6           0       -3.845213    3.039396    0.970728
     36          6           0       -2.404720    3.447230    1.202082
     37          7           0       -1.466677    2.459295    0.607461
     38          8           0       -3.753194   -1.839344   -2.870339
     39          8           0       -1.377210   -2.980087   -2.034636
     40          8           0        0.890729   -4.277905   -1.059518
     41          1           0        4.141531    0.243412    0.748221
     42          1           0        2.723805    0.671662   -1.907666
     43          1           0        5.355517    1.794948   -0.872252
     44          1           0        4.276138    3.933236   -0.817717
     45          1           0        3.994335    2.767547    1.181193
     46          1           0        2.605581    4.753230    1.037992
     47          1           0        1.855281    3.522940    2.061917
     48          1           0        1.194867    3.820669   -0.650363
     49          1           0        2.863003    3.293741   -2.645450
     50          1           0        5.040645    1.409252   -3.211810
     51          1           0        4.023990   -1.284532   -1.678266
     52          1           0        3.849516   -1.781198    1.216063
     53          1           0        2.860789   -3.950827    0.612675
     54          1           0        2.969321   -3.583245   -1.737636
     55          1           0        0.811400   -2.237118   -0.812114
     56          1           0        0.434745   -4.179544    1.510831
     57          1           0        2.319641   -2.916553    2.717619
     58          1           0        1.613767   -1.205912    4.154201
     59          1           0        3.106305   -0.651411    3.399744
     60          1           0        1.750881    0.705295    2.069456
     61          1           0       -0.844139   -1.300394   -0.065878
     62          1           0       -3.047708   -3.245271   -0.860258
     63          1           0       -2.351478   -0.542861   -2.069144
     64          1           0       -4.785048   -1.388699   -0.439471
     65          1           0       -3.424820   -2.099702    1.327901
     66          1           0       -2.949704   -0.450860    2.963269
     67          1           0       -1.601967   -1.598642    2.895282
     68          1           0       -0.315667    0.087649    2.412763
     69          1           0       -5.517807    0.791938    0.458378
     70          1           0       -6.579493    0.608608   -0.944951
     71          1           0       -6.408037    2.969480   -0.206373
     72          1           0       -5.861267    2.746372   -1.855915
     73          1           0       -4.309013    4.235323   -0.749560
     74          1           0       -3.527474    2.723619   -1.149880
     75          1           0       -3.971763    2.011584    1.317731
     76          1           0       -4.480594    3.666012    1.600406
     77          1           0       -2.187783    4.419215    0.757396
     78          1           0       -2.168633    3.500761    2.263916
     79          1           0       -1.782015    2.193108   -0.321546
     80          1           0       -1.429132    1.574825    1.182357
     81          1           0       -0.510032    2.862127    0.525468
     82          1           0       -4.212711   -1.127787   -3.320776
     83          1           0       -1.838830   -3.137927   -2.863429
     84          1           0        0.049803   -4.149071   -1.519762
 ---------------------------------------------------------------------
 Rotational constants (GHZ):      0.1074245      0.0738651      0.0576082
 Leave Link  202 at Tue Mar 22 21:57:33 2016, MaxMem= 10737418240 cpu:         0.6
 (Enter /share/apps//g09/l301.exe)
 Standard basis: 6-311+G(d,p) (5D, 7F)
 Ernie: Thresh=  0.10000D-02 Tol=  0.10000D-05 Strict=F.
 There are  1184 symmetry adapted cartesian basis functions of A   symmetry.
 There are  1144 symmetry adapted basis functions of A   symmetry.
  1144 basis functions,  1792 primitive gaussians,  1184 cartesian basis functions
   158 alpha electrons      158 beta electrons
       nuclear repulsion energy      5916.1902272635 Hartrees.
 IExCor= 1009 DFT=T Ex+Corr=PBE1PBE ExCW=0 ScaHFX=  0.250000
 ScaDFX=  0.750000  0.750000  1.000000  1.000000 ScalE2=  1.000000  1.000000
 IRadAn=      0 IRanWt=     -1 IRanGd=            0 ICorTp=0 IEmpDi=131
 NAtoms=   84 NActive=   84 NUniq=   84 SFac= 1.00D+00 NAtFMM=   60 NAOKFM=T Big=T
 Integral buffers will be    131072 words long.
 Raffenetti 2 integral format.
 Two-electron integral symmetry is turned on.
 R6Disp:  Grimme-D3 Dispersion energy=       -0.0822258437 Hartrees.
 Nuclear repulsion after empirical dispersion term =     5916.1080014198 Hartrees.
 Leave Link  301 at Tue Mar 22 21:57:33 2016, MaxMem= 10737418240 cpu:         1.4
 (Enter /share/apps//g09/l302.exe)
 NPDir=0 NMtPBC=     1 NCelOv=     1 NCel=       1 NClECP=     1 NCelD=      1
         NCelK=      1 NCelE2=     1 NClLst=     1 CellRange=     0.0.
 One-electron integrals computed using PRISM.
 NBasis=  1144 RedAO= T EigKep=  1.43D-06  NBF=  1144
 NBsUse=  1144 1.00D-06 EigRej= -1.00D+00 NBFU=  1144
 Precomputing XC quadrature grid using
 IXCGrd= 4 IRadAn=           0 IRanWt=          -1 IRanGd=           0 AccXCQ= 0.00D+00.
 Generated NRdTot=       0 NPtTot=           0 NUsed=           0 NTot=          32
 NSgBfM=  1081  1082  1082  1082  1082 MxSgAt=    84 MxSgA2=    84.
 Leave Link  302 at Tue Mar 22 21:57:37 2016, MaxMem= 10737418240 cpu:        57.5
 (Enter /share/apps//g09/l303.exe)
 DipDrv:  MaxL=1.
 Leave Link  303 at Tue Mar 22 21:57:39 2016, MaxMem= 10737418240 cpu:        29.1
 (Enter /share/apps//g09/l401.exe)
 ExpMin= 4.38D-02 ExpMax= 8.59D+03 ExpMxC= 1.30D+03 IAcc=2 IRadAn=         4 AccDes= 0.00D+00
 Harris functional with IExCor= 1009 and IRadAn=       4 diagonalized for initial guess.
 HarFok:  IExCor= 1009 AccDes= 0.00D+00 IRadAn=         4 IDoV= 1 UseB2=F ITyADJ=14
 ICtDFT=  3500011 ScaDFX=  1.000000  1.000000  1.000000  1.000000
 FoFCou: FMM=F IPFlag=           0 FMFlag=      100000 FMFlg1=        2001
         NFxFlg=           0 DoJE=T BraDBF=F KetDBF=T FulRan=T
         wScrn=  0.000000 ICntrl=     500 IOpCl=  0 I1Cent=   200000004 NGrid=           0
         NMat0=    1 NMatS0=      1 NMatT0=    0 NMatD0=    1 NMtDS0=    0 NMtDT0=    0
 Petite list used in FoFCou.
 Harris En= -2159.75203555721    
 JPrj=0 DoOrth=F DoCkMO=F.
 Leave Link  401 at Tue Mar 22 21:57:45 2016, MaxMem= 10737418240 cpu:       117.0
 (Enter /share/apps//g09/l502.exe)
 Closed shell SCF:
 Using DIIS extrapolation, IDIIS=  1040.
 Integral symmetry usage will be decided dynamically.
 IVT=     4256630 IEndB=     4256630 NGot= 10737418240 MDV= 10734581291
 LenX= 10734581291 LenY= 10733178251
 Requested convergence on RMS density matrix=1.00D-08 within 128 cycles.
 Requested convergence on MAX density matrix=1.00D-06.
 Requested convergence on             energy=1.00D-06.
 No special actions if energy rises.
 Fock matrices will be formed incrementally for  20 cycles.

 Cycle   1  Pass 1  IDiag  1:
 FoFJK:  IHMeth= 1 ICntrl=       0 DoSepK=F KAlg= 0 I1Cent=   0 FoldK=F
 IRaf= 790000000 NMat=   1 IRICut=       1 DoRegI=T DoRafI=F ISym2E= 0.
 FoFCou: FMM=T IPFlag=           0 FMFlag=      100000 FMFlg1=        2001
         NFxFlg=           0 DoJE=F BraDBF=F KetDBF=F FulRan=T
         wScrn=  0.000000 ICntrl=       0 IOpCl=  0 I1Cent=           0 NGrid=           0
         NMat0=    1 NMatS0=      1 NMatT0=    0 NMatD0=    1 NMtDS0=    0 NMtDT0=    0
 Symmetry not used in FoFCou.
 FMM levels:  10  Number of levels for PrismC:   9
 E= -2158.69580867803    
 DIIS: error= 1.25D-02 at cycle   1 NSaved=   1.
 NSaved= 1 IEnMin= 1 EnMin= -2158.69580867803     IErMin= 1 ErrMin= 1.25D-02
 ErrMax= 1.25D-02  0.00D+00 EMaxC= 1.00D-01 BMatC= 1.06D+00 BMatP= 1.06D+00
 IDIUse=3 WtCom= 8.75D-01 WtEn= 1.25D-01
 Coeff-Com:  0.100D+01
 Coeff-En:   0.100D+01
 Coeff:      0.100D+01
 Gap=     0.263 Goal=   None    Shift=    0.000
 GapD=    0.263 DampG=1.000 DampE=0.500 DampFc=0.5000 IDamp=-1.
 Damping current iteration by 5.00D-01
 RMSDP=8.51D-03 MaxDP=1.84D+00              OVMax= 1.46D-01

 Cycle   2  Pass 1  IDiag  1:
 RMSU=  4.25D-03    CP:  1.00D+00
 E= -2158.99730590868     Delta-E=       -0.301497230644 Rises=F Damp=T
 DIIS: error= 2.91D-03 at cycle   2 NSaved=   2.
 NSaved= 2 IEnMin= 2 EnMin= -2158.99730590868     IErMin= 2 ErrMin= 2.91D-03
 ErrMax= 2.91D-03  0.00D+00 EMaxC= 1.00D-01 BMatC= 7.83D-02 BMatP= 1.06D+00
 IDIUse=3 WtCom= 9.71D-01 WtEn= 2.91D-02
 Coeff-Com:  0.471D-01 0.953D+00
 Coeff-En:   0.136D+00 0.864D+00
 Coeff:      0.497D-01 0.950D+00
 Gap=     0.288 Goal=   None    Shift=    0.000
 RMSDP=4.00D-03 MaxDP=1.18D+00 DE=-3.01D-01 OVMax= 8.13D-02

 Cycle   3  Pass 1  IDiag  1:
 RMSU=  2.58D-03    CP:  9.23D-01  1.05D+00
 E= -2159.37806522793     Delta-E=       -0.380759319254 Rises=F Damp=F
 DIIS: error= 2.91D-03 at cycle   3 NSaved=   3.
 NSaved= 3 IEnMin= 3 EnMin= -2159.37806522793     IErMin= 2 ErrMin= 2.91D-03
 ErrMax= 2.91D-03  0.00D+00 EMaxC= 1.00D-01 BMatC= 4.20D-02 BMatP= 7.83D-02
 IDIUse=3 WtCom= 9.71D-01 WtEn= 2.91D-02
 Coeff-Com: -0.696D-01 0.404D+00 0.666D+00
 Coeff-En:   0.000D+00 0.000D+00 0.100D+01
 Coeff:     -0.676D-01 0.392D+00 0.675D+00
 Gap=     0.267 Goal=   None    Shift=    0.000
 RMSDP=1.51D-03 MaxDP=3.62D-01 DE=-3.81D-01 OVMax= 1.67D-02

 Cycle   4  Pass 1  IDiag  1:
 RMSU=  1.18D-03    CP:  9.43D-01  1.15D+00  8.69D-01
 E= -2159.40421284748     Delta-E=       -0.026147619547 Rises=F Damp=F
 DIIS: error= 1.07D-03 at cycle   4 NSaved=   4.
 NSaved= 4 IEnMin= 4 EnMin= -2159.40421284748     IErMin= 4 ErrMin= 1.07D-03
 ErrMax= 1.07D-03  0.00D+00 EMaxC= 1.00D-01 BMatC= 5.43D-03 BMatP= 4.20D-02
 IDIUse=3 WtCom= 9.89D-01 WtEn= 1.07D-02
 Coeff-Com: -0.362D-01 0.122D+00 0.339D+00 0.575D+00
 Coeff-En:   0.000D+00 0.000D+00 0.627D-01 0.937D+00
 Coeff:     -0.359D-01 0.121D+00 0.336D+00 0.579D+00
 Gap=     0.261 Goal=   None    Shift=    0.000
 RMSDP=1.10D-03 MaxDP=3.65D-01 DE=-2.61D-02 OVMax= 5.35D-03

 Cycle   5  Pass 1  IDiag  1:
 RMSU=  2.75D-04    CP:  9.19D-01  1.11D+00  8.67D-01  5.99D-01
 E= -2159.40880535232     Delta-E=       -0.004592504848 Rises=F Damp=F
 DIIS: error= 2.45D-04 at cycle   5 NSaved=   5.
 NSaved= 5 IEnMin= 5 EnMin= -2159.40880535232     IErMin= 5 ErrMin= 2.45D-04
 ErrMax= 2.45D-04  0.00D+00 EMaxC= 1.00D-01 BMatC= 2.33D-04 BMatP= 5.43D-03
 IDIUse=3 WtCom= 9.98D-01 WtEn= 2.45D-03
 Coeff-Com: -0.113D-01 0.252D-01 0.988D-01 0.246D+00 0.641D+00
 Coeff-En:   0.000D+00 0.000D+00 0.000D+00 0.000D+00 0.100D+01
 Coeff:     -0.112D-01 0.251D-01 0.986D-01 0.245D+00 0.642D+00
 Gap=     0.260 Goal=   None    Shift=    0.000
 RMSDP=1.29D-04 MaxDP=3.81D-02 DE=-4.59D-03 OVMax= 1.44D-03

 Cycle   6  Pass 1  IDiag  1:
 RMSU=  5.71D-05    CP:  9.21D-01  1.12D+00  8.83D-01  6.14D-01  7.91D-01
 E= -2159.40897624431     Delta-E=       -0.000170891990 Rises=F Damp=F
 DIIS: error= 5.34D-05 at cycle   6 NSaved=   6.
 NSaved= 6 IEnMin= 6 EnMin= -2159.40897624431     IErMin= 6 ErrMin= 5.34D-05
 ErrMax= 5.34D-05  0.00D+00 EMaxC= 1.00D-01 BMatC= 1.65D-05 BMatP= 2.33D-04
 IDIUse=1 WtCom= 1.00D+00 WtEn= 0.00D+00
 Coeff-Com: -0.359D-02 0.636D-02 0.310D-01 0.910D-01 0.309D+00 0.567D+00
 Coeff:     -0.359D-02 0.636D-02 0.310D-01 0.910D-01 0.309D+00 0.567D+00
 Gap=     0.260 Goal=   None    Shift=    0.000
 RMSDP=2.87D-05 MaxDP=8.06D-03 DE=-1.71D-04 OVMax= 3.66D-04

 Cycle   7  Pass 1  IDiag  1:
 RMSU=  1.54D-05    CP:  9.21D-01  1.12D+00  8.83D-01  6.23D-01  7.92D-01
                    CP:  7.80D-01
 E= -2159.40898852895     Delta-E=       -0.000012284632 Rises=F Damp=F
 DIIS: error= 1.66D-05 at cycle   7 NSaved=   7.
 NSaved= 7 IEnMin= 7 EnMin= -2159.40898852895     IErMin= 7 ErrMin= 1.66D-05
 ErrMax= 1.66D-05  0.00D+00 EMaxC= 1.00D-01 BMatC= 1.23D-06 BMatP= 1.65D-05
 IDIUse=1 WtCom= 1.00D+00 WtEn= 0.00D+00
 Coeff-Com: -0.921D-03 0.128D-02 0.817D-02 0.275D-01 0.105D+00 0.275D+00
 Coeff-Com:  0.585D+00
 Coeff:     -0.921D-03 0.128D-02 0.817D-02 0.275D-01 0.105D+00 0.275D+00
 Coeff:      0.585D+00
 Gap=     0.260 Goal=   None    Shift=    0.000
 RMSDP=8.55D-06 MaxDP=1.48D-03 DE=-1.23D-05 OVMax= 1.27D-04

 Cycle   8  Pass 1  IDiag  1:
 RMSU=  6.59D-06    CP:  9.21D-01  1.12D+00  8.82D-01  6.26D-01  8.00D-01
                    CP:  7.52D-01  8.00D-01
 E= -2159.40898932968     Delta-E=       -0.000000800729 Rises=F Damp=F
 DIIS: error= 5.11D-06 at cycle   8 NSaved=   8.
 NSaved= 8 IEnMin= 8 EnMin= -2159.40898932968     IErMin= 8 ErrMin= 5.11D-06
 ErrMax= 5.11D-06  0.00D+00 EMaxC= 1.00D-01 BMatC= 1.44D-07 BMatP= 1.23D-06
 IDIUse=1 WtCom= 1.00D+00 WtEn= 0.00D+00
 Coeff-Com:  0.191D-04-0.206D-03-0.119D-04 0.180D-02 0.104D-01 0.571D-01
 Coeff-Com:  0.289D+00 0.642D+00
 Coeff:      0.191D-04-0.206D-03-0.119D-04 0.180D-02 0.104D-01 0.571D-01
 Coeff:      0.289D+00 0.642D+00
 Gap=     0.260 Goal=   None    Shift=    0.000
 RMSDP=3.25D-06 MaxDP=6.47D-04 DE=-8.01D-07 OVMax= 3.76D-05

 Cycle   9  Pass 1  IDiag  1:
 RMSU=  2.00D-06    CP:  9.21D-01  1.12D+00  8.83D-01  6.25D-01  8.01D-01
                    CP:  7.70D-01  8.47D-01  8.41D-01
 E= -2159.40898943515     Delta-E=       -0.000000105479 Rises=F Damp=F
 DIIS: error= 1.42D-06 at cycle   9 NSaved=   9.
 NSaved= 9 IEnMin= 9 EnMin= -2159.40898943515     IErMin= 9 ErrMin= 1.42D-06
 ErrMax= 1.42D-06  0.00D+00 EMaxC= 1.00D-01 BMatC= 8.72D-09 BMatP= 1.44D-07
 IDIUse=1 WtCom= 1.00D+00 WtEn= 0.00D+00
 Coeff-Com:  0.654D-04-0.169D-03-0.548D-03-0.987D-03-0.253D-02 0.606D-02
 Coeff-Com:  0.870D-01 0.284D+00 0.627D+00
 Coeff:      0.654D-04-0.169D-03-0.548D-03-0.987D-03-0.253D-02 0.606D-02
 Coeff:      0.870D-01 0.284D+00 0.627D+00
 Gap=     0.260 Goal=   None    Shift=    0.000
 RMSDP=6.28D-07 MaxDP=2.58D-04 DE=-1.05D-07 OVMax= 9.70D-06

 Cycle  10  Pass 1  IDiag  1:
 RMSU=  3.63D-07    CP:  9.21D-01  1.12D+00  8.83D-01  6.25D-01  8.01D-01
                    CP:  7.73D-01  8.54D-01  8.46D-01  8.06D-01
 E= -2159.40898944173     Delta-E=       -0.000000006578 Rises=F Damp=F
 DIIS: error= 3.94D-07 at cycle  10 NSaved=  10.
 NSaved=10 IEnMin=10 EnMin= -2159.40898944173     IErMin=10 ErrMin= 3.94D-07
 ErrMax= 3.94D-07  0.00D+00 EMaxC= 1.00D-01 BMatC= 7.84D-10 BMatP= 8.72D-09
 IDIUse=1 WtCom= 1.00D+00 WtEn= 0.00D+00
 Coeff-Com:  0.247D-04-0.561D-04-0.239D-03-0.529D-03-0.177D-02-0.112D-02
 Coeff-Com:  0.188D-01 0.844D-01 0.293D+00 0.607D+00
 Coeff:      0.247D-04-0.561D-04-0.239D-03-0.529D-03-0.177D-02-0.112D-02
 Coeff:      0.188D-01 0.844D-01 0.293D+00 0.607D+00
 Gap=     0.260 Goal=   None    Shift=    0.000
 RMSDP=1.83D-07 MaxDP=4.77D-05 DE=-6.58D-09 OVMax= 2.69D-06

 Cycle  11  Pass 1  IDiag  1:
 RMSU=  1.13D-07    CP:  9.21D-01  1.12D+00  8.83D-01  6.25D-01  8.01D-01
                    CP:  7.73D-01  8.56D-01  8.59D-01  8.08D-01  7.44D-01
 E= -2159.40898944243     Delta-E=       -0.000000000698 Rises=F Damp=F
 DIIS: error= 1.45D-07 at cycle  11 NSaved=  11.
 NSaved=11 IEnMin=11 EnMin= -2159.40898944243     IErMin=11 ErrMin= 1.45D-07
 ErrMax= 1.45D-07  0.00D+00 EMaxC= 1.00D-01 BMatC= 7.02D-11 BMatP= 7.84D-10
 IDIUse=1 WtCom= 1.00D+00 WtEn= 0.00D+00
 Coeff-Com:  0.682D-05-0.145D-04-0.787D-04-0.183D-03-0.663D-03-0.871D-03
 Coeff-Com:  0.311D-02 0.206D-01 0.962D-01 0.295D+00 0.586D+00
 Coeff:      0.682D-05-0.145D-04-0.787D-04-0.183D-03-0.663D-03-0.871D-03
 Coeff:      0.311D-02 0.206D-01 0.962D-01 0.295D+00 0.586D+00
 Gap=     0.260 Goal=   None    Shift=    0.000
 RMSDP=5.56D-08 MaxDP=1.01D-05 DE=-6.98D-10 OVMax= 9.10D-07

 Cycle  12  Pass 1  IDiag  1:
 RMSU=  4.00D-08    CP:  9.21D-01  1.12D+00  8.83D-01  6.25D-01  8.01D-01
                    CP:  7.73D-01  8.56D-01  8.61D-01  8.12D-01  7.59D-01
                    CP:  7.64D-01
 E= -2159.40898944252     Delta-E=       -0.000000000092 Rises=F Damp=F
 DIIS: error= 4.61D-08 at cycle  12 NSaved=  12.
 NSaved=12 IEnMin=12 EnMin= -2159.40898944252     IErMin=12 ErrMin= 4.61D-08
 ErrMax= 4.61D-08  0.00D+00 EMaxC= 1.00D-01 BMatC= 7.35D-12 BMatP= 7.02D-11
 IDIUse=1 WtCom= 1.00D+00 WtEn= 0.00D+00
 Coeff-Com:  0.115D-06 0.250D-07-0.946D-05-0.244D-04-0.105D-03-0.296D-03
 Coeff-Com: -0.933D-03-0.856D-03 0.992D-02 0.681D-01 0.286D+00 0.638D+00
 Coeff:      0.115D-06 0.250D-07-0.946D-05-0.244D-04-0.105D-03-0.296D-03
 Coeff:     -0.933D-03-0.856D-03 0.992D-02 0.681D-01 0.286D+00 0.638D+00
 Gap=     0.260 Goal=   None    Shift=    0.000
 RMSDP=1.99D-08 MaxDP=6.27D-06 DE=-9.19D-11 OVMax= 2.49D-07

 Cycle  13  Pass 1  IDiag  1:
 RMSU=  1.11D-08    CP:  9.21D-01  1.12D+00  8.83D-01  6.25D-01  8.01D-01
                    CP:  7.73D-01  8.56D-01  8.61D-01  8.18D-01  7.60D-01
                    CP:  7.73D-01  8.07D-01
 E= -2159.40898944256     Delta-E=       -0.000000000035 Rises=F Damp=F
 DIIS: error= 1.04D-08 at cycle  13 NSaved=  13.
 NSaved=13 IEnMin=13 EnMin= -2159.40898944256     IErMin=13 ErrMin= 1.04D-08
 ErrMax= 1.04D-08  0.00D+00 EMaxC= 1.00D-01 BMatC= 3.75D-13 BMatP= 7.35D-12
 IDIUse=1 WtCom= 1.00D+00 WtEn= 0.00D+00
 Coeff-Com: -0.374D-06 0.904D-06 0.907D-06 0.124D-05-0.202D-05-0.628D-04
 Coeff-Com: -0.567D-03-0.167D-02-0.208D-02 0.969D-02 0.817D-01 0.269D+00
 Coeff-Com:  0.644D+00
 Coeff:     -0.374D-06 0.904D-06 0.907D-06 0.124D-05-0.202D-05-0.628D-04
 Coeff:     -0.567D-03-0.167D-02-0.208D-02 0.969D-02 0.817D-01 0.269D+00
 Coeff:      0.644D+00
 Gap=     0.260 Goal=   None    Shift=    0.000
 RMSDP=6.34D-09 MaxDP=1.60D-06 DE=-3.55D-11 OVMax= 7.12D-08

 Cycle  14  Pass 1  IDiag  1:
 RMSU=  3.92D-09    CP:  9.21D-01  1.12D+00  8.83D-01  6.25D-01  8.01D-01
[...]
 00000270,0.00000323,-0.00003501,-0.00000892,-0.00000220,-0.00003349,-0
 .00002584,0.00000115,-0.00001055,-0.00003404,-0.00000619,0.00000485,-0
 .00001709,-0.00004672,0.00000542,0.00000583,0.00000805,-0.00000100,-0.
 00001045,0.00001122,0.00005604,-0.00006609,-0.00005252,-0.00002449,0.0
 0007174,-0.00014247,0.00001602,0.00001848,0.00005562,-0.00000483,0.000
 00195,0.00001900,-0.00000223,-0.00000541,0.00000030,0.00000681,0.00000
 736,0.00000336,-0.00001369,0.00000846,-0.00002676,0.00031267,-0.000089
 61,0.00015511,0.00097187,-0.00133988,0.00028249,-0.00067622,0.00010339
 ,0.00038721,0.00008055,-0.00025960,-0.00000797,-0.00003163,0.00006481,
 0.00002773,-0.00007835,-0.00000510,-0.00007524,0.00002781,0.00000244,0
 .00001786,-0.00003563,-0.00001859,-0.00003588,0.00000862,-0.00004303,0
 .00000307,-0.00000835,-0.00005087,-0.00002306,0.00003828,-0.00001214,-
 0.00002318,0.00000354,0.00001754,0.00000173,0.00002369,-0.00000722,-0.
 00000395,-0.00002256,-0.00002783,0.00000860,-0.00001605,0.00001808,-0.
 00001012,0.00001036,-0.00000895,-0.00000138,-0.00000005,0.00000174,-0.
 00000597,0.00000760,-0.00000574,0.00000243,-0.00009007,0.00003155,0.00
 001137,-0.00001162,0.00002472,-0.00008157,-0.00005968,-0.00004723,-0.0
 0001539,-0.00020129,-0.00006635,0.00027903,0.21759984,-0.00003240,-0.0
 0007479,0.00003962,0.00009981,0.00014394,-0.00007169,-0.00007665,0.000
 01327,-0.00002053,-0.00000880,0.00004525,-0.00001971,-0.00001768,0.000
 00595,-0.00002175,0.00002163,0.00002878,-0.00002495,0.00000727,0.00001
 517,0.00003106,-0.00003688,-0.00007712,-0.00001213,0.00004695,-0.00004
 291,0.00002743,0.00005005,-0.00005776,0.00005170,0.00006873,-0.0000790
 2,0.00007070,-0.00015282,-0.00012546,0.00009962,0.00009962,-0.00001178
 ,-0.00004791,0.00017250,0.00041434,-0.00023868,0.00001206,-0.00032341,
 0.00015254,-0.00033406,-0.00028146,0.00010489,0.00032441,-0.00007888,0
 .00029482,-0.00021950,-0.00004098,-0.00015068,0.00007322,0.00008864,0.
 00009686,0.00002107,-0.00001454,-0.00001186,-0.00004759,-0.00002742,0.
 00001370,-0.00063262,0.00041763,-0.00067545,0.00097289,-0.00714678,-0.
 00215834,0.02991872,-0.01300994,0.03145204,0.00339231,0.00028806,0.000
 55245,0.00054194,-0.00050447,0.00064627,-0.00064245,0.00033076,-0.0006
 4945,0.00147948,0.00037667,0.00200723,0.00001662,-0.00068138,-0.000323
 95,-0.00003060,0.00010604,-0.00006892,-0.00053027,0.00056702,0.0001549
 1,0.00007516,-0.00033777,-0.00009203,0.00001035,0.00005386,-0.00001325
 ,0.00000394,0.00000003,0.00002039,0.00000545,-0.00000689,-0.00000014,0
 .00001076,0.00001768,0.00000044,-0.00004048,-0.00005350,-0.00001947,-0
 .00084928,-0.00060478,0.00129289,0.04185416,-0.05237945,0.02972979,-0.
 00003382,-0.00100093,-0.00098541,-0.00000942,-0.00001359,0.00000665,-0
 .00001623,0.00001944,0.00000414,0.00000899,0.00000237,0.00000902,0.000
 00423,-0.00000059,0.00000393,-0.00000101,-0.00000457,-0.00000070,-0.00
 000730,-0.00000179,-0.00000205,0.00000442,-0.00000521,0.00000020,-0.00
 001636,0.00005307,-0.00001186,-0.00003945,0.00001242,-0.00001084,-0.00
 003722,0.00000325,-0.00002443,-0.00001223,0.00006789,-0.00009812,-0.00
 003371,-0.00000685,-0.00000002,-0.00007060,-0.00010539,-0.00005241,-0.
 00006097,0.00013371,-0.00015008,0.00045494,0.00029309,-0.00006214,-0.0
 0000457,0.00005150,-0.00002252,-0.00000097,-0.00001407,-0.00001083,0.0
 0000336,0.00000046,0.00000377,-0.00001302,-0.00000461,-0.00000069,0.00
 002807,0.00004530,-0.00002670,-0.00008416,0.00018267,-0.00025323,-0.00
 024207,-0.00032007,0.00077866,-0.00047008,0.00000437,-0.00013272,-0.00
 002849,-0.00009643,0.00002316,-0.00003440,0.00002809,0.00001868,0.0001
 6905,-0.00006374,0.00013670,-0.00003630,0.00000454,-0.00002543,0.00004
 158,0.00000571,0.00001029,-0.00000942,0.00005277,0.00000161,0.00000175
 ,0.00002316,0.00000448,-0.00003302,0.00000439,0.00001704,-0.00000036,-
 0.00001396,-0.00000331,-0.00002953,0.00000486,0.00000336,0.00002979,0.
 00001352,-0.00001664,0.00001558,-0.00001407,0.00001480,-0.00000887,0.0
 0000240,0.00000067,-0.00000204,-0.00000296,0.00000579,-0.00000512,-0.0
 0000080,-0.00000687,0.00006791,0.00003477,-0.00000185,0.00002832,-0.00
 000008,0.00004606,0.00005644,0.00008829,0.00000521,-0.00094600,0.00107
 524,-0.00038698,-0.07292937,0.07067766,0.00012519,0.00000242,-0.000095
 23,-0.00020705,-0.00007577,0.00010481,-0.00000707,0.00003899,0.0000442
 4,-0.00001378,-0.00003629,0.00002826,0.00002253,0.00002120,0.00006120,
 -0.00007665,-0.00003721,0.00003234,0.00002357,0.00002038,0.00005063,-0
 .00002280,-0.00002917,-0.00006707,-0.00002287,-0.00001348,-0.00008675,
 0.00000191,0.00003519,-0.00005618,0.00008501,0.00001833,-0.00008368,0.
 00020894,0.00010415,-0.00010990,-0.00009344,0.00003157,0.00012339,0.00
 008219,-0.00012670,-0.00002399,0.00009835,0.00010151,0.00002037,-0.000
 06877,0.00019727,0.00034395,-0.00011850,-0.00010407,-0.00010916,0.0003
 1046,-0.00001083,0.00014875,-0.00006662,-0.00008784,-0.00011013,-0.000
 05769,0.00002517,0.00004558,0.00008209,0.00000064,-0.00005851,-0.00009
 781,0.00018860,0.00035716,0.00147519,-0.00154284,-0.00082930,0.0032118
 9,-0.00112264,0.00464305,0.00436194,-0.00358186,0.00337401,-0.00011797
 ,-0.00020406,0.00010163,-0.00062381,0.00048580,-0.00099963,0.00002811,
 -0.00006476,0.00135487,-0.00006745,-0.00022048,-0.00016762,0.00017226,
 0.00002567,-0.00010935,-0.00011175,0.00012867,-0.00044199,0.00014969,-
 0.00017338,-0.00008179,0.00001132,-0.00000738,0.00000223,0.00001317,-0
 .00002398,0.00000631,-0.00000613,-0.00000589,0.00001728,-0.00001329,0.
 00004126,0.00001309,0.00003441,-0.00001251,-0.00010400,-0.00134653,0.0
 0194098,0.00006125,-0.24914156,0.06647274,-0.30967510,0.00071075,-0.00
 067374,-0.00053512,0.00001162,0.00000612,-0.00000822,-0.00000703,-0.00
 001046,0.00000363,-0.00000191,-0.00000187,-0.00000814,0.00000005,-0.00
 000105,-0.00001267,0.00000625,0.00000416,-0.00000424,0.00000036,-0.000
 00478,-0.00000885,-0.00000736,0.00000386,-0.00000176,0.00000863,0.0000
 0414,0.00003136,0.00001399,0.00000982,0.00003525,-0.00000331,-0.000011
 23,0.00002416,-0.00009639,-0.00006441,0.00006354,0.00003727,0.00000797
 ,-0.00000760,-0.00001957,-0.00000192,0.00000914,-0.00007620,-0.0000891
 4,-0.00006648,0.00000561,-0.00002328,-0.00016326,-0.00000170,0.0000129
 8,-0.00000031,0.00000315,0.00001783,0.00001115,0.00000018,-0.00000456,
 -0.00000522,0.00001524,0.00000226,-0.00000271,-0.00004546,-0.00003107,
 0.00004108,0.00006608,0.00004519,-0.00000746,-0.00017334,-0.00106094,-
 0.00012441,-0.00017146,0.00003147,-0.00027387,-0.00000887,0.00010447,0
 .00002287,0.00003994,0.00004664,-0.00006322,0.00011043,-0.00006301,0.0
 0005218,-0.00004901,0.00002585,-0.00003418,-0.00003870,0.00002708,-0.0
 0000214,-0.00002527,0.00005875,-0.00000548,0.00000085,-0.00000337,0.00
 001117,-0.00001204,0.00000950,0.00000021,0.00000149,-0.00000989,-0.000
 02585,-0.00001232,0.00000280,-0.00000331,0.00002087,0.00001266,0.00000
 772,0.00001097,0.00000237,0.00000851,-0.00000692,0.00000306,-0.0000074
 6,0.00000915,-0.00000570,-0.00000082,-0.00001148,-0.00000230,-0.000006
 12,0.00004757,-0.00000883,0.00004726,-0.00008712,-0.00003299,0.0002101
 9,0.00001487,0.00002857,0.00002774,-0.00041688,0.00068212,-0.00056634,
 0.24422522,-0.06207658,0.30512125,0.00016277,0.00000377,-0.00005306,-0
 .00026167,-0.00008366,0.00013077,-0.00003323,0.00003119,-0.00001474,-0
 .00002896,-0.00006134,0.00004128,-0.00000436,0.00001516,0.00001766,-0.
 00010307,-0.00004049,0.00003152,-0.00000995,0.00001119,0.00000902,0.00
 003363,-0.00000980,-0.00002615,0.00003113,0.00000293,-0.00004423,0.000
 02816,0.00007176,-0.00004752,0.00016115,0.00006780,-0.00006629,0.00060
 446,0.00018007,0.00015237,-0.00048381,-0.00161628,-0.00167254,-0.00776
 748,0.00305214,0.00045638,0.00093046,0.00072171,0.00023404,-0.02647578
 ,-0.01572872,-0.03847323,-0.00119423,0.00087483,-0.00120429,0.00075773
 ,-0.00022179,0.00054369,-0.00012426,-0.00044097,-0.00022128,-0.0000468
 8,0.00007096,-0.00000923,0.00009908,-0.00000703,0.00001353,0.00033283,
 -0.00043843,-0.00000238,-0.00023897,0.00062505,0.00063066,-0.00021600,
 0.00006495,0.00034660,-0.00002951,0.00012027,0.00012414,0.00014991,0.0
 0007362,0.00022892,-0.00005403,-0.00012091,-0.00029485,-0.00017160,0.0
 0015811,0.00016287,-0.00003389,0.00000792,-0.00002644,0.00008623,-0.00
 006628,-0.00004551,0.00001387,-0.00007361,-0.00013763,0.00000115,0.000
 06407,0.00003934,0.00000131,-0.00000489,0.00000066,-0.00000423,0.00000
 542,0.00000405,-0.00000158,-0.00000597,0.00000492,-0.00002884,0.000045
 03,0.00002380,0.00004228,-0.00001660,-0.00006607,-0.00014613,-0.000071
 52,-0.00027404,-0.00482089,0.00125944,-0.00070531,-0.09470226,-0.04067
 267,-0.11372434,0.00007235,0.00004092,0.00002201,-0.00001243,-0.000014
 31,0.00003652,0.00000781,0.00000540,-0.00000337,0.00001141,0.00000074,
 -0.00000970,0.00001186,0.00000784,0.00000272,0.00000782,0.00000099,-0.
 00000721,-0.00000833,0.00000026,0.00000148,-0.00001969,0.00000437,0.00
 002121,-0.00001542,-0.00000966,0.00002857,-0.00001516,-0.00004183,0.00
 001845,-0.00020983,-0.00014161,0.00008161,-0.00055483,0.00022242,0.000
 03193,0.00019752,0.00029556,0.00011563,-0.00029946,-0.00082170,0.00006
 053,0.00142894,-0.00124945,0.00003983,0.00002013,-0.00010597,0.0001160
 6,0.00000225,0.00004386,0.00002077,-0.00001267,0.00000668,-0.00000212,
 0.00005408,0.00000424,0.00000473,-0.00006155,-0.00001366,0.00000115,-0
 .00025087,0.00009905,0.00002289,0.00009248,-0.00036624,-0.00015006,-0.
 00005047,-0.00000927,0.00002714,-0.00001521,-0.00001623,-0.00001209,0.
 00002042,-0.00009756,-0.00001719,0.00003498,-0.00002598,-0.00001072,-0
 .00001679,0.00004981,-0.00001298,-0.00006781,0.00004706,0.00000285,0.0
 0000244,0.00000530,0.00000192,-0.00000661,-0.00000994,-0.00000981,0.00
 000456,-0.00000484,-0.00000077,-0.00000171,0.00000359,-0.00000501,0.00
 000332,-0.00000069,-0.00000443,0.00000079,-0.00001072,0.00000374,-0.00
 000187,0.00001123,0.00000169,0.00000235,-0.00000471,-0.00000543,0.0000
 0504,-0.00000303,-0.00000430,-0.00000322,-0.00000330,-0.00000136,-0.00
 000760,0.00001412,0.00003358,-0.00006230,-0.00000794,0.00010170,-0.000
 01851,0.00000099,0.00001230,0.00001734,-0.00002797,0.00002113,0.001341
 28,-0.00132527,-0.00230488,0.13191861,0.00022041,-0.00015488,-0.000119
 29,-0.00035973,0.00001794,0.00018731,-0.00010265,0.00008760,0.00005106
 ,-0.00004475,-0.00001255,0.00002589,0.00000407,0.00004411,0.00004887,-
 0.00008842,-0.00003292,0.00001237,0.00003697,0.00006133,0.00009091,-0.
 00007483,-0.00014700,-0.00008165,0.00003555,-0.00007358,-0.00007333,0.
 00006977,0.00000523,-0.00003453,0.00025797,-0.00004324,-0.00007119,0.0
 0053548,0.00003815,-0.00006582,-0.00021828,0.00036311,-0.00001284,0.00
 034531,-0.00141736,-0.00044306,-0.00069521,0.00041202,0.00015173,0.003
 96638,0.00376779,0.00994948,0.00452216,0.00307668,0.00365811,-0.000010
 41,-0.00161951,-0.00041582,-0.00006029,0.00022375,-0.00008383,-0.00014
 823,-0.00004995,0.00006225,-0.00000949,-0.00017760,-0.00015399,-0.0020
 8288,-0.00014905,-0.00161678,0.00142520,-0.00033267,-0.00083358,0.0015
 2605,-0.00350673,-0.00130001,-0.00007884,0.00051329,-0.00027098,0.0003
 7227,-0.00037958,-0.00001947,-0.00025585,0.00016341,0.00013013,-0.0001
 0635,-0.00024860,-0.00025539,0.00029568,0.00023250,0.00012852,-0.00039
 603,-0.00026307,-0.00011589,-0.00033152,0.00041979,0.00036558,0.000052
 29,-0.00026084,-0.00008578,0.00001342,0.00003940,-0.00000779,-0.000000
 97,-0.00000750,0.00001220,0.00001674,0.00000467,-0.00000886,0.00001588
 ,0.00000584,-0.00000232,-0.00009634,-0.00009714,0.00003586,-0.00001223
 ,0.00012584,0.00045757,-0.00021435,-0.00281251,0.00405683,-0.06365807,
 -0.08869302,-0.16610965,0.00003930,0.00001148,0.00000133,-0.00002486,0
 .00000270,0.00001937,0.00000666,0.00000089,-0.00000072,0.00000955,-0.0
 0000305,-0.00001460,0.00000850,0.00000378,-0.00000518,-0.00000627,-0.0
 0001249,-0.00001637,-0.00000066,-0.00000410,0.00000039,-0.00001768,0.0
 0007495,0.00001276,-0.00002782,0.00002062,0.00003017,-0.00004693,-0.00
 002381,0.00001486,-0.00023708,-0.00007308,0.00000317,0.00009614,-0.000
 00643,0.00001953,-0.00008391,-0.00008872,0.00004540,0.00030857,0.00042
 280,-0.00105433,0.00117834,0.00024886,-0.00109015,-0.00005604,0.000033
 31,-0.00005722,-0.00000731,-0.00001417,-0.00005339,0.00003562,-0.00002
 483,0.00000601,-0.00003154,0.00000760,-0.00002503,-0.00000390,0.000107
 94,-0.00002125,-0.00017589,0.00006775,0.00019327,-0.00005400,-0.000007
 89,-0.00021515,-0.00003647,-0.00003310,0.00003704,-0.00003239,0.000002
 33,0.00000495,-0.00000483,-0.00007362,-0.00000742,-0.00008766,0.000010
 19,-0.00002485,0.00003111,-0.00000679,0.00003978,0.00013030,0.00024760
 ,0.00025045,0.00000467,0.00001755,-0.00000418,-0.00000065,0.00003026,0
 .00001016,-0.00002717,0.00000569,0.00001262,-0.00000495,-0.00001388,0.
 00000294,-0.00002511,0.00000398,0.00000892,0.00002741,0.00001383,-0.00
 001459,0.00001507,-0.00002430,0.00000735,-0.00001175,0.00000251,0.0000
 0235,-0.00000470,-0.00000131,0.00001364,0.00000162,0.00000600,-0.00000
 777,0.00008297,0.00003773,-0.00001615,0.00011690,0.00005043,-0.0000804
 6,0.00011014,0.00016526,0.00003216,-0.00003806,0.00005751,-0.00010795,
 -0.00142217,0.00183220,0.00063207,0.05560102,0.08780267,0.00043131,-0.
 00009826,-0.00036067,-0.00077849,-0.00019265,0.00046629,-0.00001319,0.
 00016509,0.00022044,-0.00005869,-0.00009353,0.00004816,0.00005918,0.00
 006759,0.00015043,-0.00021066,-0.00010699,0.00008814,0.00008434,0.0000
 9145,0.00017028,-0.00013020,-0.00017142,-0.00018436,-0.00003742,-0.000
 07083,-0.00019903,0.00003007,0.00009466,-0.00015089,0.00035523,0.00008
 803,-0.00038799,0.00083981,0.00030135,-0.00062349,-0.00014276,0.000607
 48,0.00117574,0.00227553,-0.00021293,0.00031944,0.00142813,0.00064309,
 0.00008981,-0.00328681,0.00055694,0.00088023,-0.00058484,0.00294970,0.
 00023297,0.00159356,-0.00160497,0.00027224,-0.00028140,0.00000035,-0.0
 0047420,-0.00034347,0.00008985,0.00032185,0.00020984,-0.00022487,-0.00
 043362,0.00062688,-0.00193040,-0.00291394,0.00004591,0.00055126,0.0030
 4254,0.00291200,-0.00824472,0.00297407,-0.00047737,0.00234032,-0.00038
 877,0.00110833,-0.00108046,0.00092455,-0.00044074,0.00005266,-0.000813
 64,-0.00033471,-0.00013115,-0.00029002,0.00030662,0.00037322,0.0003043
 9,-0.00036565,-0.00035731,-0.00041258,-0.00069304,0.00100989,0.0004721
 3,0.00007230,-0.00051438,-0.00009257,0.00001583,0.00010091,-0.00000630
 ,0.00001810,-0.00003364,0.00002229,0.00001418,0.00000197,0.00000240,0.
 00001287,0.00003216,0.00000557,-0.00007261,-0.00009445,-0.00007495,-0.
 00022134,0.00052936,0.00036679,-0.00376149,0.00666593,-0.00118996,-0.1
 5682612,-0.15738318,-0.36168114,0.00002184,0.00000994,-0.00004479,0.00
 000154,-0.00002381,-0.00003563,-0.00001574,-0.00001386,-0.00001657,0.0
 0000467,-0.00000273,-0.00003538,0.00001607,0.00000771,-0.00001199,-0.0
 0000470,-0.00002177,-0.00003246,-0.00001452,0.00000831,-0.00000038,0.0
 0001125,0.00005789,0.00005079,0.00001599,0.00002362,0.00006639,-0.0000
 1097,-0.00003835,0.00006661,-0.00043158,-0.00031160,0.00041351,0.00050
 327,-0.00000876,-0.00002471,-0.00005517,-0.00007263,0.00008978,-0.0009
 1724,-0.00146763,-0.00004106,0.00306059,-0.00019066,0.00077205,-0.0001
 4188,-0.00000352,-0.00035048,0.00000558,0.00003712,-0.00001086,0.00004
 065,-0.00003304,-0.00001249,0.00003618,-0.00001805,-0.00005433,-0.0001
 0321,0.00000279,0.00010997,0.00009401,0.00009201,-0.00007099,-0.000079
 44,0.00123332,0.00011245,0.00001526,-0.00011742,-0.00013537,-0.0000903
 1,0.00005533,0.00000110,0.00002700,-0.00002642,0.00003432,-0.00010405,
 -0.00000237,-0.00009000,-0.00005072,0.00009437,-0.00003645,0.00009434,
 0.00041321,0.00043950,-0.00000508,0.00005969,-0.00000987,-0.00000310,0
 .00005156,0.00001995,-0.00005367,0.00001159,0.00002987,-0.00000858,-0.
 00002445,-0.00000998,-0.00003941,0.00000726,0.00000610,0.00004387,0.00
 002834,-0.00001458,0.00002997,-0.00002677,0.00001682,-0.00001964,0.000
 00573,-0.00000062,0.00000233,-0.00000623,0.00001364,-0.00001177,0.0000
 0903,-0.00001140,0.00014690,0.00001235,0.00000755,0.00004704,-0.000003
 63,0.00016382,0.00014853,0.00019567,0.00006735,-0.00009816,0.00000678,
 -0.00022922,-0.00112917,0.00104970,-0.00150819,0.15564224,0.15417324,0
 .35843362\\-0.00001150,-0.00001282,0.00001683,-0.00000871,0.00000249,-
 0.00001650,0.00000093,0.00001690,0.00000947,-0.00000016,-0.00001570,-0
 .00000891,0.00000239,-0.00000390,0.00000965,0.00000903,0.00001635,-0.0
 0000898,-0.00000759,-0.00000485,0.00000398,-0.00000976,-0.00000476,0.0
 0000101,-0.00000653,0.00001304,-0.00000561,-0.00000538,0.00000389,0.00
 000256,-0.00000123,-0.00000877,-0.00000959,0.00001858,-0.00000930,0.00
 000033,-0.00001392,0.00000531,0.00000049,0.00002388,-0.00000987,-0.000
 00693,-0.00000845,-0.00000488,0.00000458,0.00001445,-0.00000115,0.0000
 1898,-0.00000803,0.00002553,0.00000006,0.00000801,0.00000053,-0.000010
 18,-0.00000044,0.00000574,0.00001299,0.00000413,-0.00000627,0.00000884
 ,-0.00000856,0.00001735,-0.00000497,-0.00001129,-0.00001278,0.00001335
 ,0.00000396,-0.00001595,-0.00003544,0.00001766,0.00000051,0.00001148,-
 0.00000941,-0.00000763,0.00000007,0.00001599,0.00000357,-0.00002715,-0
 .00000420,-0.00000183,-0.00000240,0.00000125,0.00003460,0.00001609,-0.
 00001372,-0.00000646,-0.00000093,0.00000091,-0.00001162,-0.00001885,-0
 .00000479,0.00001200,0.00002770,-0.00000177,-0.00001834,-0.00000923,-0
 .00000897,0.00002285,0.00001384,-0.00002312,-0.00001155,-0.00002219,0.
 00001207,0.00000358,0.00001238,-0.00000640,-0.00000415,0.00000484,-0.0
 0000385,-0.00001363,-0.00001053,0.00000853,-0.00000604,-0.00000113,-0.
 00000866,0.00000743,-0.00000842,-0.00000840,-0.00000928,0.00000366,0.0
 0000834,-0.00000625,0.00000319,0.00000030,-0.00000022,-0.00000085,0.00
 000295,-0.00000002,0.00000298,-0.00000135,0.00000150,-0.00000180,-0.00
 000251,-0.00000400,-0.00000280,0.00000107,0.00000276,-0.00000123,0.000
 00411,-0.00000119,-0.00001119,0.00001436,0.00000235,0.00000209,0.00000
 270,-0.00001131,0.00000133,0.00000948,-0.00000242,-0.00000347,0.000003
 67,0.00000930,-0.00000220,-0.00000338,0.00000705,-0.00000175,0.0000019
 2,-0.00000277,0.00000369,0.00001068,0.00000233,0.00000202,-0.00000198,
 -0.00000261,0.00000319,0.00000199,-0.00000011,0.00000220,0.00000596,0.
 00000032,-0.00000218,0.00000694,0.00000470,-0.00000458,-0.00000244,0.0
 0000234,0.00000291,0.00000321,-0.00001424,-0.00000115,-0.00000193,-0.0
 0000347,-0.00000138,-0.00000296,-0.00000157,0.00000138,-0.00000248,0.0
 0000160,-0.00000184,-0.00000837,-0.00000186,0.00000129,0.00000105,-0.0
 0000784,0.00000145,-0.00000200,-0.00000176,0.00000115,0.00000199,-0.00
 000140,-0.00000259,0.00000674,0.00000948,0.00001135,0.00000032,0.00000
 544,-0.00000104,0.00000074,0.00000264,0.00000092,-0.00000342,-0.000006
 26,-0.00000233,0.00000377,-0.00000414,0.00000023,-0.00000223,0.0000054
 9,-0.00000146,0.00000392,-0.00000154,0.00000419,-0.00000500,-0.0000045
 9,-0.00000235,-0.00000874,-0.00000060,0.00000282,0.00000078,0.00000110
 ,-0.00000523,0.00000253,0.00000472,-0.00000805,-0.00000144,-0.00000417
 ,-0.00000318,-0.00000628,0.00000350,0.00000513,0.00000802,0.00000735,0
 .00000740,-0.00000825,0.00000702,0.00000845,0.00000364,-0.00000121,0.0
 0000655,0.00000666,0.00001448,0.00000148\\\@


 10 WHATSOEVER THY HAND FINDETH TO DO, DO IT WITH THY  
 MIGHT. FOR THERE IS NO WORK, NOR DEVICE, NOR KNOWLEDGE, NOR  
 WISDOM, IN THE GRAVE, WHITHER THOU GOEST.                    
 11 I RETURNED AND SAW UNDER THE SUN, THAT THE RACE IS NOT TO 
 THE SWIFT, NOR THE BATTLE TO THE STRONG, NEITHER YET BREAD TO
 THE WISE, NOR YET RICHES TO MEN OF UNDERSTANDING, NOR YET    
 FAVOR TO MEN OF SKILL. BUT TIME AND CHANCE HAPPEN TO THEM ALL.
 12 FOR MAN ALSO KNOWETH NOT HIS TIME. AS THE FISHES   
 THAT ARE TAKEN IN AN EVIL NET, AND AS THE BIRDS THAT ARE     
 CAUGHT IN THE SNARE. SO ARE THE SONS OF MEN SNARED IN AN EVIL
 TIME, WHEN IT FALLETH SUDDENLY UPON THEM.
                                         ECCLESIASTES 9
 Job cpu time:      18 days 20 hours 24 minutes 41.1 seconds.
 File lengths (MBytes):  RWF=  23795 Int=      0 D2E=      0 Chk=     97 Scr=      1
 Normal termination of Gaussian 09 at Thu Mar 24 22:30:01 2016.
