 Entering Gaussian System, Link 0=g16
 Input=input.com
 Output=input.log
 Initial command:
 /home/matma/Programs/gaussian/G16_x86_SSE4/tar/g16/l1.exe "/scratch-data/gaussian/Gau-9478.inp" -scrdir="/scratch-data/gaussian/"
 Entering Link 1 = /home/matma/Programs/gaussian/G16_x86_SSE4/tar/g16/l1.exe PID=      9480.
  
 Copyright (c) 1988-2017, Gaussian, Inc.  All Rights Reserved.
  
 This is part of the Gaussian(R) 16 program.  It is based on
 the Gaussian(R) 09 system (copyright 2009, Gaussian, Inc.),
 the Gaussian(R) 03 system (copyright 2003, Gaussian, Inc.),
 the Gaussian(R) 98 system (copyright 1998, Gaussian, Inc.),
 the Gaussian(R) 94 system (copyright 1995, Gaussian, Inc.),
 the Gaussian 92(TM) system (copyright 1992, Gaussian, Inc.),
 the Gaussian 90(TM) system (copyright 1990, Gaussian, Inc.),
 the Gaussian 88(TM) system (copyright 1988, Gaussian, Inc.),
 the Gaussian 86(TM) system (copyright 1986, Carnegie Mellon
 University), and the Gaussian 82(TM) system (copyright 1983,
 Carnegie Mellon University). Gaussian is a federally registered
 trademark of Gaussian, Inc.
  
 This software contains proprietary and confidential information,
 including trade secrets, belonging to Gaussian, Inc.
  
 This software is provided under written license and may be
 used, copied, transmitted, or stored only in accord with that
 written license.
  
 The following legend is applicable only to US Government
 contracts under FAR:
  
                    RESTRICTED RIGHTS LEGEND
  
 Use, reproduction and disclosure by the US Government is
 subject to restrictions as set forth in subparagraphs (a)
 and (c) of the Commercial Computer Software - Restricted
 Rights clause in FAR 52.227-19.
  
 Gaussian, Inc.
 340 Quinnipiac St., Bldg. 40, Wallingford CT 06492
  
  
 ---------------------------------------------------------------
 Warning -- This program may not be used in any manner that
 competes with the business of Gaussian, Inc. or will provide
 assistance to any competitor of Gaussian, Inc.  The licensee
 of this program is prohibited from giving any competitor of
 Gaussian, Inc. access to this program.  By using this program,
 the user acknowledges that Gaussian, Inc. is engaged in the
 business of creating and licensing software in the field of
 computational chemistry and represents and warrants to the
 licensee that it is not a competitor of Gaussian, Inc. and that
 it will not use this program in any manner prohibited above.
 ---------------------------------------------------------------
  

 Cite this work as:
 Gaussian 16, Revision B.01,
 M. J. Frisch, G. W. Trucks, H. B. Schlegel, G. E. Scuseria, 
 M. A. Robb, J. R. Cheeseman, G. Scalmani, V. Barone, 
 G. A. Petersson, H. Nakatsuji, X. Li, M. Caricato, A. V. Marenich, 
 J. Bloino, B. G. Janesko, R. Gomperts, B. Mennucci, H. P. Hratchian, 
 J. V. Ortiz, A. F. Izmaylov, J. L. Sonnenberg, D. Williams-Young, 
 F. Ding, F. Lipparini, F. Egidi, J. Goings, B. Peng, A. Petrone, 
 T. Henderson, D. Ranasinghe, V. G. Zakrzewski, J. Gao, N. Rega, 
 G. Zheng, W. Liang, M. Hada, M. Ehara, K. Toyota, R. Fukuda, 
 J. Hasegawa, M. Ishida, T. Nakajima, Y. Honda, O. Kitao, H. Nakai, 
 T. Vreven, K. Throssell, J. A. Montgomery, Jr., J. E. Peralta, 
 F. Ogliaro, M. J. Bearpark, J. J. Heyd, E. N. Brothers, K. N. Kudin, 
 V. N. Staroverov, T. A. Keith, R. Kobayashi, J. Normand, 
 K. Raghavachari, A. P. Rendell, J. C. Burant, S. S. Iyengar, 
 J. Tomasi, M. Cossi, J. M. Millam, M. Klene, C. Adamo, R. Cammi, 
 J. W. Ochterski, R. L. Martin, K. Morokuma, O. Farkas, 
 J. B. Foresman, and D. J. Fox, Gaussian, Inc., Wallingford CT, 2016.
 
 ******************************************
 Gaussian 16:  ES64L-G16RevB.01 20-Dec-2017
                22-Jun-2021 
 ******************************************
 %nproc=12
 Will use up to   12 processors via shared memory.
 %mem=16GB
 --------------------------------------
 #P pm6 opt=loose freq int=(grid=99590)
 --------------------------------------
 1/7=-1,18=20,19=15,26=1,38=1/1,3;
 2/9=110,12=2,17=6,18=5,40=1/2;
 3/5=2,25=1,41=3900000,71=1,75=99590/1,2,3;
 4/35=1/1;
 5/5=2,35=1,38=5/2;
 6/7=2,8=2,9=2,10=2,28=1/1;
 7//1,2,3,16;
 1/7=-1,18=20,19=15,26=1/3(2);
 2/9=110/2;
 99//99;
 2/9=110/2;
 3/5=2,25=1,41=3900000,71=1,75=99590,135=20/1,2,3;
 4/5=5,16=3,35=1/1;
 5/5=2,35=1,38=5/2;
 7//1,2,3,16;
 1/7=-1,18=20,19=15,26=1/3(-5);
 2/9=110/2;
 6/7=2,8=2,9=2,10=2,19=2,28=1/1;
 99/9=1/99;
 Leave Link    1 at Tue Jun 22 14:21:50 2021, MaxMem=  2147483648 cpu:               0.2 elap:               0.0
 (Enter /home/matma/Programs/gaussian/G16_x86_SSE4/tar/g16/l101.exe)
 ------------
 offspring-07
 ------------
 Symbolic Z-matrix:
 Charge =  0 Multiplicity = 1
 O                     1.666     0.167     1.033 
 C                     2.184     1.504     1.056 
 C                     3.043     1.697     2.327 
 O                     3.887     0.539     2.342 
 C                     2.141     1.703     3.58 
 C                     1.166     2.894     3.498 
 O                     0.97      3.362     2.169 
 C                     0.961     2.448     1.051 
 C                    -0.382     1.705     1.026 
 O                    -1.433     2.618     1.391 
 O                    -4.282     1.195     5.523 
 C                    -2.919     0.741     5.443 
 C                    -2.178     1.585     4.383 
 C                    -0.642     1.444     4.485 
 C                    -0.096     1.291     5.931 
 O                    -0.953     0.607     6.847 
 C                    -2.353     0.979     6.853 
 C                    -2.956     0.041     7.92 
 O                    -4.046    -0.723     7.418 
 O                     1.034     0.422     5.89 
 O                    -0.155     2.725     4.033 
 O                    -2.63      1.013     3.161 
 O                     3.027     1.931     4.677 
 H                     2.807     1.639     0.141 
 H                     3.682     2.607     2.284 
 H                     4.362     0.492     3.21 
 H                     1.624     0.72      3.697 
 H                     1.525     3.816     4.021 
 H                     1.027     3.188     0.213 
 H                    -0.653     1.358     0.012 
 H                    -0.407     0.844     1.724 
 H                    -1.089     3.237     2.113 
 H                    -2.914    -0.341     5.165 
 H                    -2.47      2.661     4.434 
 H                    -0.281     0.62      3.826 
 H                     0.252     2.25      6.369 
 H                    -2.431     2.048     7.145 
 H                    -2.217    -0.731     8.227 
 H                    -3.288     0.612     8.805 
 H                    -4.737    -0.124     7.023 
 H                    -2.472     1.65      2.378 
 H                    -4.711     1.075     4.638 
 H                     2.69      1.452     5.486 
 H                     0.802    -0.465     6.271 
 H                     2.4      -0.473     1.245 
 
 ITRead=  0  0  0  0  0  0  0  0  0  0  0  0  0  0  0  0  0  0  0  0
 ITRead=  0  0  0  0  0  0  0  0  0  0  0  0  0  0  0  0  0  0  0  0
 ITRead=  0  0  0  0  0
 MicOpt= -1 -1 -1 -1 -1 -1 -1 -1 -1 -1 -1 -1 -1 -1 -1 -1 -1 -1 -1 -1
 MicOpt= -1 -1 -1 -1 -1 -1 -1 -1 -1 -1 -1 -1 -1 -1 -1 -1 -1 -1 -1 -1
 MicOpt= -1 -1 -1 -1 -1
 NAtoms=     45 NQM=       45 NQMF=       0 NMMI=      0 NMMIF=      0
                NMic=       0 NMicF=      0.
                    Isotopes and Nuclear Properties:
 (Nuclear quadrupole moments (NQMom) in fm**2, nuclear magnetic moments (NMagM)
  in nuclear magnetons)

  Atom         1           2           3           4           5           6           7           8           9          10
 IAtWgt=          16          12          12          16          12          12          16          12          12          16
 AtmWgt=  15.9949146  12.0000000  12.0000000  15.9949146  12.0000000  12.0000000  15.9949146  12.0000000  12.0000000  15.9949146
 NucSpn=           0           0           0           0           0           0           0           0           0           0
 AtZEff=  -0.0000000  -0.0000000  -0.0000000  -0.0000000  -0.0000000  -0.0000000  -0.0000000  -0.0000000  -0.0000000  -0.0000000
 NQMom=    0.0000000   0.0000000   0.0000000   0.0000000   0.0000000   0.0000000   0.0000000   0.0000000   0.0000000   0.0000000
 NMagM=    0.0000000   0.0000000   0.0000000   0.0000000   0.0000000   0.0000000   0.0000000   0.0000000   0.0000000   0.0000000
 AtZNuc=   8.0000000   6.0000000   6.0000000   8.0000000   6.0000000   6.0000000   8.0000000   6.0000000   6.0000000   8.0000000

  Atom        11          12          13          14          15          16          17          18          19          20
 IAtWgt=          16          12          12          12          12          16          12          12          16          16
 AtmWgt=  15.9949146  12.0000000  12.0000000  12.0000000  12.0000000  15.9949146  12.0000000  12.0000000  15.9949146  15.9949146
 NucSpn=           0           0           0           0           0           0           0           0           0           0
 AtZEff=  -0.0000000  -0.0000000  -0.0000000  -0.0000000  -0.0000000  -0.0000000  -0.0000000  -0.0000000  -0.0000000  -0.0000000
 NQMom=    0.0000000   0.0000000   0.0000000   0.0000000   0.0000000   0.0000000   0.0000000   0.0000000   0.0000000   0.0000000
 NMagM=    0.0000000   0.0000000   0.0000000   0.0000000   0.0000000   0.0000000   0.0000000   0.0000000   0.0000000   0.0000000
 AtZNuc=   8.0000000   6.0000000   6.0000000   6.0000000   6.0000000   8.0000000   6.0000000   6.0000000   8.0000000   8.0000000

  Atom        21          22          23          24          25          26          27          28          29          30
 IAtWgt=          16          16          16           1           1           1           1           1           1           1
 AtmWgt=  15.9949146  15.9949146  15.9949146   1.0078250   1.0078250   1.0078250   1.0078250   1.0078250   1.0078250   1.0078250
 NucSpn=           0           0           0           1           1           1           1           1           1           1
 AtZEff=  -0.0000000  -0.0000000  -0.0000000  -0.0000000  -0.0000000  -0.0000000  -0.0000000  -0.0000000  -0.0000000  -0.0000000
 NQMom=    0.0000000   0.0000000   0.0000000   0.0000000   0.0000000   0.0000000   0.0000000   0.0000000   0.0000000   0.0000000
 NMagM=    0.0000000   0.0000000   0.0000000   2.7928460   2.7928460   2.7928460   2.7928460   2.7928460   2.7928460   2.7928460
 AtZNuc=   8.0000000   8.0000000   8.0000000   1.0000000   1.0000000   1.0000000   1.0000000   1.0000000   1.0000000   1.0000000

  Atom        31          32          33          34          35          36          37          38          39          40
 IAtWgt=           1           1           1           1           1           1           1           1           1           1
 AtmWgt=   1.0078250   1.0078250   1.0078250   1.0078250   1.0078250   1.0078250   1.0078250   1.0078250   1.0078250   1.0078250
 NucSpn=           1           1           1           1           1           1           1           1           1           1
 AtZEff=  -0.0000000  -0.0000000  -0.0000000  -0.0000000  -0.0000000  -0.0000000  -0.0000000  -0.0000000  -0.0000000  -0.0000000
 NQMom=    0.0000000   0.0000000   0.0000000   0.0000000   0.0000000   0.0000000   0.0000000   0.0000000   0.0000000   0.0000000
 NMagM=    2.7928460   2.7928460   2.7928460   2.7928460   2.7928460   2.7928460   2.7928460   2.7928460   2.7928460   2.7928460
 AtZNuc=   1.0000000   1.0000000   1.0000000   1.0000000   1.0000000   1.0000000   1.0000000   1.0000000   1.0000000   1.0000000

  Atom        41          42          43          44          45
 IAtWgt=           1           1           1           1           1
 AtmWgt=   1.0078250   1.0078250   1.0078250   1.0078250   1.0078250
 NucSpn=           1           1           1           1           1
 AtZEff=  -0.0000000  -0.0000000  -0.0000000  -0.0000000  -0.0000000
 NQMom=    0.0000000   0.0000000   0.0000000   0.0000000   0.0000000
 NMagM=    2.7928460   2.7928460   2.7928460   2.7928460   2.7928460
 AtZNuc=   1.0000000   1.0000000   1.0000000   1.0000000   1.0000000
 Leave Link  101 at Tue Jun 22 14:21:50 2021, MaxMem=  2147483648 cpu:               2.5 elap:               0.2
 (Enter /home/matma/Programs/gaussian/G16_x86_SSE4/tar/g16/l103.exe)

 GradGradGradGradGradGradGradGradGradGradGradGradGradGradGradGradGradGrad
 Berny optimization.
 Initialization pass.
                           ----------------------------
                           !    Initial Parameters    !
                           ! (Angstroms and Degrees)  !
 --------------------------                            --------------------------
 ! Name  Definition              Value          Derivative Info.                !
 --------------------------------------------------------------------------------
 ! R1    R(1,2)                  1.434          estimate D2E/DX2                !
 ! R2    R(1,45)                 0.9966         estimate D2E/DX2                !
 ! R3    R(2,3)                  1.5461         estimate D2E/DX2                !
 ! R4    R(2,8)                  1.545          estimate D2E/DX2                !
 ! R5    R(2,24)                 1.1152         estimate D2E/DX2                !
 ! R6    R(3,4)                  1.433          estimate D2E/DX2                !
 ! R7    R(3,5)                  1.5439         estimate D2E/DX2                !
 ! R8    R(3,25)                 1.1128         estimate D2E/DX2                !
 ! R9    R(4,26)                 0.9906         estimate D2E/DX2                !
 ! R10   R(5,6)                  1.5414         estimate D2E/DX2                !
 ! R11   R(5,23)                 1.4284         estimate D2E/DX2                !
 ! R12   R(5,27)                 1.1168         estimate D2E/DX2                !
 ! R13   R(6,7)                  1.4226         estimate D2E/DX2                !
 ! R14   R(6,21)                 1.4352         estimate D2E/DX2                !
 ! R15   R(6,28)                 1.1191         estimate D2E/DX2                !
 ! R16   R(7,8)                  1.4441         estimate D2E/DX2                !
 ! R17   R(8,9)                  1.535          estimate D2E/DX2                !
 ! R18   R(8,29)                 1.1199         estimate D2E/DX2                !
 ! R19   R(9,10)                 1.4392         estimate D2E/DX2                !
 ! R20   R(9,30)                 1.1055         estimate D2E/DX2                !
 ! R21   R(9,31)                 1.1087         estimate D2E/DX2                !
 ! R22   R(10,32)                1.0113         estimate D2E/DX2                !
 ! R23   R(11,12)                1.4388         estimate D2E/DX2                !
 ! R24   R(11,42)                0.9908         estimate D2E/DX2                !
 ! R25   R(12,13)                1.5444         estimate D2E/DX2                !
 ! R26   R(12,17)                1.5379         estimate D2E/DX2                !
 ! R27   R(12,33)                1.1172         estimate D2E/DX2                !
 ! R28   R(13,14)                1.5458         estimate D2E/DX2                !
 ! R29   R(13,22)                1.4229         estimate D2E/DX2                !
 ! R30   R(13,34)                1.1161         estimate D2E/DX2                !
 ! R31   R(14,15)                1.5532         estimate D2E/DX2                !
 ! R32   R(14,21)                1.4431         estimate D2E/DX2                !
 ! R33   R(14,35)                1.1152         estimate D2E/DX2                !
 ! R34   R(15,16)                1.4288         estimate D2E/DX2                !
 ! R35   R(15,20)                1.4261         estimate D2E/DX2                !
 ! R36   R(15,36)                1.1102         estimate D2E/DX2                !
 ! R37   R(16,17)                1.4486         estimate D2E/DX2                !
 ! R38   R(17,18)                1.5434         estimate D2E/DX2                !
 ! R39   R(17,37)                1.1109         estimate D2E/DX2                !
 ! R40   R(18,19)                1.4226         estimate D2E/DX2                !
 ! R41   R(18,38)                1.1119         estimate D2E/DX2                !
 ! R42   R(18,39)                1.1043         estimate D2E/DX2                !
 ! R43   R(19,40)                0.9961         estimate D2E/DX2                !
 ! R44   R(20,44)                0.9929         estimate D2E/DX2                !
 ! R45   R(22,41)                1.0217         estimate D2E/DX2                !
 ! R46   R(23,43)                0.9987         estimate D2E/DX2                !
 ! A1    A(2,1,45)             109.2243         estimate D2E/DX2                !
 ! A2    A(1,2,3)              109.284          estimate D2E/DX2                !
 ! A3    A(1,2,8)              106.4801         estimate D2E/DX2                !
 ! A4    A(1,2,24)             107.5483         estimate D2E/DX2                !
 ! A5    A(3,2,8)              111.4806         estimate D2E/DX2                !
 ! A6    A(3,2,24)             110.4264         estimate D2E/DX2                !
 ! A7    A(8,2,24)             111.4457         estimate D2E/DX2                !
 ! A8    A(2,3,4)              103.5887         estimate D2E/DX2                !
 ! A9    A(2,3,5)              110.063          estimate D2E/DX2                !
 ! A10   A(2,3,25)             112.9139         estimate D2E/DX2                !
 ! A11   A(4,3,5)              109.8001         estimate D2E/DX2                !
 ! A12   A(4,3,25)             108.8462         estimate D2E/DX2                !
 ! A13   A(5,3,25)             111.3259         estimate D2E/DX2                !
 ! A14   A(3,4,26)             109.2647         estimate D2E/DX2                !
 ! A15   A(3,5,6)              109.2315         estimate D2E/DX2                !
 ! A16   A(3,5,23)             105.1601         estimate D2E/DX2                !
 ! A17   A(3,5,27)             110.6132         estimate D2E/DX2                !
 ! A18   A(6,5,23)             108.0516         estimate D2E/DX2                !
 ! A19   A(6,5,27)             113.1324         estimate D2E/DX2                !
 ! A20   A(23,5,27)            110.3145         estimate D2E/DX2                !
 ! A21   A(5,6,7)              113.0202         estimate D2E/DX2                !
 ! A22   A(5,6,21)             118.1252         estimate D2E/DX2                !
 ! A23   A(5,6,28)             114.1295         estimate D2E/DX2                !
 ! A24   A(7,6,21)             105.0804         estimate D2E/DX2                !
 ! A25   A(7,6,28)             102.1077         estimate D2E/DX2                !
 ! A26   A(21,6,28)            102.5952         estimate D2E/DX2                !
 ! A27   A(6,7,8)              121.0581         estimate D2E/DX2                !
 ! A28   A(2,8,7)              112.2897         estimate D2E/DX2                !
 ! A29   A(2,8,9)              113.3832         estimate D2E/DX2                !
 ! A30   A(2,8,29)             111.0702         estimate D2E/DX2                !
 ! A31   A(7,8,9)              108.9301         estimate D2E/DX2                !
 ! A32   A(7,8,29)              99.2489         estimate D2E/DX2                !
 ! A33   A(9,8,29)             111.0514         estimate D2E/DX2                !
 ! A34   A(8,9,10)             109.1301         estimate D2E/DX2                !
 ! A35   A(8,9,30)             112.4175         estimate D2E/DX2                !
 ! A36   A(8,9,31)             112.667          estimate D2E/DX2                !
 ! A37   A(10,9,30)            104.6392         estimate D2E/DX2                !
 ! A38   A(10,9,31)            108.4525         estimate D2E/DX2                !
 ! A39   A(30,9,31)            109.1591         estimate D2E/DX2                !
 ! A40   A(9,10,32)            108.7195         estimate D2E/DX2                !
 ! A41   A(12,11,42)           108.8011         estimate D2E/DX2                !
 ! A42   A(11,12,13)           108.6776         estimate D2E/DX2                !
 ! A43   A(11,12,17)           104.4082         estimate D2E/DX2                !
 ! A44   A(11,12,33)           108.8854         estimate D2E/DX2                !
 ! A45   A(13,12,17)           111.6003         estimate D2E/DX2                !
 ! A46   A(13,12,33)           110.8769         estimate D2E/DX2                !
 ! A47   A(17,12,33)           112.1105         estimate D2E/DX2                !
 ! A48   A(12,13,14)           112.4344         estimate D2E/DX2                !
 ! A49   A(12,13,22)           102.5531         estimate D2E/DX2                !
 ! A50   A(12,13,34)           111.7146         estimate D2E/DX2                !
 ! A51   A(14,13,22)           109.6109         estimate D2E/DX2                !
 ! A52   A(14,13,34)           110.175          estimate D2E/DX2                !
 ! A53   A(22,13,34)           110.1014         estimate D2E/DX2                !
 ! A54   A(13,14,15)           114.8164         estimate D2E/DX2                !
 ! A55   A(13,14,21)           103.5146         estimate D2E/DX2                !
 ! A56   A(13,14,35)           110.4915         estimate D2E/DX2                !
 ! A57   A(15,14,21)           105.0946         estimate D2E/DX2                !
 ! A58   A(15,14,35)           111.3199         estimate D2E/DX2                !
 ! A59   A(21,14,35)           111.1972         estimate D2E/DX2                !
 ! A60   A(14,15,16)           115.6687         estimate D2E/DX2                !
 ! A61   A(14,15,20)           108.168          estimate D2E/DX2                !
 ! A62   A(14,15,36)           113.1026         estimate D2E/DX2                !
 ! A63   A(16,15,20)           101.6535         estimate D2E/DX2                !
 ! A64   A(16,15,36)           110.4022         estimate D2E/DX2                !
 ! A65   A(20,15,36)           106.8175         estimate D2E/DX2                !
 ! A66   A(15,16,17)           117.3494         estimate D2E/DX2                !
 ! A67   A(12,17,16)           108.189          estimate D2E/DX2                !
 ! A68   A(12,17,18)           113.3289         estimate D2E/DX2                !
 ! A69   A(12,17,37)           111.3503         estimate D2E/DX2                !
 ! A70   A(16,17,18)           102.967          estimate D2E/DX2                !
 ! A71   A(16,17,37)           108.4249         estimate D2E/DX2                !
 ! A72   A(18,17,37)           112.0668         estimate D2E/DX2                !
 ! A73   A(17,18,19)           112.4451         estimate D2E/DX2                !
 ! A74   A(17,18,38)           110.6821         estimate D2E/DX2                !
 ! A75   A(17,18,39)           110.9321         estimate D2E/DX2                !
 ! A76   A(19,18,38)           103.5205         estimate D2E/DX2                !
 ! A77   A(19,18,39)           109.2768         estimate D2E/DX2                !
 ! A78   A(38,18,39)           109.7272         estimate D2E/DX2                !
 ! A79   A(18,19,40)           110.3946         estimate D2E/DX2                !
 ! A80   A(15,20,44)           110.3775         estimate D2E/DX2                !
 ! A81   A(6,21,14)            122.1345         estimate D2E/DX2                !
 ! A82   A(13,22,41)           111.0023         estimate D2E/DX2                !
 ! A83   A(5,23,43)            109.6475         estimate D2E/DX2                !
 ! D1    D(45,1,2,3)           -46.5792         estimate D2E/DX2                !
 ! D2    D(45,1,2,8)          -167.1153         estimate D2E/DX2                !
 ! D3    D(45,1,2,24)           73.3175         estimate D2E/DX2                !
 ! D4    D(1,2,3,4)             47.6475         estimate D2E/DX2                !
 ! D5    D(1,2,3,5)            -69.6936         estimate D2E/DX2                !
 ! D6    D(1,2,3,25)           165.2269         estimate D2E/DX2                !
 ! D7    D(8,2,3,4)            165.0775         estimate D2E/DX2                !
 ! D8    D(8,2,3,5)             47.7363         estimate D2E/DX2                !
 ! D9    D(8,2,3,25)           -77.3432         estimate D2E/DX2                !
 ! D10   D(24,2,3,4)           -70.4627         estimate D2E/DX2                !
 ! D11   D(24,2,3,5)           172.1961         estimate D2E/DX2                !
 ! D12   D(24,2,3,25)           47.1167         estimate D2E/DX2                !
 ! D13   D(1,2,8,7)            124.0794         estimate D2E/DX2                !
 ! D14   D(1,2,8,9)              0.0767         estimate D2E/DX2                !
 ! D15   D(1,2,8,29)          -125.795          estimate D2E/DX2                !
 ! D16   D(3,2,8,7)              4.9671         estimate D2E/DX2                !
 ! D17   D(3,2,8,9)           -119.0356         estimate D2E/DX2                !
 ! D18   D(3,2,8,29)           115.0926         estimate D2E/DX2                !
 ! D19   D(24,2,8,7)          -118.9184         estimate D2E/DX2                !
 ! D20   D(24,2,8,9)           117.079          estimate D2E/DX2                !
 ! D21   D(24,2,8,29)           -8.7928         estimate D2E/DX2                !
 ! D22   D(2,3,4,26)          -169.8722         estimate D2E/DX2                !
 ! D23   D(5,3,4,26)           -52.3474         estimate D2E/DX2                !
 ! D24   D(25,3,4,26)           69.7463         estimate D2E/DX2                !
 ! D25   D(2,3,5,6)            -62.3409         estimate D2E/DX2                !
 ! D26   D(2,3,5,23)          -178.0969         estimate D2E/DX2                !
 ! D27   D(2,3,5,27)            62.8115         estimate D2E/DX2                !
 ! D28   D(4,3,5,6)           -175.7524         estimate D2E/DX2                !
 ! D29   D(4,3,5,23)            68.4916         estimate D2E/DX2                !
 ! D30   D(4,3,5,27)           -50.6            estimate D2E/DX2                !
 ! D31   D(25,3,5,6)            63.6425         estimate D2E/DX2                !
 ! D32   D(25,3,5,23)          -52.1136         estimate D2E/DX2                !
 ! D33   D(25,3,5,27)         -171.2051         estimate D2E/DX2                !
 ! D34   D(3,5,6,7)             22.0869         estimate D2E/DX2                !
 ! D35   D(3,5,6,21)           145.2925         estimate D2E/DX2                !
 ! D36   D(3,5,6,28)           -94.0197         estimate D2E/DX2                !
 ! D37   D(23,5,6,7)           135.9786         estimate D2E/DX2                !
 ! D38   D(23,5,6,21)         -100.8159         estimate D2E/DX2                !
 ! D39   D(23,5,6,28)           19.8719         estimate D2E/DX2                !
 ! D40   D(27,5,6,7)          -101.5891         estimate D2E/DX2                !
 ! D41   D(27,5,6,21)           21.6164         estimate D2E/DX2                !
 ! D42   D(27,5,6,28)          142.3042         estimate D2E/DX2                !
 ! D43   D(3,5,23,43)         -147.276          estimate D2E/DX2                !
 ! D44   D(6,5,23,43)           96.1577         estimate D2E/DX2                !
 ! D45   D(27,5,23,43)         -27.9848         estimate D2E/DX2                !
 ! D46   D(5,6,7,8)             35.0215         estimate D2E/DX2                !
 ! D47   D(21,6,7,8)           -95.1399         estimate D2E/DX2                !
 ! D48   D(28,6,7,8)           158.0752         estimate D2E/DX2                !
 ! D49   D(5,6,21,14)           -7.8328         estimate D2E/DX2                !
 ! D50   D(7,6,21,14)          119.2706         estimate D2E/DX2                !
 ! D51   D(28,6,21,14)        -134.3023         estimate D2E/DX2                !
 ! D52   D(6,7,8,2)            -50.0669         estimate D2E/DX2                !
 ! D53   D(6,7,8,9)             76.3775         estimate D2E/DX2                !
 ! D54   D(6,7,8,29)          -167.4807         estimate D2E/DX2                !
 ! D55   D(2,8,9,10)           164.2921         estimate D2E/DX2                !
 ! D56   D(2,8,9,30)           -80.0838         estimate D2E/DX2                !
 ! D57   D(2,8,9,31)            43.7664         estimate D2E/DX2                !
 ! D58   D(7,8,9,10)            38.4785         estimate D2E/DX2                !
 ! D59   D(7,8,9,30)           154.1026         estimate D2E/DX2                !
 ! D60   D(7,8,9,31)           -82.0473         estimate D2E/DX2                !
 ! D61   D(29,8,9,10)          -69.8261         estimate D2E/DX2                !
 ! D62   D(29,8,9,30)           45.798          estimate D2E/DX2                !
 ! D63   D(29,8,9,31)          169.6482         estimate D2E/DX2                !
 ! D64   D(8,9,10,32)          -37.4196         estimate D2E/DX2                !
 ! D65   D(30,9,10,32)        -157.9365         estimate D2E/DX2                !
 ! D66   D(31,9,10,32)          85.6563         estimate D2E/DX2                !
 ! D67   D(42,11,12,13)         60.4448         estimate D2E/DX2                !
 ! D68   D(42,11,12,17)        179.6581         estimate D2E/DX2                !
 ! D69   D(42,11,12,33)        -60.4336         estimate D2E/DX2                !
 ! D70   D(11,12,13,14)        164.591          estimate D2E/DX2                !
 ! D71   D(11,12,13,22)        -77.7675         estimate D2E/DX2                !
 ! D72   D(11,12,13,34)         40.1156         estimate D2E/DX2                !
 ! D73   D(17,12,13,14)         49.9869         estimate D2E/DX2                !
 ! D74   D(17,12,13,22)        167.6285         estimate D2E/DX2                !
 ! D75   D(17,12,13,34)        -74.4884         estimate D2E/DX2                !
 ! D76   D(33,12,13,14)        -75.765          estimate D2E/DX2                !
 ! D77   D(33,12,13,22)         41.8765         estimate D2E/DX2                !
 ! D78   D(33,12,13,34)        159.7596         estimate D2E/DX2                !
 ! D79   D(11,12,17,16)       -177.2548         estimate D2E/DX2                !
 ! D80   D(11,12,17,18)         69.2344         estimate D2E/DX2                !
 ! D81   D(11,12,17,37)        -58.2007         estimate D2E/DX2                !
 ! D82   D(13,12,17,16)        -60.0395         estimate D2E/DX2                !
 ! D83   D(13,12,17,18)       -173.5503         estimate D2E/DX2                !
 ! D84   D(13,12,17,37)         59.0145         estimate D2E/DX2                !
 ! D85   D(33,12,17,16)         65.0292         estimate D2E/DX2                !
 ! D86   D(33,12,17,18)        -48.4816         estimate D2E/DX2                !
 ! D87   D(33,12,17,37)       -175.9168         estimate D2E/DX2                !
 ! D88   D(12,13,14,15)        -35.3441         estimate D2E/DX2                !
 ! D89   D(12,13,14,21)       -149.3116         estimate D2E/DX2                !
 ! D90   D(12,13,14,35)         91.5567         estimate D2E/DX2                !
 ! D91   D(22,13,14,15)       -148.7178         estimate D2E/DX2                !
 ! D92   D(22,13,14,21)         97.3147         estimate D2E/DX2                !
 ! D93   D(22,13,14,35)        -21.817          estimate D2E/DX2                !
 ! D94   D(34,13,14,15)         89.9761         estimate D2E/DX2                !
 ! D95   D(34,13,14,21)        -23.9914         estimate D2E/DX2                !
 ! D96   D(34,13,14,35)       -143.1231         estimate D2E/DX2                !
 ! D97   D(12,13,22,41)        161.2858         estimate D2E/DX2                !
 ! D98   D(14,13,22,41)        -79.0851         estimate D2E/DX2                !
 ! D99   D(34,13,22,41)         42.2654         estimate D2E/DX2                !
 ! D100  D(13,14,15,16)         32.2546         estimate D2E/DX2                !
 ! D101  D(13,14,15,20)        145.4322         estimate D2E/DX2                !
 ! D102  D(13,14,15,36)        -96.4655         estimate D2E/DX2                !
 ! D103  D(21,14,15,16)        145.2957         estimate D2E/DX2                !
 ! D104  D(21,14,15,20)       -101.5267         estimate D2E/DX2                !
 ! D105  D(21,14,15,36)         16.5756         estimate D2E/DX2                !
 ! D106  D(35,14,15,16)        -94.2216         estimate D2E/DX2                !
 ! D107  D(35,14,15,20)         18.956          estimate D2E/DX2                !
 ! D108  D(35,14,15,36)        137.0583         estimate D2E/DX2                !
 ! D109  D(13,14,21,6)        -156.4766         estimate D2E/DX2                !
 ! D110  D(15,14,21,6)          82.7318         estimate D2E/DX2                !
 ! D111  D(35,14,21,6)         -37.8319         estimate D2E/DX2                !
 ! D112  D(14,15,16,17)        -45.5944         estimate D2E/DX2                !
 ! D113  D(20,15,16,17)       -162.4886         estimate D2E/DX2                !
 ! D114  D(36,15,16,17)         84.4388         estimate D2E/DX2                !
 ! D115  D(14,15,20,44)       -106.6059         estimate D2E/DX2                !
 ! D116  D(16,15,20,44)         15.6141         estimate D2E/DX2                !
 ! D117  D(36,15,20,44)        131.3476         estimate D2E/DX2                !
 ! D118  D(15,16,17,12)         58.8609         estimate D2E/DX2                !
 ! D119  D(15,16,17,18)        179.0862         estimate D2E/DX2                !
 ! D120  D(15,16,17,37)        -62.0285         estimate D2E/DX2                !
 ! D121  D(12,17,18,19)         -8.2858         estimate D2E/DX2                !
 ! D122  D(12,17,18,38)        106.9488         estimate D2E/DX2                !
 ! D123  D(12,17,18,39)       -130.9993         estimate D2E/DX2                !
 ! D124  D(16,17,18,19)       -124.9104         estimate D2E/DX2                !
 ! D125  D(16,17,18,38)         -9.6758         estimate D2E/DX2                !
 ! D126  D(16,17,18,39)        112.3761         estimate D2E/DX2                !
 ! D127  D(37,17,18,19)        118.7742         estimate D2E/DX2                !
 ! D128  D(37,17,18,38)       -125.9912         estimate D2E/DX2                !
 ! D129  D(37,17,18,39)         -3.9393         estimate D2E/DX2                !
 ! D130  D(17,18,19,40)        -54.6169         estimate D2E/DX2                !
 ! D131  D(38,18,19,40)       -174.1122         estimate D2E/DX2                !
 ! D132  D(39,18,19,40)         69.0234         estimate D2E/DX2                !
 --------------------------------------------------------------------------------
 Trust Radius=3.00D-01 FncErr=1.00D-07 GrdErr=1.00D-07 EigMax=2.50D+02 EigMin=1.00D-04
 Number of steps in this run=    270 maximum allowed number of steps=    270.
 GradGradGradGradGradGradGradGradGradGradGradGradGradGradGradGradGradGrad

 Leave Link  103 at Tue Jun 22 14:21:51 2021, MaxMem=  2147483648 cpu:               0.0 elap:               0.0
 (Enter /home/matma/Programs/gaussian/G16_x86_SSE4/tar/g16/l202.exe)
                          Input orientation:                          
 ---------------------------------------------------------------------
 Center     Atomic      Atomic             Coordinates (Angstroms)
 Number     Number       Type             X           Y           Z
 ---------------------------------------------------------------------
      1          8           0        1.666000    0.167000    1.033000
      2          6           0        2.184000    1.504000    1.056000
      3          6           0        3.043000    1.697000    2.327000
      4          8           0        3.887000    0.539000    2.342000
      5          6           0        2.141000    1.703000    3.580000
      6          6           0        1.166000    2.894000    3.498000
      7          8           0        0.970000    3.362000    2.169000
      8          6           0        0.961000    2.448000    1.051000
      9          6           0       -0.382000    1.705000    1.026000
     10          8           0       -1.433000    2.618000    1.391000
     11          8           0       -4.282000    1.195000    5.523000
     12          6           0       -2.919000    0.741000    5.443000
     13          6           0       -2.178000    1.585000    4.383000
     14          6           0       -0.642000    1.444000    4.485000
     15          6           0       -0.096000    1.291000    5.931000
     16          8           0       -0.953000    0.607000    6.847000
     17          6           0       -2.353000    0.979000    6.853000
     18          6           0       -2.956000    0.041000    7.920000
     19          8           0       -4.046000   -0.723000    7.418000
     20          8           0        1.034000    0.422000    5.890000
     21          8           0       -0.155000    2.725000    4.033000
     22          8           0       -2.630000    1.013000    3.161000
     23          8           0        3.027000    1.931000    4.677000
     24          1           0        2.807000    1.639000    0.141000
     25          1           0        3.682000    2.607000    2.284000
     26          1           0        4.362000    0.492000    3.210000
     27          1           0        1.624000    0.720000    3.697000
     28          1           0        1.525000    3.816000    4.021000
     29          1           0        1.027000    3.188000    0.213000
     30          1           0       -0.653000    1.358000    0.012000
     31          1           0       -0.407000    0.844000    1.724000
     32          1           0       -1.089000    3.237000    2.113000
     33          1           0       -2.914000   -0.341000    5.165000
     34          1           0       -2.470000    2.661000    4.434000
     35          1           0       -0.281000    0.620000    3.826000
     36          1           0        0.252000    2.250000    6.369000
     37          1           0       -2.431000    2.048000    7.145000
     38          1           0       -2.217000   -0.731000    8.227000
     39          1           0       -3.288000    0.612000    8.805000
     40          1           0       -4.737000   -0.124000    7.023000
     41          1           0       -2.472000    1.650000    2.378000
     42          1           0       -4.711000    1.075000    4.638000
     43          1           0        2.690000    1.452000    5.486000
     44          1           0        0.802000   -0.465000    6.271000
     45          1           0        2.400000   -0.473000    1.245000
 ---------------------------------------------------------------------
                    Distance matrix (angstroms):
                    1          2          3          4          5
     1  O    0.000000
     2  C    1.434023   0.000000
     3  C    2.431350   1.546147   0.000000
     4  O    2.604747   2.342057   1.433013   0.000000
     5  C    3.011998   2.532198   1.543907   2.436402   0.000000
     6  C    3.709819   2.988610   2.515388   3.779709   1.541373
     7  O    3.461638   2.482887   2.663554   4.063022   2.472740
     8  C    2.387532   1.544956   2.554780   3.724572   2.888471
     9  C    2.561210   2.574035   3.663781   4.616901   3.590049
    10  O    3.967287   3.799462   4.664645   5.790427   4.289804
    11  O    7.523004   7.865032   8.007624   8.790999   6.729654
    12  C    6.387472   6.772632   6.794765   7.481888   5.477209
    13  C    5.292406   5.486578   5.612354   6.484136   4.394598
    14  C    4.344410   4.443863   4.277873   5.091494   2.937890
    15  C    5.325263   5.386037   4.796558   5.413937   3.271256
    16  O    6.391820   6.646883   6.130784   6.612507   4.631127
    17  C    7.119277   7.380054   7.079337   7.712349   5.606491
    18  C    8.295151   8.699107   8.367317   8.842440   6.897627
    19  O    8.613203   9.178642   9.056964   9.502153   7.674288
    20  O    4.904579   5.085350   4.284469   4.554295   2.864002
    21  O    4.342742   3.977976   3.767549   4.896513   2.553685
    22  O    4.868235   5.276997   5.774629   6.585342   4.838812
    23  O    4.271154   3.742275   2.361676   2.851226   1.428422
    24  H    2.065025   1.115159   2.199467   2.687155   3.503480
    25  H    3.403360   2.229035   1.112776   2.078945   2.207150
    26  H    3.480427   3.226073   1.992856   0.990585   2.556611
    27  H    2.721115   2.811252   2.201134   2.643852   1.116811
    28  H    4.718392   3.817178   3.108717   4.374564   2.244706
    29  H    3.194865   2.210238   3.279685   4.441784   3.844855
    30  H    2.799765   3.026520   4.374307   5.168294   4.544897
    31  H    2.287606   2.755922   3.604680   4.348952   3.267250
    32  H    4.263956   3.851372   4.414841   5.665000   3.864990
    33  H    6.189337   6.802758   6.906051   7.416018   5.678308
    34  H    5.907058   5.865940   5.980127   7.020740   4.786272
    35  H    3.434657   3.811900   3.802092   4.425047   2.664487
    36  H    5.900100   5.702377   4.943001   5.688363   3.412631
    37  H    7.594743   7.659640   7.300753   8.078553   5.807877
    38  H    8.224216   8.705588   8.268784   8.573502   6.819907
    39  H    9.227357   9.528140   9.122679   9.656931   7.613471
    40  H    8.772867   9.282010   9.268056   9.834872   7.905635
    41  H    4.596886   4.842245   5.515436   6.455424   4.767324
    42  H    7.381505   7.781760   8.114932   8.915409   6.961584
    43  H    4.746473   4.459108   3.188090   3.485845   1.999309
    44  H    5.346266   5.743092   5.025083   5.095320   3.706026
    45  H    0.996644   1.997725   2.508600   2.106827   3.202231
                    6          7          8          9         10
     6  C    0.000000
     7  O    1.422561   0.000000
     8  C    2.495746   1.444092   0.000000
     9  C    3.149732   2.424872   1.535032   0.000000
    10  O    3.357146   2.633103   2.423992   1.439234   0.000000
    11  O    6.055405   6.597629   7.004130   5.974371   5.216815
    12  C    5.010555   5.719531   6.103926   5.184164   4.706382
    13  C    3.698519   4.239036   4.658360   3.809129   3.251796
    14  C    2.519034   3.411909   3.920457   3.478563   3.402469
    15  C    3.175176   4.424708   5.125456   4.930742   4.915292
    16  O    4.575624   5.759482   6.375445   5.951108   5.834591
    17  C    5.225573   6.217787   6.841327   6.194017   5.776345
    18  C    6.684652   7.714695   8.265573   7.544641   7.182499
    19  O    7.457482   8.330635   8.698504   7.757432   7.369856
    20  O    3.442364   4.742735   5.246516   5.225863   5.581174
    21  O    1.435210   2.268455   3.196015   3.183391   2.936817
    22  O    4.249864   4.411560   4.405293   3.176569   2.672402
    23  O    2.404315   3.545289   4.205178   5.000216   5.582237
    24  H    3.941745   3.233587   2.211402   3.310182   4.527531
    25  H    2.808277   2.817480   2.991557   4.348823   5.192379
    26  H    4.008362   4.563578   4.478171   5.361601   6.435112
    27  H    2.230614   3.121324   3.229066   3.482600   4.273791
    28  H    1.119149   1.985962   3.318195   4.130738   4.135440
    29  H    3.301058   1.964551   1.119911   2.201259   2.786429
    30  H    4.221404   3.361963   2.207401   1.105462   2.024263
    31  H    3.134311   2.904217   2.212955   1.108670   2.076208
    32  H    2.668501   2.063551   2.439849   2.007098   1.011326
    33  H    5.467222   6.146030   6.302312   5.265782   5.019175
    34  H    3.761766   4.177945   4.823051   4.109519   3.215131
    35  H    2.715229   3.439362   3.547502   3.004568   3.353853
    36  H    3.081034   4.403643   5.368706   5.408015   5.268314
    37  H    5.191795   6.168790   6.985879   6.462059   5.867659
    38  H    6.851916   7.975524   8.467627   7.820212   7.652539
    39  H    7.294511   8.350423   9.030471   8.375699   7.901421
    40  H    7.508619   8.263375   8.645645   7.633824   7.081977
    41  H    4.004620   3.849934   3.766062   2.489785   1.729368
    42  H    6.256796   6.603036   6.850057   5.673067   4.865094
    43  H    2.890343   4.196307   4.863197   5.421512   5.926863
    44  H    4.370916   5.612536   5.979904   5.798343   6.189872
    45  H    4.235027   4.195939   3.261993   3.539939   4.926204
                   11         12         13         14         15
    11  O    0.000000
    12  C    1.438848   0.000000
    13  C    2.424565   1.544350   0.000000
    14  C    3.793289   2.568405   1.545827   0.000000
    15  C    4.206932   2.917186   2.611027   1.553203   0.000000
    16  O    3.630559   2.419572   2.920343   2.525140   1.428762
    17  C    2.352997   1.537888   2.549267   2.958238   2.457942
    18  C    2.972474   2.574276   3.936952   4.372897   3.701111
    19  O    2.706556   2.704450   4.245882   4.988546   4.676523
    20  O    5.384429   3.990962   3.733706   2.414018   1.426093
    21  O    4.646841   3.682941   2.348325   1.443064   2.379546
    22  O    2.888126   2.316253   1.422945   2.427114   3.764484
    23  O    7.394518   6.112100   5.224766   3.706156   3.425674
    24  H    8.911621   7.855233   6.545816   5.550132   6.486340
    25  H    8.712644   7.552115   6.307922   4.989383   5.413478
    26  H    8.975685   7.619793   6.733660   5.250899   5.283560
    27  H    6.200059   4.867012   3.959043   2.505968   2.876664
    28  H    6.545754   5.588099   4.338273   3.246162   3.556876
    29  H    7.768760   6.993685   5.498230   4.906840   6.128235
    30  H    6.600555   5.917027   4.634954   4.473840   5.945528
    31  H    5.437943   4.489066   3.279604   2.835198   4.242096
    32  H    5.098344   4.546187   3.011300   3.006833   4.398874
    33  H    2.087794   1.117154   2.205152   2.968267   3.345341
    34  H    2.572629   2.214968   1.116083   2.196651   3.123105
    35  H    4.383884   3.096510   2.200019   1.115158   2.217091
    36  H    4.731374   3.631776   3.208009   2.235694   1.110238
    37  H    2.604745   2.200726   2.811943   3.262045   2.738443
    38  H    3.909644   3.226491   4.487952   4.605846   3.722733
    39  H    3.478426   3.384649   4.661857   5.133804   4.348538
    40  H    2.048606   2.559248   4.054474   5.066468   4.973286
    41  H    3.657068   3.228051   2.027483   2.798354   4.289297
    42  H    0.990791   1.992698   2.596385   4.088561   4.797575
    43  H    6.976833   5.654047   4.993168   3.479122   2.825906
    44  H    5.400200   3.998232   4.080128   2.986505   2.001385
    45  H    8.107566   6.883950   5.919501   4.840067   5.594668
                   16         17         18         19         20
    16  O    0.000000
    17  C    1.448592   0.000000
    18  C    2.341729   1.543354   0.000000
    19  O    3.414907   2.466227   1.422603   0.000000
    20  O    2.213197   3.565023   4.492901   5.426989   0.000000
    21  O    3.611277   3.978960   5.491651   6.203774   3.188413
    22  O    4.069860   3.702533   4.868176   4.810489   4.606693
    23  O    4.722529   5.880959   7.062962   8.036425   2.778579
    24  H    7.757130   8.491887   9.812167  10.271192   6.138047
    25  H    6.804719   7.742569   9.078100   9.857426   4.978892
    26  H    6.441290   7.655053   8.714392   9.480398   4.273510
    27  H    4.071388   5.083694   6.266671   6.933757   2.290448
    28  H    4.942109   5.577426   7.037911   7.948470   3.905570
    29  H    7.388634   7.771337   9.228529   9.640709   6.314993
    30  H    6.882676   7.059244   8.341149   8.407844   6.186513
    31  H    5.157462   5.487420   6.747787   6.936818   4.428332
    32  H    5.417209   5.400357   6.886316   7.250412   5.166922
    33  H    2.751972   2.215054   2.781674   2.550168   4.085890
    34  H    3.513228   2.948622   4.387800   4.779068   4.405800
    35  H    3.094866   3.685756   4.924602   5.374136   2.455305
    36  H    2.092835   2.938660   4.192439   5.330285   2.045128
    37  H    2.085610   1.110905   2.214565   3.218881   4.028042
    38  H    2.300509   2.197833   1.111915   1.999946   4.166531
    39  H    3.047296   2.195272   1.104305   2.068951   5.216609
    40  H    3.857978   2.632293   2.000949   0.996146   5.906458
    41  H    4.833960   4.526591   5.791105   5.788800   5.112158
    42  H    4.384207   3.236604   3.862733   3.376896   5.915990
    43  H    3.979673   5.246357   6.308137   7.337366   1.991595
    44  H    2.135646   3.518222   4.134949   4.988515   0.992851
    45  H    6.617508   7.493262   8.573597   8.928569   4.923719
                   21         22         23         24         25
    21  O    0.000000
    22  O    3.133202   0.000000
    23  O    3.342199   5.928122   0.000000
    24  H    5.010040   6.250860   4.550710   0.000000
    25  H    4.218471   6.568966   2.571468   2.509003   0.000000
    26  H    5.105576   7.011555   2.450517   3.626623   2.406886
    27  H    2.701437   4.297634   2.096504   3.858651   3.129329
    28  H    2.003204   5.085316   2.497912   4.630038   3.021837
    29  H    4.025406   5.176387   5.050480   2.360717   3.416962
    30  H    4.276112   3.734134   5.969334   3.473788   5.051159
    31  H    2.988837   2.652406   4.657696   3.669838   4.487949
    32  H    2.195655   2.901579   5.022070   4.649861   4.815452
    33  H    4.277132   2.435157   6.379311   7.867072   7.778051
    34  H    2.350345   2.088548   5.550582   6.879031   6.517094
    35  H    2.118903   2.472746   3.658659   4.914604   4.693751
    36  H    2.418299   4.486352   3.265769   6.759388   5.345987
    37  H    3.914467   4.121054   5.991200   8.755566   7.830107
    38  H    5.812522   5.373682   6.869373   9.810243   9.014416
    39  H    6.087072   5.696359   7.658941  10.642775   9.751121
    40  H    6.168600   4.543926   8.366985  10.362530  10.039723
    41  H    3.043541   1.021676   5.966855   5.733422   6.228676
    42  H    4.883202   2.552633   7.785300   8.778464   8.850468
    43  H    3.438861   5.822435   0.998745   5.349550   3.545546
    44  H    4.012554   4.861605   3.637620   6.784080   5.798944
    45  H    4.952593   5.583919   4.236858   2.417645   3.494202
                   26         27         28         29         30
    26  H    0.000000
    27  H    2.790304   0.000000
    28  H    4.444690   3.114481   0.000000
    29  H    5.231888   4.311112   3.891433   0.000000
    30  H    6.010606   4.378470   5.182425   2.492328   0.000000
    31  H    5.007540   2.834266   4.223934   3.135891   1.804344
    32  H    6.200954   4.025508   3.287659   2.844267   2.852181
    33  H    7.579980   4.886122   6.188223   7.246215   5.878106
    34  H    7.271792   4.590369   4.179069   5.506685   4.955137
    35  H    4.685434   1.911980   3.676150   4.621608   3.902515
    36  H    5.473751   3.370885   3.096125   6.275094   6.482757
    37  H    8.003138   5.485920   5.341829   7.830069   7.383568
    38  H    8.363567   6.113884   7.236588   9.492433   8.619527
    39  H    9.478445   7.087388   7.504481   9.953766   9.209592
    40  H    9.884848   7.227512   7.984250   9.516782   8.248000
    41  H    6.981171   4.402485   4.833944   4.392684   2.998663
    42  H    9.203173   6.414338   6.839698   7.547850   6.160140
    43  H    2.982844   2.207420   3.015285   5.795153   6.414761
    44  H    4.791573   2.950489   4.890009   7.077740   6.679479
    45  H    2.939710   2.835089   5.183370   4.043893   3.767447
                   31         32         33         34         35
    31  H    0.000000
    32  H    2.518510   0.000000
    33  H    4.419248   5.044543   0.000000
    34  H    3.860254   2.761517   3.121458   0.000000
    35  H    2.117653   3.230468   3.106305   3.054025   0.000000
    36  H    4.897667   4.570119   4.264558   3.364882   3.067220
    37  H    5.910451   5.341883   3.140225   2.779714   4.204455
    38  H    6.931503   7.375527   3.164451   5.094754   4.994206
    39  H    7.648173   7.517253   3.781228   4.896240   5.816576
    40  H    6.911246   6.979422   2.612007   4.427012   5.534463
    41  H    2.311185   2.121670   3.453522   2.291127   2.821008
    42  H    5.202804   4.916173   2.347764   2.753015   4.526728
    43  H    4.910572   5.370679   5.892598   5.403146   3.503522
    44  H    4.883684   5.879596   3.879081   4.883895   2.885852
    45  H    3.137384   5.166299   6.604727   6.611246   3.878656
                   36         37         38         39         40
    36  H    0.000000
    37  H    2.800262   0.000000
    38  H    4.293540   2.989876   0.000000
    39  H    4.598776   2.356299   1.812395   0.000000
    40  H    5.563606   3.170190   2.858053   2.411809   0.000000
    41  H    4.869113   4.783761   6.320205   6.561222   5.463820
    42  H    5.385940   3.525646   4.728910   4.427549   2.669551
    43  H    2.712994   5.415915   6.029695   6.888965   7.746385
    44  H    2.771882   4.187044   3.607084   4.930435   5.600206
    45  H    6.187407   8.031438   8.374460   9.522824   9.189334
                   41         42         43         44         45
    41  H    0.000000
    42  H    3.232854   0.000000
    43  H    6.028691   7.458957   0.000000
    44  H    5.508879   5.952433   2.802795   0.000000
    45  H    5.433894   8.029637   4.666455   5.273931   0.000000
 Stoichiometry    C12H22O11
 Framework group  C1[X(C12H22O11)]
 Deg. of freedom   129
 Full point group                 C1      NOp   1
 Largest Abelian subgroup         C1      NOp   1
 Largest concise Abelian subgroup C1      NOp   1
                         Standard orientation:                         
 ---------------------------------------------------------------------
 Center     Atomic      Atomic             Coordinates (Angstroms)
 Number     Number       Type             X           Y           Z
 ---------------------------------------------------------------------
      1          8           0       -3.137059    0.529269    1.936800
      2          6           0       -3.736160    0.456903    0.635930
      3          6           0       -3.564936   -0.973203    0.073748
      4          8           0       -3.970995   -1.813352    1.161311
      5          6           0       -2.081427   -1.235422   -0.264026
      6          6           0       -1.629105   -0.252089   -1.361428
      7          8           0       -2.440472    0.914261   -1.432100
      8          6           0       -3.008101    1.500267   -0.240548
      9          6           0       -1.909469    2.266029    0.509745
     10          8           0       -1.059040    2.926838   -0.444979
     11          8           0        3.993976    1.657715   -0.177565
     12          6           0        3.021525    0.687055    0.249568
     13          6           0        1.633866    1.111678   -0.278745
     14          6           0        0.599249   -0.034622   -0.207012
     15          6           0        1.175607   -1.450978   -0.479387
     16          8           0        2.525684   -1.660657   -0.061431
     17          6           0        3.491029   -0.631227   -0.388240
     18          6           0        4.798569   -1.175313    0.225152
     19          8           0        5.402004   -0.252452    1.124036
     20          8           0        0.472379   -2.382378    0.340189
     21          8           0       -0.279344    0.233958   -1.319834
     22          8           0        1.262816    2.147111    0.624014
     23          8           0       -2.050442   -2.554420   -0.811450
     24          1           0       -4.817754    0.703464    0.749683
     25          1           0       -4.221273   -1.176070   -0.801658
     26          1           0       -3.740858   -2.753699    0.951450
     27          1           0       -1.453142   -1.183368    0.657828
     28          1           0       -1.710403   -0.657954   -2.401216
     29          1           0       -3.736718    2.205281   -0.716228
     30          1           0       -2.316045    3.082734    1.134032
     31          1           0       -1.281676    1.604322    1.139959
     32          1           0       -0.945497    2.324945   -1.249724
     33          1           0        3.024898    0.638801    1.365674
     34          1           0        1.692878    1.512419   -1.318728
     35          1           0        0.046055   -0.001212    0.760686
     36          1           0        1.040051   -1.781726   -1.530510
     37          1           0        3.552662   -0.546036   -1.494157
     38          1           0        4.593666   -2.062991    0.862645
     39          1           0        5.523312   -1.442478   -0.564063
     40          1           0        5.544225    0.625900    0.676176
     41          1           0        0.520921    2.728353    0.229588
     42          1           0        3.748214    2.541758    0.196246
     43          1           0       -1.187904   -2.997266   -0.571856
     44          1           0        1.048275   -2.687428    1.089216
     45          1           0       -3.423841   -0.259361    2.474497
 ---------------------------------------------------------------------
 Rotational constants (GHZ):           0.4647270           0.1651020           0.1389098
 Leave Link  202 at Tue Jun 22 14:21:51 2021, MaxMem=  2147483648 cpu:               0.0 elap:               0.0
 (Enter /home/matma/Programs/gaussian/G16_x86_SSE4/tar/g16/l301.exe)
 Standard basis: VSTO-6G (5D, 7F)
 Ernie: Thresh=  0.10000D-02 Tol=  0.10000D-05 Strict=F.
  NNHCO=     0 NNPyr=     0 NCTC=     0               EPep=         0.000000000
    EC=      1207.636290714  ECS=         9.020743197   EG=         0.733711365
   EHC=         0.002699593  EAt=      -175.965002454  AtH=         6.138669069
 EPDDG=         0.000000000  ECC=      1217.393444868 EAtT=       182.103671523
 There are   114 symmetry adapted cartesian basis functions of A   symmetry.
 There are   114 symmetry adapted basis functions of A   symmetry.
   114 basis functions,   684 primitive gaussians,   114 cartesian basis functions
    68 alpha electrons       68 beta electrons
       nuclear repulsion energy      1399.4971163913 Hartrees.
 IExCor=    0 DFT=F Ex=HF Corr=None ExCW=0 ScaHFX=  1.000000
 ScaDFX=  1.000000  1.000000  1.000000  1.000000 ScalE2=  1.000000  1.000000
 IRadAn=  99590 IRanWt=     -1 IRanGd=            0 ICorTp=0 IEmpDi=  4
 Integral buffers will be    131072 words long.
 Regular integral format.
 Two-electron integral symmetry is turned off.
 Leave Link  301 at Tue Jun 22 14:21:51 2021, MaxMem=  2147483648 cpu:               0.2 elap:               0.0
 (Enter /home/matma/Programs/gaussian/G16_x86_SSE4/tar/g16/l302.exe)
 Do NDO integrals.
 NPDir=0 NMtPBC=     1 NCelOv=     1 NCel=       1 NClECP=     1 NCelD=      1
         NCelK=      1 NCelE2=     1 NClLst=     1 CellRange=     0.0.
 One-electron integrals computed using PRISM.
 NBasis=   114 RedAO= F EigKep=  0.00D+00  NBF=   114
 NBsUse=   114 1.00D-04 EigRej=  0.00D+00 NBFU=   114
 Leave Link  302 at Tue Jun 22 14:21:51 2021, MaxMem=  2147483648 cpu:               0.6 elap:               0.1
 (Enter /home/matma/Programs/gaussian/G16_x86_SSE4/tar/g16/l303.exe)
 DipDrv:  MaxL=1.
 Leave Link  303 at Tue Jun 22 14:21:51 2021, MaxMem=  2147483648 cpu:               0.1 elap:               0.0
 (Enter /home/matma/Programs/gaussian/G16_x86_SSE4/tar/g16/l401.exe)
 Simple Huckel Guess.
 JPrj=0 DoOrth=F DoCkMO=F.
 Leave Link  401 at Tue Jun 22 14:21:51 2021, MaxMem=  2147483648 cpu:               0.2 elap:               0.0
 (Enter /home/matma/Programs/gaussian/G16_x86_SSE4/tar/g16/l502.exe)
 Keep J ints in memory in canonical form, NReq=892272.
 FoFCou: FMM=F IPFlag=           0 FMFlag=           0 FMFlg1=           0
         NFxFlg=           0 DoJE=F BraDBF=F KetDBF=F FulRan=T
         wScrn=  0.000000 ICntrl=       600 IOpCl=  2 I1Cent=           0 NGrid=           0
         NMat0=    1 NMatS0=    252 NMatT0=    0 NMatD0=    1 NMtDS0=    0 NMtDT0=    0
 Symmetry not used in FoFCou.
 Two-electron integral symmetry not used.
 Closed shell SCF:
 Using DIIS extrapolation, IDIIS=  1040.
 Overlap will be assumed to be unity.
 NGot=  2147483648 LenX=  2147363403 LenY=  2147349966
 Requested convergence on RMS density matrix=1.00D-08 within 128 cycles.
 Requested convergence on MAX density matrix=1.00D-06.
 Requested convergence on             energy=1.00D-06.
 No special actions if energy rises.

 Cycle   1  Pass 1  IDiag  1:
 E= 0.460348901914585    
 DIIS: error= 5.66D-02 at cycle   1 NSaved=   1.
 NSaved= 1 IEnMin= 1 EnMin= 0.460348901914585     IErMin= 1 ErrMin= 5.66D-02
 ErrMax= 5.66D-02  0.00D+00 EMaxC= 1.00D-01 BMatC= 3.24D-01 BMatP= 3.24D-01
 IDIUse=3 WtCom= 4.34D-01 WtEn= 5.66D-01
 Coeff-Com:  0.100D+01
 Coeff-En:   0.100D+01
 Coeff:      0.100D+01
 GapD=    2.000 DampG=2.000 DampE=0.500 DampFc=1.0000 IDamp=-1.
 RMSDP=8.28D-03 MaxDP=1.26D-01              OVMax= 0.00D+00

 Cycle   2  Pass 1  IDiag  1:
 E=-0.557667588491768     Delta-E=       -1.018016490406 Rises=F Damp=F
 DIIS: error= 1.68D-02 at cycle   2 NSaved=   2.
 NSaved= 2 IEnMin= 2 EnMin=-0.557667588491768     IErMin= 2 ErrMin= 1.68D-02
 ErrMax= 1.68D-02  0.00D+00 EMaxC= 1.00D-01 BMatC= 4.60D-02 BMatP= 3.24D-01
 IDIUse=3 WtCom= 8.32D-01 WtEn= 1.68D-01
 Coeff-Com: -0.435D+00 0.143D+01
 Coeff-En:   0.000D+00 0.100D+01
 Coeff:     -0.362D+00 0.136D+01
 RMSDP=4.77D-03 MaxDP=5.67D-02 DE=-1.02D+00 OVMax= 0.00D+00

 Cycle   3  Pass 1  IDiag  3:
 E=-0.763257401079272     Delta-E=       -0.205589812588 Rises=F Damp=F
 DIIS: error= 5.40D-03 at cycle   3 NSaved=   3.
 NSaved= 3 IEnMin= 3 EnMin=-0.763257401079272     IErMin= 3 ErrMin= 5.40D-03
 ErrMax= 5.40D-03  0.00D+00 EMaxC= 1.00D-01 BMatC= 4.59D-03 BMatP= 4.60D-02
 IDIUse=3 WtCom= 9.46D-01 WtEn= 5.40D-02
 Coeff-Com:  0.270D+00-0.107D+01 0.180D+01
 Coeff-En:   0.000D+00 0.000D+00 0.100D+01
 Coeff:      0.255D+00-0.102D+01 0.176D+01
 Gap=     0.405 Goal=   None    Shift=    0.000
 RMSDP=2.40D-03 MaxDP=3.93D-02 DE=-2.06D-01 OVMax= 2.54D-02

 Cycle   4  Pass 1  IDiag  3:
 E=-0.793675834150008     Delta-E=       -0.030418433071 Rises=F Damp=F
 DIIS: error= 1.05D-03 at cycle   4 NSaved=   4.
 NSaved= 4 IEnMin= 4 EnMin=-0.793675834150008     IErMin= 4 ErrMin= 1.05D-03
 ErrMax= 1.05D-03  0.00D+00 EMaxC= 1.00D-01 BMatC= 2.01D-04 BMatP= 4.59D-03
 IDIUse=3 WtCom= 9.90D-01 WtEn= 1.05D-02
 Coeff-Com: -0.573D-01 0.249D+00-0.613D+00 0.142D+01
 Coeff-En:   0.000D+00 0.000D+00 0.000D+00 0.100D+01
 Coeff:     -0.567D-01 0.246D+00-0.607D+00 0.142D+01
 Gap=     0.403 Goal=   None    Shift=    0.000
 RMSDP=5.70D-04 MaxDP=1.02D-02 DE=-3.04D-02 OVMax= 6.77D-03

 Cycle   5  Pass 1  IDiag  3:
 E=-0.795089358283576     Delta-E=       -0.001413524134 Rises=F Damp=F
 DIIS: error= 2.08D-04 at cycle   5 NSaved=   5.
 NSaved= 5 IEnMin= 5 EnMin=-0.795089358283576     IErMin= 5 ErrMin= 2.08D-04
 ErrMax= 2.08D-04  0.00D+00 EMaxC= 1.00D-01 BMatC= 9.25D-06 BMatP= 2.01D-04
 IDIUse=3 WtCom= 9.98D-01 WtEn= 2.08D-03
 Coeff-Com:  0.109D-02-0.503D-02 0.600D-01-0.372D+00 0.132D+01
 Coeff-En:   0.000D+00 0.000D+00 0.000D+00 0.000D+00 0.100D+01
 Coeff:      0.109D-02-0.502D-02 0.599D-01-0.371D+00 0.132D+01
 Gap=     0.404 Goal=   None    Shift=    0.000
 RMSDP=9.76D-05 MaxDP=1.32D-03 DE=-1.41D-03 OVMax= 1.58D-03

 Cycle   6  Pass 1  IDiag  3:
 E=-0.795144272316520     Delta-E=       -0.000054914033 Rises=F Damp=F
 DIIS: error= 1.09D-04 at cycle   6 NSaved=   6.
 NSaved= 6 IEnMin= 6 EnMin=-0.795144272316520     IErMin= 6 ErrMin= 1.09D-04
 ErrMax= 1.09D-04  0.00D+00 EMaxC= 1.00D-01 BMatC= 6.94D-07 BMatP= 9.25D-06
 IDIUse=3 WtCom= 9.99D-01 WtEn= 1.09D-03
 Coeff-Com:  0.280D-02-0.120D-01 0.737D-02 0.851D-01-0.590D+00 0.151D+01
 Coeff-En:   0.000D+00 0.000D+00 0.000D+00 0.000D+00 0.000D+00 0.100D+01
 Coeff:      0.280D-02-0.120D-01 0.737D-02 0.850D-01-0.589D+00 0.151D+01
 Gap=     0.404 Goal=   None    Shift=    0.000
 RMSDP=3.05D-05 MaxDP=5.85D-04 DE=-5.49D-05 OVMax= 5.14D-04

 Cycle   7  Pass 1  IDiag  3:
 E=-0.795148821597422     Delta-E=       -0.000004549281 Rises=F Damp=F
 DIIS: error= 3.05D-05 at cycle   7 NSaved=   7.
 NSaved= 7 IEnMin= 7 EnMin=-0.795148821597422     IErMin= 7 ErrMin= 3.05D-05
 ErrMax= 3.05D-05  0.00D+00 EMaxC= 1.00D-01 BMatC= 4.15D-08 BMatP= 6.94D-07
 IDIUse=1 WtCom= 1.00D+00 WtEn= 0.00D+00
 Coeff-Com: -0.116D-02 0.522D-02-0.415D-02-0.303D-01 0.241D+00-0.777D+00
 Coeff-Com:  0.157D+01
 Coeff:     -0.116D-02 0.522D-02-0.415D-02-0.303D-01 0.241D+00-0.777D+00
 Coeff:      0.157D+01
 Gap=     0.404 Goal=   None    Shift=    0.000
 RMSDP=7.58D-06 MaxDP=2.03D-04 DE=-4.55D-06 OVMax= 1.14D-04

 Cycle   8  Pass 1  IDiag  3:
 E=-0.795149104654684     Delta-E=       -0.000000283057 Rises=F Damp=F
 DIIS: error= 5.88D-06 at cycle   8 NSaved=   8.
 NSaved= 8 IEnMin= 8 EnMin=-0.795149104654684     IErMin= 8 ErrMin= 5.88D-06
 ErrMax= 5.88D-06  0.00D+00 EMaxC= 1.00D-01 BMatC= 2.99D-09 BMatP= 4.15D-08
 IDIUse=1 WtCom= 1.00D+00 WtEn= 0.00D+00
 Coeff-Com:  0.294D-03-0.149D-02 0.109D-02 0.934D-02-0.765D-01 0.269D+00
 Coeff-Com: -0.748D+00 0.155D+01
 Coeff:      0.294D-03-0.149D-02 0.109D-02 0.934D-02-0.765D-01 0.269D+00
 Coeff:     -0.748D+00 0.155D+01
 Gap=     0.404 Goal=   None    Shift=    0.000
 RMSDP=2.16D-06 MaxDP=5.39D-05 DE=-2.83D-07 OVMax= 2.60D-05

 Cycle   9  Pass 1  IDiag  3:
 E=-0.795149126065553     Delta-E=       -0.000000021411 Rises=F Damp=F
 DIIS: error= 2.04D-06 at cycle   9 NSaved=   9.
 NSaved= 9 IEnMin= 9 EnMin=-0.795149126065553     IErMin= 9 ErrMin= 2.04D-06
 ErrMax= 2.04D-06  0.00D+00 EMaxC= 1.00D-01 BMatC= 2.45D-10 BMatP= 2.99D-09
 IDIUse=1 WtCom= 1.00D+00 WtEn= 0.00D+00
 Coeff-Com: -0.663D-04 0.404D-03-0.331D-03-0.203D-02 0.198D-01-0.764D-01
 Coeff-Com:  0.250D+00-0.742D+00 0.155D+01
 Coeff:     -0.663D-04 0.404D-03-0.331D-03-0.203D-02 0.198D-01-0.764D-01
 Coeff:      0.250D+00-0.742D+00 0.155D+01
 Gap=     0.404 Goal=   None    Shift=    0.000
 RMSDP=6.32D-07 MaxDP=1.80D-05 DE=-2.14D-08 OVMax= 7.42D-06

 Cycle  10  Pass 1  IDiag  3:
 E=-0.795149127841114     Delta-E=       -0.000000001776 Rises=F Damp=F
 DIIS: error= 6.91D-07 at cycle  10 NSaved=  10.
 NSaved=10 IEnMin=10 EnMin=-0.795149127841114     IErMin=10 ErrMin= 6.91D-07
 ErrMax= 6.91D-07  0.00D+00 EMaxC= 1.00D-01 BMatC= 2.44D-11 BMatP= 2.45D-10
 IDIUse=1 WtCom= 1.00D+00 WtEn= 0.00D+00
 Coeff-Com:  0.211D-04-0.133D-03 0.170D-03 0.228D-04-0.306D-02 0.141D-01
 Coeff-Com: -0.525D-01 0.199D+00-0.687D+00 0.153D+01
 Coeff:      0.211D-04-0.133D-03 0.170D-03 0.228D-04-0.306D-02 0.141D-01
 Coeff:     -0.525D-01 0.199D+00-0.687D+00 0.153D+01
 Gap=     0.404 Goal=   None    Shift=    0.000
 RMSDP=2.03D-07 MaxDP=5.35D-06 DE=-1.78D-09 OVMax= 2.23D-06

 Cycle  11  Pass 1  IDiag  3:
 E=-0.795149128005278     Delta-E=       -0.000000000164 Rises=F Damp=F
 DIIS: error= 1.99D-07 at cycle  11 NSaved=  11.
 NSaved=11 IEnMin=11 EnMin=-0.795149128005278     IErMin=11 ErrMin= 1.99D-07
 ErrMax= 1.99D-07  0.00D+00 EMaxC= 1.00D-01 BMatC= 2.24D-12 BMatP= 2.44D-11
 IDIUse=1 WtCom= 1.00D+00 WtEn= 0.00D+00
 Coeff-Com: -0.654D-05 0.397D-04-0.735D-04 0.234D-03-0.459D-03 0.322D-03
 Coeff-Com:  0.263D-02-0.275D-01 0.170D+00-0.660D+00 0.151D+01
 Coeff:     -0.654D-05 0.397D-04-0.735D-04 0.234D-03-0.459D-03 0.322D-03
 Coeff:      0.263D-02-0.275D-01 0.170D+00-0.660D+00 0.151D+01
 Gap=     0.404 Goal=   None    Shift=    0.000
 RMSDP=6.04D-08 MaxDP=1.51D-06 DE=-1.64D-10 OVMax= 6.76D-07

 Cycle  12  Pass 1  IDiag  3:
 E=-0.795149128032335     Delta-E=       -0.000000000027 Rises=F Damp=F
 DIIS: error= 4.67D-08 at cycle  12 NSaved=  12.
 NSaved=12 IEnMin=12 EnMin=-0.795149128032335     IErMin=12 ErrMin= 4.67D-08
 ErrMax= 4.67D-08  0.00D+00 EMaxC= 1.00D-01 BMatC= 1.95D-13 BMatP= 2.24D-12
 IDIUse=1 WtCom= 1.00D+00 WtEn= 0.00D+00
 Coeff-Com:  0.162D-05-0.991D-05 0.242D-04-0.123D-03 0.485D-03-0.128D-02
 Coeff-Com:  0.271D-02-0.211D-02-0.240D-01 0.177D+00-0.718D+00 0.156D+01
 Coeff:      0.162D-05-0.991D-05 0.242D-04-0.123D-03 0.485D-03-0.128D-02
 Coeff:      0.271D-02-0.211D-02-0.240D-01 0.177D+00-0.718D+00 0.156D+01
 Gap=     0.404 Goal=   None    Shift=    0.000
 RMSDP=1.81D-08 MaxDP=4.12D-07 DE=-2.71D-11 OVMax= 1.75D-07

 Cycle  13  Pass 1  IDiag  3:
 E=-0.795149128025287     Delta-E=        0.000000000007 Rises=F Damp=F
 DIIS: error= 1.32D-08 at cycle  13 NSaved=  13.
 NSaved=13 IEnMin=12 EnMin=-0.795149128032335     IErMin=13 ErrMin= 1.32D-08
 ErrMax= 1.32D-08  0.00D+00 EMaxC= 1.00D-01 BMatC= 1.47D-14 BMatP= 1.95D-13
 IDIUse=1 WtCom= 1.00D+00 WtEn= 0.00D+00
 Coeff-Com: -0.323D-06 0.224D-05-0.800D-05 0.559D-04-0.267D-03 0.789D-03
 Coeff-Com: -0.197D-02 0.383D-02-0.413D-03-0.485D-01 0.283D+00-0.853D+00
 Coeff-Com:  0.162D+01
 Coeff:     -0.323D-06 0.224D-05-0.800D-05 0.559D-04-0.267D-03 0.789D-03
 Coeff:     -0.197D-02 0.383D-02-0.413D-03-0.485D-01 0.283D+00-0.853D+00
 Coeff:      0.162D+01
 Gap=     0.404 Goal=   None    Shift=    0.000
 RMSDP=4.85D-09 MaxDP=1.07D-07 DE= 7.05D-12 OVMax= 5.79D-08

 Cycle  14  Pass 2  IDiag  1:
 SCF Done:  E(RPM6) = -0.795149128025     A.U. after   14 cycles
            NFock= 13  Conv=0.48D-08     -V/T= 0.9974
 KE=-3.045700419699D+02 PE=-2.401009886357D+03 EE= 1.305287662807D+03
 Leave Link  502 at Tue Jun 22 14:21:51 2021, MaxMem=  2147483648 cpu:               0.5 elap:               0.0
 (Enter /home/matma/Programs/gaussian/G16_x86_SSE4/tar/g16/l601.exe)
 Copying SCF densities to generalized density rwf, IOpCl= 0 IROHF=0.

 **********************************************************************

            Population analysis using the SCF Density.

 **********************************************************************

 Orbital symmetries:
       Occupied  (A) (A) (A) (A) (A) (A) (A) (A) (A) (A) (A) (A)
                 (A) (A) (A) (A) (A) (A) (A) (A) (A) (A) (A) (A)
                 (A) (A) (A) (A) (A) (A) (A) (A) (A) (A) (A) (A)
                 (A) (A) (A) (A) (A) (A) (A) (A) (A) (A) (A) (A)
                 (A) (A) (A) (A) (A) (A) (A) (A) (A) (A) (A) (A)
                 (A) (A) (A) (A) (A) (A) (A) (A)
       Virtual   (A) (A) (A) (A) (A) (A) (A) (A) (A) (A) (A) (A)
                 (A) (A) (A) (A) (A) (A) (A) (A) (A) (A) (A) (A)
                 (A) (A) (A) (A) (A) (A) (A) (A) (A) (A) (A) (A)
                 (A) (A) (A) (A) (A) (A) (A) (A) (A) (A)
 The electronic state is 1-A.
 Alpha  occ. eigenvalues --   -1.17717  -1.16424  -1.14653  -1.14098  -1.12754
 Alpha  occ. eigenvalues --   -1.11657  -1.10706  -1.10301  -1.09333  -1.09112
 Alpha  occ. eigenvalues --   -1.07235  -1.02917  -1.00704  -0.99587  -0.98613
 Alpha  occ. eigenvalues --   -0.92579  -0.91702  -0.88556  -0.85335  -0.83596
 Alpha  occ. eigenvalues --   -0.82397  -0.77258  -0.75521  -0.74068  -0.72165
 Alpha  occ. eigenvalues --   -0.70962  -0.69992  -0.68717  -0.68205  -0.66610
 Alpha  occ. eigenvalues --   -0.64990  -0.64823  -0.64290  -0.63166  -0.62291
 Alpha  occ. eigenvalues --   -0.61624  -0.60848  -0.60246  -0.59577  -0.58675
 Alpha  occ. eigenvalues --   -0.56617  -0.56313  -0.55502  -0.55145  -0.54114
 Alpha  occ. eigenvalues --   -0.53110  -0.51887  -0.51373  -0.50265  -0.50154
 Alpha  occ. eigenvalues --   -0.49536  -0.49021  -0.48749  -0.48284  -0.47217
 Alpha  occ. eigenvalues --   -0.47012  -0.45853  -0.45246  -0.43379  -0.42809
 Alpha  occ. eigenvalues --   -0.42468  -0.41607  -0.41478  -0.40764  -0.40441
 Alpha  occ. eigenvalues --   -0.39555  -0.39350  -0.38980
 Alpha virt. eigenvalues --    0.00925   0.02268   0.02977   0.04305   0.05147
 Alpha virt. eigenvalues --    0.05495   0.06111   0.07057   0.07238   0.07269
 Alpha virt. eigenvalues --    0.08048   0.08311   0.08586   0.08887   0.09506
 Alpha virt. eigenvalues --    0.09672   0.09902   0.10295   0.10771   0.11093
 Alpha virt. eigenvalues --    0.11426   0.11903   0.12686   0.13610   0.14491
 Alpha virt. eigenvalues --    0.15539   0.16167   0.16311   0.16543   0.16650
 Alpha virt. eigenvalues --    0.16846   0.17224   0.17377   0.17635   0.17771
 Alpha virt. eigenvalues --    0.17940   0.18140   0.18572   0.18956   0.19033
 Alpha virt. eigenvalues --    0.19112   0.19283   0.19447   0.20199   0.21131
 Alpha virt. eigenvalues --    0.21365
          Condensed to atoms (all electrons):
               1          2          3          4          5          6
     1  O    6.559976   0.000000   0.000000   0.000000   0.000000   0.000000
     2  C    0.000000   3.927498   0.000000   0.000000   0.000000   0.000000
     3  C    0.000000   0.000000   3.916709   0.000000   0.000000   0.000000
     4  O    0.000000   0.000000   0.000000   6.559549   0.000000   0.000000
     5  C    0.000000   0.000000   0.000000   0.000000   4.012761   0.000000
     6  C    0.000000   0.000000   0.000000   0.000000   0.000000   3.681423
     7  O    0.000000   0.000000   0.000000   0.000000   0.000000   0.000000
     8  C    0.000000   0.000000   0.000000   0.000000   0.000000   0.000000
     9  C    0.000000   0.000000   0.000000   0.000000   0.000000   0.000000
    10  O    0.000000   0.000000   0.000000   0.000000   0.000000   0.000000
    11  O    0.000000   0.000000   0.000000   0.000000   0.000000   0.000000
    12  C    0.000000   0.000000   0.000000   0.000000   0.000000   0.000000
    13  C    0.000000   0.000000   0.000000   0.000000   0.000000   0.000000
    14  C    0.000000   0.000000   0.000000   0.000000   0.000000   0.000000
    15  C    0.000000   0.000000   0.000000   0.000000   0.000000   0.000000
    16  O    0.000000   0.000000   0.000000   0.000000   0.000000   0.000000
    17  C    0.000000   0.000000   0.000000   0.000000   0.000000   0.000000
    18  C    0.000000   0.000000   0.000000   0.000000   0.000000   0.000000
    19  O    0.000000   0.000000   0.000000   0.000000   0.000000   0.000000
    20  O    0.000000   0.000000   0.000000   0.000000   0.000000   0.000000
    21  O    0.000000   0.000000   0.000000   0.000000   0.000000   0.000000
    22  O    0.000000   0.000000   0.000000   0.000000   0.000000   0.000000
    23  O    0.000000   0.000000   0.000000   0.000000   0.000000   0.000000
    24  H    0.000000   0.000000   0.000000   0.000000   0.000000   0.000000
    25  H    0.000000   0.000000   0.000000   0.000000   0.000000   0.000000
    26  H    0.000000   0.000000   0.000000   0.000000   0.000000   0.000000
    27  H    0.000000   0.000000   0.000000   0.000000   0.000000   0.000000
    28  H    0.000000   0.000000   0.000000   0.000000   0.000000   0.000000
    29  H    0.000000   0.000000   0.000000   0.000000   0.000000   0.000000
    30  H    0.000000   0.000000   0.000000   0.000000   0.000000   0.000000
    31  H    0.000000   0.000000   0.000000   0.000000   0.000000   0.000000
    32  H    0.000000   0.000000   0.000000   0.000000   0.000000   0.000000
    33  H    0.000000   0.000000   0.000000   0.000000   0.000000   0.000000
    34  H    0.000000   0.000000   0.000000   0.000000   0.000000   0.000000
    35  H    0.000000   0.000000   0.000000   0.000000   0.000000   0.000000
    36  H    0.000000   0.000000   0.000000   0.000000   0.000000   0.000000
    37  H    0.000000   0.000000   0.000000   0.000000   0.000000   0.000000
    38  H    0.000000   0.000000   0.000000   0.000000   0.000000   0.000000
    39  H    0.000000   0.000000   0.000000   0.000000   0.000000   0.000000
    40  H    0.000000   0.000000   0.000000   0.000000   0.000000   0.000000
    41  H    0.000000   0.000000   0.000000   0.000000   0.000000   0.000000
    42  H    0.000000   0.000000   0.000000   0.000000   0.000000   0.000000
    43  H    0.000000   0.000000   0.000000   0.000000   0.000000   0.000000
    44  H    0.000000   0.000000   0.000000   0.000000   0.000000   0.000000
    45  H    0.000000   0.000000   0.000000   0.000000   0.000000   0.000000
               7          8          9         10         11         12
     1  O    0.000000   0.000000   0.000000   0.000000   0.000000   0.000000
     2  C    0.000000   0.000000   0.000000   0.000000   0.000000   0.000000
     3  C    0.000000   0.000000   0.000000   0.000000   0.000000   0.000000
     4  O    0.000000   0.000000   0.000000   0.000000   0.000000   0.000000
     5  C    0.000000   0.000000   0.000000   0.000000   0.000000   0.000000
     6  C    0.000000   0.000000   0.000000   0.000000   0.000000   0.000000
     7  O    6.468929   0.000000   0.000000   0.000000   0.000000   0.000000
     8  C    0.000000   3.933422   0.000000   0.000000   0.000000   0.000000
     9  C    0.000000   0.000000   4.044364   0.000000   0.000000   0.000000
    10  O    0.000000   0.000000   0.000000   6.558132   0.000000   0.000000
    11  O    0.000000   0.000000   0.000000   0.000000   6.561463   0.000000
    12  C    0.000000   0.000000   0.000000   0.000000   0.000000   3.924313
    13  C    0.000000   0.000000   0.000000   0.000000   0.000000   0.000000
    14  C    0.000000   0.000000   0.000000   0.000000   0.000000   0.000000
    15  C    0.000000   0.000000   0.000000   0.000000   0.000000   0.000000
    16  O    0.000000   0.000000   0.000000   0.000000   0.000000   0.000000
    17  C    0.000000   0.000000   0.000000   0.000000   0.000000   0.000000
    18  C    0.000000   0.000000   0.000000   0.000000   0.000000   0.000000
    19  O    0.000000   0.000000   0.000000   0.000000   0.000000   0.000000
    20  O    0.000000   0.000000   0.000000   0.000000   0.000000   0.000000
    21  O    0.000000   0.000000   0.000000   0.000000   0.000000   0.000000
    22  O    0.000000   0.000000   0.000000   0.000000   0.000000   0.000000
    23  O    0.000000   0.000000   0.000000   0.000000   0.000000   0.000000
    24  H    0.000000   0.000000   0.000000   0.000000   0.000000   0.000000
    25  H    0.000000   0.000000   0.000000   0.000000   0.000000   0.000000
    26  H    0.000000   0.000000   0.000000   0.000000   0.000000   0.000000
    27  H    0.000000   0.000000   0.000000   0.000000   0.000000   0.000000
    28  H    0.000000   0.000000   0.000000   0.000000   0.000000   0.000000
    29  H    0.000000   0.000000   0.000000   0.000000   0.000000   0.000000
    30  H    0.000000   0.000000   0.000000   0.000000   0.000000   0.000000
    31  H    0.000000   0.000000   0.000000   0.000000   0.000000   0.000000
    32  H    0.000000   0.000000   0.000000   0.000000   0.000000   0.000000
    33  H    0.000000   0.000000   0.000000   0.000000   0.000000   0.000000
    34  H    0.000000   0.000000   0.000000   0.000000   0.000000   0.000000
    35  H    0.000000   0.000000   0.000000   0.000000   0.000000   0.000000
    36  H    0.000000   0.000000   0.000000   0.000000   0.000000   0.000000
    37  H    0.000000   0.000000   0.000000   0.000000   0.000000   0.000000
    38  H    0.000000   0.000000   0.000000   0.000000   0.000000   0.000000
    39  H    0.000000   0.000000   0.000000   0.000000   0.000000   0.000000
    40  H    0.000000   0.000000   0.000000   0.000000   0.000000   0.000000
    41  H    0.000000   0.000000   0.000000   0.000000   0.000000   0.000000
    42  H    0.000000   0.000000   0.000000   0.000000   0.000000   0.000000
    43  H    0.000000   0.000000   0.000000   0.000000   0.000000   0.000000
    44  H    0.000000   0.000000   0.000000   0.000000   0.000000   0.000000
    45  H    0.000000   0.000000   0.000000   0.000000   0.000000   0.000000
              13         14         15         16         17         18
     1  O    0.000000   0.000000   0.000000   0.000000   0.000000   0.000000
     2  C    0.000000   0.000000   0.000000   0.000000   0.000000   0.000000
     3  C    0.000000   0.000000   0.000000   0.000000   0.000000   0.000000
     4  O    0.000000   0.000000   0.000000   0.000000   0.000000   0.000000
     5  C    0.000000   0.000000   0.000000   0.000000   0.000000   0.000000
     6  C    0.000000   0.000000   0.000000   0.000000   0.000000   0.000000
     7  O    0.000000   0.000000   0.000000   0.000000   0.000000   0.000000
     8  C    0.000000   0.000000   0.000000   0.000000   0.000000   0.000000
     9  C    0.000000   0.000000   0.000000   0.000000   0.000000   0.000000
    10  O    0.000000   0.000000   0.000000   0.000000   0.000000   0.000000
    11  O    0.000000   0.000000   0.000000   0.000000   0.000000   0.000000
    12  C    0.000000   0.000000   0.000000   0.000000   0.000000   0.000000
    13  C    3.912645   0.000000   0.000000   0.000000   0.000000   0.000000
[...]
 898746,-0.00196456,-0.04082404,-0.00444550,-0.00083329,0.00051726,0.00
 035542,-0.00006879,-0.00008159,-0.00014095,0.00036738,-0.00065866,-0.0
 0088966,-0.00014704,-0.00094127,-0.00553093,0.00232609,0.00085070,0.00
 051997,0.00009333,0.00004952,-0.00045333,-0.00033251,0.00028277,0.0003
 1606,-0.00032948,0.00017508,0.00069259,0.00019408,-0.00028267,0.000696
 99,0.00018723,-0.00132954,0.00011494,-0.00000868,0.00006733,-0.0000183
 3,-0.00000981,0.00002959,-0.00001554,-0.00002616,-0.00000539,-0.000060
 10,0.00000402,-0.00001335,-0.00004782,-0.00000168,0.00002819,0.0000483
 1,-0.00004778,-0.00007788,0.00000654,-0.00004869,0.00002962,0.00002128
 ,0.00002175,0.00006929,-0.00002258,-0.00000008,0.00007147,-0.00005053,
 -0.00011339,0.00016798,0.00040208,0.00151652,-0.00024754,-0.00039968,-
 0.00065119,0.00008151,0.00000785,0.00010510,0.00010299,-0.00000888,-0.
 00007418,0.00003877,0.00009766,-0.00001327,0.00026127,-0.00008267,0.00
 004059,-0.00004857,-0.00004751,-0.00002594,-0.00010385,0.00088912,0.00
 087154,-0.00056402,-0.00013363,-0.00052304,0.00104780,0.10804610,0.000
 01920,-0.00011023,-0.00001337,0.00002206,0.00006432,0.00000347,-0.0000
 5496,0.00003335,0.00001246,0.00006584,-0.00006169,0.00001197,-0.000007
 98,0.00001303,-0.00006200,-0.00023595,-0.00006452,0.00020470,0.0000764
 6,-0.00002538,-0.00015688,-0.00001150,0.00005865,0.00005846,-0.0001240
 4,0.00006836,0.00002963,0.00015745,-0.00020566,-0.00021403,-0.00599406
 ,-0.01089232,-0.03371938,0.00855249,-0.00070724,0.01304602,-0.00190714
 ,0.00075207,0.00024832,0.00019023,-0.00040067,0.00007454,-0.00016500,0
 .00020721,-0.00025198,0.00049154,-0.00005961,0.00067163,0.00183796,-0.
 00079656,-0.00113382,0.00054027,0.00036186,0.00006017,-0.00062329,-0.0
 0059972,-0.00057906,0.00009680,-0.00025655,0.00010498,0.00019250,0.000
 00389,-0.00006830,0.00041228,-0.00127358,-0.00025578,0.00005712,-0.000
 03092,0.00004516,-0.00000729,-0.00000741,0.00001111,-0.00000527,-0.000
 00529,-0.00000338,-0.00002156,0.00001163,-0.00001384,-0.00000813,0.000
 02284,0.00000909,0.00000687,-0.00000265,-0.00002363,-0.00000670,-0.000
 01104,0.00000493,0.00001739,0.00002268,0.00002300,0.00002137,0.0000385
 2,0.00000296,-0.00010281,0.00004752,0.00012725,0.00259498,-0.00002618,
 0.00047773,-0.00064999,-0.00015070,0.00006807,0.00005835,0.00009737,0.
 00006778,-0.00002309,-0.00001912,0.00001424,-0.00004500,0.00003986,-0.
 00018402,-0.00001364,-0.00003970,0.00002634,-0.00003952,-0.00005737,0.
 00004109,0.00036796,0.00082830,0.00073233,-0.00045418,0.00016849,0.000
 15106,-0.00528606,0.01277036,-0.00004177,-0.00002091,-0.00009681,0.000
 02518,0.00001196,0.00001773,-0.00004752,0.00003241,0.00004576,0.000042
 45,-0.00001728,-0.00007070,0.00004797,0.00003698,0.00000601,-0.0003427
 2,-0.00004691,0.00064118,-0.00010651,0.00000222,-0.00044982,0.00000307
 ,0.00016903,0.00011054,0.00015321,-0.00018524,-0.00014777,-0.00056019,
 -0.00007980,0.00014104,-0.07963186,-0.02274107,-0.17162007,-0.01184079
 ,0.00253336,-0.00108294,0.00333566,-0.00017573,0.00340986,-0.00049249,
 -0.00017286,-0.00046296,-0.00117985,-0.00035171,0.00078452,0.00217550,
 0.00037081,0.00024902,-0.00022246,-0.00056580,-0.00144123,0.00033841,0
 .00009988,-0.00021017,-0.00019004,-0.00028939,0.00069150,0.00050826,-0
 .00016833,-0.00021414,0.00063722,0.00044268,-0.00059674,-0.00367650,0.
 00031410,-0.00130335,0.00004868,0.00004119,-0.00014965,-0.00001116,-0.
 00000255,0.00000817,-0.00000233,-0.00001127,-0.00000766,-0.00003035,-0
 .00000506,0.00003480,-0.00004311,-0.00002624,0.00005706,0.00005139,-0.
 00001208,-0.00005025,0.00000905,-0.00003736,-0.00000177,0.00003477,0.0
 0002910,0.00002074,0.00002795,-0.00000359,0.00007110,0.00020911,0.0000
 5810,0.00015561,0.00144635,0.00088335,0.00073020,0.00017870,-0.0002341
 4,-0.00003886,-0.00003759,0.00005288,0.00013741,-0.00002250,-0.0000849
 2,-0.00008020,0.00013402,-0.00028688,-0.00007913,-0.00009089,0.0001078
 8,-0.00006378,-0.00003041,-0.00009017,-0.00008565,0.00012608,0.0001688
 0,-0.00137833,0.00083147,-0.00017653,-0.00025101,0.08847939,0.02039911
 ,0.17239354,-0.00017763,-0.00028089,-0.00014923,0.00054412,0.00017440,
 -0.00041829,-0.00233781,-0.00103818,-0.00191256,-0.00020148,0.00041532
 ,-0.00029548,0.00622892,0.01338898,-0.02450318,-0.00004628,-0.00026487
 ,-0.00468331,-0.00073823,0.00077857,0.00039764,0.00021009,-0.00017995,
 0.00002149,0.00020179,-0.00011587,-0.00004604,-0.00034311,0.00000799,0
 .00030109,0.00029725,-0.00002426,0.00017830,-0.00021089,0.00002803,-0.
 00003231,-0.00039731,-0.00023821,-0.00024120,0.00053356,0.00091465,-0.
 00046217,-0.00475305,0.00130109,0.00024393,0.00197985,0.00023705,-0.00
 036170,-0.00085351,0.00021118,-0.00035805,-0.00007736,-0.00019228,-0.0
 0001814,0.00033346,0.00009413,0.00000112,-0.00321349,-0.00132794,0.000
 28859,-0.00137005,-0.00085990,0.00156120,0.00017445,-0.00003758,0.0006
 9260,-0.04887320,-0.04843429,0.05546041,-0.00018215,-0.00003315,-0.000
 08737,-0.00023958,-0.00013588,0.00015789,-0.00012573,-0.00017687,0.000
 70754,0.00068629,0.00020820,-0.00136098,-0.00019170,-0.00006786,-0.000
 22946,0.00000599,-0.00001234,0.00006456,0.00001978,0.00000637,0.000008
 96,0.00004582,0.00004974,-0.00005704,0.00008434,0.00002489,-0.00014534
 ,-0.00001908,-0.00006707,-0.00001923,0.00004436,0.00007879,-0.00002086
 ,0.00005482,-0.00017101,-0.00020812,-0.00015288,0.00024822,0.00045743,
 0.00004690,0.00005208,0.00003736,0.00000092,-0.00003897,0.00005480,-0.
 00000202,0.00004576,0.00003161,-0.00011539,0.00003648,0.00000389,0.000
 16662,0.00025636,-0.00035879,-0.00006686,-0.00002155,-0.00012517,0.051
 20465,-0.00002066,-0.00084547,0.00004970,0.00095584,0.00053910,-0.0004
 9641,-0.00305164,0.00093514,-0.00323462,0.00067142,-0.00099065,0.00102
 514,0.00462320,0.00105041,-0.00136667,0.00274351,-0.00090395,0.0008901
 5,-0.00049317,-0.00025806,-0.00035665,0.00019805,0.00028156,0.00009329
 ,0.00014034,-0.00013128,-0.00009150,-0.00031994,-0.00008067,0.00014816
 ,0.00006517,-0.00007235,0.00014490,-0.00006174,0.00002486,-0.00011341,
 -0.00015543,-0.00015751,0.00000847,0.00073134,0.00064348,-0.00034384,-
 0.00219137,0.00327387,-0.00063803,0.00125147,-0.00045111,0.00005522,-0
 .00046808,-0.00000044,-0.00026146,0.00003291,-0.00008994,0.00000064,0.
 00014627,-0.00000336,0.00001623,0.00124678,-0.00379398,0.00028092,-0.0
 0128051,-0.00102738,0.00042792,0.00001684,-0.00012152,0.00034150,-0.04
 083658,-0.05321429,0.08002144,-0.00025064,-0.00005923,-0.00009194,-0.0
 0019760,-0.00023077,0.00001247,-0.00004249,0.00058282,-0.00087028,-0.0
 0051925,0.00166706,-0.00243921,0.00007334,-0.00026194,0.00029529,0.000
 00924,-0.00012180,0.00000635,0.00001664,0.00003303,0.00004721,0.000022
 19,0.00009303,-0.00003855,0.00016561,0.00006646,-0.00000602,-0.0000270
 9,0.00001231,0.00000074,0.00002855,0.00005095,-0.00001275,0.00001533,0
 .00004732,-0.00010266,0.00069085,0.00023729,0.00017005,0.00007675,0.00
 006221,0.00002368,-0.00003697,0.00002280,0.00002459,-0.00000713,0.0000
 2377,0.00001688,-0.00005599,0.00003965,-0.00002619,0.00016345,0.000199
 94,-0.00023520,0.00000046,0.00002149,-0.00007023,0.03571021,0.05250512
 ,0.00011837,0.00043110,0.00044373,0.00013921,-0.00028975,-0.00051340,-
 0.00139513,-0.00135189,-0.00412613,-0.00089072,0.00073016,0.00064863,0
 .00017494,0.01617965,-0.04877095,-0.00310803,0.00113862,0.00013443,0.0
 0083230,-0.00063284,0.00069656,-0.00017894,-0.00020872,-0.00017057,-0.
 00020729,0.00019097,0.00018169,0.00047115,-0.00000261,-0.00020054,0.00
 000771,0.00004663,-0.00022075,-0.00002522,-0.00005470,0.00014567,0.000
 14819,0.00012532,-0.00004389,-0.00063163,-0.00112525,0.00032421,0.0025
 5762,-0.00169227,0.00123002,-0.00128864,-0.00004667,-0.00035921,0.0006
 5190,-0.00003433,0.00023682,0.00002841,0.00011486,0.00001033,-0.000208
 97,-0.00002245,-0.00010955,-0.00423832,-0.00111631,-0.00077303,0.00221
 389,0.00062219,-0.00141667,0.00007433,0.00011334,-0.00047644,0.0300749
 2,0.06162858,-0.13344207,0.00005184,0.00003932,-0.00014022,-0.00006697
 ,0.00022825,0.00018777,0.00085954,-0.00034686,-0.00029448,-0.00019679,
 -0.00167389,0.00128970,0.00028175,0.00028787,0.00023184,0.00000049,0.0
 0012711,-0.00006825,-0.00002819,-0.00004186,-0.00007861,-0.00006250,-0
 .00006397,-0.00000982,-0.00025629,-0.00001909,-0.00000086,0.00000865,0
 .00002051,0.00000502,-0.00000997,-0.00001570,0.00004429,-0.00028872,0.
 00016123,0.00005619,0.00011628,0.00003601,0.00000068,-0.00005505,-0.00
 001398,0.00000307,0.00005295,0.00000102,0.00000183,0.00001919,-0.00001
 497,-0.00000203,0.00006010,-0.00005448,0.00006959,-0.00027196,-0.00023
 899,0.00029838,-0.00001604,-0.00001754,0.00009106,-0.02509082,-0.07322
 501,0.18511679,-0.00006322,0.00000876,-0.00002057,-0.00001130,0.000013
 21,0.00001092,0.00010179,-0.00013680,0.00000512,-0.00011003,0.00016682
 ,-0.00017201,-0.00006094,-0.00004884,-0.00001680,-0.00007616,-0.000011
 39,0.00005814,-0.00003548,-0.00001135,-0.00004013,0.00001966,0.0000096
 2,0.00001150,0.00001643,-0.00001890,-0.00000076,-0.00006934,-0.0000595
 3,0.00003955,0.00012620,-0.00020943,0.00030315,0.00007287,0.00016154,-
 0.00030933,0.00028385,0.00016561,-0.00015298,-0.00313072,0.00199408,-0
 .00010790,0.00518765,0.03939213,-0.01475671,-0.00077720,-0.00213633,0.
 00095772,-0.00119953,-0.00012575,0.00024363,0.00003497,-0.00017039,-0.
 00001410,0.00033436,-0.00005672,-0.00004676,-0.04568115,-0.04760238,0.
 02918642,0.00002589,-0.00020803,-0.00030126,-0.00015743,-0.00026984,-0
 .00010683,-0.00035585,-0.00002705,0.00043918,0.00000035,-0.00000289,0.
 00000051,-0.00000608,0.00000525,0.00001187,0.00000500,-0.00009733,0.00
 015923,0.00010197,-0.00008389,-0.00003482,-0.00000500,0.00001656,0.000
 00388,-0.00000204,-0.00000287,-0.00000277,0.00000527,0.00000417,-0.000
 00330,0.00001176,0.00003151,-0.00002654,0.00002672,0.00003243,0.000016
 64,-0.00014656,0.00013249,-0.00003867,-0.00006266,-0.00000830,0.000071
 78,0.00004512,0.00034352,0.00000230,-0.00362356,0.00243015,-0.00004420
 ,0.00026181,0.00007105,-0.00003165,-0.00020039,0.00007810,0.00020127,0
 .00000229,0.00002115,0.00007874,-0.00013587,0.00009030,-0.00002808,0.0
 0001673,0.00007163,-0.00006426,0.00001264,0.00004562,-0.00012368,0.001
 78030,0.00041466,-0.00043809,0.04738399,0.00009212,-0.00048717,0.00000
 316,0.00013357,0.00027180,0.00002495,-0.00034418,0.00033818,0.00006747
 ,0.00033234,-0.00045490,0.00013129,0.00005500,0.00004440,-0.00010261,-
 0.00096589,-0.00038038,0.00132449,0.00005963,-0.00004372,-0.00087343,-
 0.00004824,0.00035198,0.00019634,-0.00010791,-0.00002748,-0.00007652,0
 .00004770,-0.00005276,-0.00028425,-0.00047995,-0.00019998,-0.00008748,
 0.00037604,0.00001294,-0.00008382,0.00078656,0.00019931,0.00015602,-0.
 00157390,-0.00086563,0.00108957,0.01362447,-0.04291473,0.01056072,0.00
 127388,-0.00219060,-0.00245961,0.00110912,-0.00080860,0.00100392,0.000
 19809,0.00026992,0.00003491,-0.00035696,-0.00039268,0.00002220,-0.0205
 9692,-0.15839903,0.06155611,0.00086775,0.00094394,-0.00094874,-0.00053
 279,-0.00025118,-0.00083438,0.00034718,-0.00023898,-0.00022874,-0.0000
 4057,-0.00002799,0.00002880,-0.00000009,-0.00004046,-0.00004104,-0.000
 09383,0.00016452,-0.00011059,-0.00023164,0.00015549,0.00042966,0.00002
 627,-0.00007454,-0.00007126,0.00000382,-0.00008371,0.00000243,0.000007
 92,0.00004879,0.00005934,-0.00000007,0.00007530,0.00007366,0.00008759,
 -0.00002628,0.00023367,-0.00009828,0.00037370,0.00003537,-0.00005367,-
 0.00013081,0.00001855,-0.00005473,0.00058101,0.00033115,0.00157158,-0.
 00242431,-0.00050952,-0.00009573,-0.00010165,-0.00005648,-0.00034611,0
 .00035288,0.00000893,-0.00002629,-0.00008119,0.00001696,0.00007816,0.0
 0005056,-0.00009327,0.00000327,-0.00015306,0.00026187,0.00011840,0.000
 12833,0.00010196,-0.00067473,0.00006980,0.00032608,0.00560912,0.206182
 35,-0.00005191,-0.00011907,0.00028036,-0.00000640,0.00010308,-0.000013
 39,0.00014247,-0.00009329,-0.00013614,-0.00030827,-0.00002625,0.000096
 54,0.00019479,-0.00005816,0.00013410,0.00016326,0.00007631,-0.00048004
 ,0.00002301,-0.00008761,0.00028598,0.00001212,-0.00009908,0.00000090,-
 0.00005049,0.00004137,0.00009899,0.00009080,-0.00010984,0.00003571,0.0
 0029111,0.00001767,-0.00025438,-0.00045769,0.,0.00023226,-0.00037245,-
 0.00009522,-0.00046762,-0.00160211,0.00108094,-0.00101981,-0.00331339,
 -0.00013155,0.00071916,-0.00095662,0.00013171,-0.00093890,0.00074906,0
 .00064066,-0.00068391,0.00007993,0.00010410,0.00001454,-0.00015575,0.0
 0011393,-0.00026607,0.01710966,0.07094388,-0.02839282,-0.00024490,-0.0
 0056584,0.00035315,0.00027093,-0.00001874,0.00013369,-0.00032746,-0.00
 016734,-0.00039260,0.00003189,-0.00000090,-0.00003700,0.00002247,0.000
 06428,0.00001400,0.00021614,0.00005162,0.00001552,0.00028378,0.0006021
 8,-0.00029641,0.00002100,0.00007707,0.00005992,-0.00000286,0.00005121,
 -0.00003280,-0.00001398,-0.00001374,-0.00005020,-0.00002253,0.00006887
 ,-0.00009460,-0.00005430,0.00005111,-0.00004995,-0.00007583,0.00003433
 ,0.00004576,0.00004441,0.00004489,0.00001702,-0.00045652,0.00049850,-0
 .00038430,0.00316126,-0.00189165,-0.00000753,-0.00020931,-0.00002492,0
 .00004569,0.00036342,-0.00012821,0.00002909,0.00005794,0.00000613,-0.0
 0003431,0.00003689,-0.00010246,0.00014290,-0.00009496,0.00005096,-0.00
 007120,-0.00007735,-0.00003342,0.00002711,0.00038548,0.00006683,0.0000
 4597,-0.01496786,-0.07116098,0.03146590,-0.12896331,0.09244135,-0.0355
 8763,0.01178345,-0.00418346,0.00447482,0.00270869,-0.00493208,-0.00014
 869,-0.00206016,0.00164306,0.00091325,-0.00009612,0.00017138,0.0006541
 6,-0.00032822,-0.00043189,0.00110630,0.00045121,-0.00056396,-0.0012081
 1,-0.00210826,-0.00214875,0.00082226,-0.00072754,0.00015464,0.00004044
 ,0.00042782,-0.00008110,-0.00021152,0.00011659,0.00000962,-0.00003585,
 -0.00009817,-0.00000427,0.00003392,-0.00000865,0.00004412,0.00005530,-
 0.00001248,-0.00020785,0.00000107,0.00012824,-0.00018820,0.00022887,0.
 00001541,0.00003993,-0.00014367,0.00001015,0.00002576,0.00001932,-0.00
 004417,-0.00002352,-0.00000397,0.00004472,0.00002779,-0.00004387,-0.00
 020803,0.00019214,-0.00014922,0.00021937,0.00023611,-0.00032806,0.0001
 4772,0.00001705,-0.00020873,-0.00048066,0.00033610,-0.00049425,-0.0001
 8054,-0.00260876,-0.00082086,-0.00033669,0.00054864,-0.00018892,0.0005
 7443,0.00114409,-0.00005250,0.00016178,0.00014603,0.00026108,0.0000272
 2,0.00015095,-0.00006637,0.00033751,-0.00000185,-0.00020617,-0.0000253
 9,-0.00005176,-0.00008923,-0.00009069,0.00011379,-0.00002437,-0.000112
 13,0.00007683,0.00010002,-0.00000228,-0.00001102,0.00000402,-0.0000106
 1,0.00001490,0.00001359,-0.00006124,0.00008402,0.00014133,-0.00001240,
 0.00003064,-0.00001514,-0.00000756,0.00000753,0.00000651,0.00001227,-0
 .00001363,0.00001305,0.00000320,0.00000821,0.00001035,-0.00002291,-0.0
 0001050,0.00003639,-0.00019006,-0.00008513,0.00016483,-0.00003932,-0.0
 0001562,0.00000572,0.00004496,-0.00019411,0.00000987,0.00005344,-0.000
 08628,0.00007041,0.11896023,0.05922540,-0.09782018,0.02089625,0.027016
 65,-0.05020527,0.00806159,-0.00141187,-0.00238802,-0.00299908,-0.00238
 043,-0.00390486,-0.00135239,-0.00003000,-0.00028049,-0.00063943,0.0007
 2821,0.00002143,-0.00054325,0.00014040,-0.00007158,0.00062077,-0.00141
 560,-0.00547722,-0.00025900,0.00038780,-0.00037092,-0.00038607,-0.0007
 1093,0.00026576,0.00041676,-0.00012935,-0.00005552,0.00003425,0.000092
 74,0.00000538,-0.00005671,0.00003560,-0.00005452,0.00002968,0.00007894
 ,0.00031099,-0.00015104,-0.00000574,0.00024500,-0.00025464,-0.00011873
 ,-0.00012506,0.00015175,0.00002671,-0.00004378,0.00000476,0.00007494,0
 .00003584,0.00000982,-0.00006302,-0.00005536,0.00001188,0.00002678,-0.
 00044191,0.00015475,-0.00062848,-0.00026591,0.00044049,-0.00013676,-0.
 00016161,0.00017854,0.00008534,-0.00024567,0.00088962,-0.00053726,-0.0
 0049513,0.00140487,0.00024421,-0.00039446,0.00054328,-0.00016122,0.000
 81462,-0.00050958,0.00014776,0.00030222,-0.00033399,-0.00007629,-0.000
 10339,0.00001059,0.00036420,-0.00031041,0.00017422,0.00014491,0.000058
 02,0.00013813,0.00028659,0.00009558,-0.00008287,0.00004783,-0.00007955
 ,-0.00015239,-0.00001111,0.00006413,0.00002167,0.00000633,-0.00000679,
 -0.00002177,0.00005226,0.00008232,-0.00005801,0.00002498,-0.00001067,0
 .00000920,0.00000550,0.00000176,-0.00000767,-0.00001731,0.00002701,-0.
 00000532,-0.00000499,-0.00000887,-0.00000551,0.00002103,0.00001805,-0.
 00002752,0.00024425,0.00020194,-0.00024747,0.00004605,0.00004425,0.000
 00111,0.00012497,0.00033232,-0.00024432,-0.00002155,0.00023681,0.00000
 638,-0.08182076,0.16021399,-0.03350973,0.02698775,-0.01090880,0.001355
 93,0.00268352,-0.00260189,0.00022990,-0.00494239,0.00056862,0.00053593
 ,0.00137880,-0.00069847,-0.00007192,0.00012511,-0.00034957,0.00037546,
 -0.00070711,0.00118185,-0.00004323,-0.00032322,-0.00147370,-0.00010075
 ,-0.00098435,0.00102586,-0.00028905,-0.00006870,-0.00008382,0.00030593
 ,-0.00016218,-0.00037860,-0.00014539,0.00002388,-0.00005864,0.00008953
 ,-0.00000280,-0.00002190,0.00019311,0.00008738,0.00021417,-0.00015276,
 -0.00006892,0.00009076,0.00048389,-0.00020802,-0.00017681,-0.00031332,
 -0.00000070,0.00013006,0.00017170,-0.00003989,0.00003050,0.00002387,0.
 00005001,0.00000419,-0.00009936,-0.00001171,0.00000333,-0.00037865,0.0
 0040023,0.00033982,-0.00010585,0.00039852,-0.00019525,-0.00012309,0.00
 007050,-0.00038272,-0.00009647,0.00051358,0.00029153,0.00069202,0.0016
 8346,0.00031174,-0.00022638,0.00001177,-0.00006159,-0.00025602,0.00026
 716,-0.00044573,0.00025243,-0.00062843,-0.00053620,-0.00010107,0.00007
 750,-0.00012972,0.00017710,-0.00005341,-0.00003993,-0.00008466,0.00006
 159,0.00007667,-0.00003341,-0.00010884,0.00022823,0.00006566,0.0000240
 4,0.00023816,0.00001837,-0.00000295,0.00000293,-0.00001661,-0.00003714
 ,-0.00000120,0.00018984,-0.00016714,-0.00007326,-0.00002929,-0.0000153
 7,-0.00002748,-0.00000554,-0.00001408,-0.00000853,0.00001118,-0.000004
 97,-0.00001371,0.00000240,-0.00001181,-0.00000977,0.00004246,-0.000012
 96,0.00000034,-0.00008839,-0.00017464,0.00027958,0.00003552,0.00000262
 ,0.00005888,0.00012910,-0.00014728,-0.00027684,0.00004876,-0.00007624,
 -0.00019009,0.03084159,-0.02587233,0.01406705\\0.00001737,-0.00000162,
 -0.00002671,-0.00000197,0.00001928,-0.00001230,0.00004310,0.00002650,0
 .00004809,0.00001898,-0.00000385,0.00000177,-0.00000875,0.00005631,-0.
 00001211,0.00001719,0.00000134,-0.00000265,-0.00002557,0.00001932,0.00
 001653,-0.00002676,0.00002754,-0.00005749,-0.00001760,0.00002723,0.000
 00700,0.00004782,0.00003498,-0.00004024,0.00002222,-0.00004676,-0.0000
 2749,-0.00004073,0.00003394,0.00004464,0.00002450,0.00005067,-0.000050
 72,0.00002954,0.00003861,0.00005566,-0.00012254,0.00000465,-0.00007598
 ,-0.00000924,0.00001109,0.00007537,0.00009042,-0.00008523,-0.00009645,
 0.00004823,-0.00001156,-0.00000590,-0.00004560,-0.00005819,-0.00003436
 ,0.00002060,-0.00008378,-0.00003685,-0.00002625,-0.00004900,-0.0000172
 7,-0.00004456,-0.00004846,0.00003580,0.00004005,0.00002238,-0.00001837
 ,-0.00002577,0.00000139,0.00002078,-0.00000692,-0.00000035,0.00000296,
 0.00000249,-0.00001024,0.00000021,-0.00002415,-0.00004125,0.00000511,0
 .00001310,0.00001246,-0.00000128,-0.00001316,-0.00001465,0.00002099,-0
 .00000783,0.00001102,0.00000749,0.00000415,-0.00000367,0.00001044,0.00
 003325,-0.00001707,-0.00002113,-0.00000391,-0.00001100,0.00001466,-0.0
 0000066,-0.00001618,0.00001057,0.00001632,-0.00001027,0.00001424,0.000
 01414,0.00002552,0.00001710,0.00000101,0.00006792,0.00003889,-0.000001
 23,0.00001181,0.00000614,-0.00001342,0.00003390,0.00004669,0.00000341,
 0.00001204,0.00001530,-0.00002369,0.00000171,-0.00000777,-0.00002898,0
 .00001911,-0.00001762,0.00001980,-0.00001420,0.00002344,-0.00000554,0.
 00002938,0.00001581,-0.00000283,-0.00007276,0.00000698\\\@


 IN THE UNIVERSE THE DIFFICULT THINGS ARE DONE AS IF THEY WERE EASY.

                                                          -- LAO-TSU
 Job cpu time:       0 days  0 hours  0 minutes 11.0 seconds.
 Elapsed time:       0 days  0 hours  0 minutes  0.9 seconds.
 File lengths (MBytes):  RWF=    217 Int=      0 D2E=      0 Chk=      4 Scr=      1
 Normal termination of Gaussian 16 at Tue Jun 22 14:21:54 2021.
