 Entering Gaussian System, Link 0=g09
 Initial command:
 /share/apps//g09/l1.exe "/scratch/Gau-26629.inp" -scrdir="/scratch/"
 Entering Link 1 = /share/apps//g09/l1.exe PID=     26650.
  
 Copyright (c) 1988,1990,1992,1993,1995,1998,2003,2009,2013,
            Gaussian, Inc.  All Rights Reserved.
  
 This is part of the Gaussian(R) 09 program.  It is based on
 the Gaussian(R) 03 system (copyright 2003, Gaussian, Inc.),
 the Gaussian(R) 98 system (copyright 1998, Gaussian, Inc.),
 the Gaussian(R) 94 system (copyright 1995, Gaussian, Inc.),
 the Gaussian 92(TM) system (copyright 1992, Gaussian, Inc.),
 the Gaussian 90(TM) system (copyright 1990, Gaussian, Inc.),
 the Gaussian 88(TM) system (copyright 1988, Gaussian, Inc.),
 the Gaussian 86(TM) system (copyright 1986, Carnegie Mellon
 University), and the Gaussian 82(TM) system (copyright 1983,
 Carnegie Mellon University). Gaussian is a federally registered
 trademark of Gaussian, Inc.
  
 This software contains proprietary and confidential information,
 including trade secrets, belonging to Gaussian, Inc.
  
 This software is provided under written license and may be
 used, copied, transmitted, or stored only in accord with that
 written license.
  
 The following legend is applicable only to US Government
 contracts under FAR:
  
                    RESTRICTED RIGHTS LEGEND
  
 Use, reproduction and disclosure by the US Government is
 subject to restrictions as set forth in subparagraphs (a)
 and (c) of the Commercial Computer Software - Restricted
 Rights clause in FAR 52.227-19.
  
 Gaussian, Inc.
 340 Quinnipiac St., Bldg. 40, Wallingford CT 06492
  
  
 ---------------------------------------------------------------
 Warning -- This program may not be used in any manner that
 competes with the business of Gaussian, Inc. or will provide
 assistance to any competitor of Gaussian, Inc.  The licensee
 of this program is prohibited from giving any competitor of
 Gaussian, Inc. access to this program.  By using this program,
 the user acknowledges that Gaussian, Inc. is engaged in the
 business of creating and licensing software in the field of
 computational chemistry and represents and warrants to the
 licensee that it is not a competitor of Gaussian, Inc. and that
 it will not use this program in any manner prohibited above.
 ---------------------------------------------------------------
  

 Cite this work as:
 Gaussian 09, Revision D.01,
 M. J. Frisch, G. W. Trucks, H. B. Schlegel, G. E. Scuseria, 
 M. A. Robb, J. R. Cheeseman, G. Scalmani, V. Barone, B. Mennucci, 
 G. A. Petersson, H. Nakatsuji, M. Caricato, X. Li, H. P. Hratchian, 
 A. F. Izmaylov, J. Bloino, G. Zheng, J. L. Sonnenberg, M. Hada, 
 M. Ehara, K. Toyota, R. Fukuda, J. Hasegawa, M. Ishida, T. Nakajima, 
 Y. Honda, O. Kitao, H. Nakai, T. Vreven, J. A. Montgomery, Jr., 
 J. E. Peralta, F. Ogliaro, M. Bearpark, J. J. Heyd, E. Brothers, 
 K. N. Kudin, V. N. Staroverov, T. Keith, R. Kobayashi, J. Normand, 
 K. Raghavachari, A. Rendell, J. C. Burant, S. S. Iyengar, J. Tomasi, 
 M. Cossi, N. Rega, J. M. Millam, M. Klene, J. E. Knox, J. B. Cross, 
 V. Bakken, C. Adamo, J. Jaramillo, R. Gomperts, R. E. Stratmann, 
 O. Yazyev, A. J. Austin, R. Cammi, C. Pomelli, J. W. Ochterski, 
 R. L. Martin, K. Morokuma, V. G. Zakrzewski, G. A. Voth, 
 P. Salvador, J. J. Dannenberg, S. Dapprich, A. D. Daniels, 
 O. Farkas, J. B. Foresman, J. V. Ortiz, J. Cioslowski, 
 and D. J. Fox, Gaussian, Inc., Wallingford CT, 2013.
 
 ******************************************
 Gaussian 09:  EM64L-G09RevD.01 24-Apr-2013
                22-Mar-2016 
 ******************************************
 %nproc=20
 Will use up to   20 processors via shared memory.
 %mem=80GB
 %chk=Tri_A154_of.chk
 -------------------------------------------------------------------
 #P PBE1PBE/6-311+G(d,p) opt optcyc=999 freq EmpiricalDispersion=GD3
 -------------------------------------------------------------------
 1/6=999,14=-1,18=20,19=15,26=3,38=1/1,3;
 2/9=110,12=2,17=6,18=5,40=1/2;
 3/5=4,6=6,7=111,11=2,16=1,25=1,30=1,71=1,74=-13,124=31/1,2,3;
 4//1;
 5/5=2,38=5/2;
 6/7=2,8=2,9=2,10=2,28=1/1;
 7//1,2,3,16;
 1/6=999,14=-1,18=20,19=15,26=3/3(2);
 2/9=110/2;
 99//99;
 2/9=110/2;
 3/5=4,6=6,7=111,11=2,16=1,25=1,30=1,71=1,74=-13,124=31/1,2,3;
 4/5=5,16=3,69=1/1;
 5/5=2,38=5/2;
 7//1,2,3,16;
 1/6=999,14=-1,18=20,19=15,26=3/3(-5);
 2/9=110/2;
 6/7=2,8=2,9=2,10=2,19=2,28=1/1;
 99/9=1/99;
 Leave Link    1 at Tue Mar 22 23:42:47 2016, MaxMem= 10737418240 cpu:         1.6
 (Enter /share/apps//g09/l101.exe)
 -------
 disacch
 -------
 Symbolic Z-matrix:
 Charge =  1 Multiplicity = 1
 O                    -2.69507  -0.36612  -2.04407 
 C                    -2.83691  -1.54745  -1.29646 
 C                    -3.64791  -1.29478  -0.03606 
 C                    -4.97868  -0.65308  -0.36648 
 C                    -4.77393   0.59122  -1.21666 
 C                    -3.91019   0.24959  -2.41802 
 C                    -3.52701   1.41822  -3.32259 
 O                    -2.42991   2.15223  -2.84095 
 O                    -4.20415   1.62075  -0.42006 
 O                    -5.65331  -0.24363   0.79928 
 O                    -3.90227  -2.47728   0.66143 
 O                    -1.55691  -1.89708  -0.90621 
 C                    -1.00175  -3.14159  -1.29207 
 C                    -0.40357  -3.77146  -0.0544 
 O                    -1.4275   -4.01213   0.88515 
 C                     0.63958  -2.83756   0.52961 
 C                     1.6382   -2.33845  -0.52414 
 O                     0.99842  -1.92019  -1.71925 
 C                     0.13038  -2.88919  -2.27476 
 C                    -0.34044  -2.35302  -3.61062 
 O                    -1.30573  -3.25366  -4.10072 
 O                     2.42497  -1.28245  -0.07934 
 C                     1.77237  -0.14717   0.44543 
 C                     2.2469    0.09555   1.86553 
 C                     1.61289   1.35454   2.41984 
 C                     1.83142   2.53727   1.4953 
 O                     1.42102   2.20986   0.18698 
 C                     2.06435   1.09388  -0.40035 
 C                     1.53565   1.00427  -1.81575 
 O                     0.13503   0.77537  -1.85058 
 O                     1.02445   3.56259   1.94012 
 C                     1.38976   4.86829   1.48805 
 C                     0.29783   5.85023   1.85399 
 C                    -0.95347   5.8827    0.9777 
 C                    -1.71967   4.56303   0.86262 
 C                    -1.231     3.73281  -0.31076 
 N                    -1.51118   2.28707  -0.12488 
 O                     2.16093   1.56331   3.69229 
 O                     1.90018  -1.00599   2.67478 
 O                     1.30022  -3.51266   1.56022 
 H                    -3.29613  -2.33882  -1.90665 
 H                    -3.06276  -0.58907   0.57214 
 H                    -5.58476  -1.37318  -0.93161 
 H                    -5.74729   0.93033  -1.58906 
 H                    -4.51161  -0.44811  -3.02048 
 H                    -4.36938   2.10534  -3.40736 
 H                    -3.31473   1.02668  -4.32242 
 H                    -1.65116   1.58782  -2.88945 
 H                    -4.69118   1.58795   0.41308 
 H                    -5.65563  -0.97947   1.41724 
 H                    -3.06792  -2.93521   0.84949 
 H                    -1.75926  -3.79249  -1.73155 
 H                     0.07312  -4.71702  -0.3406 
 H                    -1.01045  -4.30887   1.69896 
 H                     0.0813   -1.98693   0.92822 
 H                     2.3447   -3.1443   -0.75095 
 H                     0.66781  -3.8313   -2.44395 
 H                    -0.76768  -1.35315  -3.47288 
 H                     0.52301  -2.27096  -4.27679 
 H                    -1.40049  -3.14071  -5.04588 
 H                     0.68762  -0.28511   0.45347 
 H                     3.33801   0.21905   1.85004 
 H                     0.52667   1.18756   2.48425 
 H                     2.89296   2.83233   1.4929 
 H                     3.15075   1.25256  -0.44826 
 H                     1.7192    1.95596  -2.31458 
 H                     2.06138   0.21586  -2.35305 
 H                    -0.00527  -0.17899  -1.75423 
 H                     1.56565   4.85181   0.40737 
 H                     2.32809   5.15099   1.97594 
 H                     0.74417   6.84746   1.83993 
 H                     0.0145    5.66121   2.89376 
 H                    -0.6898    6.23649  -0.02459 
 H                    -1.6173    6.64367   1.39079 
 H                    -2.78886   4.75486   0.75276 
 H                    -1.5927    3.99923   1.79182 
 H                    -1.70529   4.02475  -1.24576 
 H                    -0.15543   3.81487  -0.42615 
 H                    -0.93691   1.71686  -0.77419 
 H                    -2.50993   2.05014  -0.28364 
 H                    -1.24037   2.01819   0.81681 
 H                     1.71922   2.3073    4.10674 
 H                     2.13062  -0.78319   3.58113 
 H                     1.70751  -2.83822   2.12017 
 
 NAtoms=     84 NQM=       84 NQMF=       0 NMMI=      0 NMMIF=      0
                NMic=       0 NMicF=      0.
                    Isotopes and Nuclear Properties:
 (Nuclear quadrupole moments (NQMom) in fm**2, nuclear magnetic moments (NMagM)
  in nuclear magnetons)

  Atom         1           2           3           4           5           6           7           8           9          10
 IAtWgt=          16          12          12          12          12          12          12          16          16          16
 AtmWgt=  15.9949146  12.0000000  12.0000000  12.0000000  12.0000000  12.0000000  12.0000000  15.9949146  15.9949146  15.9949146
 NucSpn=           0           0           0           0           0           0           0           0           0           0
 AtZEff=   0.0000000   0.0000000   0.0000000   0.0000000   0.0000000   0.0000000   0.0000000   0.0000000   0.0000000   0.0000000
 NQMom=    0.0000000   0.0000000   0.0000000   0.0000000   0.0000000   0.0000000   0.0000000   0.0000000   0.0000000   0.0000000
 NMagM=    0.0000000   0.0000000   0.0000000   0.0000000   0.0000000   0.0000000   0.0000000   0.0000000   0.0000000   0.0000000
 AtZNuc=   8.0000000   6.0000000   6.0000000   6.0000000   6.0000000   6.0000000   6.0000000   8.0000000   8.0000000   8.0000000

  Atom        11          12          13          14          15          16          17          18          19          20
 IAtWgt=          16          16          12          12          16          12          12          16          12          12
 AtmWgt=  15.9949146  15.9949146  12.0000000  12.0000000  15.9949146  12.0000000  12.0000000  15.9949146  12.0000000  12.0000000
 NucSpn=           0           0           0           0           0           0           0           0           0           0
 AtZEff=   0.0000000   0.0000000   0.0000000   0.0000000   0.0000000   0.0000000   0.0000000   0.0000000   0.0000000   0.0000000
 NQMom=    0.0000000   0.0000000   0.0000000   0.0000000   0.0000000   0.0000000   0.0000000   0.0000000   0.0000000   0.0000000
 NMagM=    0.0000000   0.0000000   0.0000000   0.0000000   0.0000000   0.0000000   0.0000000   0.0000000   0.0000000   0.0000000
 AtZNuc=   8.0000000   8.0000000   6.0000000   6.0000000   8.0000000   6.0000000   6.0000000   8.0000000   6.0000000   6.0000000

  Atom        21          22          23          24          25          26          27          28          29          30
 IAtWgt=          16          16          12          12          12          12          16          12          12          16
 AtmWgt=  15.9949146  15.9949146  12.0000000  12.0000000  12.0000000  12.0000000  15.9949146  12.0000000  12.0000000  15.9949146
 NucSpn=           0           0           0           0           0           0           0           0           0           0
 AtZEff=   0.0000000   0.0000000   0.0000000   0.0000000   0.0000000   0.0000000   0.0000000   0.0000000   0.0000000   0.0000000
 NQMom=    0.0000000   0.0000000   0.0000000   0.0000000   0.0000000   0.0000000   0.0000000   0.0000000   0.0000000   0.0000000
 NMagM=    0.0000000   0.0000000   0.0000000   0.0000000   0.0000000   0.0000000   0.0000000   0.0000000   0.0000000   0.0000000
 AtZNuc=   8.0000000   8.0000000   6.0000000   6.0000000   6.0000000   6.0000000   8.0000000   6.0000000   6.0000000   8.0000000

  Atom        31          32          33          34          35          36          37          38          39          40
 IAtWgt=          16          12          12          12          12          12          14          16          16          16
 AtmWgt=  15.9949146  12.0000000  12.0000000  12.0000000  12.0000000  12.0000000  14.0030740  15.9949146  15.9949146  15.9949146
 NucSpn=           0           0           0           0           0           0           2           0           0           0
 AtZEff=   0.0000000   0.0000000   0.0000000   0.0000000   0.0000000   0.0000000   0.0000000   0.0000000   0.0000000   0.0000000
 NQMom=    0.0000000   0.0000000   0.0000000   0.0000000   0.0000000   0.0000000   2.0440000   0.0000000   0.0000000   0.0000000
 NMagM=    0.0000000   0.0000000   0.0000000   0.0000000   0.0000000   0.0000000   0.4037610   0.0000000   0.0000000   0.0000000
 AtZNuc=   8.0000000   6.0000000   6.0000000   6.0000000   6.0000000   6.0000000   7.0000000   8.0000000   8.0000000   8.0000000

  Atom        41          42          43          44          45          46          47          48          49          50
 IAtWgt=           1           1           1           1           1           1           1           1           1           1
 AtmWgt=   1.0078250   1.0078250   1.0078250   1.0078250   1.0078250   1.0078250   1.0078250   1.0078250   1.0078250   1.0078250
 NucSpn=           1           1           1           1           1           1           1           1           1           1
 AtZEff=   0.0000000   0.0000000   0.0000000   0.0000000   0.0000000   0.0000000   0.0000000   0.0000000   0.0000000   0.0000000
 NQMom=    0.0000000   0.0000000   0.0000000   0.0000000   0.0000000   0.0000000   0.0000000   0.0000000   0.0000000   0.0000000
 NMagM=    2.7928460   2.7928460   2.7928460   2.7928460   2.7928460   2.7928460   2.7928460   2.7928460   2.7928460   2.7928460
 AtZNuc=   1.0000000   1.0000000   1.0000000   1.0000000   1.0000000   1.0000000   1.0000000   1.0000000   1.0000000   1.0000000

  Atom        51          52          53          54          55          56          57          58          59          60
 IAtWgt=           1           1           1           1           1           1           1           1           1           1
 AtmWgt=   1.0078250   1.0078250   1.0078250   1.0078250   1.0078250   1.0078250   1.0078250   1.0078250   1.0078250   1.0078250
 NucSpn=           1           1           1           1           1           1           1           1           1           1
 AtZEff=   0.0000000   0.0000000   0.0000000   0.0000000   0.0000000   0.0000000   0.0000000   0.0000000   0.0000000   0.0000000
 NQMom=    0.0000000   0.0000000   0.0000000   0.0000000   0.0000000   0.0000000   0.0000000   0.0000000   0.0000000   0.0000000
 NMagM=    2.7928460   2.7928460   2.7928460   2.7928460   2.7928460   2.7928460   2.7928460   2.7928460   2.7928460   2.7928460
 AtZNuc=   1.0000000   1.0000000   1.0000000   1.0000000   1.0000000   1.0000000   1.0000000   1.0000000   1.0000000   1.0000000

  Atom        61          62          63          64          65          66          67          68          69          70
 IAtWgt=           1           1           1           1           1           1           1           1           1           1
 AtmWgt=   1.0078250   1.0078250   1.0078250   1.0078250   1.0078250   1.0078250   1.0078250   1.0078250   1.0078250   1.0078250
 NucSpn=           1           1           1           1           1           1           1           1           1           1
 AtZEff=   0.0000000   0.0000000   0.0000000   0.0000000   0.0000000   0.0000000   0.0000000   0.0000000   0.0000000   0.0000000
 NQMom=    0.0000000   0.0000000   0.0000000   0.0000000   0.0000000   0.0000000   0.0000000   0.0000000   0.0000000   0.0000000
 NMagM=    2.7928460   2.7928460   2.7928460   2.7928460   2.7928460   2.7928460   2.7928460   2.7928460   2.7928460   2.7928460
 AtZNuc=   1.0000000   1.0000000   1.0000000   1.0000000   1.0000000   1.0000000   1.0000000   1.0000000   1.0000000   1.0000000

  Atom        71          72          73          74          75          76          77          78          79          80
 IAtWgt=           1           1           1           1           1           1           1           1           1           1
 AtmWgt=   1.0078250   1.0078250   1.0078250   1.0078250   1.0078250   1.0078250   1.0078250   1.0078250   1.0078250   1.0078250
 NucSpn=           1           1           1           1           1           1           1           1           1           1
 AtZEff=   0.0000000   0.0000000   0.0000000   0.0000000   0.0000000   0.0000000   0.0000000   0.0000000   0.0000000   0.0000000
 NQMom=    0.0000000   0.0000000   0.0000000   0.0000000   0.0000000   0.0000000   0.0000000   0.0000000   0.0000000   0.0000000
 NMagM=    2.7928460   2.7928460   2.7928460   2.7928460   2.7928460   2.7928460   2.7928460   2.7928460   2.7928460   2.7928460
 AtZNuc=   1.0000000   1.0000000   1.0000000   1.0000000   1.0000000   1.0000000   1.0000000   1.0000000   1.0000000   1.0000000

  Atom        81          82          83          84
 IAtWgt=           1           1           1           1
 AtmWgt=   1.0078250   1.0078250   1.0078250   1.0078250
 NucSpn=           1           1           1           1
 AtZEff=   0.0000000   0.0000000   0.0000000   0.0000000
 NQMom=    0.0000000   0.0000000   0.0000000   0.0000000
 NMagM=    2.7928460   2.7928460   2.7928460   2.7928460
 AtZNuc=   1.0000000   1.0000000   1.0000000   1.0000000
 Leave Link  101 at Tue Mar 22 23:42:47 2016, MaxMem= 10737418240 cpu:         5.3
 (Enter /share/apps//g09/l103.exe)

 GradGradGradGradGradGradGradGradGradGradGradGradGradGradGradGradGradGrad
 Berny optimization.
 Initialization pass.
                           ----------------------------
                           !    Initial Parameters    !
                           ! (Angstroms and Degrees)  !
 --------------------------                            --------------------------
 ! Name  Definition              Value          Derivative Info.                !
 --------------------------------------------------------------------------------
 ! R1    R(1,2)                  1.4052         estimate D2E/DX2                !
 ! R2    R(1,6)                  1.4126         estimate D2E/DX2                !
 ! R3    R(2,3)                  1.5199         estimate D2E/DX2                !
 ! R4    R(2,12)                 1.3831         estimate D2E/DX2                !
 ! R5    R(2,41)                 1.0998         estimate D2E/DX2                !
 ! R6    R(3,4)                  1.5139         estimate D2E/DX2                !
 ! R7    R(3,11)                 1.3962         estimate D2E/DX2                !
 ! R8    R(3,42)                 1.1002         estimate D2E/DX2                !
 ! R9    R(4,5)                  1.5209         estimate D2E/DX2                !
 ! R10   R(4,10)                 1.4078         estimate D2E/DX2                !
 ! R11   R(4,43)                 1.0978         estimate D2E/DX2                !
 ! R12   R(5,6)                  1.5186         estimate D2E/DX2                !
 ! R13   R(5,9)                  1.421          estimate D2E/DX2                !
 ! R14   R(5,44)                 1.096          estimate D2E/DX2                !
 ! R15   R(6,7)                  1.5267         estimate D2E/DX2                !
 ! R16   R(6,45)                 1.1007         estimate D2E/DX2                !
 ! R17   R(7,8)                  1.4051         estimate D2E/DX2                !
 ! R18   R(7,46)                 1.0904         estimate D2E/DX2                !
 ! R19   R(7,47)                 1.0945         estimate D2E/DX2                !
 ! R20   R(8,48)                 0.963          estimate D2E/DX2                !
 ! R21   R(9,49)                 0.9656         estimate D2E/DX2                !
 ! R22   R(10,50)                0.9609         estimate D2E/DX2                !
 ! R23   R(11,51)                0.9702         estimate D2E/DX2                !
 ! R24   R(12,13)                1.4163         estimate D2E/DX2                !
 ! R25   R(13,14)                1.5121         estimate D2E/DX2                !
 ! R26   R(13,19)                1.5202         estimate D2E/DX2                !
 ! R27   R(13,52)                1.0912         estimate D2E/DX2                !
 ! R28   R(14,15)                1.4104         estimate D2E/DX2                !
 ! R29   R(14,16)                1.517          estimate D2E/DX2                !
 ! R30   R(14,53)                1.0969         estimate D2E/DX2                !
 ! R31   R(15,54)                0.9614         estimate D2E/DX2                !
 ! R32   R(16,17)                1.5352         estimate D2E/DX2                !
 ! R33   R(16,40)                1.398          estimate D2E/DX2                !
 ! R34   R(16,55)                1.0928         estimate D2E/DX2                !
 ! R35   R(17,18)                1.4186         estimate D2E/DX2                !
 ! R36   R(17,22)                1.39           estimate D2E/DX2                !
 ! R37   R(17,56)                1.0954         estimate D2E/DX2                !
 ! R38   R(18,19)                1.4146         estimate D2E/DX2                !
 ! R39   R(19,20)                1.5145         estimate D2E/DX2                !
 ! R40   R(19,57)                1.0977         estimate D2E/DX2                !
 ! R41   R(20,21)                1.4082         estimate D2E/DX2                !
 ! R42   R(20,58)                1.096          estimate D2E/DX2                !
 ! R43   R(20,59)                1.0936         estimate D2E/DX2                !
 ! R44   R(21,60)                0.9566         estimate D2E/DX2                !
 ! R45   R(22,23)                1.4107         estimate D2E/DX2                !
 ! R46   R(23,24)                1.5168         estimate D2E/DX2                !
 ! R47   R(23,28)                1.53           estimate D2E/DX2                !
 ! R48   R(23,61)                1.0935         estimate D2E/DX2                !
 ! R49   R(24,25)                1.5147         estimate D2E/DX2                !
 ! R50   R(24,39)                1.4101         estimate D2E/DX2                !
 ! R51   R(24,62)                1.0982         estimate D2E/DX2                !
 ! R52   R(25,26)                1.517          estimate D2E/DX2                !
 ! R53   R(25,38)                1.4011         estimate D2E/DX2                !
 ! R54   R(25,63)                1.1009         estimate D2E/DX2                !
 ! R55   R(26,27)                1.4097         estimate D2E/DX2                !
 ! R56   R(26,31)                1.3785         estimate D2E/DX2                !
 ! R57   R(26,64)                1.1018         estimate D2E/DX2                !
 ! R58   R(27,28)                1.4157         estimate D2E/DX2                !
 ! R59   R(28,29)                1.5136         estimate D2E/DX2                !
 ! R60   R(28,65)                1.099          estimate D2E/DX2                !
 ! R61   R(29,30)                1.4196         estimate D2E/DX2                !
 ! R62   R(29,66)                1.0901         estimate D2E/DX2                !
 ! R63   R(29,67)                1.0893         estimate D2E/DX2                !
 ! R64   R(30,68)                0.9694         estimate D2E/DX2                !
 ! R65   R(31,32)                1.4292         estimate D2E/DX2                !
 ! R66   R(32,33)                1.5134         estimate D2E/DX2                !
 ! R67   R(32,69)                1.095          estimate D2E/DX2                !
 ! R68   R(32,70)                1.0947         estimate D2E/DX2                !
 ! R69   R(33,34)                1.528          estimate D2E/DX2                !
 ! R70   R(33,71)                1.0927         estimate D2E/DX2                !
 ! R71   R(33,72)                1.0941         estimate D2E/DX2                !
 ! R72   R(34,35)                1.5303         estimate D2E/DX2                !
 ! R73   R(34,73)                1.0951         estimate D2E/DX2                !
 ! R74   R(34,74)                1.091          estimate D2E/DX2                !
 ! R75   R(35,36)                1.5182         estimate D2E/DX2                !
 ! R76   R(35,75)                1.0918         estimate D2E/DX2                !
 ! R77   R(35,76)                1.0943         estimate D2E/DX2                !
 ! R78   R(36,37)                1.4843         estimate D2E/DX2                !
 ! R79   R(36,77)                1.0883         estimate D2E/DX2                !
 ! R80   R(36,78)                1.0848         estimate D2E/DX2                !
 ! R81   R(37,79)                1.0376         estimate D2E/DX2                !
 ! R82   R(37,80)                1.0387         estimate D2E/DX2                !
 ! R83   R(37,81)                1.0161         estimate D2E/DX2                !
 ! R84   R(38,82)                0.9594         estimate D2E/DX2                !
 ! R85   R(39,83)                0.9614         estimate D2E/DX2                !
 ! R86   R(40,84)                0.9666         estimate D2E/DX2                !
 ! A1    A(2,1,6)              114.8625         estimate D2E/DX2                !
 ! A2    A(1,2,3)              110.8114         estimate D2E/DX2                !
 ! A3    A(1,2,12)             105.6177         estimate D2E/DX2                !
 ! A4    A(1,2,41)             110.6036         estimate D2E/DX2                !
 ! A5    A(3,2,12)             107.5688         estimate D2E/DX2                !
 ! A6    A(3,2,41)             110.9111         estimate D2E/DX2                !
 ! A7    A(12,2,41)            111.1671         estimate D2E/DX2                !
 ! A8    A(2,3,4)              111.0085         estimate D2E/DX2                !
 ! A9    A(2,3,11)             111.7566         estimate D2E/DX2                !
 ! A10   A(2,3,42)             106.3362         estimate D2E/DX2                !
 ! A11   A(4,3,11)             107.9312         estimate D2E/DX2                !
 ! A12   A(4,3,42)             108.4394         estimate D2E/DX2                !
 ! A13   A(11,3,42)            111.3458         estimate D2E/DX2                !
 ! A14   A(3,4,5)              110.5154         estimate D2E/DX2                !
 ! A15   A(3,4,10)             111.3337         estimate D2E/DX2                !
 ! A16   A(3,4,43)             108.6392         estimate D2E/DX2                !
 ! A17   A(5,4,10)             106.8263         estimate D2E/DX2                !
 ! A18   A(5,4,43)             108.8573         estimate D2E/DX2                !
 ! A19   A(10,4,43)            110.6398         estimate D2E/DX2                !
 ! A20   A(4,5,6)              109.5579         estimate D2E/DX2                !
 ! A21   A(4,5,9)              109.4737         estimate D2E/DX2                !
 ! A22   A(4,5,44)             108.8769         estimate D2E/DX2                !
 ! A23   A(6,5,9)              112.2363         estimate D2E/DX2                !
 ! A24   A(6,5,44)             107.8157         estimate D2E/DX2                !
 ! A25   A(9,5,44)             108.8102         estimate D2E/DX2                !
 ! A26   A(1,6,5)              112.2037         estimate D2E/DX2                !
 ! A27   A(1,6,7)              105.9378         estimate D2E/DX2                !
 ! A28   A(1,6,45)             109.7937         estimate D2E/DX2                !
 ! A29   A(5,6,7)              116.0588         estimate D2E/DX2                !
 ! A30   A(5,6,45)             105.3574         estimate D2E/DX2                !
 ! A31   A(7,6,45)             107.3408         estimate D2E/DX2                !
 ! A32   A(6,7,8)              113.125          estimate D2E/DX2                !
 ! A33   A(6,7,46)             109.5445         estimate D2E/DX2                !
 ! A34   A(6,7,47)             108.4266         estimate D2E/DX2                !
 ! A35   A(8,7,46)             107.4971         estimate D2E/DX2                !
 ! A36   A(8,7,47)             110.3987         estimate D2E/DX2                !
 ! A37   A(46,7,47)            107.7124         estimate D2E/DX2                !
 ! A38   A(7,8,48)             107.937          estimate D2E/DX2                !
 ! A39   A(5,9,49)             104.8827         estimate D2E/DX2                !
 ! A40   A(4,10,50)            108.1183         estimate D2E/DX2                !
 ! A41   A(3,11,51)            109.872          estimate D2E/DX2                !
 ! A42   A(2,12,13)            120.532          estimate D2E/DX2                !
 ! A43   A(12,13,14)           107.3436         estimate D2E/DX2                !
 ! A44   A(12,13,19)           108.7918         estimate D2E/DX2                !
 ! A45   A(12,13,52)           111.2092         estimate D2E/DX2                !
 ! A46   A(14,13,19)           107.6771         estimate D2E/DX2                !
 ! A47   A(14,13,52)           110.8437         estimate D2E/DX2                !
 ! A48   A(19,13,52)           110.8353         estimate D2E/DX2                !
 ! A49   A(13,14,15)           109.2176         estimate D2E/DX2                !
 ! A50   A(13,14,16)           109.3108         estimate D2E/DX2                !
 ! A51   A(13,14,53)           108.5079         estimate D2E/DX2                !
 ! A52   A(15,14,16)           110.3536         estimate D2E/DX2                !
 ! A53   A(15,14,53)           110.0121         estimate D2E/DX2                !
 ! A54   A(16,14,53)           109.4075         estimate D2E/DX2                !
 ! A55   A(14,15,54)           107.5564         estimate D2E/DX2                !
 ! A56   A(14,16,17)           112.5318         estimate D2E/DX2                !
 ! A57   A(14,16,40)           108.1477         estimate D2E/DX2                !
 ! A58   A(14,16,55)           105.5648         estimate D2E/DX2                !
 ! A59   A(17,16,40)           110.8319         estimate D2E/DX2                !
 ! A60   A(17,16,55)           109.2465         estimate D2E/DX2                !
 ! A61   A(40,16,55)           110.3907         estimate D2E/DX2                !
 ! A62   A(16,17,18)           112.3798         estimate D2E/DX2                !
 ! A63   A(16,17,22)           113.3004         estimate D2E/DX2                !
 ! A64   A(16,17,56)           108.8134         estimate D2E/DX2                !
 ! A65   A(18,17,22)           107.5095         estimate D2E/DX2                !
 ! A66   A(18,17,56)           109.4707         estimate D2E/DX2                !
 ! A67   A(22,17,56)           105.0751         estimate D2E/DX2                !
 ! A68   A(17,18,19)           113.9288         estimate D2E/DX2                !
 ! A69   A(13,19,18)           108.4734         estimate D2E/DX2                !
 ! A70   A(13,19,20)           113.4177         estimate D2E/DX2                !
 ! A71   A(13,19,57)           108.7678         estimate D2E/DX2                !
 ! A72   A(18,19,20)           107.1359         estimate D2E/DX2                !
 ! A73   A(18,19,57)           110.3647         estimate D2E/DX2                !
 ! A74   A(20,19,57)           108.6683         estimate D2E/DX2                !
 ! A75   A(19,20,21)           107.0767         estimate D2E/DX2                !
 ! A76   A(19,20,58)           109.4695         estimate D2E/DX2                !
 ! A77   A(19,20,59)           108.5665         estimate D2E/DX2                !
 ! A78   A(21,20,58)           111.0993         estimate D2E/DX2                !
 ! A79   A(21,20,59)           112.1589         estimate D2E/DX2                !
 ! A80   A(58,20,59)           108.4129         estimate D2E/DX2                !
 ! A81   A(20,21,60)           109.6487         estimate D2E/DX2                !
 ! A82   A(17,22,23)           117.9426         estimate D2E/DX2                !
 ! A83   A(22,23,24)           109.4096         estimate D2E/DX2                !
 ! A84   A(22,23,28)           111.0304         estimate D2E/DX2                !
 ! A85   A(22,23,61)           111.1072         estimate D2E/DX2                !
 ! A86   A(24,23,28)           109.1506         estimate D2E/DX2                !
 ! A87   A(24,23,61)           108.883          estimate D2E/DX2                !
 ! A88   A(28,23,61)           107.1994         estimate D2E/DX2                !
 ! A89   A(23,24,25)           110.162          estimate D2E/DX2                !
 ! A90   A(23,24,39)           109.5946         estimate D2E/DX2                !
 ! A91   A(23,24,62)           108.3981         estimate D2E/DX2                !
 ! A92   A(25,24,39)           109.655          estimate D2E/DX2                !
 ! A93   A(25,24,62)           109.1211         estimate D2E/DX2                !
 ! A94   A(39,24,62)           109.8912         estimate D2E/DX2                !
 ! A95   A(24,25,26)           111.389          estimate D2E/DX2                !
 ! A96   A(24,25,38)           107.0065         estimate D2E/DX2                !
 ! A97   A(24,25,63)           107.9594         estimate D2E/DX2                !
 ! A98   A(26,25,38)           112.3937         estimate D2E/DX2                !
 ! A99   A(26,25,63)           107.2204         estimate D2E/DX2                !
 ! A100  A(38,25,63)           110.8187         estimate D2E/DX2                !
 ! A101  A(25,26,27)           110.035          estimate D2E/DX2                !
 ! A102  A(25,26,31)           107.3914         estimate D2E/DX2                !
 ! A103  A(25,26,64)           110.4203         estimate D2E/DX2                !
 ! A104  A(27,26,31)           107.5652         estimate D2E/DX2                !
 ! A105  A(27,26,64)           109.9172         estimate D2E/DX2                !
 ! A106  A(31,26,64)           111.4395         estimate D2E/DX2                !
 ! A107  A(26,27,28)           115.8369         estimate D2E/DX2                !
 ! A108  A(23,28,27)           108.8662         estimate D2E/DX2                !
 ! A109  A(23,28,29)           113.7199         estimate D2E/DX2                !
 ! A110  A(23,28,65)           109.2615         estimate D2E/DX2                !
 ! A111  A(27,28,29)           106.0153         estimate D2E/DX2                !
 ! A112  A(27,28,65)           110.7009         estimate D2E/DX2                !
 ! A113  A(29,28,65)           108.2456         estimate D2E/DX2                !
 ! A114  A(28,29,30)           112.1552         estimate D2E/DX2                !
 ! A115  A(28,29,66)           108.5074         estimate D2E/DX2                !
 ! A116  A(28,29,67)           109.6035         estimate D2E/DX2                !
 ! A117  A(30,29,66)           107.198          estimate D2E/DX2                !
 ! A118  A(30,29,67)           110.3254         estimate D2E/DX2                !
 ! A119  A(66,29,67)           108.9595         estimate D2E/DX2                !
 ! A120  A(29,30,68)           107.4026         estimate D2E/DX2                !
 ! A121  A(26,31,32)           115.3285         estimate D2E/DX2                !
 ! A122  A(31,32,33)           109.3812         estimate D2E/DX2                !
 ! A123  A(31,32,69)           109.8445         estimate D2E/DX2                !
 ! A124  A(31,32,70)           108.3027         estimate D2E/DX2                !
 ! A125  A(33,32,69)           111.3637         estimate D2E/DX2                !
 ! A126  A(33,32,70)           110.0666         estimate D2E/DX2                !
 ! A127  A(69,32,70)           107.8209         estimate D2E/DX2                !
 ! A128  A(32,33,34)           117.7734         estimate D2E/DX2                !
 ! A129  A(32,33,71)           107.1169         estimate D2E/DX2                !
 ! A130  A(32,33,72)           107.7299         estimate D2E/DX2                !
 ! A131  A(34,33,71)           107.9239         estimate D2E/DX2                !
 ! A132  A(34,33,72)           109.6705         estimate D2E/DX2                !
 ! A133  A(71,33,72)           106.0026         estimate D2E/DX2                !
 ! A134  A(33,34,35)           115.7743         estimate D2E/DX2                !
 ! A135  A(33,34,73)           109.547          estimate D2E/DX2                !
 ! A136  A(33,34,74)           107.2144         estimate D2E/DX2                !
 ! A137  A(35,34,73)           109.2881         estimate D2E/DX2                !
 ! A138  A(35,34,74)           108.984          estimate D2E/DX2                !
 ! A139  A(73,34,74)           105.527          estimate D2E/DX2                !
 ! A140  A(34,35,36)           111.6258         estimate D2E/DX2                !
 ! A141  A(34,35,75)           110.2651         estimate D2E/DX2                !
 ! A142  A(34,35,76)           108.8059         estimate D2E/DX2                !
 ! A143  A(36,35,75)           109.4828         estimate D2E/DX2                !
 ! A144  A(36,35,76)           109.7061         estimate D2E/DX2                !
 ! A145  A(75,35,76)           106.834          estimate D2E/DX2                !
 ! A146  A(35,36,37)           112.0299         estimate D2E/DX2                !
 ! A147  A(35,36,77)           112.1505         estimate D2E/DX2                !
 ! A148  A(35,36,78)           111.0982         estimate D2E/DX2                !
 ! A149  A(37,36,77)           106.6548         estimate D2E/DX2                !
 ! A150  A(37,36,78)           105.9108         estimate D2E/DX2                !
 ! A151  A(77,36,78)           108.6875         estimate D2E/DX2                !
 ! A152  A(36,37,79)           110.6366         estimate D2E/DX2                !
 ! A153  A(36,37,80)           112.6153         estimate D2E/DX2                !
 ! A154  A(36,37,81)           108.8746         estimate D2E/DX2                !
 ! A155  A(79,37,80)           108.1311         estimate D2E/DX2                !
 ! A156  A(79,37,81)           106.681          estimate D2E/DX2                !
 ! A157  A(80,37,81)           109.7292         estimate D2E/DX2                !
 ! A158  A(25,38,82)           109.1351         estimate D2E/DX2                !
 ! A159  A(24,39,83)           107.5217         estimate D2E/DX2                !
 ! A160  A(16,40,84)           106.8126         estimate D2E/DX2                !
 ! D1    D(6,1,2,3)            -57.05           estimate D2E/DX2                !
 ! D2    D(6,1,2,12)          -173.2528         estimate D2E/DX2                !
 ! D3    D(6,1,2,41)            66.3732         estimate D2E/DX2                !
 ! D4    D(2,1,6,5)             57.7651         estimate D2E/DX2                !
 ! D5    D(2,1,6,7)           -174.6449         estimate D2E/DX2                !
 ! D6    D(2,1,6,45)           -59.0371         estimate D2E/DX2                !
 ! D7    D(1,2,3,4)             54.1463         estimate D2E/DX2                !
 ! D8    D(1,2,3,11)           174.7008         estimate D2E/DX2                !
 ! D9    D(1,2,3,42)           -63.6054         estimate D2E/DX2                !
 ! D10   D(12,2,3,4)           169.1354         estimate D2E/DX2                !
 ! D11   D(12,2,3,11)          -70.3101         estimate D2E/DX2                !
 ! D12   D(12,2,3,42)           51.3836         estimate D2E/DX2                !
 ! D13   D(41,2,3,4)           -69.0996         estimate D2E/DX2                !
 ! D14   D(41,2,3,11)           51.4549         estimate D2E/DX2                !
 ! D15   D(41,2,3,42)          173.1487         estimate D2E/DX2                !
 ! D16   D(1,2,12,13)         -120.2126         estimate D2E/DX2                !
 ! D17   D(3,2,12,13)          121.3974         estimate D2E/DX2                !
 ! D18   D(41,2,12,13)          -0.2082         estimate D2E/DX2                !
 ! D19   D(2,3,4,5)            -53.0943         estimate D2E/DX2                !
 ! D20   D(2,3,4,10)          -171.6462         estimate D2E/DX2                !
 ! D21   D(2,3,4,43)            66.2736         estimate D2E/DX2                !
 ! D22   D(11,3,4,5)          -175.8869         estimate D2E/DX2                !
 ! D23   D(11,3,4,10)           65.5611         estimate D2E/DX2                !
 ! D24   D(11,3,4,43)          -56.519          estimate D2E/DX2                !
 ! D25   D(42,3,4,5)            63.3708         estimate D2E/DX2                !
 ! D26   D(42,3,4,10)          -55.1811         estimate D2E/DX2                !
 ! D27   D(42,3,4,43)         -177.2613         estimate D2E/DX2                !
 ! D28   D(2,3,11,51)           54.8713         estimate D2E/DX2                !
 ! D29   D(4,3,11,51)          177.2053         estimate D2E/DX2                !
 ! D30   D(42,3,11,51)         -63.8872         estimate D2E/DX2                !
 ! D31   D(3,4,5,6)             52.2756         estimate D2E/DX2                !
 ! D32   D(3,4,5,9)            -71.2002         estimate D2E/DX2                !
 ! D33   D(3,4,5,44)           169.9612         estimate D2E/DX2                !
 ! D34   D(10,4,5,6)           173.5389         estimate D2E/DX2                !
 ! D35   D(10,4,5,9)            50.0631         estimate D2E/DX2                !
 ! D36   D(10,4,5,44)          -68.7756         estimate D2E/DX2                !
 ! D37   D(43,4,5,6)           -66.9604         estimate D2E/DX2                !
 ! D38   D(43,4,5,9)           169.5638         estimate D2E/DX2                !
 ! D39   D(43,4,5,44)           50.7251         estimate D2E/DX2                !
 ! D40   D(3,4,10,50)          -49.4137         estimate D2E/DX2                !
 ! D41   D(5,4,10,50)         -170.1563         estimate D2E/DX2                !
 ! D42   D(43,4,10,50)          71.5013         estimate D2E/DX2                !
 ! D43   D(4,5,6,1)            -53.7975         estimate D2E/DX2                !
 ! D44   D(4,5,6,7)           -175.7857         estimate D2E/DX2                !
 ! D45   D(4,5,6,45)            65.6352         estimate D2E/DX2                !
 ! D46   D(9,5,6,1)             68.0359         estimate D2E/DX2                !
 ! D47   D(9,5,6,7)            -53.9523         estimate D2E/DX2                !
 ! D48   D(9,5,6,45)          -172.5313         estimate D2E/DX2                !
 ! D49   D(44,5,6,1)          -172.1444         estimate D2E/DX2                !
 ! D50   D(44,5,6,7)            65.8673         estimate D2E/DX2                !
 ! D51   D(44,5,6,45)          -52.7117         estimate D2E/DX2                !
 ! D52   D(4,5,9,49)           -43.2522         estimate D2E/DX2                !
 ! D53   D(6,5,9,49)          -165.1337         estimate D2E/DX2                !
 ! D54   D(44,5,9,49)           75.6278         estimate D2E/DX2                !
 ! D55   D(1,6,7,8)            -43.3986         estimate D2E/DX2                !
 ! D56   D(1,6,7,46)          -163.3004         estimate D2E/DX2                !
 ! D57   D(1,6,7,47)            79.4053         estimate D2E/DX2                !
 ! D58   D(5,6,7,8)             81.8501         estimate D2E/DX2                !
 ! D59   D(5,6,7,46)           -38.0517         estimate D2E/DX2                !
 ! D60   D(5,6,7,47)          -155.346          estimate D2E/DX2                !
 ! D61   D(45,6,7,8)          -160.6637         estimate D2E/DX2                !
 ! D62   D(45,6,7,46)           79.4345         estimate D2E/DX2                !
 ! D63   D(45,6,7,47)          -37.8598         estimate D2E/DX2                !
 ! D64   D(6,7,8,48)            67.3615         estimate D2E/DX2                !
 ! D65   D(46,7,8,48)         -171.5716         estimate D2E/DX2                !
 ! D66   D(47,7,8,48)          -54.341          estimate D2E/DX2                !
 ! D67   D(2,12,13,14)        -132.0731         estimate D2E/DX2                !
 ! D68   D(2,12,13,19)         111.6766         estimate D2E/DX2                !
 ! D69   D(2,12,13,52)         -10.6709         estimate D2E/DX2                !
 ! D70   D(12,13,14,15)         62.6392         estimate D2E/DX2                !
 ! D71   D(12,13,14,16)        -58.1874         estimate D2E/DX2                !
 ! D72   D(12,13,14,53)       -177.4357         estimate D2E/DX2                !
 ! D73   D(19,13,14,15)        179.6223         estimate D2E/DX2                !
 ! D74   D(19,13,14,16)         58.7957         estimate D2E/DX2                !
 ! D75   D(19,13,14,53)        -60.4526         estimate D2E/DX2                !
 ! D76   D(52,13,14,15)        -58.9922         estimate D2E/DX2                !
 ! D77   D(52,13,14,16)       -179.8188         estimate D2E/DX2                !
 ! D78   D(52,13,14,53)         60.9329         estimate D2E/DX2                !
 ! D79   D(12,13,19,18)         50.5574         estimate D2E/DX2                !
 ! D80   D(12,13,19,20)        -68.3387         estimate D2E/DX2                !
 ! D81   D(12,13,19,57)        170.6252         estimate D2E/DX2                !
 ! D82   D(14,13,19,18)        -65.4785         estimate D2E/DX2                !
 ! D83   D(14,13,19,20)        175.6254         estimate D2E/DX2                !
 ! D84   D(14,13,19,57)         54.5893         estimate D2E/DX2                !
 ! D85   D(52,13,19,18)        173.1308         estimate D2E/DX2                !
 ! D86   D(52,13,19,20)         54.2347         estimate D2E/DX2                !
 ! D87   D(52,13,19,57)        -66.8014         estimate D2E/DX2                !
 ! D88   D(13,14,15,54)       -173.0993         estimate D2E/DX2                !
 ! D89   D(16,14,15,54)        -52.911          estimate D2E/DX2                !
 ! D90   D(53,14,15,54)         67.9062         estimate D2E/DX2                !
 ! D91   D(13,14,16,17)        -49.4542         estimate D2E/DX2                !
 ! D92   D(13,14,16,40)       -172.2163         estimate D2E/DX2                !
 ! D93   D(13,14,16,55)         69.625          estimate D2E/DX2                !
 ! D94   D(15,14,16,17)       -169.5865         estimate D2E/DX2                !
 ! D95   D(15,14,16,40)         67.6514         estimate D2E/DX2                !
 ! D96   D(15,14,16,55)        -50.5072         estimate D2E/DX2                !
 ! D97   D(53,14,16,17)         69.2358         estimate D2E/DX2                !
 ! D98   D(53,14,16,40)        -53.5262         estimate D2E/DX2                !
 ! D99   D(53,14,16,55)       -171.6849         estimate D2E/DX2                !
 ! D100  D(14,16,17,18)         45.484          estimate D2E/DX2                !
 ! D101  D(14,16,17,22)        167.5976         estimate D2E/DX2                !
 ! D102  D(14,16,17,56)        -75.9222         estimate D2E/DX2                !
 ! D103  D(40,16,17,18)        166.7257         estimate D2E/DX2                !
 ! D104  D(40,16,17,22)        -71.1608         estimate D2E/DX2                !
 ! D105  D(40,16,17,56)         45.3195         estimate D2E/DX2                !
 ! D106  D(55,16,17,18)        -71.4234         estimate D2E/DX2                !
 ! D107  D(55,16,17,22)         50.6901         estimate D2E/DX2                !
 ! D108  D(55,16,17,56)        167.1704         estimate D2E/DX2                !
 ! D109  D(14,16,40,84)       -159.5313         estimate D2E/DX2                !
 ! D110  D(17,16,40,84)         76.6768         estimate D2E/DX2                !
 ! D111  D(55,16,40,84)        -44.5016         estimate D2E/DX2                !
 ! D112  D(16,17,18,19)        -53.1614         estimate D2E/DX2                !
 ! D113  D(22,17,18,19)       -178.5034         estimate D2E/DX2                !
 ! D114  D(56,17,18,19)         67.8683         estimate D2E/DX2                !
 ! D115  D(16,17,22,23)        -53.7329         estimate D2E/DX2                !
 ! D116  D(18,17,22,23)         71.0568         estimate D2E/DX2                !
 ! D117  D(56,17,22,23)       -172.3949         estimate D2E/DX2                !
 ! D118  D(17,18,19,13)         63.5483         estimate D2E/DX2                !
 ! D119  D(17,18,19,20)       -173.6662         estimate D2E/DX2                !
 ! D120  D(17,18,19,57)        -55.519          estimate D2E/DX2                !
 ! D121  D(13,19,20,21)        -54.5791         estimate D2E/DX2                !
 ! D122  D(13,19,20,58)         65.9533         estimate D2E/DX2                !
 ! D123  D(13,19,20,59)       -175.8724         estimate D2E/DX2                !
 ! D124  D(18,19,20,21)       -174.2414         estimate D2E/DX2                !
 ! D125  D(18,19,20,58)        -53.7089         estimate D2E/DX2                !
 ! D126  D(18,19,20,59)         64.4654         estimate D2E/DX2                !
 ! D127  D(57,19,20,21)         66.5129         estimate D2E/DX2                !
 ! D128  D(57,19,20,58)       -172.9546         estimate D2E/DX2                !
 ! D129  D(57,19,20,59)        -54.7803         estimate D2E/DX2                !
 ! D130  D(19,20,21,60)       -159.8908         estimate D2E/DX2                !
 ! D131  D(58,20,21,60)         80.6197         estimate D2E/DX2                !
 ! D132  D(59,20,21,60)        -40.894          estimate D2E/DX2                !
 ! D133  D(17,22,23,24)        122.0811         estimate D2E/DX2                !
 ! D134  D(17,22,23,28)       -117.3811         estimate D2E/DX2                !
 ! D135  D(17,22,23,61)          1.8277         estimate D2E/DX2                !
 ! D136  D(22,23,24,25)        176.9544         estimate D2E/DX2                !
 ! D137  D(22,23,24,39)        -62.3122         estimate D2E/DX2                !
 ! D138  D(22,23,24,62)         57.6221         estimate D2E/DX2                !
 ! D139  D(28,23,24,25)         55.2771         estimate D2E/DX2                !
 ! D140  D(28,23,24,39)        176.0105         estimate D2E/DX2                !
 ! D141  D(28,23,24,62)        -64.0552         estimate D2E/DX2                !
 ! D142  D(61,23,24,25)        -61.4414         estimate D2E/DX2                !
 ! D143  D(61,23,24,39)         59.2919         estimate D2E/DX2                !
 ! D144  D(61,23,24,62)        179.2263         estimate D2E/DX2                !
 ! D145  D(22,23,28,27)       -178.3301         estimate D2E/DX2                !
 ! D146  D(22,23,28,29)         63.7261         estimate D2E/DX2                !
 ! D147  D(22,23,28,65)        -57.3246         estimate D2E/DX2                !
 ! D148  D(24,23,28,27)        -57.6392         estimate D2E/DX2                !
 ! D149  D(24,23,28,29)       -175.583          estimate D2E/DX2                !
 ! D150  D(24,23,28,65)         63.3663         estimate D2E/DX2                !
 ! D151  D(61,23,28,27)         60.1441         estimate D2E/DX2                !
 ! D152  D(61,23,28,29)        -57.7997         estimate D2E/DX2                !
 ! D153  D(61,23,28,65)       -178.8504         estimate D2E/DX2                !
 ! D154  D(23,24,25,26)        -52.9647         estimate D2E/DX2                !
 ! D155  D(23,24,25,38)       -176.1709         estimate D2E/DX2                !
 ! D156  D(23,24,25,63)         64.499          estimate D2E/DX2                !
 ! D157  D(39,24,25,26)       -173.6619         estimate D2E/DX2                !
 ! D158  D(39,24,25,38)         63.1319         estimate D2E/DX2                !
 ! D159  D(39,24,25,63)        -56.1981         estimate D2E/DX2                !
 ! D160  D(62,24,25,26)         65.9266         estimate D2E/DX2                !
 ! D161  D(62,24,25,38)        -57.2796         estimate D2E/DX2                !
 ! D162  D(62,24,25,63)       -176.6097         estimate D2E/DX2                !
 ! D163  D(23,24,39,83)       -174.1899         estimate D2E/DX2                !
 ! D164  D(25,24,39,83)        -53.1496         estimate D2E/DX2                !
 ! D165  D(62,24,39,83)         66.7928         estimate D2E/DX2                !
 ! D166  D(24,25,26,27)         52.2326         estimate D2E/DX2                !
 ! D167  D(24,25,26,31)        169.0301         estimate D2E/DX2                !
 ! D168  D(24,25,26,64)        -69.2799         estimate D2E/DX2                !
 ! D169  D(38,25,26,27)        172.3068         estimate D2E/DX2                !
 ! D170  D(38,25,26,31)        -70.8957         estimate D2E/DX2                !
 ! D171  D(38,25,26,64)         50.7943         estimate D2E/DX2                !
 ! D172  D(63,25,26,27)        -65.6776         estimate D2E/DX2                !
 ! D173  D(63,25,26,31)         51.1199         estimate D2E/DX2                !
 ! D174  D(63,25,26,64)        172.8099         estimate D2E/DX2                !
 ! D175  D(24,25,38,82)       -174.6627         estimate D2E/DX2                !
 ! D176  D(26,25,38,82)         62.7553         estimate D2E/DX2                !
 ! D177  D(63,25,38,82)        -57.194          estimate D2E/DX2                !
 ! D178  D(25,26,27,28)        -58.1997         estimate D2E/DX2                !
 ! D179  D(31,26,27,28)       -174.8885         estimate D2E/DX2                !
 ! D180  D(64,26,27,28)         63.6125         estimate D2E/DX2                !
 ! D181  D(25,26,31,32)        160.6796         estimate D2E/DX2                !
 ! D182  D(27,26,31,32)        -80.9146         estimate D2E/DX2                !
 ! D183  D(64,26,31,32)         39.6289         estimate D2E/DX2                !
 ! D184  D(26,27,28,23)         61.2219         estimate D2E/DX2                !
 ! D185  D(26,27,28,29)       -176.0703         estimate D2E/DX2                !
 ! D186  D(26,27,28,65)        -58.8973         estimate D2E/DX2                !
 ! D187  D(23,28,29,30)         57.3697         estimate D2E/DX2                !
 ! D188  D(23,28,29,66)        175.5961         estimate D2E/DX2                !
 ! D189  D(23,28,29,67)        -65.5278         estimate D2E/DX2                !
 ! D190  D(27,28,29,30)        -62.2062         estimate D2E/DX2                !
 ! D191  D(27,28,29,66)         56.0201         estimate D2E/DX2                !
 ! D192  D(27,28,29,67)        174.8963         estimate D2E/DX2                !
 ! D193  D(65,28,29,30)        178.987          estimate D2E/DX2                !
 ! D194  D(65,28,29,66)        -62.7866         estimate D2E/DX2                !
 ! D195  D(65,28,29,67)         56.0895         estimate D2E/DX2                !
 ! D196  D(28,29,30,68)        -83.7056         estimate D2E/DX2                !
 ! D197  D(66,29,30,68)        157.2949         estimate D2E/DX2                !
 ! D198  D(67,29,30,68)         38.7833         estimate D2E/DX2                !
 ! D199  D(26,31,32,33)        170.5136         estimate D2E/DX2                !
 ! D200  D(26,31,32,69)         47.9993         estimate D2E/DX2                !
 ! D201  D(26,31,32,70)        -69.5218         estimate D2E/DX2                !
 ! D202  D(31,32,33,34)        -78.7287         estimate D2E/DX2                !
 ! D203  D(31,32,33,71)        159.5269         estimate D2E/DX2                !
 ! D204  D(31,32,33,72)         45.8673         estimate D2E/DX2                !
 ! D205  D(69,32,33,34)         42.8736         estimate D2E/DX2                !
 ! D206  D(69,32,33,71)        -78.8708         estimate D2E/DX2                !
 ! D207  D(69,32,33,72)        167.4696         estimate D2E/DX2                !
 ! D208  D(70,32,33,34)        162.3951         estimate D2E/DX2                !
 ! D209  D(70,32,33,71)         40.6507         estimate D2E/DX2                !
 ! D210  D(70,32,33,72)        -73.0089         estimate D2E/DX2                !
 ! D211  D(32,33,34,35)         58.2666         estimate D2E/DX2                !
 ! D212  D(32,33,34,73)        -65.8363         estimate D2E/DX2                !
 ! D213  D(32,33,34,74)       -179.8771         estimate D2E/DX2                !
 ! D214  D(71,33,34,35)        179.596          estimate D2E/DX2                !
 ! D215  D(71,33,34,73)         55.493          estimate D2E/DX2                !
 ! D216  D(71,33,34,74)        -58.5478         estimate D2E/DX2                !
 ! D217  D(72,33,34,35)        -65.3594         estimate D2E/DX2                !
 ! D218  D(72,33,34,73)        170.5376         estimate D2E/DX2                !
 ! D219  D(72,33,34,74)         56.4968         estimate D2E/DX2                !
 ! D220  D(33,34,35,36)        -90.5325         estimate D2E/DX2                !
 ! D221  D(33,34,35,75)        147.5413         estimate D2E/DX2                !
 ! D222  D(33,34,35,76)         30.6785         estimate D2E/DX2                !
 ! D223  D(73,34,35,36)         33.705          estimate D2E/DX2                !
 ! D224  D(73,34,35,75)        -88.2213         estimate D2E/DX2                !
 ! D225  D(73,34,35,76)        154.916          estimate D2E/DX2                !
 ! D226  D(74,34,35,36)        148.5595         estimate D2E/DX2                !
 ! D227  D(74,34,35,75)         26.6333         estimate D2E/DX2                !
 ! D228  D(74,34,35,76)        -90.2294         estimate D2E/DX2                !
 ! D229  D(34,35,36,37)        155.928          estimate D2E/DX2                !
 ! D230  D(34,35,36,77)        -84.1688         estimate D2E/DX2                !
 ! D231  D(34,35,36,78)         37.6921         estimate D2E/DX2                !
 ! D232  D(75,35,36,37)        -81.6958         estimate D2E/DX2                !
 ! D233  D(75,35,36,77)         38.2074         estimate D2E/DX2                !
 ! D234  D(75,35,36,78)        160.0684         estimate D2E/DX2                !
 ! D235  D(76,35,36,37)         35.2414         estimate D2E/DX2                !
 ! D236  D(76,35,36,77)        155.1446         estimate D2E/DX2                !
 ! D237  D(76,35,36,78)        -82.9944         estimate D2E/DX2                !
 ! D238  D(35,36,37,79)       -163.1274         estimate D2E/DX2                !
 ! D239  D(35,36,37,80)         75.7339         estimate D2E/DX2                !
 ! D240  D(35,36,37,81)        -46.1969         estimate D2E/DX2                !
 ! D241  D(77,36,37,79)         73.8072         estimate D2E/DX2                !
 ! D242  D(77,36,37,80)        -47.3315         estimate D2E/DX2                !
 ! D243  D(77,36,37,81)       -169.2624         estimate D2E/DX2                !
 ! D244  D(78,36,37,79)        -41.8532         estimate D2E/DX2                !
 ! D245  D(78,36,37,80)       -162.9919         estimate D2E/DX2                !
 ! D246  D(78,36,37,81)         75.0773         estimate D2E/DX2                !
 --------------------------------------------------------------------------------
 Trust Radius=3.00D-01 FncErr=1.00D-07 GrdErr=1.00D-06
 Number of steps in this run=    504 maximum allowed number of steps=    504.
 GradGradGradGradGradGradGradGradGradGradGradGradGradGradGradGradGradGrad

 Leave Link  103 at Tue Mar 22 23:42:48 2016, MaxMem= 10737418240 cpu:         0.4
 (Enter /share/apps//g09/l202.exe)
 Stoichiometry    C23H44NO16(1+)
 Framework group  C1[X(C23H44NO16)]
 Deg. of freedom   246
 Full point group                 C1      NOp   1
 Largest Abelian subgroup         C1      NOp   1
 Largest concise Abelian subgroup C1      NOp   1
                         Standard orientation:                         
 ---------------------------------------------------------------------
 Center     Atomic      Atomic             Coordinates (Angstroms)
 Number     Number       Type             X           Y           Z
 ---------------------------------------------------------------------
      1          8           0       -1.922514    1.860888   -0.665410
      2          6           0       -2.678573    1.195340    0.314386
      3          6           0       -2.280747    1.654371    1.707655
      4          6           0       -2.369959    3.160772    1.828908
      5          6           0       -1.577184    3.832752    0.718521
      6          6           0       -2.007032    3.270383   -0.624980
      7          6           0       -1.231963    3.771881   -1.840932
      8          8           0       -0.014786    3.097514   -2.036082
      9          8           0       -0.187229    3.656484    0.955393
     10          8           0       -1.825814    3.609626    3.047189
     11          8           0       -3.099592    1.094762    2.690420
     12          8           0       -2.339540   -0.140865    0.202371
     13          6           0       -3.327551   -1.111488   -0.093639
     14          6           0       -3.150949   -2.248245    0.887676
     15          8           0       -3.372898   -1.770759    2.196055
     16          6           0       -1.746125   -2.806656    0.761004
     17          6           0       -1.360759   -3.105103   -0.694731
     18          8           0       -1.714417   -2.049747   -1.574331
     19          6           0       -3.071834   -1.661199   -1.487744
     20          6           0       -3.317546   -0.649853   -2.587960
     21          8           0       -4.628593   -0.164561   -2.418310
     22          8           0       -0.003794   -3.353859   -0.864314
     23          6           0        0.909746   -2.393639   -0.381040
     24          6           0        1.844686   -3.046102    0.619438
     25          6           0        2.880749   -2.048098    1.093615
     26          6           0        3.598000   -1.398039   -0.074441
     27          8           0        2.659427   -0.870330   -0.984348
     28          6           0        1.734298   -1.796630   -1.523185
     29          6           0        0.909588   -1.025016   -2.530844
     30          8           0        0.176893    0.030451   -1.927112
     31          8           0        4.329919   -0.342973    0.427033
     32          6           0        5.389559    0.120034   -0.412885
     33          6           0        5.947167    1.410601    0.147418
     34          6           0        5.163129    2.696405   -0.110809
     35          6           0        3.720399    2.709861    0.399272
     36          6           0        2.749491    2.209246   -0.655056
     37          7           0        1.500543    1.677807   -0.054292
     38          8           0        3.757344   -2.738692    1.940801
     39          8           0        1.102673   -3.519181    1.721302
     40          8           0       -1.664618   -3.962088    1.543751
     41          1           0       -3.754150    1.347846    0.143046
     42          1           0       -1.230636    1.355895    1.843722
     43          1           0       -3.423289    3.457954    1.742722
     44          1           0       -1.802823    4.905221    0.720799
     45          1           0       -3.054291    3.584743   -0.750979
     46          1           0       -1.003785    4.830850   -1.716721
     47          1           0       -1.870348    3.670158   -2.724189
     48          1           0       -0.215522    2.187388   -2.278442
     49          1           0       -0.073869    3.820682    1.900160
     50          1           0       -2.205175    3.083163    3.755894
     51          1           0       -3.097855    0.127956    2.609868
     52          1           0       -4.330745   -0.688408   -0.021257
     53          1           0       -3.878275   -3.032997    0.646041
     54          1           0       -3.149101   -2.479890    2.805414
     55          1           0       -1.085590   -2.031282    1.156767
     56          1           0       -1.861076   -4.026956   -1.010721
     57          1           0       -3.727906   -2.525790   -1.652299
     58          1           0       -2.583697    0.160462   -2.509847
     59          1           0       -3.182995   -1.145885   -3.553315
     60          1           0       -4.936872    0.222231   -3.237103
     61          1           0        0.388994   -1.566144    0.108697
     62          1           0        2.352787   -3.883997    0.123679
     63          1           0        2.356948   -1.248786    1.640093
     64          1           0        4.244360   -2.130277   -0.584322
     65          1           0        2.257605   -2.604598   -2.053353
     66          1           0        1.584966   -0.573832   -3.257848
     67          1           0        0.235196   -1.705671   -3.049090
     68          1           0       -0.641022   -0.350273   -1.572380
     69          1           0        5.021478    0.255169   -1.435300
     70          1           0        6.169907   -0.647379   -0.436424
     71          1           0        6.948217    1.537214   -0.271809
     72          1           0        6.086107    1.273879    1.224047
     73          1           0        5.169951    2.920713   -1.182683
     74          1           0        5.714203    3.511004    0.361564
     75          1           0        3.436982    3.718769    0.705563
     76          1           0        3.655405    2.078134    1.290395
     77          1           0        2.452995    2.995771   -1.346340
     78          1           0        3.178038    1.390456   -1.223237
     79          1           0        0.984345    1.094624   -0.739833
     80          1           0        0.863993    2.429848    0.274465
     81          1           0        1.742526    1.069276    0.722592
     82          1           0        4.378184   -2.116664    2.325556
     83          1           0        1.729246   -3.842158    2.374988
     84          1           0       -0.726449   -4.115907    1.718333
 ---------------------------------------------------------------------
 Rotational constants (GHZ):      0.1066866      0.0835518      0.0623174
 Leave Link  202 at Tue Mar 22 23:42:48 2016, MaxMem= 10737418240 cpu:         0.6
 (Enter /share/apps//g09/l301.exe)
 Standard basis: 6-311+G(d,p) (5D, 7F)
 Ernie: Thresh=  0.10000D-02 Tol=  0.10000D-05 Strict=F.
 There are  1184 symmetry adapted cartesian basis functions of A   symmetry.
 There are  1144 symmetry adapted basis functions of A   symmetry.
  1144 basis functions,  1792 primitive gaussians,  1184 cartesian basis functions
   158 alpha electrons      158 beta electrons
       nuclear repulsion energy      6032.8514439720 Hartrees.
 IExCor= 1009 DFT=T Ex+Corr=PBE1PBE ExCW=0 ScaHFX=  0.250000
 ScaDFX=  0.750000  0.750000  1.000000  1.000000 ScalE2=  1.000000  1.000000
 IRadAn=      0 IRanWt=     -1 IRanGd=            0 ICorTp=0 IEmpDi=131
 NAtoms=   84 NActive=   84 NUniq=   84 SFac= 1.00D+00 NAtFMM=   60 NAOKFM=T Big=T
 Integral buffers will be    131072 words long.
 Raffenetti 2 integral format.
 Two-electron integral symmetry is turned on.
 R6Disp:  Grimme-D3 Dispersion energy=       -0.0878597137 Hartrees.
 Nuclear repulsion after empirical dispersion term =     6032.7635842583 Hartrees.
 Leave Link  301 at Tue Mar 22 23:42:48 2016, MaxMem= 10737418240 cpu:         2.0
 (Enter /share/apps//g09/l302.exe)
 NPDir=0 NMtPBC=     1 NCelOv=     1 NCel=       1 NClECP=     1 NCelD=      1
         NCelK=      1 NCelE2=     1 NClLst=     1 CellRange=     0.0.
 One-electron integrals computed using PRISM.
 NBasis=  1144 RedAO= T EigKep=  1.56D-06  NBF=  1144
 NBsUse=  1144 1.00D-06 EigRej= -1.00D+00 NBFU=  1144
 Precomputing XC quadrature grid using
 IXCGrd= 4 IRadAn=           0 IRanWt=          -1 IRanGd=           0 AccXCQ= 0.00D+00.
 Generated NRdTot=       0 NPtTot=           0 NUsed=           0 NTot=          32
 NSgBfM=  1117  1117  1120  1120  1120 MxSgAt=    84 MxSgA2=    84.
 Leave Link  302 at Tue Mar 22 23:42:52 2016, MaxMem= 10737418240 cpu:        51.8
 (Enter /share/apps//g09/l303.exe)
 DipDrv:  MaxL=1.
 Leave Link  303 at Tue Mar 22 23:42:55 2016, MaxMem= 10737418240 cpu:        41.1
 (Enter /share/apps//g09/l401.exe)
 ExpMin= 4.38D-02 ExpMax= 8.59D+03 ExpMxC= 1.30D+03 IAcc=2 IRadAn=         4 AccDes= 0.00D+00
 Harris functional with IExCor= 1009 and IRadAn=       4 diagonalized for initial guess.
 HarFok:  IExCor= 1009 AccDes= 0.00D+00 IRadAn=         4 IDoV= 1 UseB2=F ITyADJ=14
 ICtDFT=  3500011 ScaDFX=  1.000000  1.000000  1.000000  1.000000
 FoFCou: FMM=F IPFlag=           0 FMFlag=      100000 FMFlg1=        2001
         NFxFlg=           0 DoJE=T BraDBF=F KetDBF=T FulRan=T
         wScrn=  0.000000 ICntrl=     500 IOpCl=  0 I1Cent=   200000004 NGrid=           0
         NMat0=    1 NMatS0=      1 NMatT0=    0 NMatD0=    1 NMtDS0=    0 NMtDT0=    0
 Petite list used in FoFCou.
 Harris En= -2159.74378222641    
 JPrj=0 DoOrth=F DoCkMO=F.
 Leave Link  401 at Tue Mar 22 23:43:08 2016, MaxMem= 10737418240 cpu:       226.5
 (Enter /share/apps//g09/l502.exe)
 Closed shell SCF:
 Using DIIS extrapolation, IDIIS=  1040.
 Integral symmetry usage will be decided dynamically.
 IVT=     4256630 IEndB=     4256630 NGot= 10737418240 MDV= 10734581291
 LenX= 10734581291 LenY= 10733178251
 Requested convergence on RMS density matrix=1.00D-08 within 128 cycles.
 Requested convergence on MAX density matrix=1.00D-06.
 Requested convergence on             energy=1.00D-06.
 No special actions if energy rises.
 Fock matrices will be formed incrementally for  20 cycles.

 Cycle   1  Pass 1  IDiag  1:
 FoFJK:  IHMeth= 1 ICntrl=       0 DoSepK=F KAlg= 0 I1Cent=   0 FoldK=F
 IRaf= 800000000 NMat=   1 IRICut=       1 DoRegI=T DoRafI=F ISym2E= 0.
 FoFCou: FMM=T IPFlag=           0 FMFlag=      100000 FMFlg1=        2001
         NFxFlg=           0 DoJE=F BraDBF=F KetDBF=F FulRan=T
         wScrn=  0.000000 ICntrl=       0 IOpCl=  0 I1Cent=           0 NGrid=           0
         NMat0=    1 NMatS0=      1 NMatT0=    0 NMatD0=    1 NMtDS0=    0 NMtDT0=    0
 Symmetry not used in FoFCou.
 FMM levels:  10  Number of levels for PrismC:   9
 E= -2158.67242623028    
 DIIS: error= 1.52D-02 at cycle   1 NSaved=   1.
 NSaved= 1 IEnMin= 1 EnMin= -2158.67242623028     IErMin= 1 ErrMin= 1.52D-02
 ErrMax= 1.52D-02  0.00D+00 EMaxC= 1.00D-01 BMatC= 1.07D+00 BMatP= 1.07D+00
 IDIUse=3 WtCom= 8.48D-01 WtEn= 1.52D-01
 Coeff-Com:  0.100D+01
 Coeff-En:   0.100D+01
 Coeff:      0.100D+01
 Gap=     0.266 Goal=   None    Shift=    0.000
 GapD=    0.266 DampG=1.000 DampE=0.500 DampFc=0.5000 IDamp=-1.
 Damping current iteration by 5.00D-01
 RMSDP=1.17D-02 MaxDP=1.98D+00              OVMax= 1.42D-01

 Cycle   2  Pass 1  IDiag  1:
 RMSU=  5.71D-03    CP:  9.69D-01
 E= -2158.97525439190     Delta-E=       -0.302828161623 Rises=F Damp=T
 DIIS: error= 2.93D-03 at cycle   2 NSaved=   2.
 NSaved= 2 IEnMin= 2 EnMin= -2158.97525439190     IErMin= 2 ErrMin= 2.93D-03
 ErrMax= 2.93D-03  0.00D+00 EMaxC= 1.00D-01 BMatC= 8.05D-02 BMatP= 1.07D+00
 IDIUse=3 WtCom= 9.71D-01 WtEn= 2.93D-02
 Coeff-Com:  0.538D-01 0.946D+00
 Coeff-En:   0.146D+00 0.854D+00
 Coeff:      0.565D-01 0.943D+00
 Gap=     0.289 Goal=   None    Shift=    0.000
 RMSDP=4.32D-03 MaxDP=1.07D+00 DE=-3.03D-01 OVMax= 8.61D-02

 Cycle   3  Pass 1  IDiag  1:
 RMSU=  2.99D-03    CP:  8.94D-01  9.33D-01
 E= -2159.36489269386     Delta-E=       -0.389638301963 Rises=F Damp=F
 DIIS: error= 3.23D-03 at cycle   3 NSaved=   3.
 NSaved= 3 IEnMin= 3 EnMin= -2159.36489269386     IErMin= 2 ErrMin= 2.93D-03
 ErrMax= 3.23D-03  0.00D+00 EMaxC= 1.00D-01 BMatC= 4.29D-02 BMatP= 8.05D-02
 IDIUse=3 WtCom= 9.68D-01 WtEn= 3.23D-02
 Coeff-Com: -0.664D-01 0.402D+00 0.664D+00
 Coeff-En:   0.000D+00 0.000D+00 0.100D+01
 Coeff:     -0.643D-01 0.389D+00 0.675D+00
 Gap=     0.270 Goal=   None    Shift=    0.000
 RMSDP=1.51D-03 MaxDP=3.54D-01 DE=-3.90D-01 OVMax= 1.75D-02

 Cycle   4  Pass 1  IDiag  1:
 RMSU=  1.26D-03    CP:  9.07D-01  1.03D+00  9.04D-01
 E= -2159.39114554407     Delta-E=       -0.026252850206 Rises=F Damp=F
 DIIS: error= 1.16D-03 at cycle   4 NSaved=   4.
 NSaved= 4 IEnMin= 4 EnMin= -2159.39114554407     IErMin= 4 ErrMin= 1.16D-03
 ErrMax= 1.16D-03  0.00D+00 EMaxC= 1.00D-01 BMatC= 5.80D-03 BMatP= 4.29D-02
 IDIUse=3 WtCom= 9.88D-01 WtEn= 1.16D-02
 Coeff-Com: -0.358D-01 0.121D+00 0.343D+00 0.572D+00
 Coeff-En:   0.000D+00 0.000D+00 0.742D-01 0.926D+00
 Coeff:     -0.354D-01 0.120D+00 0.340D+00 0.576D+00
 Gap=     0.261 Goal=   None    Shift=    0.000
 RMSDP=1.19D-03 MaxDP=3.76D-01 DE=-2.63D-02 OVMax= 5.45D-03

 Cycle   5  Pass 1  IDiag  1:
 RMSU=  3.32D-04    CP:  8.84D-01  1.01D+00  8.83D-01  5.24D-01
 E= -2159.39601346404     Delta-E=       -0.004867919968 Rises=F Damp=F
 DIIS: error= 3.05D-04 at cycle   5 NSaved=   5.
 NSaved= 5 IEnMin= 5 EnMin= -2159.39601346404     IErMin= 5 ErrMin= 3.05D-04
 ErrMax= 3.05D-04  0.00D+00 EMaxC= 1.00D-01 BMatC= 2.47D-04 BMatP= 5.80D-03
 IDIUse=3 WtCom= 9.97D-01 WtEn= 3.05D-03
 Coeff-Com: -0.113D-01 0.263D-01 0.102D+00 0.247D+00 0.636D+00
 Coeff-En:   0.000D+00 0.000D+00 0.000D+00 0.000D+00 0.100D+01
 Coeff:     -0.112D-01 0.263D-01 0.102D+00 0.246D+00 0.637D+00
 Gap=     0.261 Goal=   None    Shift=    0.000
 RMSDP=1.80D-04 MaxDP=4.14D-02 DE=-4.87D-03 OVMax= 1.46D-03

 Cycle   6  Pass 1  IDiag  1:
 RMSU=  8.24D-05    CP:  8.86D-01  1.01D+00  8.97D-01  5.62D-01  7.51D-01
 E= -2159.39618895487     Delta-E=       -0.000175490837 Rises=F Damp=F
 DIIS: error= 1.11D-04 at cycle   6 NSaved=   6.
 NSaved= 6 IEnMin= 6 EnMin= -2159.39618895487     IErMin= 6 ErrMin= 1.11D-04
 ErrMax= 1.11D-04  0.00D+00 EMaxC= 1.00D-01 BMatC= 2.78D-05 BMatP= 2.47D-04
 IDIUse=3 WtCom= 9.99D-01 WtEn= 1.11D-03
 Coeff-Com: -0.402D-02 0.728D-02 0.354D-01 0.101D+00 0.339D+00 0.522D+00
 Coeff-En:   0.000D+00 0.000D+00 0.000D+00 0.000D+00 0.000D+00 0.100D+01
 Coeff:     -0.401D-02 0.728D-02 0.354D-01 0.101D+00 0.338D+00 0.523D+00
 Gap=     0.261 Goal=   None    Shift=    0.000
 RMSDP=3.79D-05 MaxDP=6.24D-03 DE=-1.75D-04 OVMax= 5.34D-04

 Cycle   7  Pass 1  IDiag  1:
 RMSU=  1.85D-05    CP:  8.87D-01  1.01D+00  8.98D-01  5.70D-01  7.65D-01
                    CP:  6.87D-01
 E= -2159.39620836991     Delta-E=       -0.000019415031 Rises=F Damp=F
 DIIS: error= 2.66D-05 at cycle   7 NSaved=   7.
 NSaved= 7 IEnMin= 7 EnMin= -2159.39620836991     IErMin= 7 ErrMin= 2.66D-05
 ErrMax= 2.66D-05  0.00D+00 EMaxC= 1.00D-01 BMatC= 1.87D-06 BMatP= 2.78D-05
 IDIUse=1 WtCom= 1.00D+00 WtEn= 0.00D+00
 Coeff-Com: -0.102D-02 0.144D-02 0.935D-02 0.308D-01 0.119D+00 0.264D+00
 Coeff-Com:  0.576D+00
 Coeff:     -0.102D-02 0.144D-02 0.935D-02 0.308D-01 0.119D+00 0.264D+00
 Coeff:      0.576D+00
 Gap=     0.261 Goal=   None    Shift=    0.000
 RMSDP=8.95D-06 MaxDP=1.68D-03 DE=-1.94D-05 OVMax= 1.46D-04

 Cycle   8  Pass 1  IDiag  1:
 RMSU=  7.10D-06    CP:  8.87D-01  1.01D+00  8.98D-01  5.72D-01  7.70D-01
                    CP:  6.83D-01  7.91D-01
 E= -2159.39620959172     Delta-E=       -0.000001221817 Rises=F Damp=F
 DIIS: error= 4.40D-06 at cycle   8 NSaved=   8.
 NSaved= 8 IEnMin= 8 EnMin= -2159.39620959172     IErMin= 8 ErrMin= 4.40D-06
 ErrMax= 4.40D-06  0.00D+00 EMaxC= 1.00D-01 BMatC= 1.35D-07 BMatP= 1.87D-06
 IDIUse=1 WtCom= 1.00D+00 WtEn= 0.00D+00
 Coeff-Com:  0.668D-05-0.202D-03 0.131D-03 0.227D-02 0.124D-01 0.532D-01
 Coeff-Com:  0.253D+00 0.679D+00
 Coeff:      0.668D-05-0.202D-03 0.131D-03 0.227D-02 0.124D-01 0.532D-01
 Coeff:      0.253D+00 0.679D+00
 Gap=     0.261 Goal=   None    Shift=    0.000
 RMSDP=3.58D-06 MaxDP=1.07D-03 DE=-1.22D-06 OVMax= 3.41D-05

 Cycle   9  Pass 1  IDiag  1:
 RMSU=  2.30D-06    CP:  8.87D-01  1.01D+00  8.98D-01  5.71D-01  7.72D-01
                    CP:  6.92D-01  8.29D-01  8.87D-01
 E= -2159.39620969150     Delta-E=       -0.000000099773 Rises=F Damp=F
 DIIS: error= 1.39D-06 at cycle   9 NSaved=   9.
 NSaved= 9 IEnMin= 9 EnMin= -2159.39620969150     IErMin= 9 ErrMin= 1.39D-06
 ErrMax= 1.39D-06  0.00D+00 EMaxC= 1.00D-01 BMatC= 1.02D-08 BMatP= 1.35D-07
 IDIUse=1 WtCom= 1.00D+00 WtEn= 0.00D+00
 Coeff-Com:  0.634D-04-0.170D-03-0.529D-03-0.898D-03-0.217D-02 0.522D-02
 Coeff-Com:  0.720D-01 0.298D+00 0.629D+00
 Coeff:      0.634D-04-0.170D-03-0.529D-03-0.898D-03-0.217D-02 0.522D-02
 Coeff:      0.720D-01 0.298D+00 0.629D+00
 Gap=     0.261 Goal=   None    Shift=    0.000
 RMSDP=1.02D-06 MaxDP=2.72D-04 DE=-9.98D-08 OVMax= 9.00D-06

 Cycle  10  Pass 1  IDiag  1:
 RMSU=  6.36D-07    CP:  8.87D-01  1.01D+00  8.98D-01  5.71D-01  7.72D-01
                    CP:  6.98D-01  8.29D-01  8.94D-01  7.80D-01
 E= -2159.39620969925     Delta-E=       -0.000000007751 Rises=F Damp=F
 DIIS: error= 5.06D-07 at cycle  10 NSaved=  10.
 NSaved=10 IEnMin=10 EnMin= -2159.39620969925     IErMin=10 ErrMin= 5.06D-07
 ErrMax= 5.06D-07  0.00D+00 EMaxC= 1.00D-01 BMatC= 1.46D-09 BMatP= 1.02D-08
 IDIUse=1 WtCom= 1.00D+00 WtEn= 0.00D+00
 Coeff-Com:  0.294D-04-0.673D-04-0.280D-03-0.614D-03-0.202D-02-0.135D-02
 Coeff-Com:  0.185D-01 0.101D+00 0.334D+00 0.550D+00
 Coeff:      0.294D-04-0.673D-04-0.280D-03-0.614D-03-0.202D-02-0.135D-02
 Coeff:      0.185D-01 0.101D+00 0.334D+00 0.550D+00
 Gap=     0.261 Goal=   None    Shift=    0.000
 RMSDP=4.04D-07 MaxDP=8.77D-05 DE=-7.75D-09 OVMax= 3.26D-06

 Cycle  11  Pass 1  IDiag  1:
 RMSU=  1.35D-07    CP:  8.87D-01  1.01D+00  8.98D-01  5.71D-01  7.72D-01
                    CP:  6.96D-01  8.36D-01  9.03D-01  7.97D-01  6.71D-01
 E= -2159.39620970062     Delta-E=       -0.000000001377 Rises=F Damp=F
 DIIS: error= 1.20D-07 at cycle  11 NSaved=  11.
 NSaved=11 IEnMin=11 EnMin= -2159.39620970062     IErMin=11 ErrMin= 1.20D-07
 ErrMax= 1.20D-07  0.00D+00 EMaxC= 1.00D-01 BMatC= 7.90D-11 BMatP= 1.46D-09
 IDIUse=1 WtCom= 1.00D+00 WtEn= 0.00D+00
 Coeff-Com:  0.738D-05-0.159D-04-0.856D-04-0.199D-03-0.706D-03-0.980D-03
 Coeff-Com:  0.272D-02 0.216D-01 0.102D+00 0.247D+00 0.628D+00
 Coeff:      0.738D-05-0.159D-04-0.856D-04-0.199D-03-0.706D-03-0.980D-03
 Coeff:      0.272D-02 0.216D-01 0.102D+00 0.247D+00 0.628D+00
 Gap=     0.261 Goal=   None    Shift=    0.000
 RMSDP=5.99D-08 MaxDP=1.38D-05 DE=-1.38D-09 OVMax= 7.06D-07

 Cycle  12  Pass 1  IDiag  1:
 RMSU=  4.18D-08    CP:  8.87D-01  1.01D+00  8.98D-01  5.71D-01  7.72D-01
                    CP:  6.96D-01  8.36D-01  9.04D-01  8.07D-01  6.85D-01
                    CP:  8.00D-01
 E= -2159.39620970047     Delta-E=        0.000000000158 Rises=F Damp=F
 DIIS: error= 3.41D-08 at cycle  12 NSaved=  12.
 NSaved=12 IEnMin=11 EnMin= -2159.39620970062     IErMin=12 ErrMin= 3.41D-08
 ErrMax= 3.41D-08  0.00D+00 EMaxC= 1.00D-01 BMatC= 8.09D-12 BMatP= 7.90D-11
 IDIUse=1 WtCom= 1.00D+00 WtEn= 0.00D+00
 Coeff-Com:  0.218D-06-0.172D-06-0.115D-04-0.292D-04-0.122D-03-0.308D-03
 Coeff-Com: -0.752D-03-0.956D-03 0.113D-01 0.562D-01 0.289D+00 0.646D+00
 Coeff:      0.218D-06-0.172D-06-0.115D-04-0.292D-04-0.122D-03-0.308D-03
 Coeff:     -0.752D-03-0.956D-03 0.113D-01 0.562D-01 0.289D+00 0.646D+00
 Gap=     0.261 Goal=   None    Shift=    0.000
 RMSDP=1.97D-08 MaxDP=3.33D-06 DE= 1.58D-10 OVMax= 2.26D-07

 Cycle  13  Pass 1  IDiag  1:
 RMSU=  1.35D-08    CP:  8.87D-01  1.01D+00  8.98D-01  5.71D-01  7.72D-01
                    CP:  6.96D-01  8.36D-01  9.05D-01  8.08D-01  6.94D-01
                    CP:  7.85D-01  9.35D-01
 E= -2159.39620970054     Delta-E=       -0.000000000078 Rises=F Damp=F
 DIIS: error= 1.20D-08 at cycle  13 NSaved=  13.
 NSaved=13 IEnMin=11 EnMin= -2159.39620970062     IErMin=13 ErrMin= 1.20D-08
 ErrMax= 1.20D-08  0.00D+00 EMaxC= 1.00D-01 BMatC= 5.64D-13 BMatP= 8.09D-12
 IDIUse=1 WtCom= 1.00D+00 WtEn= 0.00D+00
 Coeff-Com: -0.353D-06 0.882D-06 0.919D-07-0.485D-06-0.924D-05-0.673D-04
 Coeff-Com: -0.489D-03-0.175D-02-0.167D-02 0.888D-02 0.865D-01 0.291D+00
 Coeff-Com:  0.618D+00
 Coeff:     -0.353D-06 0.882D-06 0.919D-07-0.485D-06-0.924D-05-0.673D-04
 Coeff:     -0.489D-03-0.175D-02-0.167D-02 0.888D-02 0.865D-01 0.291D+00
 Coeff:      0.618D+00
 Gap=     0.261 Goal=   None    Shift=    0.000
 RMSDP=6.16D-09 MaxDP=1.34D-06 DE=-7.82D-11 OVMax= 8.12D-08

 Cycle  14  Pass 1  IDiag  1:
[...]
 .00013657,-0.00002558,-0.00001832,-0.00002726,-0.00000533,-0.00000012,
 0.00000879,0.00000403,-0.00000975,0.00001262,-0.00003290,0.00001567,0.
 00002501,0.00000546,-0.00001806,0.00001434,0.00000734,-0.00150911,-0.0
 0082493,0.00108866,-0.03625618,-0.03808075,-0.11459140,-0.00016919,0.0
 0034371,0.00000344,-0.00000986,0.00000610,0.00000638,0.00001383,0.0000
 2997,-0.00000319,0.00000863,0.00000528,0.00000888,0.00000566,0.0000016
 5,0.00000791,0.00000055,0.00000457,0.00000221,0.00000101,0.00000092,-0
 .00000410,-0.00000091,0.00000256,0.00000908,0.00001174,-0.00000327,-0.
 00001808,-0.00002134,0.00001000,-0.00002912,-0.00003304,-0.00001069,-0
 .00003138,0.00003360,-0.00005802,-0.00007869,-0.00001259,0.00001283,-0
 .00001064,-0.00006843,-0.00002487,-0.00000495,0.00004908,-0.00007614,-
 0.00010423,0.00030938,-0.00002137,0.00003258,0.00003672,0.00005365,0.0
 0001239,-0.00000476,0.00000697,0.00000692,-0.00000058,0.00000403,0.000
 00023,-0.00000191,0.00000028,0.00000435,0.00000565,-0.00000765,-0.0000
 0437,0.00014911,-0.00004312,0.00008009,-0.00010265,-0.00024519,0.00129
 125,-0.00061539,0.00048919,-0.00025986,-0.00009081,-0.00020545,0.00014
 527,-0.00003181,0.00008815,-0.00003292,0.00000634,-0.00000804,0.000034
 70,0.00000427,0.00000286,0.00001180,0.00001633,-0.00004185,-0.00000134
 ,-0.00000828,-0.00001989,0.00001978,-0.00001634,-0.00001992,-0.0000051
 2,0.00000661,-0.00001835,0.00000210,0.00000346,0.00001318,0.00000852,-
 0.00000515,-0.00000392,0.00000706,0.00000391,-0.00000167,-0.00000304,0
 .00000112,-0.00000185,0.00000386,-0.00000132,-0.00000116,0.00001734,-0
 .00000079,-0.00001000,0.00000163,-0.00000327,-0.00000325,-0.00000992,0
 .00004742,-0.00005466,-0.00006210,-0.00003223,-0.00001240,-0.00002152,
 -0.00002143,0.00003902,-0.00007886,-0.00021248,0.00052900,-0.00039183,
 0.03539842,0.00001359,-0.00006578,0.00001243,-0.00004891,0.00005897,-0
 .00002532,0.00002952,0.00009867,-0.00001173,-0.00000520,0.00000003,-0.
 00000458,0.00003072,0.00006210,0.00004960,-0.00002186,0.00001414,0.000
 00054,0.00004413,0.00002464,0.00001778,-0.00003677,-0.00003833,-0.0000
 5282,-0.00008308,-0.00008597,-0.00005251,-0.00000986,-0.00003047,-0.00
 000004,0.00002038,-0.00009717,0.00004634,0.00005646,-0.00006174,0.0000
 0412,-0.00002667,0.00007784,0.00002036,0.00019449,-0.00006340,-0.00000
 682,-0.00005543,-0.00005418,0.00011198,-0.00001626,0.00033535,0.000228
 47,0.00006720,0.00010160,0.00034001,0.00000188,-0.00006725,0.00001083,
 0.00000253,0.00000764,0.00000427,-0.00000873,0.00001077,0.00000460,0.0
 0000626,-0.00001489,-0.00000342,-0.00006647,0.00030043,-0.00098831,-0.
 00176675,-0.00663015,0.00273470,0.00727188,0.00455142,0.03708424,0.001
 96128,-0.00072472,0.00583522,-0.00015415,-0.00009915,0.00108007,-0.000
 03910,-0.00021149,-0.00159662,0.00026860,0.00167672,0.00214721,-0.0003
 1134,-0.00071612,0.00007425,0.00014889,-0.00003539,-0.00009626,-0.0000
 2906,0.00050049,-0.00064002,-0.00008824,-0.00039296,0.00015784,0.00003
 451,0.00001866,0.00000961,0.00002341,0.00000566,0.00002299,0.00000035,
 -0.00002291,0.00003682,0.00001268,0.00003909,-0.00000540,-0.00004281,-
 0.00008635,-0.00005414,-0.00066063,0.00168826,-0.00111526,-0.04364521,
 -0.06906584,-0.13080019,-0.00037742,-0.00209692,-0.00004854,-0.0000000
 9,-0.00000724,-0.00000516,-0.00001287,-0.00001170,-0.00001060,-0.00000
 510,-0.00000494,-0.00000186,-0.00000618,-0.00000941,-0.00000872,0.0000
 0116,-0.00000665,-0.00000251,-0.00000060,-0.00000052,0.00000360,-0.000
 00551,-0.00000753,-0.00000902,-0.00001779,0.00002095,0.00001529,0.0000
 2179,0.00002560,0.00000439,0.00000171,0.00001786,-0.00000695,-0.000038
 38,0.00004339,-0.00003241,0.00000049,-0.00000779,-0.00000147,-0.000065
 85,-0.00002482,-0.00002736,-0.00001834,-0.00000394,-0.00012326,0.00026
 143,-0.00007782,0.00005568,0.00002179,-0.00000272,-0.00004036,0.000006
 20,-0.00000384,-0.00000274,-0.00000010,-0.00000468,0.00000105,0.000001
 00,-0.00000007,0.00000076,-0.00000484,0.00000704,0.00000140,0.00007964
 ,-0.00003997,-0.00027614,-0.00086018,0.00011320,0.00015535,-0.00013343
 ,-0.00024254,-0.00035554,-0.00003494,0.00004768,-0.00002996,0.00004136
 ,-0.00001759,-0.00003113,0.00009472,0.00000846,0.00024359,-0.00002803,
 -0.00000824,-0.00005620,-0.00000937,0.00002216,-0.00001428,0.00001996,
 0.00006723,-0.00006328,-0.00000108,0.00001005,0.00000527,-0.00002227,0
 .00002813,-0.00000697,0.00001312,-0.00002872,-0.00002160,0.00000031,0.
 00000051,-0.00001874,-0.00002346,0.00000237,-0.00000361,-0.00001991,0.
 00000795,-0.00002046,0.00003841,0.00000616,-0.00002014,-0.00000883,0.0
 0000818,0.00000081,0.00000745,-0.00000481,0.00004292,-0.00006961,0.000
 11701,0.00013478,0.00012375,0.00005846,0.00002214,0.00011952,0.0000018
 9,0.00010702,0.00014682,0.00045563,-0.00138531,0.03830414,0.06805035,0
 .00009188,-0.00006985,0.00003997,-0.00018373,0.00008803,-0.00004149,-0
 .00000935,-0.00005856,0.00000438,-0.00005655,0.00002375,0.00004212,-0.
 00000273,-0.00000189,-0.00000821,-0.00007377,0.00003965,-0.00001559,-0
 .00002930,-0.00001630,-0.00002128,0.00005678,-0.00000651,0.00003735,0.
 00005601,-0.00000351,-0.00000434,0.00006477,-0.00001293,-0.00006843,0.
 00006467,0.00000874,-0.00004368,0.00020191,-0.00006187,0.00005239,-0.0
 0001637,0.00008715,-0.00003130,-0.00025124,-0.00009567,0.00010267,0.00
 021205,0.00011030,-0.00007997,0.00011131,0.00011494,-0.00006063,-0.000
 28615,-0.00030127,-0.00043280,0.00023068,0.00007525,0.00034026,-0.0001
 0451,-0.00014661,-0.00007741,-0.00003386,-0.00000691,-0.00006462,0.000
 06322,0.00003929,0.00008238,0.00000776,0.00041736,0.00105775,0.0022337
 7,0.00359918,-0.00142253,-0.00553056,-0.00271492,-0.02472112,-0.000705
 23,-0.00060324,0.00279928,-0.00016088,0.00011849,-0.00125320,0.0000615
 3,-0.00003646,-0.00003797,-0.00053183,-0.00055002,-0.00075753,0.000141
 05,0.00032424,-0.00011965,0.00007470,-0.00008600,0.00013729,0.00015539
 ,-0.00094395,0.00014330,0.00020223,0.00021322,-0.00001942,-0.00005648,
 -0.00004998,0.00003883,0.00000802,0.00000085,-0.00002287,-0.00000831,-
 0.00000327,0.00000727,-0.00000075,0.00005844,0.00000237,0.00006457,-0.
 00004652,-0.00002153,0.00003079,0.00018731,-0.00119019,-0.09474811,-0.
 08691553,-0.46578195,0.00050006,0.00075556,0.00051474,0.00001486,0.000
 00081,0.00001005,-0.00000391,0.00002003,0.00001273,0.00000596,-0.00000
 407,-0.00000190,0.00000758,-0.00000464,0.00000261,0.00001025,0.0000048
 8,0.00000349,0.00000626,-0.00000556,0.00000070,0.00000060,0.00000803,0
 .00000186,-0.00004174,0.00002040,-0.00002981,-0.00001839,0.00000819,0.
 00002000,-0.00002339,0.00000161,0.00003109,-0.00008297,0.00001696,0.00
 002687,0.00002781,-0.00001612,0.00001096,0.00004031,0.00003886,0.00001
 705,-0.00008158,-0.00008305,0.00007534,-0.00019753,-0.00003343,-0.0001
 2782,-0.00000471,0.00001954,0.00002950,0.00000769,0.00001694,-0.000001
 51,-0.00000269,0.00000521,0.00000334,0.00000100,0.00000076,0.00000204,
 -0.00000616,-0.00000765,-0.00001679,0.00011574,0.00002520,0.00031846,-
 0.00024839,-0.00130152,0.00086709,-0.00016694,0.00018286,-0.00011757,0
 .00000730,-0.00003898,0.00005958,0.00005588,0.00000993,-0.00004112,-0.
 00002754,-0.00004985,-0.00006622,0.00001046,0.00001232,-0.00000993,-0.
 00005805,0.00003036,-0.00006590,-0.00001771,-0.00002498,0.00000605,-0.
 00002745,-0.00001872,0.00001435,0.00002100,-0.00002766,-0.00000025,0.0
 0001497,0.00001112,-0.00000618,-0.00000482,0.00000587,-0.00000135,0.00
 001241,-0.00001131,0.00000087,0.00001144,-0.00000647,0.00000551,-0.000
 01752,0.00000401,0.00001132,0.00000513,-0.00001001,-0.00000236,-0.0000
 0616,0.00001497,-0.00001697,-0.00007074,0.00004611,-0.00000628,-0.0000
 7925,-0.00002109,0.00000109,-0.00008207,0.00004889,-0.00000125,-0.0000
 2046,-0.00010962,0.00011648,0.09968343,0.08975662,0.49056452,0.0000544
 5,-0.00017209,0.00013793,-0.00020477,0.00023714,-0.00012280,-0.0000033
 3,0.00008465,-0.00010572,-0.00005189,0.00003233,0.00001128,0.00002471,
 0.00004838,0.00000245,-0.00007669,0.00002492,-0.00003426,0.00004935,0.
 00004046,-0.00001152,-0.00005503,-0.00004889,0.00000733,-0.00002742,-0
 .00009011,0.00000475,0.00006203,-0.00004558,0.00000936,0.00013859,-0.0
 0014849,0.00016025,0.00042729,-0.00012124,0.00052609,-0.00084723,-0.00
 126460,-0.00061581,-0.00227620,0.00280158,-0.00414528,0.00059785,0.000
 44154,0.00007945,-0.01306848,-0.01322251,-0.01691325,0.00293034,0.0013
 4288,0.00155040,-0.00054658,-0.00058467,0.00059635,-0.00009033,-0.0001
 0117,-0.00002586,-0.00003606,-0.00003750,-0.00004307,0.00000123,0.0000
 1451,0.00002163,-0.00086148,0.00002758,-0.00115810,0.00097585,-0.00068
 400,-0.00004316,-0.00076418,-0.00122624,0.00055164,0.00026289,0.000259
 80,-0.00023688,0.00006291,-0.00002096,0.00022259,-0.00010200,0.0000548
 7,-0.00008943,-0.00021724,0.00000658,-0.00008128,0.00017488,0.00007011
 ,0.00001725,-0.00019305,-0.00010431,-0.00000098,-0.00006643,0.00016508
 ,-0.00005919,-0.00001904,-0.00004122,0.00002086,0.00001343,0.00000247,
 -0.00000161,0.00000917,0.00000840,0.00000940,-0.00000830,-0.00000738,-
 0.00000280,0.00002312,0.00005440,0.00000072,-0.00006100,-0.00005542,-0
 .00000770,-0.00012634,0.00002885,-0.00000743,-0.00316030,0.00139785,0.
 00027267,-0.08817375,-0.11152258,-0.11505292,0.00005710,-0.00000067,0.
 00003060,-0.00001957,0.00004384,0.00000470,0.00001053,-0.00000409,0.00
 000392,0.00000523,-0.00001809,0.00000139,0.00000882,-0.00000056,0.0000
 0111,-0.00000254,-0.00000792,0.00000020,-0.00000760,-0.00000266,0.0000
 0249,0.00003172,0.00002023,-0.00000921,-0.00000998,0.00004374,-0.00001
 022,-0.00005428,0.00001779,-0.00000393,-0.00021786,0.00005865,-0.00013
 023,-0.00010437,0.00023936,-0.00029224,0.00016323,0.00012788,0.0000547
 3,0.00001869,-0.00058991,-0.00020443,0.00088162,-0.00158580,0.00064772
 ,-0.00005078,0.00008062,0.00017055,0.00002730,-0.00001542,-0.00003044,
 0.00001391,0.00000433,-0.00000045,-0.00000267,0.00000295,0.00001937,0.
 00000786,-0.00000477,-0.00002133,-0.00026761,0.00038921,-0.00015599,-0
 .00012395,-0.00036208,0.00006362,-0.00009921,0.00004646,-0.00000214,-0
 .00001707,-0.00000947,-0.00000625,-0.00005203,-0.00010297,0.00004859,-
 0.00001944,-0.00000846,-0.00001222,0.00000587,0.00001829,0.00001655,0.
 00004861,0.00012993,-0.00005066,0.00000813,0.00000562,-0.00000633,-0.0
 0000291,-0.00000034,-0.00000744,-0.00000894,0.00000318,-0.00000047,-0.
 00000039,-0.00000073,-0.00000024,-0.00000195,-0.00000245,-0.00000145,-
 0.00000675,-0.00000170,-0.00000377,-0.00000841,0.00000535,-0.00000445,
 0.00001377,0.00000015,0.00000263,-0.00000199,-0.00000167,0.00000167,0.
 00000165,-0.00001455,0.00001081,0.00003615,0.00002213,-0.00000138,0.00
 006711,0.00005350,0.00000036,0.00005632,0.00004392,0.00001267,0.000031
 55,0.00001154,-0.00002005,0.00031720,-0.00061282,-0.00061335,0.1044969
 8,0.00012992,-0.00045393,0.00015051,-0.00055022,0.00054203,-0.00022066
 ,0.00010253,0.00025230,0.00001249,-0.00008206,0.00002916,0.00000939,0.
 00008730,0.00015496,0.00010515,-0.00015921,0.00007070,-0.00001638,0.00
 017395,0.00011461,0.00003967,-0.00019771,-0.00012055,-0.00009977,-0.00
 017842,-0.00021936,-0.00011135,0.00006194,-0.00010566,-0.00006508,0.00
 019655,-0.00036500,0.00004217,0.00056951,-0.00065262,0.00008620,0.0007
 6895,0.00185347,0.00031594,0.00160993,-0.00305731,0.00387690,0.0005393
 7,0.00009751,-0.00005174,0.00982444,0.01590873,0.01563760,0.00334666,0
 .00306448,0.00181948,-0.00066341,-0.00157816,0.00128151,0.00013172,-0.
 00000222,-0.00045654,-0.00011458,0.00007857,-0.00006751,0.00003306,-0.
 00005911,0.00012813,-0.00086176,-0.00236589,-0.00197692,0.00027257,0.0
 0058703,0.00150805,-0.00224028,-0.00460571,0.00649323,0.00098425,0.001
 01671,-0.00138338,0.00004241,-0.00049017,0.00138373,-0.00013374,-0.000
 05885,-0.00058580,-0.00026640,-0.00043860,-0.00025982,0.00048548,0.000
 43269,0.00022168,-0.00048011,-0.00040666,-0.00033313,-0.00020040,0.001
 19856,-0.00039443,-0.00021866,-0.00046158,0.00014205,0.00007684,0.0000
 4647,-0.00001198,0.00001775,0.00000715,0.00003879,0.00000303,-0.000028
 39,0.00002604,0.00002995,0.00002853,-0.00000679,-0.00016936,-0.0000790
 2,-0.00002905,-0.00003519,0.00076297,0.00008062,0.00094567,0.00206819,
 -0.00144125,-0.14054148,-0.27588581,-0.20473370,0.00000946,-0.00004073
 ,-0.00001068,-0.00003682,-0.00004835,-0.00002669,-0.00001621,-0.000012
 84,-0.00000712,-0.00000619,-0.00003488,-0.00001802,0.00000578,-0.00001
 378,-0.00000485,-0.00001311,-0.00001779,0.00000586,-0.00001685,-0.0000
 1718,-0.00002175,0.00010500,0.00004310,0.00005512,0.00002865,0.0000615
 3,0.00000924,-0.00002730,0.00004489,0.00002373,-0.00036020,0.00027656,
 0.00002177,0.00027063,-0.00033310,0.00039207,-0.00026674,0.00004347,0.
 00002524,-0.00048494,-0.00045382,-0.00020834,0.00205161,-0.00056203,0.
 00107654,0.00003643,-0.00015695,-0.00033167,0.00000943,-0.00004380,-0.
 00004001,0.00004289,-0.00002379,0.00001440,0.00000182,-0.00000626,0.00
 006479,-0.00003648,-0.00000245,-0.00001665,0.00007266,0.00008890,0.000
 04998,0.00048198,0.00087477,-0.00059306,-0.00006768,-0.00013601,-0.000
 01118,-0.00004194,0.00005336,-0.00006593,-0.00001587,-0.00000280,0.000
 02491,-0.00008969,-0.00001841,-0.00011728,0.00001245,0.00004283,-0.000
 03401,0.00007801,0.00053466,0.00013424,0.00003222,0.00005126,-0.000046
 46,0.00001615,0.00002915,-0.00001463,-0.00003620,0.00004260,-0.0000046
 8,-0.00000627,-0.00002501,-0.00001217,0.00000538,-0.00000542,-0.000016
 98,-0.00003133,0.00000756,-0.00000220,-0.00003224,0.00001776,-0.000016
 54,0.00004478,0.00000507,-0.00002576,-0.00000940,0.00002318,0.00000705
 ,0.00001679,-0.00004725,0.00005216,0.00009977,0.00006747,0.00013003,0.
 00028247,0.00014523,0.00005325,0.00020043,-0.00003667,0.00008855,0.000
 02113,-0.00010521,-0.00021214,-0.00000432,0.00248396,-0.00206575,0.124
 33307,0.26032695,0.00017802,-0.00025858,0.00009131,-0.00048275,0.00035
 461,-0.00011296,0.00005884,0.00006991,0.00003421,-0.00009574,0.0000277
 4,0.00004733,0.00004008,0.00007264,0.00005155,-0.00015648,0.00008219,-
 0.00001941,0.00004327,0.00002794,-0.00000276,-0.00001322,-0.00006272,-
 0.00002014,-0.00003486,-0.00010474,-0.00007002,0.00009181,-0.00005841,
 -0.00010947,0.00017963,-0.00018280,-0.00006391,0.00069229,-0.00036654,
 0.00021780,-0.00071716,-0.00053447,0.00001427,-0.00100283,0.00291731,-
 0.00287325,0.00112845,-0.00022584,0.00059392,-0.01711530,-0.01900571,-
 0.02511523,-0.00088288,0.00023338,-0.00379878,0.00060242,-0.00036759,0
 .00165523,-0.00036672,-0.00042444,-0.00021312,-0.00008678,0.00005171,-
 0.00016976,0.00015525,0.00003899,0.00018603,0.00019912,-0.00236592,0.0
 0101160,-0.00061816,0.00258391,0.00083465,-0.00135622,-0.00090858,0.00
 425520,0.00052363,0.00086483,-0.00077324,0.00001546,0.00004394,0.00107
 893,-0.00001340,-0.00056757,-0.00055730,-0.00016208,0.00013385,-0.0002
 0464,0.00011945,0.00017796,0.00003748,-0.00002481,-0.00032692,-0.00007
 882,-0.00002807,0.00036231,-0.00029061,-0.00007653,-0.00011254,0.00006
 715,0.00002534,0.00001961,0.00000027,0.00001762,0.00000585,0.00000835,
 -0.00000586,-0.00001644,0.00002409,0.00001493,0.00006496,-0.00000702,-
 0.00000132,-0.00011090,-0.00005471,0.00000514,0.00013122,-0.00034492,0
 .00065293,0.00319517,-0.00789395,-0.11635573,-0.16410104,-0.18349706,0
 .00004669,-0.00001469,0.00001382,-0.00002279,-0.00001525,0.00000507,-0
 .00000489,-0.00001004,-0.00000646,0.00000371,-0.00002151,-0.00000762,0
 .00001364,-0.00000244,0.00000191,0.00000302,-0.00001339,0.00000395,-0.
 00000734,0.00000162,-0.00001144,-0.00002599,0.00005195,-0.00000429,-0.
 00000067,0.00003167,0.00002639,-0.00002920,0.00001887,0.00004699,-0.00
 031337,0.00020457,0.00008326,0.00005489,0.00008336,-0.00013556,0.00019
 042,0.00012536,0.00004298,-0.00134850,-0.00001980,0.00041042,0.0007954
 9,-0.00069374,0.00247765,0.00002828,-0.00011435,-0.00020073,0.00004528
 ,0.00002070,-0.00001930,0.00001290,-0.00000079,0.00002126,-0.00000014,
 0.00000564,0.00000387,-0.00000782,0.00000300,-0.00002848,0.00005796,0.
 00004389,-0.00015068,0.00030933,0.00051462,-0.00030023,-0.00004042,-0.
 00009480,-0.00001556,-0.00002816,0.00001443,-0.00005846,-0.00000291,-0
 .00003760,0.00004801,-0.00000451,-0.00004482,-0.00002817,0.00002290,0.
 00005274,-0.00009899,-0.00010112,0.00035807,-0.00001805,0.00001234,0.0
 0002783,-0.00002666,-0.00000195,0.00000452,-0.00000492,-0.00001547,0.0
 0001108,0.00000013,0.00000401,-0.00000745,-0.00000930,-0.00000034,0.00
 000376,-0.00000894,-0.00000997,-0.00000607,-0.00000365,-0.00000720,0.0
 0000255,-0.00000857,0.00001304,0.00000359,-0.00001067,-0.00000359,0.00
 000752,0.00000287,0.00000197,-0.00000142,0.00002208,-0.00008070,0.0001
 3766,0.00012956,0.00006335,0.00005149,0.00002821,0.00004590,0.00001004
 ,0.00007535,-0.00002815,-0.00008494,-0.00004541,0.00016167,-0.00250720
 ,-0.00080439,0.13505167,0.18054152,0.21462446\\-0.00000085,-0.00000307
 ,-0.00000269,-0.00000049,0.00000002,0.00001539,-0.00000365,-0.00001342
 ,-0.00000469,0.00000100,0.00000225,-0.00000158,-0.00000045,-0.00000860
 ,0.00000108,0.00000152,0.00000358,-0.00000144,0.00001049,0.00000206,0.
 00000685,-0.00000546,0.00001299,-0.00001578,-0.00000521,0.00000045,0.0
 0000320,-0.00000226,-0.00000314,-0.00000298,0.00000208,0.00000010,-0.0
 0000337,0.00000985,0.00000845,-0.00001936,0.00000919,-0.00000377,0.000
 00798,-0.00000050,-0.00000174,-0.00000684,-0.00000289,-0.00000639,-0.0
 0000510,0.00001153,0.00000257,-0.00000614,-0.00000032,-0.00000038,-0.0
 0000394,-0.00000389,-0.00000182,0.00000236,-0.00000018,0.00001457,-0.0
 0000348,0.00000178,0.00000771,-0.00000070,0.00000832,-0.00001119,-0.00
 000374,0.00000211,-0.00000306,-0.00000424,0.00000072,0.00001320,-0.000
 00194,-0.00000340,-0.00000138,0.00000140,0.00000102,-0.00000285,-0.000
 00026,0.00000098,-0.00000497,-0.00000537,-0.00000443,0.00000640,0.0000
 0468,-0.00000371,-0.00000950,0.00000133,-0.00000193,0.00000241,0.00000
 184,0.00000223,0.00000366,0.00000195,-0.00000500,-0.00000519,0.0000030
 7,-0.00000685,-0.00000087,0.00000005,0.00000172,-0.00000452,0.00000452
 ,-0.00000383,-0.00000362,0.00000819,0.00000255,-0.00000110,0.00000285,
 -0.00001023,-0.00000931,0.00000362,0.00000725,0.00000099,-0.00000006,0
 .00000314,0.00000087,-0.00000204,0.00000175,-0.00000379,-0.00000214,-0
 .00000464,-0.00000149,-0.00000212,0.00000435,-0.00000190,-0.00000717,0
 .00000328,-0.00000111,0.00000214,-0.00000247,-0.00000378,-0.00000497,-
 0.00000311,-0.00000107,-0.00000040,-0.00000308,0.00000180,-0.00000117,
 -0.00000436,-0.00000017,0.00000518,-0.00000123,0.00000453,-0.00000562,
 0.00000417,-0.00000897,0.00001224,0.00000027,-0.00000344,0.00000100,0.
 00000352,-0.00000466,-0.00000008,0.00000418,0.00000300,0.00000109,0.00
 000048,-0.00000099,-0.00000691,0.00000437,-0.00000238,-0.00000607,0.00
 000174,0.00000007,-0.00000205,-0.00000333,0.00000027,-0.00000012,0.000
 00502,-0.00000121,-0.00000126,0.00000345,-0.00000326,-0.00000453,0.000
 00206,0.00000959,-0.00000139,0.00000603,0.00000308,-0.00000121,-0.0000
 0510,0.00001089,-0.00000288,-0.00000022,0.00000305,0.00000259,0.000004
 20,0.00000046,-0.00000254,-0.00000534,0.00000008,0.00000196,0.00000352
 ,0.00000344,0.00000665,0.00000393,0.00000489,0.00000240,-0.00000320,0.
 00000476,0.00000012,0.00000271,0.00000375,-0.00000124,-0.00000418,0.00
 000339,-0.00000634,-0.00000110,0.00000093,0.00000132,-0.00000084,0.000
 00036,0.00000651,-0.00000229,0.00000261,0.00000643,-0.00000442,-0.0000
 0097,0.00000665,-0.00000279,0.00000124,0.00000326,-0.00000643,0.000000
 31,0.00000597,-0.00000551,0.00000034,0.00000412,-0.00000422,-0.0000035
 8,0.00000613,-0.00000278,0.00000083,0.00000388,0.00000358,0.00000254,0
 .00000036,0.00000410,0.00000022,0.00000427,-0.00000829,0.00000374,-0.0
 0000304,-0.00000069,-0.00000234,0.00000514,-0.00000308,-0.00000532,0.0
 0000436,-0.00000169,-0.00000117,-0.00000087,0.00000572,-0.00000092,-0.
 00000425\\\@


     "IF I COULD JUST GET IT ON PAPER"
 LIFE AND INK, THEY RUN OUT AT THE SAME TIME,
 OR SO SAID MY OLD FRIEND THE SQUID.
     -- JIMMY BUFFETT, 1981
 Job cpu time:      21 days 10 hours  9 minutes 57.5 seconds.
 File lengths (MBytes):  RWF=  23740 Int=      0 D2E=      0 Chk=     97 Scr=      1
 Normal termination of Gaussian 09 at Fri Mar 25 10:07:36 2016.
