 Entering Gaussian System, Link 0=g09
 Initial command:
 /share/apps//g09/l1.exe "/scratch/Gau-34112.inp" -scrdir="/scratch/"
 Entering Link 1 = /share/apps//g09/l1.exe PID=     34113.
  
 Copyright (c) 1988,1990,1992,1993,1995,1998,2003,2009,2013,
            Gaussian, Inc.  All Rights Reserved.
  
 This is part of the Gaussian(R) 09 program.  It is based on
 the Gaussian(R) 03 system (copyright 2003, Gaussian, Inc.),
 the Gaussian(R) 98 system (copyright 1998, Gaussian, Inc.),
 the Gaussian(R) 94 system (copyright 1995, Gaussian, Inc.),
 the Gaussian 92(TM) system (copyright 1992, Gaussian, Inc.),
 the Gaussian 90(TM) system (copyright 1990, Gaussian, Inc.),
 the Gaussian 88(TM) system (copyright 1988, Gaussian, Inc.),
 the Gaussian 86(TM) system (copyright 1986, Carnegie Mellon
 University), and the Gaussian 82(TM) system (copyright 1983,
 Carnegie Mellon University). Gaussian is a federally registered
 trademark of Gaussian, Inc.
  
 This software contains proprietary and confidential information,
 including trade secrets, belonging to Gaussian, Inc.
  
 This software is provided under written license and may be
 used, copied, transmitted, or stored only in accord with that
 written license.
  
 The following legend is applicable only to US Government
 contracts under FAR:
  
                    RESTRICTED RIGHTS LEGEND
  
 Use, reproduction and disclosure by the US Government is
 subject to restrictions as set forth in subparagraphs (a)
 and (c) of the Commercial Computer Software - Restricted
 Rights clause in FAR 52.227-19.
  
 Gaussian, Inc.
 340 Quinnipiac St., Bldg. 40, Wallingford CT 06492
  
  
 ---------------------------------------------------------------
 Warning -- This program may not be used in any manner that
 competes with the business of Gaussian, Inc. or will provide
 assistance to any competitor of Gaussian, Inc.  The licensee
 of this program is prohibited from giving any competitor of
 Gaussian, Inc. access to this program.  By using this program,
 the user acknowledges that Gaussian, Inc. is engaged in the
 business of creating and licensing software in the field of
 computational chemistry and represents and warrants to the
 licensee that it is not a competitor of Gaussian, Inc. and that
 it will not use this program in any manner prohibited above.
 ---------------------------------------------------------------
  

 Cite this work as:
 Gaussian 09, Revision D.01,
 M. J. Frisch, G. W. Trucks, H. B. Schlegel, G. E. Scuseria, 
 M. A. Robb, J. R. Cheeseman, G. Scalmani, V. Barone, B. Mennucci, 
 G. A. Petersson, H. Nakatsuji, M. Caricato, X. Li, H. P. Hratchian, 
 A. F. Izmaylov, J. Bloino, G. Zheng, J. L. Sonnenberg, M. Hada, 
 M. Ehara, K. Toyota, R. Fukuda, J. Hasegawa, M. Ishida, T. Nakajima, 
 Y. Honda, O. Kitao, H. Nakai, T. Vreven, J. A. Montgomery, Jr., 
 J. E. Peralta, F. Ogliaro, M. Bearpark, J. J. Heyd, E. Brothers, 
 K. N. Kudin, V. N. Staroverov, T. Keith, R. Kobayashi, J. Normand, 
 K. Raghavachari, A. Rendell, J. C. Burant, S. S. Iyengar, J. Tomasi, 
 M. Cossi, N. Rega, J. M. Millam, M. Klene, J. E. Knox, J. B. Cross, 
 V. Bakken, C. Adamo, J. Jaramillo, R. Gomperts, R. E. Stratmann, 
 O. Yazyev, A. J. Austin, R. Cammi, C. Pomelli, J. W. Ochterski, 
 R. L. Martin, K. Morokuma, V. G. Zakrzewski, G. A. Voth, 
 P. Salvador, J. J. Dannenberg, S. Dapprich, A. D. Daniels, 
 O. Farkas, J. B. Foresman, J. V. Ortiz, J. Cioslowski, 
 and D. J. Fox, Gaussian, Inc., Wallingford CT, 2013.
 
 ******************************************
 Gaussian 09:  EM64L-G09RevD.01 24-Apr-2013
                21-Apr-2016 
 ******************************************
 %nproc=20
 Will use up to   20 processors via shared memory.
 %mem=80GB
 %chk=Tri_A131_of.chk
 -------------------------------------------------------------------
 #P PBE1PBE/6-311+G(d,p) opt freq optcyc=999 EmpiricalDispersion=GD3
 -------------------------------------------------------------------
 1/6=999,14=-1,18=20,19=15,26=3,38=1/1,3;
 2/9=110,12=2,17=6,18=5,40=1/2;
 3/5=4,6=6,7=111,11=2,16=1,25=1,30=1,71=1,74=-13,124=31/1,2,3;
 4//1;
 5/5=2,38=5/2;
 6/7=2,8=2,9=2,10=2,28=1/1;
 7//1,2,3,16;
 1/6=999,14=-1,18=20,19=15,26=3/3(2);
 2/9=110/2;
 99//99;
 2/9=110/2;
 3/5=4,6=6,7=111,11=2,16=1,25=1,30=1,71=1,74=-13,124=31/1,2,3;
 4/5=5,16=3,69=1/1;
 5/5=2,38=5/2;
 7//1,2,3,16;
 1/6=999,14=-1,18=20,19=15,26=3/3(-5);
 2/9=110/2;
 6/7=2,8=2,9=2,10=2,19=2,28=1/1;
 99/9=1/99;
 Leave Link    1 at Thu Apr 21 17:03:18 2016, MaxMem= 10737418240 cpu:         1.4
 (Enter /share/apps//g09/l101.exe)
 -----
 trich
 -----
 Symbolic Z-matrix:
 Charge =  1 Multiplicity = 1
 O                     0.8727   -6.50847   9.34803 
 C                    -0.33999  -5.80074   9.22433 
 C                    -0.58263  -4.94653   10.47841 
 C                     0.63754  -4.10369   10.89052 
 C                     1.92261  -4.94599   10.91241 
 C                     2.0105   -5.63655   9.54658 
 H                    -1.11705  -6.57847   9.12945 
 H                    -0.80846  -5.65615   11.29193 
 H                     0.77481  -3.29515   10.15379 
 H                     2.7826   -4.26356   11.03694 
 H                     1.98142  -4.82648   8.79506 
 O                     1.80972  -5.8333    12.0323 
 O                     0.37102  -3.46935   12.13688 
 O                    -1.7217   -4.08329   10.27269 
 O                    -0.34469  -4.93808   8.09397 
 C                     3.25141  -6.45307   9.25287 
 H                     4.14162  -5.92188   9.63285 
 H                     3.18217  -7.44167   9.73471 
 O                     3.32246  -6.58887   7.81669 
 H                     4.04368  -7.20096   7.59548 
 H                     2.69651  -6.07554   12.34585 
 H                     0.61002  -4.12333   12.82618 
 H                    -1.82993  -3.60036   11.11613 
 O                    -0.43983  -5.53658   3.94567 
 C                     0.80737  -5.13445   4.50465 
 C                     0.66987  -4.65626   5.96395 
 C                    -0.16201  -5.60142   6.82394 
 C                    -1.51124  -5.87121   6.14572 
 C                    -1.27723  -6.40182   4.71848 
 H                     1.54505  -5.95922   4.44209 
 H                     0.13919  -3.69547   5.93139 
 H                     0.37147  -6.55512   6.98303 
 H                    -2.05697  -6.65034   6.71114 
 H                    -0.82838  -7.41347   4.79664 
 O                    -2.29063  -4.66352   6.13637 
 O                     1.94792  -4.34485   6.51114 
 O                     1.33416  -4.13148   3.67154 
 C                    -2.57799  -6.50337   3.90992 
 H                    -2.35036  -6.89627   2.9071 
 H                    -3.27156  -7.20001   4.40333 
 O                    -3.24053  -5.23409   3.81471 
 H                    -2.76494  -4.67675   3.12893 
 H                    -2.81467  -4.6827    5.27008 
 H                     2.46016  -5.16555   6.68922 
 O                    -0.02515  -1.45012   1.55143 
 C                    -0.47499  -0.57633   2.54756 
 C                     0.56664  -0.38993   3.66582 
 C                     1.23966  -1.72424   4.06515 
 C                     0.51068  -2.94945   3.48989 
 C                     0.28695  -2.81332   1.96962 
 H                    -0.64259   0.38758   2.0389 
 H                     0.06219   0.00036   4.56256 
 H                     2.26262  -1.72156   3.64539 
 H                     1.24004  -3.06039   1.47285 
 H                    -0.45715  -3.08341   3.99455 
 O                     1.30598  -1.7487    5.49599 
 O                     1.51084   0.61523   3.3091 
 O                    -1.72731  -1.06648   3.08074 
 C                    -0.78159  -3.74982   1.40472 
 H                    -0.86457  -3.55316   0.32329 
 H                    -0.46815  -4.7907    1.55476 
 O                    -2.06922  -3.60177   2.02315 
 H                    -2.18858  -2.64531   2.23364 
 H                     1.92768  -2.45859   5.76246 
 H                     1.95753   0.3366    2.48758 
 C                    -2.65541  -0.0369    3.47848 
 H                    -2.15726   0.66878   4.167 
 H                    -2.97505   0.53331   2.58893 
 C                    -3.85073  -0.70684   4.14146 
 H                    -4.34821  -1.35222   3.40049 
 H                    -4.57836   0.08011   4.39944 
 C                    -3.51341  -1.54646   5.38323 
 H                    -4.421    -2.09395   5.68599 
 H                    -2.77137  -2.3069    5.09553 
 C                    -2.99826  -0.72924   6.57673 
 H                    -2.02045  -0.27114   6.34928 
 H                    -3.68457   0.11086   6.77275 
 C                    -2.88621  -1.51075   7.88311 
 H                    -3.83403  -2.00773   8.13401 
 H                    -2.62378  -0.84292   8.71474 
 N                    -1.84442  -2.5881    7.8323 
 H                    -2.07013  -3.36192   7.13779 
 H                    -1.73658  -3.07916   8.75443 
 H                    -0.92477  -2.20938   7.56708 
 
 NAtoms=     84 NQM=       84 NQMF=       0 NMMI=      0 NMMIF=      0
                NMic=       0 NMicF=      0.
                    Isotopes and Nuclear Properties:
 (Nuclear quadrupole moments (NQMom) in fm**2, nuclear magnetic moments (NMagM)
  in nuclear magnetons)

  Atom         1           2           3           4           5           6           7           8           9          10
 IAtWgt=          16          12          12          12          12          12           1           1           1           1
 AtmWgt=  15.9949146  12.0000000  12.0000000  12.0000000  12.0000000  12.0000000   1.0078250   1.0078250   1.0078250   1.0078250
 NucSpn=           0           0           0           0           0           0           1           1           1           1
 AtZEff=   0.0000000   0.0000000   0.0000000   0.0000000   0.0000000   0.0000000   0.0000000   0.0000000   0.0000000   0.0000000
 NQMom=    0.0000000   0.0000000   0.0000000   0.0000000   0.0000000   0.0000000   0.0000000   0.0000000   0.0000000   0.0000000
 NMagM=    0.0000000   0.0000000   0.0000000   0.0000000   0.0000000   0.0000000   2.7928460   2.7928460   2.7928460   2.7928460
 AtZNuc=   8.0000000   6.0000000   6.0000000   6.0000000   6.0000000   6.0000000   1.0000000   1.0000000   1.0000000   1.0000000

  Atom        11          12          13          14          15          16          17          18          19          20
 IAtWgt=           1          16          16          16          16          12           1           1          16           1
 AtmWgt=   1.0078250  15.9949146  15.9949146  15.9949146  15.9949146  12.0000000   1.0078250   1.0078250  15.9949146   1.0078250
 NucSpn=           1           0           0           0           0           0           1           1           0           1
 AtZEff=   0.0000000   0.0000000   0.0000000   0.0000000   0.0000000   0.0000000   0.0000000   0.0000000   0.0000000   0.0000000
 NQMom=    0.0000000   0.0000000   0.0000000   0.0000000   0.0000000   0.0000000   0.0000000   0.0000000   0.0000000   0.0000000
 NMagM=    2.7928460   0.0000000   0.0000000   0.0000000   0.0000000   0.0000000   2.7928460   2.7928460   0.0000000   2.7928460
 AtZNuc=   1.0000000   8.0000000   8.0000000   8.0000000   8.0000000   6.0000000   1.0000000   1.0000000   8.0000000   1.0000000

  Atom        21          22          23          24          25          26          27          28          29          30
 IAtWgt=           1           1           1          16          12          12          12          12          12           1
 AtmWgt=   1.0078250   1.0078250   1.0078250  15.9949146  12.0000000  12.0000000  12.0000000  12.0000000  12.0000000   1.0078250
 NucSpn=           1           1           1           0           0           0           0           0           0           1
 AtZEff=   0.0000000   0.0000000   0.0000000   0.0000000   0.0000000   0.0000000   0.0000000   0.0000000   0.0000000   0.0000000
 NQMom=    0.0000000   0.0000000   0.0000000   0.0000000   0.0000000   0.0000000   0.0000000   0.0000000   0.0000000   0.0000000
 NMagM=    2.7928460   2.7928460   2.7928460   0.0000000   0.0000000   0.0000000   0.0000000   0.0000000   0.0000000   2.7928460
 AtZNuc=   1.0000000   1.0000000   1.0000000   8.0000000   6.0000000   6.0000000   6.0000000   6.0000000   6.0000000   1.0000000

  Atom        31          32          33          34          35          36          37          38          39          40
 IAtWgt=           1           1           1           1          16          16          16          12           1           1
 AtmWgt=   1.0078250   1.0078250   1.0078250   1.0078250  15.9949146  15.9949146  15.9949146  12.0000000   1.0078250   1.0078250
 NucSpn=           1           1           1           1           0           0           0           0           1           1
 AtZEff=   0.0000000   0.0000000   0.0000000   0.0000000   0.0000000   0.0000000   0.0000000   0.0000000   0.0000000   0.0000000
 NQMom=    0.0000000   0.0000000   0.0000000   0.0000000   0.0000000   0.0000000   0.0000000   0.0000000   0.0000000   0.0000000
 NMagM=    2.7928460   2.7928460   2.7928460   2.7928460   0.0000000   0.0000000   0.0000000   0.0000000   2.7928460   2.7928460
 AtZNuc=   1.0000000   1.0000000   1.0000000   1.0000000   8.0000000   8.0000000   8.0000000   6.0000000   1.0000000   1.0000000

  Atom        41          42          43          44          45          46          47          48          49          50
 IAtWgt=          16           1           1           1          16          12          12          12          12          12
 AtmWgt=  15.9949146   1.0078250   1.0078250   1.0078250  15.9949146  12.0000000  12.0000000  12.0000000  12.0000000  12.0000000
 NucSpn=           0           1           1           1           0           0           0           0           0           0
 AtZEff=   0.0000000   0.0000000   0.0000000   0.0000000   0.0000000   0.0000000   0.0000000   0.0000000   0.0000000   0.0000000
 NQMom=    0.0000000   0.0000000   0.0000000   0.0000000   0.0000000   0.0000000   0.0000000   0.0000000   0.0000000   0.0000000
 NMagM=    0.0000000   2.7928460   2.7928460   2.7928460   0.0000000   0.0000000   0.0000000   0.0000000   0.0000000   0.0000000
 AtZNuc=   8.0000000   1.0000000   1.0000000   1.0000000   8.0000000   6.0000000   6.0000000   6.0000000   6.0000000   6.0000000

  Atom        51          52          53          54          55          56          57          58          59          60
 IAtWgt=           1           1           1           1           1          16          16          16          12           1
 AtmWgt=   1.0078250   1.0078250   1.0078250   1.0078250   1.0078250  15.9949146  15.9949146  15.9949146  12.0000000   1.0078250
 NucSpn=           1           1           1           1           1           0           0           0           0           1
 AtZEff=   0.0000000   0.0000000   0.0000000   0.0000000   0.0000000   0.0000000   0.0000000   0.0000000   0.0000000   0.0000000
 NQMom=    0.0000000   0.0000000   0.0000000   0.0000000   0.0000000   0.0000000   0.0000000   0.0000000   0.0000000   0.0000000
 NMagM=    2.7928460   2.7928460   2.7928460   2.7928460   2.7928460   0.0000000   0.0000000   0.0000000   0.0000000   2.7928460
 AtZNuc=   1.0000000   1.0000000   1.0000000   1.0000000   1.0000000   8.0000000   8.0000000   8.0000000   6.0000000   1.0000000

  Atom        61          62          63          64          65          66          67          68          69          70
 IAtWgt=           1          16           1           1           1          12           1           1          12           1
 AtmWgt=   1.0078250  15.9949146   1.0078250   1.0078250   1.0078250  12.0000000   1.0078250   1.0078250  12.0000000   1.0078250
 NucSpn=           1           0           1           1           1           0           1           1           0           1
 AtZEff=   0.0000000   0.0000000   0.0000000   0.0000000   0.0000000   0.0000000   0.0000000   0.0000000   0.0000000   0.0000000
 NQMom=    0.0000000   0.0000000   0.0000000   0.0000000   0.0000000   0.0000000   0.0000000   0.0000000   0.0000000   0.0000000
 NMagM=    2.7928460   0.0000000   2.7928460   2.7928460   2.7928460   0.0000000   2.7928460   2.7928460   0.0000000   2.7928460
 AtZNuc=   1.0000000   8.0000000   1.0000000   1.0000000   1.0000000   6.0000000   1.0000000   1.0000000   6.0000000   1.0000000

  Atom        71          72          73          74          75          76          77          78          79          80
 IAtWgt=           1          12           1           1          12           1           1          12           1           1
 AtmWgt=   1.0078250  12.0000000   1.0078250   1.0078250  12.0000000   1.0078250   1.0078250  12.0000000   1.0078250   1.0078250
 NucSpn=           1           0           1           1           0           1           1           0           1           1
 AtZEff=   0.0000000   0.0000000   0.0000000   0.0000000   0.0000000   0.0000000   0.0000000   0.0000000   0.0000000   0.0000000
 NQMom=    0.0000000   0.0000000   0.0000000   0.0000000   0.0000000   0.0000000   0.0000000   0.0000000   0.0000000   0.0000000
 NMagM=    2.7928460   0.0000000   2.7928460   2.7928460   0.0000000   2.7928460   2.7928460   0.0000000   2.7928460   2.7928460
 AtZNuc=   1.0000000   6.0000000   1.0000000   1.0000000   6.0000000   1.0000000   1.0000000   6.0000000   1.0000000   1.0000000

  Atom        81          82          83          84
 IAtWgt=          14           1           1           1
 AtmWgt=  14.0030740   1.0078250   1.0078250   1.0078250
 NucSpn=           2           1           1           1
 AtZEff=   0.0000000   0.0000000   0.0000000   0.0000000
 NQMom=    2.0440000   0.0000000   0.0000000   0.0000000
 NMagM=    0.4037610   2.7928460   2.7928460   2.7928460
 AtZNuc=   7.0000000   1.0000000   1.0000000   1.0000000
 Leave Link  101 at Thu Apr 21 17:03:18 2016, MaxMem= 10737418240 cpu:         5.5
 (Enter /share/apps//g09/l103.exe)

 GradGradGradGradGradGradGradGradGradGradGradGradGradGradGradGradGradGrad
 Berny optimization.
 Initialization pass.
                           ----------------------------
                           !    Initial Parameters    !
                           ! (Angstroms and Degrees)  !
 --------------------------                            --------------------------
 ! Name  Definition              Value          Derivative Info.                !
 --------------------------------------------------------------------------------
 ! R1    R(1,2)                  1.4095         estimate D2E/DX2                !
 ! R2    R(1,6)                  1.4472         estimate D2E/DX2                !
 ! R3    R(2,3)                  1.5366         estimate D2E/DX2                !
 ! R4    R(2,7)                  1.1035         estimate D2E/DX2                !
 ! R5    R(2,15)                 1.4219         estimate D2E/DX2                !
 ! R6    R(3,4)                  1.5392         estimate D2E/DX2                !
 ! R7    R(3,8)                  1.1029         estimate D2E/DX2                !
 ! R8    R(3,14)                 1.4439         estimate D2E/DX2                !
 ! R9    R(4,5)                  1.5367         estimate D2E/DX2                !
 ! R10   R(4,9)                  1.1024         estimate D2E/DX2                !
 ! R11   R(4,13)                 1.4237         estimate D2E/DX2                !
 ! R12   R(5,6)                  1.533          estimate D2E/DX2                !
 ! R13   R(5,10)                 1.1049         estimate D2E/DX2                !
 ! R14   R(5,12)                 1.4333         estimate D2E/DX2                !
 ! R15   R(6,11)                 1.1054         estimate D2E/DX2                !
 ! R16   R(6,16)                 1.5142         estimate D2E/DX2                !
 ! R17   R(12,21)                0.9713         estimate D2E/DX2                !
 ! R18   R(13,22)                0.9798         estimate D2E/DX2                !
 ! R19   R(14,23)                0.9779         estimate D2E/DX2                !
 ! R20   R(15,27)                1.4444         estimate D2E/DX2                !
 ! R21   R(16,17)                1.1041         estimate D2E/DX2                !
 ! R22   R(16,18)                1.102          estimate D2E/DX2                !
 ! R23   R(16,19)                1.4443         estimate D2E/DX2                !
 ! R24   R(19,20)                0.9715         estimate D2E/DX2                !
 ! R25   R(24,25)                1.4247         estimate D2E/DX2                !
 ! R26   R(24,29)                1.4308         estimate D2E/DX2                !
 ! R27   R(25,26)                1.5418         estimate D2E/DX2                !
 ! R28   R(25,30)                1.1083         estimate D2E/DX2                !
 ! R29   R(25,37)                1.4062         estimate D2E/DX2                !
 ! R30   R(26,27)                1.5248         estimate D2E/DX2                !
 ! R31   R(26,31)                1.0981         estimate D2E/DX2                !
 ! R32   R(26,36)                1.4247         estimate D2E/DX2                !
 ! R33   R(27,28)                1.534          estimate D2E/DX2                !
 ! R34   R(27,32)                1.1043         estimate D2E/DX2                !
 ! R35   R(28,29)                1.5406         estimate D2E/DX2                !
 ! R36   R(28,33)                1.1066         estimate D2E/DX2                !
 ! R37   R(28,35)                1.4374         estimate D2E/DX2                !
 ! R38   R(29,34)                1.1095         estimate D2E/DX2                !
 ! R39   R(29,38)                1.5349         estimate D2E/DX2                !
 ! R40   R(35,43)                1.0126         estimate D2E/DX2                !
 ! R41   R(36,44)                0.9837         estimate D2E/DX2                !
 ! R42   R(37,49)                1.452          estimate D2E/DX2                !
 ! R43   R(38,39)                1.1008         estimate D2E/DX2                !
 ! R44   R(38,40)                1.0999         estimate D2E/DX2                !
 ! R45   R(38,41)                1.435          estimate D2E/DX2                !
 ! R46   R(41,42)                1.0035         estimate D2E/DX2                !
 ! R47   R(45,46)                1.3993         estimate D2E/DX2                !
 ! R48   R(45,50)                1.4597         estimate D2E/DX2                !
 ! R49   R(46,47)                1.5396         estimate D2E/DX2                !
 ! R50   R(46,51)                1.1027         estimate D2E/DX2                !
 ! R51   R(46,58)                1.4467         estimate D2E/DX2                !
 ! R52   R(47,48)                1.5469         estimate D2E/DX2                !
 ! R53   R(47,52)                1.1004         estimate D2E/DX2                !
 ! R54   R(47,57)                1.4245         estimate D2E/DX2                !
 ! R55   R(48,49)                1.5374         estimate D2E/DX2                !
 ! R56   R(48,53)                1.1057         estimate D2E/DX2                !
 ! R57   R(48,56)                1.4326         estimate D2E/DX2                !
 ! R58   R(49,50)                1.5427         estimate D2E/DX2                !
 ! R59   R(49,55)                1.0997         estimate D2E/DX2                !
 ! R60   R(50,54)                1.1028         estimate D2E/DX2                !
 ! R61   R(50,59)                1.529          estimate D2E/DX2                !
 ! R62   R(56,64)                0.9805         estimate D2E/DX2                !
 ! R63   R(57,65)                0.9757         estimate D2E/DX2                !
 ! R64   R(58,66)                1.4421         estimate D2E/DX2                !
 ! R65   R(59,60)                1.1023         estimate D2E/DX2                !
 ! R66   R(59,61)                1.0974         estimate D2E/DX2                !
 ! R67   R(59,62)                1.4361         estimate D2E/DX2                !
 ! R68   R(62,63)                0.9866         estimate D2E/DX2                !
 ! R69   R(66,67)                1.1046         estimate D2E/DX2                !
 ! R70   R(66,68)                1.1039         estimate D2E/DX2                !
 ! R71   R(66,69)                1.5222         estimate D2E/DX2                !
 ! R72   R(69,70)                1.1014         estimate D2E/DX2                !
 ! R73   R(69,71)                1.1024         estimate D2E/DX2                !
 ! R74   R(69,72)                1.5365         estimate D2E/DX2                !
 ! R75   R(72,73)                1.1023         estimate D2E/DX2                !
 ! R76   R(72,74)                1.1008         estimate D2E/DX2                !
 ! R77   R(72,75)                1.5355         estimate D2E/DX2                !
 ! R78   R(75,76)                1.1035         estimate D2E/DX2                !
 ! R79   R(75,77)                1.1024         estimate D2E/DX2                !
 ! R80   R(75,78)                1.5264         estimate D2E/DX2                !
 ! R81   R(78,79)                1.0992         estimate D2E/DX2                !
 ! R82   R(78,80)                1.0984         estimate D2E/DX2                !
 ! R83   R(78,81)                1.4995         estimate D2E/DX2                !
 ! R84   R(81,82)                1.064          estimate D2E/DX2                !
 ! R85   R(81,83)                1.0503         estimate D2E/DX2                !
 ! R86   R(81,84)                1.0293         estimate D2E/DX2                !
 ! A1    A(2,1,6)              112.7029         estimate D2E/DX2                !
 ! A2    A(1,2,3)              110.0807         estimate D2E/DX2                !
 ! A3    A(1,2,7)              105.0411         estimate D2E/DX2                !
 ! A4    A(1,2,15)             112.1616         estimate D2E/DX2                !
 ! A5    A(3,2,7)              110.5343         estimate D2E/DX2                !
 ! A6    A(3,2,15)             108.1192         estimate D2E/DX2                !
 ! A7    A(7,2,15)             110.9101         estimate D2E/DX2                !
 ! A8    A(2,3,4)              113.4372         estimate D2E/DX2                !
 ! A9    A(2,3,8)              106.0603         estimate D2E/DX2                !
 ! A10   A(2,3,14)             109.9148         estimate D2E/DX2                !
 ! A11   A(4,3,8)              108.4912         estimate D2E/DX2                !
 ! A12   A(4,3,14)             109.642          estimate D2E/DX2                !
 ! A13   A(8,3,14)             109.1606         estimate D2E/DX2                !
 ! A14   A(3,4,5)              111.5067         estimate D2E/DX2                !
 ! A15   A(3,4,9)              108.7473         estimate D2E/DX2                !
 ! A16   A(3,4,13)             109.2679         estimate D2E/DX2                !
 ! A17   A(5,4,9)              107.9027         estimate D2E/DX2                !
 ! A18   A(5,4,13)             112.8497         estimate D2E/DX2                !
 ! A19   A(9,4,13)             106.3541         estimate D2E/DX2                !
 ! A20   A(4,5,6)              106.3896         estimate D2E/DX2                !
 ! A21   A(4,5,10)             108.2981         estimate D2E/DX2                !
 ! A22   A(4,5,12)             106.5352         estimate D2E/DX2                !
 ! A23   A(6,5,10)             109.5128         estimate D2E/DX2                !
 ! A24   A(6,5,12)             114.948          estimate D2E/DX2                !
 ! A25   A(10,5,12)            110.8311         estimate D2E/DX2                !
 ! A26   A(1,6,5)              110.3999         estimate D2E/DX2                !
 ! A27   A(1,6,11)             109.1221         estimate D2E/DX2                !
 ! A28   A(1,6,16)             107.0268         estimate D2E/DX2                !
 ! A29   A(5,6,11)             105.9091         estimate D2E/DX2                !
 ! A30   A(5,6,16)             117.562          estimate D2E/DX2                !
 ! A31   A(11,6,16)            106.5508         estimate D2E/DX2                !
 ! A32   A(5,12,21)            109.556          estimate D2E/DX2                !
 ! A33   A(4,13,22)            105.8332         estimate D2E/DX2                !
 ! A34   A(3,14,23)            105.0498         estimate D2E/DX2                !
 ! A35   A(2,15,27)            114.8303         estimate D2E/DX2                !
 ! A36   A(6,16,17)            109.5462         estimate D2E/DX2                !
 ! A37   A(6,16,18)            110.3322         estimate D2E/DX2                !
 ! A38   A(6,16,19)            106.4924         estimate D2E/DX2                !
 ! A39   A(17,16,18)           109.3779         estimate D2E/DX2                !
 ! A40   A(17,16,19)           110.3519         estimate D2E/DX2                !
 ! A41   A(18,16,19)           110.7035         estimate D2E/DX2                !
 ! A42   A(16,19,20)           108.795          estimate D2E/DX2                !
 ! A43   A(25,24,29)           118.1083         estimate D2E/DX2                !
 ! A44   A(24,25,26)           112.3855         estimate D2E/DX2                !
 ! A45   A(24,25,30)           110.5169         estimate D2E/DX2                !
 ! A46   A(24,25,37)           107.2663         estimate D2E/DX2                !
 ! A47   A(26,25,30)           110.0959         estimate D2E/DX2                !
 ! A48   A(26,25,37)           111.8969         estimate D2E/DX2                !
 ! A49   A(30,25,37)           104.3584         estimate D2E/DX2                !
 ! A50   A(25,26,27)           112.9692         estimate D2E/DX2                !
 ! A51   A(25,26,31)           106.6429         estimate D2E/DX2                !
 ! A52   A(25,26,36)           110.5676         estimate D2E/DX2                !
 ! A53   A(27,26,31)           107.183          estimate D2E/DX2                !
 ! A54   A(27,26,36)           114.097          estimate D2E/DX2                !
 ! A55   A(31,26,36)           104.6946         estimate D2E/DX2                !
 ! A56   A(15,27,26)           106.2748         estimate D2E/DX2                !
 ! A57   A(15,27,28)           110.994          estimate D2E/DX2                !
 ! A58   A(15,27,32)           109.3321         estimate D2E/DX2                !
 ! A59   A(26,27,28)           109.8473         estimate D2E/DX2                !
 ! A60   A(26,27,32)           110.6726         estimate D2E/DX2                !
 ! A61   A(28,27,32)           109.6766         estimate D2E/DX2                !
 ! A62   A(27,28,29)           109.6683         estimate D2E/DX2                !
 ! A63   A(27,28,33)           109.3707         estimate D2E/DX2                !
 ! A64   A(27,28,35)           109.3916         estimate D2E/DX2                !
 ! A65   A(29,28,33)           107.8049         estimate D2E/DX2                !
 ! A66   A(29,28,35)           111.4523         estimate D2E/DX2                !
 ! A67   A(33,28,35)           109.1162         estimate D2E/DX2                !
 ! A68   A(24,29,28)           112.3969         estimate D2E/DX2                !
 ! A69   A(24,29,34)           110.651          estimate D2E/DX2                !
 ! A70   A(24,29,38)           104.5642         estimate D2E/DX2                !
 ! A71   A(28,29,34)           108.0734         estimate D2E/DX2                !
 ! A72   A(28,29,38)           112.4628         estimate D2E/DX2                !
 ! A73   A(34,29,38)           108.6394         estimate D2E/DX2                !
 ! A74   A(28,35,43)           105.6794         estimate D2E/DX2                !
 ! A75   A(26,36,44)           110.7503         estimate D2E/DX2                !
 ! A76   A(25,37,49)           116.2493         estimate D2E/DX2                !
 ! A77   A(29,38,39)           109.1625         estimate D2E/DX2                !
 ! A78   A(29,38,40)           109.8746         estimate D2E/DX2                !
 ! A79   A(29,38,41)           111.574          estimate D2E/DX2                !
 ! A80   A(39,38,40)           108.2393         estimate D2E/DX2                !
 ! A81   A(39,38,41)           110.5322         estimate D2E/DX2                !
 ! A82   A(40,38,41)           107.3889         estimate D2E/DX2                !
 ! A83   A(38,41,42)           108.5287         estimate D2E/DX2                !
 ! A84   A(46,45,50)           116.6126         estimate D2E/DX2                !
 ! A85   A(45,46,47)           112.0345         estimate D2E/DX2                !
 ! A86   A(45,46,51)           105.4459         estimate D2E/DX2                !
 ! A87   A(45,46,58)           109.2127         estimate D2E/DX2                !
 ! A88   A(47,46,51)           109.3935         estimate D2E/DX2                !
 ! A89   A(47,46,58)           111.0391         estimate D2E/DX2                !
 ! A90   A(51,46,58)           109.5487         estimate D2E/DX2                !
 ! A91   A(46,47,48)           112.1753         estimate D2E/DX2                !
 ! A92   A(46,47,52)           108.9471         estimate D2E/DX2                !
 ! A93   A(46,47,57)           110.6099         estimate D2E/DX2                !
 ! A94   A(48,47,52)           107.1584         estimate D2E/DX2                !
 ! A95   A(48,47,57)           112.6394         estimate D2E/DX2                !
 ! A96   A(52,47,57)           104.9311         estimate D2E/DX2                !
 ! A97   A(47,48,49)           112.6152         estimate D2E/DX2                !
 ! A98   A(47,48,53)           107.6032         estimate D2E/DX2                !
 ! A99   A(47,48,56)           107.0202         estimate D2E/DX2                !
 ! A100  A(49,48,53)           107.3712         estimate D2E/DX2                !
 ! A101  A(49,48,56)           112.4623         estimate D2E/DX2                !
 ! A102  A(53,48,56)           109.6559         estimate D2E/DX2                !
 ! A103  A(37,49,48)           109.4537         estimate D2E/DX2                !
 ! A104  A(37,49,50)           106.1035         estimate D2E/DX2                !
 ! A105  A(37,49,55)           110.0325         estimate D2E/DX2                !
 ! A106  A(48,49,50)           111.5429         estimate D2E/DX2                !
 ! A107  A(48,49,55)           110.0404         estimate D2E/DX2                !
 ! A108  A(50,49,55)           109.5944         estimate D2E/DX2                !
 ! A109  A(45,50,49)           113.3135         estimate D2E/DX2                !
 ! A110  A(45,50,54)           105.3648         estimate D2E/DX2                !
 ! A111  A(45,50,59)           108.4657         estimate D2E/DX2                !
 ! A112  A(49,50,54)           107.3861         estimate D2E/DX2                !
 ! A113  A(49,50,59)           114.2923         estimate D2E/DX2                !
 ! A114  A(54,50,59)           107.4768         estimate D2E/DX2                !
 ! A115  A(48,56,64)           108.2486         estimate D2E/DX2                !
 ! A116  A(47,57,65)           108.2275         estimate D2E/DX2                !
 ! A117  A(46,58,66)           114.6377         estimate D2E/DX2                !
 ! A118  A(50,59,60)           107.8059         estimate D2E/DX2                !
 ! A119  A(50,59,61)           109.3195         estimate D2E/DX2                !
 ! A120  A(50,59,62)           113.8505         estimate D2E/DX2                !
 ! A121  A(60,59,61)           108.9578         estimate D2E/DX2                !
 ! A122  A(60,59,62)           109.6694         estimate D2E/DX2                !
 ! A123  A(61,59,62)           107.1581         estimate D2E/DX2                !
 ! A124  A(59,62,63)           107.4752         estimate D2E/DX2                !
 ! A125  A(58,66,67)           109.7418         estimate D2E/DX2                !
 ! A126  A(58,66,68)           109.4439         estimate D2E/DX2                !
 ! A127  A(58,66,69)           108.1364         estimate D2E/DX2                !
 ! A128  A(67,66,68)           107.6298         estimate D2E/DX2                !
 ! A129  A(67,66,69)           111.3343         estimate D2E/DX2                !
 ! A130  A(68,66,69)           110.5438         estimate D2E/DX2                !
 ! A131  A(66,69,70)           108.6367         estimate D2E/DX2                !
 ! A132  A(66,69,71)           107.8212         estimate D2E/DX2                !
 ! A133  A(66,69,72)           114.8412         estimate D2E/DX2                !
 ! A134  A(70,69,71)           106.1172         estimate D2E/DX2                !
 ! A135  A(70,69,72)           108.825          estimate D2E/DX2                !
 ! A136  A(71,69,72)           110.2347         estimate D2E/DX2                !
 ! A137  A(69,72,73)           108.2176         estimate D2E/DX2                !
 ! A138  A(69,72,74)           108.3171         estimate D2E/DX2                !
 ! A139  A(69,72,75)           114.2686         estimate D2E/DX2                !
 ! A140  A(73,72,74)           106.4811         estimate D2E/DX2                !
 ! A141  A(73,72,75)           109.0919         estimate D2E/DX2                !
 ! A142  A(74,72,75)           110.1617         estimate D2E/DX2                !
 ! A143  A(72,75,76)           110.9787         estimate D2E/DX2                !
 ! A144  A(72,75,77)           109.5691         estimate D2E/DX2                !
 ! A145  A(72,75,78)           114.6688         estimate D2E/DX2                !
 ! A146  A(76,75,77)           105.7804         estimate D2E/DX2                !
 ! A147  A(76,75,78)           108.8992         estimate D2E/DX2                !
 ! A148  A(77,75,78)           106.4811         estimate D2E/DX2                !
 ! A149  A(75,78,79)           111.3173         estimate D2E/DX2                !
 ! A150  A(75,78,80)           110.7466         estimate D2E/DX2                !
 ! A151  A(75,78,81)           112.9448         estimate D2E/DX2                !
 ! A152  A(79,78,80)           107.9439         estimate D2E/DX2                !
 ! A153  A(79,78,81)           106.377          estimate D2E/DX2                !
 ! A154  A(80,78,81)           107.247          estimate D2E/DX2                !
 ! A155  A(78,81,82)           113.4068         estimate D2E/DX2                !
 ! A156  A(78,81,83)           112.1789         estimate D2E/DX2                !
 ! A157  A(78,81,84)           111.414          estimate D2E/DX2                !
 ! A158  A(82,81,83)           104.7638         estimate D2E/DX2                !
 ! A159  A(82,81,84)           106.7939         estimate D2E/DX2                !
 ! A160  A(83,81,84)           107.8491         estimate D2E/DX2                !
 ! D1    D(6,1,2,3)            -58.3016         estimate D2E/DX2                !
 ! D2    D(6,1,2,7)           -177.3111         estimate D2E/DX2                !
 ! D3    D(6,1,2,15)            62.1252         estimate D2E/DX2                !
 ! D4    D(2,1,6,5)             67.4316         estimate D2E/DX2                !
 ! D5    D(2,1,6,11)           -48.575          estimate D2E/DX2                !
 ! D6    D(2,1,6,16)          -163.5043         estimate D2E/DX2                !
 ! D7    D(1,2,3,4)             48.8405         estimate D2E/DX2                !
 ! D8    D(1,2,3,8)            -70.1404         estimate D2E/DX2                !
 ! D9    D(1,2,3,14)           171.9831         estimate D2E/DX2                !
 ! D10   D(7,2,3,4)            164.4341         estimate D2E/DX2                !
 ! D11   D(7,2,3,8)             45.4532         estimate D2E/DX2                !
 ! D12   D(7,2,3,14)           -72.4233         estimate D2E/DX2                !
 ! D13   D(15,2,3,4)           -73.9939         estimate D2E/DX2                !
 ! D14   D(15,2,3,8)           167.0253         estimate D2E/DX2                !
 ! D15   D(15,2,3,14)           49.1487         estimate D2E/DX2                !
 ! D16   D(1,2,15,27)           59.9697         estimate D2E/DX2                !
 ! D17   D(3,2,15,27)         -178.4726         estimate D2E/DX2                !
 ! D18   D(7,2,15,27)          -57.133          estimate D2E/DX2                !
 ! D19   D(2,3,4,5)            -48.0213         estimate D2E/DX2                !
 ! D20   D(2,3,4,9)             70.8377         estimate D2E/DX2                !
 ! D21   D(2,3,4,13)          -173.4638         estimate D2E/DX2                !
 ! D22   D(8,3,4,5)             69.554          estimate D2E/DX2                !
 ! D23   D(8,3,4,9)           -171.5869         estimate D2E/DX2                !
 ! D24   D(8,3,4,13)           -55.8884         estimate D2E/DX2                !
 ! D25   D(14,3,4,5)          -171.3138         estimate D2E/DX2                !
 ! D26   D(14,3,4,9)           -52.4547         estimate D2E/DX2                !
 ! D27   D(14,3,4,13)           63.2438         estimate D2E/DX2                !
 ! D28   D(2,3,14,23)          178.0735         estimate D2E/DX2                !
 ! D29   D(4,3,14,23)          -56.5827         estimate D2E/DX2                !
 ! D30   D(8,3,14,23)           62.1365         estimate D2E/DX2                !
 ! D31   D(3,4,5,6)             52.5116         estimate D2E/DX2                !
 ! D32   D(3,4,5,10)           170.1549         estimate D2E/DX2                !
 ! D33   D(3,4,5,12)           -70.5778         estimate D2E/DX2                !
 ! D34   D(9,4,5,6)            -66.8499         estimate D2E/DX2                !
 ! D35   D(9,4,5,10)            50.7935         estimate D2E/DX2                !
 ! D36   D(9,4,5,12)           170.0608         estimate D2E/DX2                !
 ! D37   D(13,4,5,6)           175.9422         estimate D2E/DX2                !
 ! D38   D(13,4,5,10)          -66.4145         estimate D2E/DX2                !
 ! D39   D(13,4,5,12)           52.8528         estimate D2E/DX2                !
 ! D40   D(3,4,13,22)           85.3392         estimate D2E/DX2                !
 ! D41   D(5,4,13,22)          -39.3229         estimate D2E/DX2                !
 ! D42   D(9,4,13,22)         -157.4413         estimate D2E/DX2                !
 ! D43   D(4,5,6,1)            -61.6088         estimate D2E/DX2                !
 ! D44   D(4,5,6,11)            56.388          estimate D2E/DX2                !
 ! D45   D(4,5,6,16)           175.263          estimate D2E/DX2                !
 ! D46   D(10,5,6,1)          -178.444          estimate D2E/DX2                !
 ! D47   D(10,5,6,11)          -60.4472         estimate D2E/DX2                !
 ! D48   D(10,5,6,16)           58.4278         estimate D2E/DX2                !
 ! D49   D(12,5,6,1)            56.0376         estimate D2E/DX2                !
 ! D50   D(12,5,6,11)          174.0345         estimate D2E/DX2                !
 ! D51   D(12,5,6,16)          -67.0906         estimate D2E/DX2                !
 ! D52   D(4,5,12,21)         -153.6605         estimate D2E/DX2                !
 ! D53   D(6,5,12,21)           88.7753         estimate D2E/DX2                !
 ! D54   D(10,5,12,21)         -36.0558         estimate D2E/DX2                !
 ! D55   D(1,6,16,17)         -165.6745         estimate D2E/DX2                !
 ! D56   D(1,6,16,18)          -45.2077         estimate D2E/DX2                !
 ! D57   D(1,6,16,19)           74.9849         estimate D2E/DX2                !
 ! D58   D(5,6,16,17)          -40.8504         estimate D2E/DX2                !
 ! D59   D(5,6,16,18)           79.6163         estimate D2E/DX2                !
 ! D60   D(5,6,16,19)         -160.191          estimate D2E/DX2                !
 ! D61   D(11,6,16,17)          77.6834         estimate D2E/DX2                !
 ! D62   D(11,6,16,18)        -161.8498         estimate D2E/DX2                !
 ! D63   D(11,6,16,19)         -41.6572         estimate D2E/DX2                !
 ! D64   D(2,15,27,26)        -144.0138         estimate D2E/DX2                !
 ! D65   D(2,15,27,28)          96.5887         estimate D2E/DX2                !
 ! D66   D(2,15,27,32)         -24.5312         estimate D2E/DX2                !
 ! D67   D(6,16,19,20)        -172.9518         estimate D2E/DX2                !
 ! D68   D(17,16,19,20)         68.2334         estimate D2E/DX2                !
 ! D69   D(18,16,19,20)        -52.9992         estimate D2E/DX2                !
 ! D70   D(29,24,25,26)        -47.0895         estimate D2E/DX2                !
 ! D71   D(29,24,25,30)         76.3389         estimate D2E/DX2                !
 ! D72   D(29,24,25,37)       -170.4829         estimate D2E/DX2                !
 ! D73   D(25,24,29,28)         51.5379         estimate D2E/DX2                !
 ! D74   D(25,24,29,34)        -69.3865         estimate D2E/DX2                !
 ! D75   D(25,24,29,38)        173.8173         estimate D2E/DX2                !
 ! D76   D(24,25,26,27)         47.0648         estimate D2E/DX2                !
 ! D77   D(24,25,26,31)        -70.4251         estimate D2E/DX2                !
 ! D78   D(24,25,26,36)        176.312          estimate D2E/DX2                !
 ! D79   D(30,25,26,27)        -76.5986         estimate D2E/DX2                !
 ! D80   D(30,25,26,31)        165.9116         estimate D2E/DX2                !
 ! D81   D(30,25,26,36)         52.6487         estimate D2E/DX2                !
 ! D82   D(37,25,26,27)        167.8291         estimate D2E/DX2                !
 ! D83   D(37,25,26,31)         50.3393         estimate D2E/DX2                !
 ! D84   D(37,25,26,36)        -62.9236         estimate D2E/DX2                !
 ! D85   D(24,25,37,49)         58.5341         estimate D2E/DX2                !
 ! D86   D(26,25,37,49)        -65.1592         estimate D2E/DX2                !
 ! D87   D(30,25,37,49)        175.8194         estimate D2E/DX2                !
 ! D88   D(25,26,27,15)       -172.6555         estimate D2E/DX2                !
 ! D89   D(25,26,27,28)        -52.5115         estimate D2E/DX2                !
 ! D90   D(25,26,27,32)         68.7406         estimate D2E/DX2                !
 ! D91   D(31,26,27,15)        -55.4834         estimate D2E/DX2                !
 ! D92   D(31,26,27,28)         64.6606         estimate D2E/DX2                !
 ! D93   D(31,26,27,32)       -174.0872         estimate D2E/DX2                !
 ! D94   D(36,26,27,15)         59.9315         estimate D2E/DX2                !
 ! D95   D(36,26,27,28)       -179.9245         estimate D2E/DX2                !
 ! D96   D(36,26,27,32)        -58.6724         estimate D2E/DX2                !
 ! D97   D(25,26,36,44)        -72.8395         estimate D2E/DX2                !
 ! D98   D(27,26,36,44)         55.8            estimate D2E/DX2                !
 ! D99   D(31,26,36,44)        172.6631         estimate D2E/DX2                !
 ! D100  D(15,27,28,29)        172.3819         estimate D2E/DX2                !
 ! D101  D(15,27,28,33)        -69.5922         estimate D2E/DX2                !
 ! D102  D(15,27,28,35)         49.8645         estimate D2E/DX2                !
 ! D103  D(26,27,28,29)         55.1468         estimate D2E/DX2                !
 ! D104  D(26,27,28,33)        173.1727         estimate D2E/DX2                !
 ! D105  D(26,27,28,35)        -67.3706         estimate D2E/DX2                !
 ! D106  D(32,27,28,29)        -66.7013         estimate D2E/DX2                !
 ! D107  D(32,27,28,33)         51.3246         estimate D2E/DX2                !
 ! D108  D(32,27,28,35)        170.7813         estimate D2E/DX2                !
 ! D109  D(27,28,29,24)        -54.0952         estimate D2E/DX2                !
 ! D110  D(27,28,29,34)         68.2983         estimate D2E/DX2                !
 ! D111  D(27,28,29,38)       -171.7859         estimate D2E/DX2                !
 ! D112  D(33,28,29,24)       -173.0906         estimate D2E/DX2                !
 ! D113  D(33,28,29,34)        -50.6971         estimate D2E/DX2                !
 ! D114  D(33,28,29,38)         69.2187         estimate D2E/DX2                !
 ! D115  D(35,28,29,24)         67.1895         estimate D2E/DX2                !
 ! D116  D(35,28,29,34)       -170.417          estimate D2E/DX2                !
 ! D117  D(35,28,29,38)        -50.5012         estimate D2E/DX2                !
 ! D118  D(27,28,35,43)        145.3376         estimate D2E/DX2                !
 ! D119  D(29,28,35,43)         23.8919         estimate D2E/DX2                !
 ! D120  D(33,28,35,43)        -95.0489         estimate D2E/DX2                !
 ! D121  D(24,29,38,39)         58.3467         estimate D2E/DX2                !
 ! D122  D(24,29,38,40)        176.8983         estimate D2E/DX2                !
 ! D123  D(24,29,38,41)        -64.1115         estimate D2E/DX2                !
 ! D124  D(28,29,38,39)       -179.4171         estimate D2E/DX2                !
 ! D125  D(28,29,38,40)        -60.8654         estimate D2E/DX2                !
 ! D126  D(28,29,38,41)         58.1248         estimate D2E/DX2                !
 ! D127  D(34,29,38,39)        -59.8299         estimate D2E/DX2                !
 ! D128  D(34,29,38,40)         58.7218         estimate D2E/DX2                !
 ! D129  D(34,29,38,41)        177.712          estimate D2E/DX2                !
 ! D130  D(25,37,49,48)        116.4789         estimate D2E/DX2                !
 ! D131  D(25,37,49,50)       -123.0365         estimate D2E/DX2                !
 ! D132  D(25,37,49,55)         -4.5599         estimate D2E/DX2                !
 ! D133  D(29,38,41,42)         77.2082         estimate D2E/DX2                !
 ! D134  D(39,38,41,42)        -44.4607         estimate D2E/DX2                !
 ! D135  D(40,38,41,42)       -162.3336         estimate D2E/DX2                !
 ! D136  D(50,45,46,47)         60.5278         estimate D2E/DX2                !
 ! D137  D(50,45,46,51)        179.4401         estimate D2E/DX2                !
 ! D138  D(50,45,46,58)        -62.9201         estimate D2E/DX2                !
 ! D139  D(46,45,50,49)        -18.8365         estimate D2E/DX2                !
 ! D140  D(46,45,50,54)       -135.9563         estimate D2E/DX2                !
 ! D141  D(46,45,50,59)        109.2019         estimate D2E/DX2                !
 ! D142  D(45,46,47,48)        -42.1578         estimate D2E/DX2                !
 ! D143  D(45,46,47,52)       -160.6313         estimate D2E/DX2                !
 ! D144  D(45,46,47,57)         84.5248         estimate D2E/DX2                !
 ! D145  D(51,46,47,48)       -158.7138         estimate D2E/DX2                !
 ! D146  D(51,46,47,52)         82.8128         estimate D2E/DX2                !
 ! D147  D(51,46,47,57)        -32.0311         estimate D2E/DX2                !
 ! D148  D(58,46,47,48)         80.2567         estimate D2E/DX2                !
 ! D149  D(58,46,47,52)        -38.2167         estimate D2E/DX2                !
 ! D150  D(58,46,47,57)       -153.0606         estimate D2E/DX2                !
 ! D151  D(45,46,58,66)       -146.0318         estimate D2E/DX2                !
 ! D152  D(47,46,58,66)         89.9322         estimate D2E/DX2                !
 ! D153  D(51,46,58,66)        -31.0059         estimate D2E/DX2                !
 ! D154  D(46,47,48,49)        -12.6006         estimate D2E/DX2                !
 ! D155  D(46,47,48,53)        105.5305         estimate D2E/DX2                !
 ! D156  D(46,47,48,56)       -136.6826         estimate D2E/DX2                !
 ! D157  D(52,47,48,49)        106.9247         estimate D2E/DX2                !
 ! D158  D(52,47,48,53)       -134.9442         estimate D2E/DX2                !
 ! D159  D(52,47,48,56)        -17.1573         estimate D2E/DX2                !
 ! D160  D(57,47,48,49)       -138.1811         estimate D2E/DX2                !
 ! D161  D(57,47,48,53)        -20.0501         estimate D2E/DX2                !
 ! D162  D(57,47,48,56)         97.7369         estimate D2E/DX2                !
 ! D163  D(46,47,57,65)        -59.8529         estimate D2E/DX2                !
 ! D164  D(48,47,57,65)         66.5717         estimate D2E/DX2                !
 ! D165  D(52,47,57,65)       -177.1949         estimate D2E/DX2                !
 ! D166  D(47,48,49,37)        168.5825         estimate D2E/DX2                !
 ! D167  D(47,48,49,50)         51.4726         estimate D2E/DX2                !
 ! D168  D(47,48,49,55)        -70.3835         estimate D2E/DX2                !
 ! D169  D(53,48,49,37)         50.3151         estimate D2E/DX2                !
 ! D170  D(53,48,49,50)        -66.7948         estimate D2E/DX2                !
 ! D171  D(53,48,49,55)        171.3491         estimate D2E/DX2                !
 ! D172  D(56,48,49,37)        -70.3965         estimate D2E/DX2                !
 ! D173  D(56,48,49,50)        172.4935         estimate D2E/DX2                !
 ! D174  D(56,48,49,55)         50.6375         estimate D2E/DX2                !
 ! D175  D(47,48,56,64)       -165.4159         estimate D2E/DX2                !
 ! D176  D(49,48,56,64)         70.4084         estimate D2E/DX2                !
 ! D177  D(53,48,56,64)        -48.9807         estimate D2E/DX2                !
 ! D178  D(37,49,50,45)       -156.2511         estimate D2E/DX2                !
 ! D179  D(37,49,50,54)        -40.3214         estimate D2E/DX2                !
 ! D180  D(37,49,50,59)         78.7955         estimate D2E/DX2                !
 ! D181  D(48,49,50,45)        -37.1303         estimate D2E/DX2                !
 ! D182  D(48,49,50,54)         78.7995         estimate D2E/DX2                !
 ! D183  D(48,49,50,59)       -162.0837         estimate D2E/DX2                !
 ! D184  D(55,49,50,45)         84.9831         estimate D2E/DX2                !
 ! D185  D(55,49,50,54)       -159.0871         estimate D2E/DX2                !
 ! D186  D(55,49,50,59)        -39.9703         estimate D2E/DX2                !
 ! D187  D(45,50,59,60)         51.6241         estimate D2E/DX2                !
 ! D188  D(45,50,59,61)        169.9297         estimate D2E/DX2                !
 ! D189  D(45,50,59,62)        -70.2822         estimate D2E/DX2                !
 ! D190  D(49,50,59,60)        179.1049         estimate D2E/DX2                !
 ! D191  D(49,50,59,61)        -62.5894         estimate D2E/DX2                !
 ! D192  D(49,50,59,62)         57.1987         estimate D2E/DX2                !
 ! D193  D(54,50,59,60)        -61.8293         estimate D2E/DX2                !
 ! D194  D(54,50,59,61)         56.4763         estimate D2E/DX2                !
 ! D195  D(54,50,59,62)        176.2644         estimate D2E/DX2                !
 ! D196  D(46,58,66,67)        -52.744          estimate D2E/DX2                !
 ! D197  D(46,58,66,68)         65.156          estimate D2E/DX2                !
 ! D198  D(46,58,66,69)       -174.3641         estimate D2E/DX2                !
 ! D199  D(50,59,62,63)         35.5852         estimate D2E/DX2                !
 ! D200  D(60,59,62,63)        -85.2849         estimate D2E/DX2                !
 ! D201  D(61,59,62,63)        156.5877         estimate D2E/DX2                !
 ! D202  D(58,66,69,70)        -62.7228         estimate D2E/DX2                !
 ! D203  D(58,66,69,71)       -177.3145         estimate D2E/DX2                !
 ! D204  D(58,66,69,72)         59.376          estimate D2E/DX2                !
 ! D205  D(67,66,69,70)        176.6451         estimate D2E/DX2                !
 ! D206  D(67,66,69,71)         62.0535         estimate D2E/DX2                !
 ! D207  D(67,66,69,72)        -61.2561         estimate D2E/DX2                !
 ! D208  D(68,66,69,70)         57.0676         estimate D2E/DX2                !
 ! D209  D(68,66,69,71)        -57.524          estimate D2E/DX2                !
 ! D210  D(68,66,69,72)        179.1665         estimate D2E/DX2                !
 ! D211  D(66,69,72,73)       -171.9038         estimate D2E/DX2                !
 ! D212  D(66,69,72,74)        -56.8438         estimate D2E/DX2                !
 ! D213  D(66,69,72,75)         66.3531         estimate D2E/DX2                !
 ! D214  D(70,69,72,73)        -49.907          estimate D2E/DX2                !
 ! D215  D(70,69,72,74)         65.153          estimate D2E/DX2                !
 ! D216  D(70,69,72,75)       -171.6501         estimate D2E/DX2                !
 ! D217  D(71,69,72,73)         66.0854         estimate D2E/DX2                !
 ! D218  D(71,69,72,74)       -178.8547         estimate D2E/DX2                !
 ! D219  D(71,69,72,75)        -55.6578         estimate D2E/DX2                !
 ! D220  D(69,72,75,76)        -66.0118         estimate D2E/DX2                !
 ! D221  D(69,72,75,77)         50.4381         estimate D2E/DX2                !
 ! D222  D(69,72,75,78)        170.0812         estimate D2E/DX2                !
 ! D223  D(73,72,75,76)        172.7267         estimate D2E/DX2                !
 ! D224  D(73,72,75,77)        -70.8234         estimate D2E/DX2                !
 ! D225  D(73,72,75,78)         48.8197         estimate D2E/DX2                !
 ! D226  D(74,72,75,76)         56.1821         estimate D2E/DX2                !
 ! D227  D(74,72,75,77)        172.632          estimate D2E/DX2                !
 ! D228  D(74,72,75,78)        -67.7249         estimate D2E/DX2                !
 ! D229  D(72,75,78,79)        -53.4432         estimate D2E/DX2                !
 ! D230  D(72,75,78,80)       -173.54           estimate D2E/DX2                !
 ! D231  D(72,75,78,81)         66.1519         estimate D2E/DX2                !
 ! D232  D(76,75,78,79)       -178.4497         estimate D2E/DX2                !
 ! D233  D(76,75,78,80)         61.4535         estimate D2E/DX2                !
 ! D234  D(76,75,78,81)        -58.8546         estimate D2E/DX2                !
 ! D235  D(77,75,78,79)         67.9063         estimate D2E/DX2                !
 ! D236  D(77,75,78,80)        -52.1905         estimate D2E/DX2                !
 ! D237  D(77,75,78,81)       -172.4986         estimate D2E/DX2                !
 ! D238  D(75,78,81,82)        -65.0321         estimate D2E/DX2                !
 ! D239  D(75,78,81,83)        176.5211         estimate D2E/DX2                !
 ! D240  D(75,78,81,84)         55.4953         estimate D2E/DX2                !
 ! D241  D(79,78,81,82)         57.3709         estimate D2E/DX2                !
 ! D242  D(79,78,81,83)        -61.076          estimate D2E/DX2                !
 ! D243  D(79,78,81,84)        177.8982         estimate D2E/DX2                !
 ! D244  D(80,78,81,82)        172.6778         estimate D2E/DX2                !
 ! D245  D(80,78,81,83)         54.2309         estimate D2E/DX2                !
 ! D246  D(80,78,81,84)        -66.7948         estimate D2E/DX2                !
 --------------------------------------------------------------------------------
 Trust Radius=3.00D-01 FncErr=1.00D-07 GrdErr=1.00D-06
 Number of steps in this run=    504 maximum allowed number of steps=    504.
 GradGradGradGradGradGradGradGradGradGradGradGradGradGradGradGradGradGrad

 Leave Link  103 at Thu Apr 21 17:03:19 2016, MaxMem= 10737418240 cpu:         0.4
 (Enter /share/apps//g09/l202.exe)
 Stoichiometry    C23H44NO16(1+)
 Framework group  C1[X(C23H44NO16)]
 Deg. of freedom   246
 Full point group                 C1      NOp   1
 Largest Abelian subgroup         C1      NOp   1
 Largest concise Abelian subgroup C1      NOp   1
                         Standard orientation:                         
 ---------------------------------------------------------------------
 Center     Atomic      Atomic             Coordinates (Angstroms)
 Number     Number       Type             X           Y           Z
 ---------------------------------------------------------------------
      1          8           0        4.295979   -0.938015    0.660549
      2          6           0        3.572497    0.182743    1.115826
      3          6           0        4.241856    1.476808    0.627340
      4          6           0        4.570413    1.466208   -0.876311
      5          6           0        5.280712    0.167426   -1.288615
      6          6           0        4.404972   -0.984209   -0.781756
      7          1           0        3.609581    0.119563    2.216881
      8          1           0        5.185823    1.563634    1.191044
      9          1           0        3.628494    1.532656   -1.445278
     10          1           0        5.331115    0.134795   -2.391881
     11          1           0        3.405613   -0.823010   -1.225757
     12          8           0        6.595072    0.223039   -0.719773
     13          8           0        5.318587    2.632842   -1.201941
     14          8           0        3.401566    2.610708    0.932572
     15          8           0        2.228268    0.177930    0.652207
     16          6           0        4.818472   -2.393484   -1.150251
     17          1           0        5.162102   -2.415258   -2.199282
     18          1           0        5.631979   -2.738358   -0.491798
     19          8           0        3.645417   -3.220487   -0.988658
     20          1           0        3.899278   -4.150551   -1.108159
     21          1           0        7.203088   -0.315014   -1.252882
     22          1           0        6.254113    2.412040   -1.012252
     23          1           0        3.904514    3.390129    0.622940
     24          8           0       -1.153213   -2.158084    1.479416
     25          6           0       -0.505762   -2.390612    0.231854
     26          6           0        0.526832   -1.296859   -0.106645
     27          6           0        1.449482   -0.967546    1.061775
     28          6           0        0.616143   -0.647911    2.309400
     29          6           0       -0.341191   -1.817600    2.607160
     30          1           0       -0.020800   -3.387158    0.225693
     31          1           0       -0.042953   -0.386758   -0.336557
     32          1           0        2.127045   -1.813350    1.273859
     33          1           0        1.288952   -0.531242    3.180194
     34          1           0        0.267863   -2.687808    2.927785
     35          8           0       -0.102287    0.579618    2.101836
     36          8           0        1.210074   -1.610860   -1.316764
     37          8           0       -1.509782   -2.485315   -0.748199
     38          6           0       -1.345307   -1.485056    3.719466
     39          1           0       -1.992874   -2.357901    3.894484
     40          1           0       -0.808607   -1.261826    4.653234
     41          8           0       -2.133237   -0.331517    3.391426
     42          1           0       -2.836573   -0.603527    2.729280
     43          1           0       -0.985816    0.464337    2.583013
     44          1           0        1.842984   -2.350952   -1.177701
     45          8           0       -4.831904   -1.006283   -1.303403
     46          6           0       -4.449706    0.300405   -1.626866
     47          6           0       -3.280244    0.329121   -2.627755
     48          6           0       -2.197997   -0.723728   -2.291518
     49          6           0       -2.378931   -1.330951   -0.890797
     50          6           0       -3.816536   -1.849018   -0.679360
     51          1           0       -5.338781    0.760493   -2.089265
     52          1           0       -2.796931    1.316775   -2.584304
     53          1           0       -2.293810   -1.547196   -3.023209
     54          1           0       -3.893441   -2.824478   -1.188052
     55          1           0       -2.139915   -0.582155   -0.121708
     56          8           0       -0.926361   -0.083425   -2.450432
     57          8           0       -3.760766    0.214112   -3.963786
     58          8           0       -4.112276    1.011933   -0.413317
     59          6           0       -4.198747   -2.063638    0.785486
     60          1           0       -5.242948   -2.415665    0.813296
     61          1           0       -3.550765   -2.835054    1.220486
     62          8           0       -4.063091   -0.888148    1.599235
     63          1           0       -4.311118   -0.112246    1.042614
     64          1           0       -0.233976   -0.777338   -2.473860
     65          1           0       -4.240581   -0.631723   -4.043806
     66          6           0       -4.441694    2.415808   -0.428185
     67          1           0       -4.006281    2.891757   -1.324893
     68          1           0       -5.537621    2.535522   -0.484935
     69          6           0       -3.901273    3.042881    0.849264
     70          1           0       -4.407292    2.578909    1.710491
     71          1           0       -4.197895    4.104608    0.855603
     72          6           0       -2.381948    2.914443    1.038721
     73          1           0       -2.129821    3.268596    2.051705
     74          1           0       -2.118428    1.846173    1.006787
     75          6           0       -1.549626    3.695780    0.011869
     76          1           0       -1.680397    3.279454   -1.001675
     77          1           0       -1.911398    4.735688   -0.042214
     78          6           0       -0.057911    3.772035    0.326371
     79          1           0        0.117408    4.157128    1.340900
     80          1           0        0.455457    4.436899   -0.381362
     81          7           0        0.623096    2.437865    0.257009
     82          1           0        0.282903    1.750796    0.994770
     83          1           0        1.658339    2.512311    0.417704
     84          1           0        0.477280    1.988590   -0.657549
 ---------------------------------------------------------------------
 Rotational constants (GHZ):      0.1382628      0.0609290      0.0578218
 Leave Link  202 at Thu Apr 21 17:03:19 2016, MaxMem= 10737418240 cpu:         1.0
 (Enter /share/apps//g09/l301.exe)
 Standard basis: 6-311+G(d,p) (5D, 7F)
 Ernie: Thresh=  0.10000D-02 Tol=  0.10000D-05 Strict=F.
 There are  1184 symmetry adapted cartesian basis functions of A   symmetry.
 There are  1144 symmetry adapted basis functions of A   symmetry.
  1144 basis functions,  1792 primitive gaussians,  1184 cartesian basis functions
   158 alpha electrons      158 beta electrons
       nuclear repulsion energy      5931.9958241911 Hartrees.
 IExCor= 1009 DFT=T Ex+Corr=PBE1PBE ExCW=0 ScaHFX=  0.250000
 ScaDFX=  0.750000  0.750000  1.000000  1.000000 ScalE2=  1.000000  1.000000
 IRadAn=      0 IRanWt=     -1 IRanGd=            0 ICorTp=0 IEmpDi=131
 NAtoms=   84 NActive=   84 NUniq=   84 SFac= 1.00D+00 NAtFMM=   60 NAOKFM=T Big=T
 Integral buffers will be    131072 words long.
 Raffenetti 2 integral format.
 Two-electron integral symmetry is turned on.
 R6Disp:  Grimme-D3 Dispersion energy=       -0.0865655250 Hartrees.
 Nuclear repulsion after empirical dispersion term =     5931.9092586662 Hartrees.
 Leave Link  301 at Thu Apr 21 17:03:19 2016, MaxMem= 10737418240 cpu:         1.2
 (Enter /share/apps//g09/l302.exe)
 NPDir=0 NMtPBC=     1 NCelOv=     1 NCel=       1 NClECP=     1 NCelD=      1
         NCelK=      1 NCelE2=     1 NClLst=     1 CellRange=     0.0.
 One-electron integrals computed using PRISM.
 NBasis=  1144 RedAO= T EigKep=  1.58D-06  NBF=  1144
 NBsUse=  1142 1.00D-06 EigRej=  9.31D-07 NBFU=  1142
 Precomputing XC quadrature grid using
 IXCGrd= 4 IRadAn=           0 IRanWt=          -1 IRanGd=           0 AccXCQ= 0.00D+00.
 Generated NRdTot=       0 NPtTot=           0 NUsed=           0 NTot=          32
 NSgBfM=  1082  1082  1091  1093  1093 MxSgAt=    84 MxSgA2=    84.
 Leave Link  302 at Thu Apr 21 17:03:23 2016, MaxMem= 10737418240 cpu:        49.1
 (Enter /share/apps//g09/l303.exe)
 DipDrv:  MaxL=1.
 Leave Link  303 at Thu Apr 21 17:03:25 2016, MaxMem= 10737418240 cpu:        21.5
 (Enter /share/apps//g09/l401.exe)
 ExpMin= 4.38D-02 ExpMax= 8.59D+03 ExpMxC= 1.30D+03 IAcc=2 IRadAn=         4 AccDes= 0.00D+00
 Harris functional with IExCor= 1009 and IRadAn=       4 diagonalized for initial guess.
 HarFok:  IExCor= 1009 AccDes= 0.00D+00 IRadAn=         4 IDoV= 1 UseB2=F ITyADJ=14
 ICtDFT=  3500011 ScaDFX=  1.000000  1.000000  1.000000  1.000000
 FoFCou: FMM=F IPFlag=           0 FMFlag=      100000 FMFlg1=        2001
         NFxFlg=           0 DoJE=T BraDBF=F KetDBF=T FulRan=T
         wScrn=  0.000000 ICntrl=     500 IOpCl=  0 I1Cent=   200000004 NGrid=           0
         NMat0=    1 NMatS0=      1 NMatT0=    0 NMatD0=    1 NMtDS0=    0 NMtDT0=    0
 Petite list used in FoFCou.
 Harris En= -2159.71319604680    
 JPrj=0 DoOrth=F DoCkMO=F.
 Leave Link  401 at Thu Apr 21 17:03:38 2016, MaxMem= 10737418240 cpu:       222.8
 (Enter /share/apps//g09/l502.exe)
 Closed shell SCF:
 Using DIIS extrapolation, IDIIS=  1040.
 Integral symmetry usage will be decided dynamically.
 IVT=     4256630 IEndB=     4256630 NGot= 10737418240 MDV= 10734581291
 LenX= 10734581291 LenY= 10733178251
 Requested convergence on RMS density matrix=1.00D-08 within 128 cycles.
 Requested convergence on MAX density matrix=1.00D-06.
 Requested convergence on             energy=1.00D-06.
 No special actions if energy rises.
 Fock matrices will be formed incrementally for  20 cycles.

 Cycle   1  Pass 1  IDiag  1:
 FoFJK:  IHMeth= 1 ICntrl=       0 DoSepK=F KAlg= 0 I1Cent=   0 FoldK=F
 IRaf= 780000000 NMat=   1 IRICut=       1 DoRegI=T DoRafI=F ISym2E= 0.
 FoFCou: FMM=T IPFlag=           0 FMFlag=      100000 FMFlg1=        2001
         NFxFlg=           0 DoJE=F BraDBF=F KetDBF=F FulRan=T
         wScrn=  0.000000 ICntrl=       0 IOpCl=  0 I1Cent=           0 NGrid=           0
         NMat0=    1 NMatS0=      1 NMatT0=    0 NMatD0=    1 NMtDS0=    0 NMtDT0=    0
 Symmetry not used in FoFCou.
 FMM levels:  10  Number of levels for PrismC:   9
 E= -2158.69796514455    
 DIIS: error= 1.14D-02 at cycle   1 NSaved=   1.
 NSaved= 1 IEnMin= 1 EnMin= -2158.69796514455     IErMin= 1 ErrMin= 1.14D-02
 ErrMax= 1.14D-02  0.00D+00 EMaxC= 1.00D-01 BMatC= 1.02D+00 BMatP= 1.02D+00
 IDIUse=3 WtCom= 8.86D-01 WtEn= 1.14D-01
 Coeff-Com:  0.100D+01
 Coeff-En:   0.100D+01
 Coeff:      0.100D+01
 Gap=     0.287 Goal=   None    Shift=    0.000
 GapD=    0.287 DampG=1.000 DampE=0.500 DampFc=0.5000 IDamp=-1.
 Damping current iteration by 5.00D-01
 RMSDP=9.21D-03 MaxDP=1.70D+00              OVMax= 1.33D-01

 Cycle   2  Pass 1  IDiag  1:
 RMSU=  4.58D-03    CP:  1.01D+00
 E= -2158.97856394526     Delta-E=       -0.280598800709 Rises=F Damp=T
 DIIS: error= 3.01D-03 at cycle   2 NSaved=   2.
 NSaved= 2 IEnMin= 2 EnMin= -2158.97856394526     IErMin= 2 ErrMin= 3.01D-03
 ErrMax= 3.01D-03  0.00D+00 EMaxC= 1.00D-01 BMatC= 8.10D-02 BMatP= 1.02D+00
 IDIUse=3 WtCom= 9.70D-01 WtEn= 3.01D-02
 Coeff-Com:  0.594D-01 0.941D+00
 Coeff-En:   0.155D+00 0.845D+00
 Coeff:      0.623D-01 0.938D+00
 Gap=     0.285 Goal=   None    Shift=    0.000
 RMSDP=3.39D-03 MaxDP=1.10D+00 DE=-2.81D-01 OVMax= 8.40D-02

 Cycle   3  Pass 1  IDiag  1:
 RMSU=  2.59D-03    CP:  9.57D-01  8.58D-01
 E= -2159.34365091928     Delta-E=       -0.365086974020 Rises=F Damp=F
 DIIS: error= 2.94D-03 at cycle   3 NSaved=   3.
 NSaved= 3 IEnMin= 3 EnMin= -2159.34365091928     IErMin= 3 ErrMin= 2.94D-03
 ErrMax= 2.94D-03  0.00D+00 EMaxC= 1.00D-01 BMatC= 4.54D-02 BMatP= 8.10D-02
 IDIUse=3 WtCom= 9.71D-01 WtEn= 2.94D-02
 Coeff-Com: -0.685D-01 0.411D+00 0.657D+00
 Coeff-En:   0.000D+00 0.000D+00 0.100D+01
 Coeff:     -0.664D-01 0.399D+00 0.667D+00
 Gap=     0.272 Goal=   None    Shift=    0.000
 RMSDP=1.09D-03 MaxDP=2.58D-01 DE=-3.65D-01 OVMax= 1.75D-02

 Cycle   4  Pass 1  IDiag  1:
 RMSU=  9.73D-04    CP:  9.63D-01  9.25D-01  8.81D-01
 E= -2159.37230655827     Delta-E=       -0.028655638988 Rises=F Damp=F
 DIIS: error= 1.07D-03 at cycle   4 NSaved=   4.
 NSaved= 4 IEnMin= 4 EnMin= -2159.37230655827     IErMin= 4 ErrMin= 1.07D-03
 ErrMax= 1.07D-03  0.00D+00 EMaxC= 1.00D-01 BMatC= 5.80D-03 BMatP= 4.54D-02
 IDIUse=3 WtCom= 9.89D-01 WtEn= 1.07D-02
 Coeff-Com: -0.365D-01 0.126D+00 0.339D+00 0.572D+00
 Coeff-En:   0.000D+00 0.000D+00 0.684D-01 0.932D+00
 Coeff:     -0.361D-01 0.124D+00 0.336D+00 0.576D+00
 Gap=     0.264 Goal=   None    Shift=    0.000
 RMSDP=9.19D-04 MaxDP=2.78D-01 DE=-2.87D-02 OVMax= 6.16D-03

 Cycle   5  Pass 1  IDiag  1:
 RMSU=  3.03D-04    CP:  9.42D-01  8.98D-01  8.69D-01  6.92D-01
 E= -2159.37727156457     Delta-E=       -0.004965006298 Rises=F Damp=F
 DIIS: error= 2.39D-04 at cycle   5 NSaved=   5.
 NSaved= 5 IEnMin= 5 EnMin= -2159.37727156457     IErMin= 5 ErrMin= 2.39D-04
 ErrMax= 2.39D-04  0.00D+00 EMaxC= 1.00D-01 BMatC= 2.72D-04 BMatP= 5.80D-03
 IDIUse=3 WtCom= 9.98D-01 WtEn= 2.39D-03
 Coeff-Com: -0.116D-01 0.265D-01 0.102D+00 0.252D+00 0.631D+00
 Coeff-En:   0.000D+00 0.000D+00 0.000D+00 0.000D+00 0.100D+01
 Coeff:     -0.116D-01 0.265D-01 0.101D+00 0.252D+00 0.632D+00
 Gap=     0.263 Goal=   None    Shift=    0.000
 RMSDP=2.16D-04 MaxDP=7.58D-02 DE=-4.97D-03 OVMax= 1.42D-03

 Cycle   6  Pass 1  IDiag  1:
 RMSU=  8.73D-05    CP:  9.46D-01  9.06D-01  8.96D-01  6.85D-01  6.92D-01
 E= -2159.37747095737     Delta-E=       -0.000199392804 Rises=F Damp=F
 DIIS: error= 6.44D-05 at cycle   6 NSaved=   6.
 NSaved= 6 IEnMin= 6 EnMin= -2159.37747095737     IErMin= 6 ErrMin= 6.44D-05
 ErrMax= 6.44D-05  0.00D+00 EMaxC= 1.00D-01 BMatC= 2.51D-05 BMatP= 2.72D-04
 IDIUse=1 WtCom= 1.00D+00 WtEn= 0.00D+00
 Coeff-Com: -0.405D-02 0.716D-02 0.349D-01 0.101D+00 0.328D+00 0.533D+00
 Coeff:     -0.405D-02 0.716D-02 0.349D-01 0.101D+00 0.328D+00 0.533D+00
 Gap=     0.263 Goal=   None    Shift=    0.000
 RMSDP=3.73D-05 MaxDP=8.69D-03 DE=-1.99D-04 OVMax= 4.27D-04

 Cycle   7  Pass 1  IDiag  1:
 RMSU=  2.02D-05    CP:  9.46D-01  9.06D-01  8.95D-01  6.98D-01  7.10D-01
                    CP:  6.94D-01
 E= -2159.37748931260     Delta-E=       -0.000018355227 Rises=F Damp=F
 DIIS: error= 1.92D-05 at cycle   7 NSaved=   7.
 NSaved= 7 IEnMin= 7 EnMin= -2159.37748931260     IErMin= 7 ErrMin= 1.92D-05
 ErrMax= 1.92D-05  0.00D+00 EMaxC= 1.00D-01 BMatC= 1.68D-06 BMatP= 2.51D-05
 IDIUse=1 WtCom= 1.00D+00 WtEn= 0.00D+00
 Coeff-Com: -0.113D-02 0.160D-02 0.100D-01 0.327D-01 0.118D+00 0.265D+00
 Coeff-Com:  0.574D+00
 Coeff:     -0.113D-02 0.160D-02 0.100D-01 0.327D-01 0.118D+00 0.265D+00
 Coeff:      0.574D+00
 Gap=     0.263 Goal=   None    Shift=    0.000
 RMSDP=9.42D-06 MaxDP=2.17D-03 DE=-1.84D-05 OVMax= 1.27D-04

 Cycle   8  Pass 1  IDiag  1:
 RMSU=  5.77D-06    CP:  9.46D-01  9.06D-01  8.94D-01  7.02D-01  7.16D-01
                    CP:  6.74D-01  7.99D-01
 E= -2159.37749037774     Delta-E=       -0.000001065137 Rises=F Damp=F
 DIIS: error= 7.36D-06 at cycle   8 NSaved=   8.
 NSaved= 8 IEnMin= 8 EnMin= -2159.37749037774     IErMin= 8 ErrMin= 7.36D-06
 ErrMax= 7.36D-06  0.00D+00 EMaxC= 1.00D-01 BMatC= 1.74D-07 BMatP= 1.68D-06
 IDIUse=1 WtCom= 1.00D+00 WtEn= 0.00D+00
 Coeff-Com: -0.124D-04-0.169D-03 0.306D-03 0.263D-02 0.128D-01 0.545D-01
 Coeff-Com:  0.277D+00 0.653D+00
 Coeff:     -0.124D-04-0.169D-03 0.306D-03 0.263D-02 0.128D-01 0.545D-01
 Coeff:      0.277D+00 0.653D+00
 Gap=     0.263 Goal=   None    Shift=    0.000
 RMSDP=3.11D-06 MaxDP=5.99D-04 DE=-1.07D-06 OVMax= 3.73D-05

 Cycle   9  Pass 1  IDiag  1:
 RMSU=  1.79D-06    CP:  9.46D-01  9.06D-01  8.95D-01  7.01D-01  7.17D-01
                    CP:  6.87D-01  8.35D-01  7.97D-01
 E= -2159.37749050500     Delta-E=       -0.000000127267 Rises=F Damp=F
 DIIS: error= 2.38D-06 at cycle   9 NSaved=   9.
 NSaved= 9 IEnMin= 9 EnMin= -2159.37749050500     IErMin= 9 ErrMin= 2.38D-06
 ErrMax= 2.38D-06  0.00D+00 EMaxC= 1.00D-01 BMatC= 1.55D-08 BMatP= 1.74D-07
 IDIUse=1 WtCom= 1.00D+00 WtEn= 0.00D+00
 Coeff-Com:  0.680D-04-0.188D-03-0.541D-03-0.940D-03-0.211D-02 0.762D-02
 Coeff-Com:  0.939D-01 0.320D+00 0.582D+00
 Coeff:      0.680D-04-0.188D-03-0.541D-03-0.940D-03-0.211D-02 0.762D-02
 Coeff:      0.939D-01 0.320D+00 0.582D+00
 Gap=     0.263 Goal=   None    Shift=    0.000
 RMSDP=7.39D-07 MaxDP=1.11D-04 DE=-1.27D-07 OVMax= 1.27D-05

 Cycle  10  Pass 1  IDiag  1:
 RMSU=  5.08D-07    CP:  9.46D-01  9.06D-01  8.95D-01  7.01D-01  7.16D-01
                    CP:  6.88D-01  8.48D-01  8.27D-01  7.99D-01
 E= -2159.37749051588     Delta-E=       -0.000000010874 Rises=F Damp=F
 DIIS: error= 6.42D-07 at cycle  10 NSaved=  10.
 NSaved=10 IEnMin=10 EnMin= -2159.37749051588     IErMin=10 ErrMin= 6.42D-07
 ErrMax= 6.42D-07  0.00D+00 EMaxC= 1.00D-01 BMatC= 1.78D-09 BMatP= 1.55D-08
 IDIUse=1 WtCom= 1.00D+00 WtEn= 0.00D+00
 Coeff-Com:  0.341D-04-0.785D-04-0.311D-03-0.702D-03-0.221D-02-0.973D-03
 Coeff-Com:  0.234D-01 0.108D+00 0.308D+00 0.565D+00
 Coeff:      0.341D-04-0.785D-04-0.311D-03-0.702D-03-0.221D-02-0.973D-03
 Coeff:      0.234D-01 0.108D+00 0.308D+00 0.565D+00
 Gap=     0.263 Goal=   None    Shift=    0.000
 RMSDP=2.41D-07 MaxDP=5.05D-05 DE=-1.09D-08 OVMax= 3.70D-06

 Cycle  11  Pass 1  IDiag  1:
 RMSU=  1.64D-07    CP:  9.46D-01  9.06D-01  8.95D-01  7.01D-01  7.16D-01
                    CP:  6.88D-01  8.49D-01  8.35D-01  7.97D-01  7.25D-01
 E= -2159.37749051699     Delta-E=       -0.000000001112 Rises=F Damp=F
 DIIS: error= 1.54D-07 at cycle  11 NSaved=  11.
 NSaved=11 IEnMin=11 EnMin= -2159.37749051699     IErMin=11 ErrMin= 1.54D-07
 ErrMax= 1.54D-07  0.00D+00 EMaxC= 1.00D-01 BMatC= 1.17D-10 BMatP= 1.78D-09
 IDIUse=1 WtCom= 1.00D+00 WtEn= 0.00D+00
 Coeff-Com:  0.909D-05-0.196D-04-0.100D-03-0.240D-03-0.822D-03-0.961D-03
 Coeff-Com:  0.370D-02 0.243D-01 0.969D-01 0.267D+00 0.610D+00
 Coeff:      0.909D-05-0.196D-04-0.100D-03-0.240D-03-0.822D-03-0.961D-03
 Coeff:      0.370D-02 0.243D-01 0.969D-01 0.267D+00 0.610D+00
 Gap=     0.263 Goal=   None    Shift=    0.000
 RMSDP=7.54D-08 MaxDP=2.11D-05 DE=-1.11D-09 OVMax= 9.93D-07

 Cycle  12  Pass 1  IDiag  1:
 RMSU=  4.40D-08    CP:  9.46D-01  9.06D-01  8.95D-01  7.01D-01  7.16D-01
                    CP:  6.88D-01  8.50D-01  8.38D-01  8.02D-01  7.41D-01
                    CP:  8.00D-01
 E= -2159.37749051713     Delta-E=       -0.000000000139 Rises=F Damp=F
 DIIS: error= 3.99D-08 at cycle  12 NSaved=  12.
 NSaved=12 IEnMin=12 EnMin= -2159.37749051713     IErMin=12 ErrMin= 3.99D-08
 ErrMax= 3.99D-08  0.00D+00 EMaxC= 1.00D-01 BMatC= 1.02D-11 BMatP= 1.17D-10
 IDIUse=1 WtCom= 1.00D+00 WtEn= 0.00D+00
 Coeff-Com:  0.337D-06-0.340D-06-0.136D-04-0.341D-04-0.135D-03-0.321D-03
 Coeff-Com: -0.799D-03-0.757D-03 0.104D-01 0.586D-01 0.277D+00 0.656D+00
 Coeff:      0.337D-06-0.340D-06-0.136D-04-0.341D-04-0.135D-03-0.321D-03
 Coeff:     -0.799D-03-0.757D-03 0.104D-01 0.586D-01 0.277D+00 0.656D+00
 Gap=     0.263 Goal=   None    Shift=    0.000
 RMSDP=2.42D-08 MaxDP=4.80D-06 DE=-1.39D-10 OVMax= 2.72D-07

 Cycle  13  Pass 1  IDiag  1:
 RMSU=  1.33D-08    CP:  9.46D-01  9.06D-01  8.95D-01  7.01D-01  7.16D-01
                    CP:  6.88D-01  8.50D-01  8.37D-01  8.08D-01  7.43D-01
                    CP:  8.12D-01  7.45D-01
 E= -2159.37749051703     Delta-E=        0.000000000095 Rises=F Damp=F
 DIIS: error= 1.26D-08 at cycle  13 NSaved=  13.
 NSaved=13 IEnMin=12 EnMin= -2159.37749051713     IErMin=13 ErrMin= 1.26D-08
 ErrMax= 1.26D-08  0.00D+00 EMaxC= 1.00D-01 BMatC= 7.83D-13 BMatP= 1.02D-11
 IDIUse=1 WtCom= 1.00D+00 WtEn= 0.00D+00
 Coeff-Com: -0.389D-06 0.101D-05-0.438D-06-0.189D-05-0.151D-04-0.918D-04
 Coeff-Com: -0.609D-03-0.187D-02-0.108D-02 0.113D-01 0.934D-01 0.306D+00
 Coeff-Com:  0.593D+00
 Coeff:     -0.389D-06 0.101D-05-0.438D-06-0.189D-05-0.151D-04-0.918D-04
 Coeff:     -0.609D-03-0.187D-02-0.108D-02 0.113D-01 0.934D-01 0.306D+00
 Coeff:      0.593D+00
 Gap=     0.263 Goal=   None    Shift=    0.000
 RMSDP=5.91D-09 MaxDP=7.45D-07 DE= 9.55D-11 OVMax= 1.04D-07

 SCF Done:  E(RPBE1PBE) =  -2159.37749052     A.U. after   13 cycles
            NFock= 13  Conv=0.59D-08     -V/T= 2.0043
[...]
 -0.00015164,-0.00000142,0.00003293,-0.00020392,-0.00036112,0.00000441,
 0.00001440,-0.00002067,-0.00002013,0.00004176,0.00005507,-0.00029884,0
 .00038163,0.00060029,-0.00006848,0.00003851,-0.00035422,-0.00005704,0.
 00018873,-0.00018479,0.00013334,-0.00012156,-0.00003625,-0.00003389,0.
 00000941,-0.00001284,-0.00000053,-0.00000217,-0.00000516,-0.00004383,0
 .00012956,0.00010908,0.00001252,0.00000724,-0.00001020,-0.00010351,0.0
 0007657,-0.00017842,-0.00004477,-0.00000597,0.00007440,-0.00002546,0.0
 0005948,0.00002599,0.00004598,-0.00001032,-0.00007243,0.00006699,0.000
 00231,-0.00005566,-0.00006620,0.00001522,-0.00014173,0.00013005,-0.000
 12857,0.00000909,0.00000081,-0.00001533,0.00000667,-0.00000171,-0.0000
 0101,0.00000456,-0.00000875,0.00004629,0.00000254,-0.00000910,-0.00000
 711,0.00006400,-0.00000697,-0.00000172,0.00000949,-0.00002111,-0.00001
 381,-0.00001797,-0.00038879,0.00010430,0.00013577,-0.00004944,-0.00001
 742,0.00003022,-0.00002490,-0.00001036,0.00006267,0.00003025,-0.000016
 99,-0.00001002,-0.00000312,0.00000299,0.00000342,0.00000015,0.00000614
 ,0.00000782,-0.00003448,0.00002240,0.00002495,0.00000479,-0.00002204,-
 0.00002076,0.00001419,-0.00015623,0.00022255,0.00000573,-0.00000030,-0
 .00000200,0.00000429,-0.00000154,0.00000305,-0.00001144,0.00000692,-0.
 00000172,-0.00000648,-0.00000484,0.00001186,-0.00005889,0.00002191,-0.
 00003190,0.00001548,-0.00001476,-0.00000842,0.00003252,-0.00002482,0.0
 0000476,0.00022515,0.00004701,0.00037426,-0.00004614,-0.00004643,-0.00
 003328,-0.00002768,-0.00006913,-0.00002320,-0.00340006,0.00286481,0.00
 201400,0.00020641,0.00009453,0.00009943,0.00013152,0.00067804,-0.00113
 398,-0.00281182,0.00967550,-0.02229160,-0.00065472,-0.00027522,-0.0005
 4199,0.00102611,-0.00051496,0.00028865,-0.06876526,0.01691647,-0.03515
 300,-0.00130807,0.00476894,-0.01054741,0.07540619,-0.00160611,0.000671
 79,0.00013705,0.00160759,-0.00281798,0.00088219,0.00373492,-0.00382007
 ,0.00135780,0.00046742,0.00132111,-0.00002098,-0.00016100,-0.00040610,
 -0.00001530,0.00064555,0.00045808,-0.00006745,-0.00000802,0.00002883,-
 0.00012279,-0.00065002,0.00047589,-0.00029156,-0.00011788,0.00004868,0
 .00011550,-0.00022144,0.00007361,-0.00008201,0.00003462,-0.00000833,-0
 .00007284,-0.00018814,0.00010016,-0.00018041,-0.00070441,-0.00046275,-
 0.00043482,0.00030591,-0.00573985,-0.00452227,-0.00058300,-0.00091137,
 0.00309832,0.00011023,-0.00011618,-0.00024977,-0.00005943,0.00000940,0
 .00002906,0.00001945,0.00000099,0.00003939,-0.00015945,0.00000157,0.00
 032370,0.00004658,-0.00001091,-0.00003841,0.00002509,-0.00004335,0.000
 08983,0.00014552,0.00001190,0.00018843,-0.00059734,0.00449089,-0.00208
 416,-0.00008752,-0.00019545,0.00022523,0.00004023,0.00008421,-0.000409
 90,-0.00008074,0.00071056,-0.00004447,-0.00004254,-0.00022133,-0.00316
 810,-0.00116022,0.00081462,-0.00047087,0.00051427,-0.00014974,-0.00008
 988,0.00003256,-0.00006109,-0.00003118,-0.00015271,0.00006989,0.000147
 56,-0.00009298,0.00031590,0.00053972,0.00002127,-0.00034339,-0.0000092
 8,0.00005372,-0.00009374,-0.00009505,0.00052276,-0.00389326,-0.0001446
 5,0.00006954,-0.00048796,0.00046199,0.00007436,-0.00053028,0.00040580,
 -0.00024433,0.00029976,0.00002484,0.00006597,-0.00002600,0.00003861,-0
 .00001880,-0.00002818,0.00000428,0.00009784,-0.00037796,0.00003454,0.0
 0003145,0.00016692,-0.00006402,-0.00004243,0.00018429,0.00010906,0.000
 05021,0.00013350,-0.00026929,0.00013546,-0.00026352,-0.00014214,-0.000
 30772,0.00005742,0.00031477,-0.00017128,-0.00000051,0.00009820,0.00006
 704,-0.00000890,0.00026589,-0.00028257,0.00031971,-0.00003171,-0.00002
 705,0.00011932,-0.00001850,0.00001383,0.00000198,-0.00001109,0.0000167
 6,-0.00007287,-0.00002637,0.00002797,0.00000906,-0.00008836,0.00001940
 ,-0.00000639,-0.00002181,0.00003394,0.00006184,0.00003590,0.00030454,-
 0.00021268,-0.00035874,0.00014795,0.00003665,-0.00007840,0.00033339,-0
 .00006104,-0.00033139,-0.00007062,0.00004101,0.00003574,0.00000462,-0.
 00000412,-0.00001118,0.00000789,-0.00001900,-0.00002093,0.00005956,-0.
 00018861,-0.00006511,-0.00003156,0.00015436,0.00013335,-0.00010861,0.0
 0030688,-0.00009962,-0.00002761,-0.00000307,0.00001445,-0.00018461,0.0
 0010163,0.00013154,-0.00001043,-0.00007421,0.00001709,0.00004356,-0.00
 000404,-0.00007789,-0.00008162,-0.00006142,0.00021797,-0.00003680,0.00
 003525,-0.00011301,-0.00001383,0.00009483,-0.00009031,0.00024465,0.000
 14925,-0.00052025,-0.00001812,0.00003399,0.00006095,-0.00018739,0.0002
 6885,0.00034510,0.00253244,-0.00236599,-0.00161445,-0.00000601,0.00010
 697,-0.00030624,0.00008662,-0.00013878,0.00077991,0.00517493,-0.012614
 41,0.01872612,-0.00066860,0.00121503,-0.00012729,-0.00096408,-0.000045
 40,0.00012559,0.01444060,-0.11641783,0.11790958,-0.00196051,0.01859361
 ,-0.02089874,-0.02167252,0.12711058,0.00040783,-0.00010644,-0.00208494
 ,-0.00036206,0.00019108,0.00575308,-0.00890191,0.00568391,0.00156240,-
 0.00023555,-0.00100066,-0.00053294,-0.00010131,0.00081898,0.00049598,-
 0.00018758,-0.00014847,0.00060208,0.00002217,0.00024156,-0.00038317,0.
 00196318,-0.00170652,0.00028210,-0.00030990,0.00002455,0.00015906,0.00
 034780,-0.00016086,0.00005448,0.00008623,-0.00001290,0.00022357,0.0005
 6114,-0.00050181,0.00004820,0.00124682,0.00004107,0.00045965,0.0032166
 9,-0.00734027,0.00437325,-0.00103355,0.00271910,-0.00415716,-0.0002398
 2,0.00016882,0.00043856,-0.00001706,-0.00001806,-0.00005620,-0.0000158
 4,0.00001011,-0.00005222,0.00011999,-0.00005763,-0.00069902,-0.0000261
 1,0.00002523,0.00002534,-0.00003068,0.00008976,-0.00006376,-0.00029243
 ,-0.00000903,-0.00035398,0.00094098,-0.00213285,-0.00202086,-0.0000809
 6,0.00015690,-0.00007254,0.00006487,-0.00002912,-0.00000285,0.00067691
 ,-0.00060961,0.00014509,0.00017954,0.00006126,0.00024957,0.00094421,-0
 .00164018,0.00035392,-0.00022377,0.00014756,-0.00010157,-0.00004995,0.
 00008637,0.00008466,0.00007408,0.00011903,-0.00032798,-0.00006508,0.00
 010977,0.00015650,0.00002112,0.00031375,-0.00001744,-0.00007988,0.0001
 0264,0.00012834,0.00012787,0.00224844,0.00172712,-0.00060088,0.0004372
 3,-0.00058937,-0.00014142,0.00026933,-0.00010836,0.00012624,-0.0003987
 3,-0.00000610,-0.00004197,0.00003942,0.00001963,0.00001160,0.00002109,
 -0.00002677,0.00005760,0.00049173,0.00044850,0.00000363,-0.00004928,-0
 .00008079,-0.00048018,0.00014083,-0.00061854,0.00017819,-0.00023946,0.
 00040793,-0.00015550,0.00021361,0.00020820,0.00039568,-0.00000522,-0.0
 0038737,0.00025945,0.00008176,-0.00017012,-0.00005103,0.00000773,-0.00
 032917,0.00024466,-0.00018028,-0.00000849,0.00002146,-0.00008311,-0.00
 002406,-0.00000734,-0.00001334,0.00001407,-0.00000253,0.00009698,0.000
 03745,-0.00004426,-0.00000306,0.00012047,-0.00002484,0.00000601,0.0000
 2408,-0.00004751,-0.00005455,-0.00003740,-0.00048912,0.00003126,0.0004
 5548,-0.00025564,-0.00014744,0.00012616,-0.00043503,0.00002929,0.00041
 153,0.00012300,-0.00004540,-0.00009108,-0.00000686,-0.00000767,0.00003
 469,-0.00000772,0.00001815,-0.00000802,-0.00011458,0.00014132,0.000190
 42,0.00002343,-0.00014154,-0.00016505,0.00022536,-0.00016569,0.0001394
 8,0.00005015,0.00002650,-0.00002837,0.00022263,-0.00013262,-0.00019952
 ,0.00004097,0.00011595,-0.00004481,-0.00004575,0.00000765,0.00011786,-
 0.00001986,0.00023505,-0.00005326,0.00002194,-0.00002313,0.00019340,-0
 .00004650,-0.00004960,-0.00001921,-0.00016697,-0.00038095,-0.00018132,
 0.00000133,0.00003854,0.00001227,0.00001500,0.00004264,-0.00010289,0.0
 0284851,-0.00258427,-0.00096106,-0.00010788,0.00025293,-0.00019747,0.0
 0050123,-0.00078724,0.00113069,-0.00458457,-0.00039530,0.01197608,0.00
 059871,-0.00023338,0.00022873,0.00039514,-0.00115939,0.00043758,-0.030
 58509,0.11965116,-0.29059722,-0.00311146,0.00629145,-0.02308434,0.0366
 7544,-0.11971474,0.30030505,-0.00035925,0.00001566,0.00005348,0.000241
 61,-0.00021321,-0.00002815,0.00073870,-0.00047664,-0.00003349,0.000149
 35,0.00029197,-0.00026758,-0.00004948,-0.00001500,-0.00008753,0.000183
 67,0.00021607,-0.00007237,-0.00001461,-0.00006170,0.00002919,-0.000169
 05,0.00009307,-0.00003589,0.00001204,-0.00006653,-0.00003968,-0.000054
 03,0.00001008,-0.00002409,-0.00002760,0.00005293,-0.00003653,-0.000028
 88,-0.00006087,0.00009329,-0.00017999,-0.00004906,0.00012349,-0.000616
 43,0.00101191,-0.00121368,-0.00053237,0.00006842,0.00005977,0.00000347
 ,-0.00001914,-0.00005635,-0.00001485,0.00001123,0.00000495,0.00001301,
 -0.00002058,0.00001238,-0.00000591,-0.00008838,0.00009776,0.00000766,0
 .00001914,0.00001246,-0.00000416,0.00000369,-0.00000326,0.00002049,0.0
 0000703,0.00002171,0.00000401,0.00008279,0.00003779,-0.00045827,-0.000
 22912,-0.00002897,0.00045654,0.00014287,0.00018893,0.00027478,0.000500
 58,0.00021640,0.00025149,-0.00008048,-0.00020485,0.00061097,-0.0006019
 8,0.00017069,0.00011146,0.00023766,-0.00023270,-0.00002901,-0.00001404
 ,-0.00005901,0.00056183,0.00057468,0.00040749,-0.00008294,-0.00000670,
 0.00003819,-0.00010606,0.00011231,-0.00002417,-0.00003847,0.00000811,0
 .00006945,-0.00011277,0.00122150,0.00065771,-0.00019299,-0.00055305,-0
 .00009235,-0.00021462,-0.00019863,-0.00001146,0.00007052,-0.00016249,0
 .00002270,-0.00000953,0.00002575,0.00001406,-0.00002138,-0.00000279,-0
 .00001183,-0.00006472,0.00014522,0.00024311,0.00009273,0.00007243,-0.0
 0010182,-0.00012097,-0.00001104,-0.00035622,-0.00015880,0.00005828,-0.
 00018960,-0.00022016,0.00005454,-0.00000347,0.00063756,0.00018341,-0.0
 0011627,0.00008736,-0.00026618,-0.00006698,0.00103291,-0.00011056,0.00
 163854,0.00021632,0.00024775,-0.00019981,-0.00000913,-0.00021977,0.000
 09426,-0.00006647,-0.00001141,-0.00004241,0.00007011,-0.00003483,0.000
 12025,-0.00002053,0.00002218,-0.00053878,-0.00001664,0.00000948,0.0000
 1560,0.00001931,-0.00007683,-0.00003809,-0.00020436,0.00037341,-0.0031
 9006,-0.00015162,0.00018206,-0.00013535,-0.00061909,0.00002181,0.00031
 336,0.00020178,0.00004325,-0.00013489,-0.00005469,-0.00002309,-0.00000
 584,0.00000011,0.00001337,0.00001347,-0.00024555,0.00001055,0.00010245
 ,0.00007504,-0.00005473,-0.00006105,-0.00067102,0.00035885,0.00042108,
 0.00003280,-0.00007206,0.00008082,0.00028645,-0.00016104,-0.00017197,0
 .00002083,0.00005593,-0.00003287,-0.00004513,0.00001897,0.00006160,0.0
 0010131,0.00008285,-0.00011621,0.00001577,-0.00002957,0.00010333,-0.00
 002694,-0.00004569,0.00005203,-0.00030705,-0.00013009,-0.00006556,0.00
 011092,0.00001538,0.00010177,-0.00000938,-0.00011541,-0.00026469,0.001
 17461,-0.00073999,-0.00070699,-0.00004640,0.00056875,-0.00076445,0.000
 53931,-0.00020412,0.00047534,-0.02180577,-0.00626016,0.00671519,-0.000
 80287,0.00379057,0.00021865,0.00119920,-0.00035001,0.00016778,-0.32780
 644,-0.11626334,0.09435241,-0.00838858,-0.00434166,0.00253841,0.007841
 86,0.00139783,-0.00021486,0.34771709,-0.00037972,0.00023359,-0.0003780
 4,0.00004113,-0.00032494,0.00132754,-0.00033203,0.00013812,0.00024041,
 -0.00000253,-0.00002762,0.00023897,0.00005296,0.00001497,0.00010669,0.
 00014613,0.00002494,0.00012823,0.00002204,0.00017818,-0.00017798,0.000
 06729,-0.00006385,-0.00004415,0.00008477,0.00014891,0.00004200,-0.0000
 1743,-0.00000395,-0.00002144,0.00007580,-0.00004001,0.00004762,-0.0000
 2092,0.00001601,-0.00014236,0.00000499,-0.00010231,-0.00024015,0.00043
 671,-0.00036052,0.00042378,0.00036378,0.00145521,-0.00099223,0.0000329
 7,0.00001203,0.00002517,-0.00002640,-0.00000569,-0.00001135,-0.0000037
 5,0.00001385,-0.00000529,-0.00008602,0.00005469,-0.00006359,0.00001967
 ,-0.00000239,-0.00002691,0.00001581,0.00000592,0.00003395,0.00001491,0
 .00000401,0.00000874,0.00005963,0.00000275,0.00006233,0.00016704,0.000
 03911,0.00024321,-0.00035373,0.00063723,-0.00102534,0.00092996,-0.0012
 5144,0.00080026,-0.00010404,-0.00061991,-0.00056679,-0.00035417,0.0000
 6111,-0.00025823,0.00010035,-0.00022463,0.00001451,-0.00001407,0.00002
 978,0.00027323,0.00026262,0.00030099,-0.00141412,0.00004424,0.00016182
 ,0.00003646,0.00004064,0.00001879,0.00001435,0.00001335,-0.00001931,-0
 .00004200,0.00080215,-0.00075368,-0.00064417,-0.00054168,0.00014540,0.
 00001807,0.00006544,-0.00054467,0.00040709,-0.00012652,0.00010264,-0.0
 0002299,0.00002348,-0.00000851,0.00002212,0.00000590,-0.00001111,0.000
 00040,0.00006891,-0.00015003,0.00010851,0.00000540,0.00011501,-0.00008
 697,0.00000613,0.00004102,-0.00022840,0.00004857,-0.00014363,0.0000750
 8,0.00005131,-0.00030698,-0.00011807,0.00002326,0.00013592,0.00024273,
 -0.00024615,0.00014590,0.00021655,0.00027521,-0.00010094,0.00035508,0.
 00000123,0.00040528,-0.00021330,-0.00011956,0.00013025,-0.00005945,0.0
 0000023,-0.00001413,-0.00000295,0.00009540,-0.00010957,0.00002211,-0.0
 0000565,-0.00001918,-0.00013434,0.00001363,-0.00000864,0.00001371,-0.0
 0008370,0.00000951,-0.00004744,-0.00002275,-0.00101506,-0.00031036,0.0
 0008311,-0.00005058,-0.00012856,0.00005184,-0.00015222,-0.00015927,-0.
 00000864,0.00001929,-0.00002631,0.00000093,-0.00000885,0.00000798,-0.0
 0000326,-0.00002002,-0.00002965,0.00001697,-0.00013359,0.00003115,-0.0
 0002072,0.00012624,0.00004524,0.00037707,0.00058580,-0.00049928,0.0000
 0541,0.00001016,0.00001117,0.00000072,0.00014736,0.00012329,-0.0000245
 1,-0.00007940,-0.00001337,-0.00000783,-0.00002969,-0.00003367,0.000040
 51,-0.00007562,0.00000950,-0.00001587,-0.00000042,-0.00003725,0.000020
 88,-0.00000787,0.00001945,-0.00030854,0.00007475,0.00044840,-0.0001331
 1,-0.00016787,-0.00021511,-0.00005122,-0.00004968,-0.00020091,0.000814
 38,0.00214605,-0.00103525,-0.00089767,-0.00104042,0.00092568,-0.000524
 01,-0.00011173,-0.00012636,0.02642954,0.01347423,-0.00913202,0.0040275
 2,-0.00438868,-0.00031003,-0.00014198,0.00048319,-0.00060968,-0.115356
 19,-0.10801594,0.04157105,-0.02186235,-0.00688936,0.01230561,-0.014162
 87,-0.00598270,0.00042230,0.12000763,0.11158732,0.00011388,-0.00016855
 ,-0.00009036,-0.00007615,0.00012287,-0.00008679,0.00015701,0.00024370,
 -0.00027035,0.00027572,0.00053866,-0.00059961,-0.00021957,0.00011622,0
 .00006046,0.00002769,0.00004332,0.00002598,-0.00001455,-0.00006846,0.0
 0003076,-0.00011871,-0.00001786,-0.00000927,-0.00030149,-0.00011234,0.
 00000343,-0.00000752,0.00000483,0.00000586,-0.00006645,0.00005099,0.00
 011719,0.00014134,-0.00020862,0.00006830,0.00001487,-0.00018493,0.0002
 8635,-0.00081379,0.00007915,-0.00074089,0.00013467,-0.00097484,-0.0007
 4677,-0.00009213,0.00004202,0.00019942,-0.00000834,-0.00000390,-0.0000
 2265,0.00000997,-0.00000961,-0.00003260,0.00002615,0.00001616,-0.00025
 945,-0.00000784,0.00000457,0.00001051,-0.00002545,0.00000567,0.0000072
 8,-0.00004958,0.00002597,-0.00002572,0.00011329,0.00020827,-0.00020530
 ,0.00038170,0.00033752,-0.00007259,-0.00049421,-0.00016073,-0.00011676
 ,0.00086625,-0.00097404,0.00060737,-0.00042334,0.00008213,0.00103244,-
 0.00018139,0.00004201,-0.00047142,-0.00020981,-0.00035294,0.00026900,-
 0.00001603,0.00008400,0.00013484,0.00015042,-0.00070401,-0.00051933,0.
 00012187,-0.00000128,-0.00018590,0.00005984,0.00002580,0.00000815,0.00
 002267,0.00002021,-0.00007370,0.00058591,-0.00108253,-0.00133773,-0.00
 039828,0.00046011,-0.00061807,-0.00000783,0.00044358,-0.00010678,0.000
 04167,-0.00000439,-0.00000932,-0.00002080,-0.00000959,-0.00001556,0.00
 002682,0.00001361,0.00000189,0.00000098,0.00006386,-0.00023500,-0.0001
 1312,-0.00014359,0.00011132,0.00010651,-0.00017895,0.00019707,0.000032
 27,-0.00013235,0.00018149,0.00007515,0.00007204,0.00014638,-0.00018931
 ,-0.00007777,-0.00020804,0.00021023,0.00024533,-0.00019717,-0.00047615
 ,0.00007770,-0.00142063,0.00034419,-0.00029518,-0.00001612,-0.00007647
 ,0.00010009,-0.00011056,0.00003392,-0.00001214,0.00005039,-0.00004061,
 0.00016963,-0.00000678,-0.00004003,-0.00003161,0.00044959,-0.00000215,
 -0.00000699,0.00003797,-0.00016630,-0.00010003,-0.00011230,-0.00162704
 ,-0.00023575,0.00130195,-0.00012619,-0.00025799,0.00021562,0.00031602,
 -0.00009834,0.00013977,-0.00009980,-0.00006826,0.00003835,0.00004103,0
 .00001660,0.00002413,-0.00000938,-0.00000242,-0.00000722,0.00017471,0.
 00011666,0.00002199,-0.00007236,-0.00006541,-0.00008277,0.00028625,-0.
 00037773,0.00067354,-0.00000204,0.00005380,-0.00006805,-0.00025403,0.0
 0017902,0.00000311,0.00000695,0.00002851,-0.00000273,0.00003854,-0.000
 01496,0.00002210,0.00010149,-0.00010023,-0.00010534,-0.00000374,0.0000
 1641,-0.00001620,0.00003120,-0.00003233,0.00004405,-0.00019785,0.00030
 333,-0.00010198,0.00027329,-0.00001949,0.00004304,-0.00012101,-0.00035
 816,-0.00014080,-0.00199105,-0.00080384,0.00105226,0.00042385,0.000597
 97,-0.00002449,0.00028759,0.00013773,-0.00030459,0.00163896,-0.0009716
 3,-0.00069269,-0.00058228,-0.00009168,0.00038122,0.00060669,-0.0000730
 7,-0.00057954,0.09275264,0.04100558,-0.09056927,-0.02257722,-0.0052551
 9,0.01145113,0.03134638,0.01028271,-0.00531590,-0.10007916,-0.04163461
 ,0.08747938\\0.00000194,0.00000259,0.00000089,-0.00000928,0.00000507,-
 0.00000657,0.00000361,-0.00000407,-0.00000881,0.00000050,-0.00000616,-
 0.00000707,-0.00000330,-0.00000051,0.00000733,0.00000101,-0.00000980,-
 0.00000922,0.00000232,-0.00000278,-0.00000386,-0.00000272,-0.00000142,
 -0.00000131,-0.00000413,-0.00000327,0.00000303,-0.00000314,-0.00000555
 ,-0.00000064,-0.00000090,-0.00000330,0.00000067,0.00000159,-0.00000133
 ,-0.00000135,-0.00000131,-0.00000377,0.00000513,-0.00000584,-0.0000006
 6,0.00000308,0.00001199,-0.00002009,0.00000304,-0.00000279,0.00000441,
 0.00000267,-0.00000045,-0.00000411,0.00000031,-0.00000026,-0.00000154,
 -0.00000425,0.00000034,-0.00000751,-0.00000467,-0.00000044,0.00000283,
 -0.00000050,-0.00000538,-0.00000392,-0.00000297,-0.00000388,-0.0000041
 6,0.00000022,-0.00000051,-0.00000497,-0.00000064,0.00000476,0.00000643
 ,0.00000285,0.00000277,-0.00000596,0.00000145,-0.00000867,0.00000348,-
 0.00000207,-0.00000875,0.00000674,0.00000061,0.00000942,-0.00000619,0.
 00000160,-0.00000043,-0.00000910,-0.00000531,-0.00000050,0.00000447,-0
 .00000343,0.00000175,0.00000109,-0.00000045,-0.00000088,0.00000002,-0.
 00000278,-0.00000098,0.00000145,-0.00000506,-0.00000180,0.00000480,-0.
 00000109,-0.00000605,0.00000012,-0.00001197,0.00000332,-0.00000357,0.0
 0000117,0.00000122,0.00001055,0.00000012,-0.00000187,0.00001370,-0.000
 00175,-0.00000130,0.00000188,-0.00000253,0.00000276,0.00000176,-0.0000
 0145,-0.00000173,-0.00001518,0.00001703,0.00000389,0.00000936,-0.00001
 748,0.00000410,-0.00000239,0.00000132,0.00000102,0.00000200,0.00000215
 ,-0.00001111,-0.00000088,0.00000626,0.00001065,0.00000372,0.00000040,-
 0.00000202,-0.00000399,-0.00000265,-0.00000261,0.00000792,0.00000414,-
 0.00000057,-0.00000213,-0.00000280,0.00000652,0.00001842,-0.00000360,0
 .00000392,0.00000175,0.00000493,-0.00000006,-0.00000208,0.00000202,0.0
 0000005,0.00000023,0.00000370,0.00000004,0.00000166,0.00000343,0.00000
 219,0.00000296,0.00000056,0.00000520,0.00000004,0.00000183,0.00000069,
 0.00000298,-0.00000225,0.00000119,0.00000098,0.00000284,0.00000603,0.0
 0000189,0.00000234,0.00000094,0.00000220,0.00000281,0.00000080,0.00000
 361,-0.00000224,0.00000550,-0.00000157,-0.00000262,-0.00000247,0.00001
 045,0.00000166,-0.00000364,-0.00000143,0.00000367,0.00000315,0.0000040
 3,0.00001045,0.00000543,0.00000030,0.00000009,-0.00000187,0.00000047,0
 .00000119,0.00000313,0.00000112,0.00000284,-0.00000927,0.00000311,0.00
 000287,0.00000330,0.00000279,0.00000025,0.00000202,-0.00000122,0.00000
 055,0.00000096,-0.00000355,0.00000152,0.00000062,0.00000188,-0.0000000
 9,-0.00000019,0.00000202,0.00000119,0.00000035,0.00000023,0.00000310,-
 0.00000295,-0.00000318,0.00000446,0.00000024,-0.00000062,0.00000277,-0
 .00000659,0.00000357,-0.00000441,0.00000374,-0.00000130,0.00000089,0.0
 0000101,-0.00000154,0.00000152,-0.00001138,0.00000114,-0.00001430,0.00
 000316,0.00000203,-0.00000306,0.00000620,-0.00000892,0.00001209,-0.000
 00333,-0.00000051,0.00000417\\\@


 There ain't no surer way to find out whether you
 like people or hate them than to travel with them.
                                     -- Mark Twain
 Job cpu time:      19 days 16 hours 44 minutes 20.9 seconds.
 File lengths (MBytes):  RWF=  23818 Int=      0 D2E=      0 Chk=     97 Scr=      1
 Normal termination of Gaussian 09 at Sun Apr 24 09:32:25 2016.
