 Entering Gaussian System, Link 0=g09
 Initial command:
 /share/apps//g09/l1.exe "/scratch/Gau-47079.inp" -scrdir="/scratch/"
 Entering Link 1 = /share/apps//g09/l1.exe PID=     47080.
  
 Copyright (c) 1988,1990,1992,1993,1995,1998,2003,2009,2013,
            Gaussian, Inc.  All Rights Reserved.
  
 This is part of the Gaussian(R) 09 program.  It is based on
 the Gaussian(R) 03 system (copyright 2003, Gaussian, Inc.),
 the Gaussian(R) 98 system (copyright 1998, Gaussian, Inc.),
 the Gaussian(R) 94 system (copyright 1995, Gaussian, Inc.),
 the Gaussian 92(TM) system (copyright 1992, Gaussian, Inc.),
 the Gaussian 90(TM) system (copyright 1990, Gaussian, Inc.),
 the Gaussian 88(TM) system (copyright 1988, Gaussian, Inc.),
 the Gaussian 86(TM) system (copyright 1986, Carnegie Mellon
 University), and the Gaussian 82(TM) system (copyright 1983,
 Carnegie Mellon University). Gaussian is a federally registered
 trademark of Gaussian, Inc.
  
 This software contains proprietary and confidential information,
 including trade secrets, belonging to Gaussian, Inc.
  
 This software is provided under written license and may be
 used, copied, transmitted, or stored only in accord with that
 written license.
  
 The following legend is applicable only to US Government
 contracts under FAR:
  
                    RESTRICTED RIGHTS LEGEND
  
 Use, reproduction and disclosure by the US Government is
 subject to restrictions as set forth in subparagraphs (a)
 and (c) of the Commercial Computer Software - Restricted
 Rights clause in FAR 52.227-19.
  
 Gaussian, Inc.
 340 Quinnipiac St., Bldg. 40, Wallingford CT 06492
  
  
 ---------------------------------------------------------------
 Warning -- This program may not be used in any manner that
 competes with the business of Gaussian, Inc. or will provide
 assistance to any competitor of Gaussian, Inc.  The licensee
 of this program is prohibited from giving any competitor of
 Gaussian, Inc. access to this program.  By using this program,
 the user acknowledges that Gaussian, Inc. is engaged in the
 business of creating and licensing software in the field of
 computational chemistry and represents and warrants to the
 licensee that it is not a competitor of Gaussian, Inc. and that
 it will not use this program in any manner prohibited above.
 ---------------------------------------------------------------
  

 Cite this work as:
 Gaussian 09, Revision D.01,
 M. J. Frisch, G. W. Trucks, H. B. Schlegel, G. E. Scuseria, 
 M. A. Robb, J. R. Cheeseman, G. Scalmani, V. Barone, B. Mennucci, 
 G. A. Petersson, H. Nakatsuji, M. Caricato, X. Li, H. P. Hratchian, 
 A. F. Izmaylov, J. Bloino, G. Zheng, J. L. Sonnenberg, M. Hada, 
 M. Ehara, K. Toyota, R. Fukuda, J. Hasegawa, M. Ishida, T. Nakajima, 
 Y. Honda, O. Kitao, H. Nakai, T. Vreven, J. A. Montgomery, Jr., 
 J. E. Peralta, F. Ogliaro, M. Bearpark, J. J. Heyd, E. Brothers, 
 K. N. Kudin, V. N. Staroverov, T. Keith, R. Kobayashi, J. Normand, 
 K. Raghavachari, A. Rendell, J. C. Burant, S. S. Iyengar, J. Tomasi, 
 M. Cossi, N. Rega, J. M. Millam, M. Klene, J. E. Knox, J. B. Cross, 
 V. Bakken, C. Adamo, J. Jaramillo, R. Gomperts, R. E. Stratmann, 
 O. Yazyev, A. J. Austin, R. Cammi, C. Pomelli, J. W. Ochterski, 
 R. L. Martin, K. Morokuma, V. G. Zakrzewski, G. A. Voth, 
 P. Salvador, J. J. Dannenberg, S. Dapprich, A. D. Daniels, 
 O. Farkas, J. B. Foresman, J. V. Ortiz, J. Cioslowski, 
 and D. J. Fox, Gaussian, Inc., Wallingford CT, 2013.
 
 ******************************************
 Gaussian 09:  EM64L-G09RevD.01 24-Apr-2013
                28-Apr-2016 
 ******************************************
 %nproc=20
 Will use up to   20 processors via shared memory.
 %mem=80GB
 %chk=Tri_A131_of.chk
 ----------------------------------------------------------------------
 #P PBE1PBE/6-311+G(d,p) opt=ModRedundant freq optcyc=999 EmpiricalDisp
 ersion=GD3
 ----------------------------------------------------------------------
 1/6=999,14=-1,18=120,19=15,26=3,38=1/1,3;
 2/9=110,12=2,17=6,18=5,40=1/2;
 3/5=4,6=6,7=111,11=2,16=1,25=1,30=1,71=1,74=-13,124=31/1,2,3;
 4//1;
 5/5=2,38=5/2;
 6/7=2,8=2,9=2,10=2,28=1/1;
 7//1,2,3,16;
 1/6=999,14=-1,18=20,19=15,26=3/3(2);
 2/9=110/2;
 99//99;
 2/9=110/2;
 3/5=4,6=6,7=111,11=2,16=1,25=1,30=1,71=1,74=-13,124=31/1,2,3;
 4/5=5,16=3,69=1/1;
 5/5=2,38=5/2;
 7//1,2,3,16;
 1/6=999,14=-1,18=20,19=15,26=3/3(-5);
 2/9=110/2;
 6/7=2,8=2,9=2,10=2,19=2,28=1/1;
 99/9=1/99;
 Leave Link    1 at Thu Apr 28 02:53:03 2016, MaxMem= 10737418240 cpu:         2.6
 (Enter /share/apps//g09/l101.exe)
 -----
 trich
 -----
 Symbolic Z-matrix:
 Charge =  1 Multiplicity = 1
 O                    -0.64244  -0.29607   7.44333 
 C                    -1.23614  -0.7379    6.24826 
 C                    -0.22286  -0.93311   5.10637 
 C                     0.92112  -1.84977   5.57336 
 C                     1.53936  -1.31253   6.86627 
 C                     0.44162  -1.11937   7.92386 
 H                    -1.97584   0.03833   5.99916 
 H                     0.19489   0.05257   4.85409 
 H                     0.53828  -2.86844   5.73336 
 H                     2.24941  -2.06856   7.26098 
 H                     0.06312  -2.12693   8.17883 
 O                     2.24208  -0.13164   6.48185 
 O                     1.94594  -1.97614   4.56959 
 O                    -0.87321  -1.4344    3.93174 
 O                    -1.88494  -2.01577   6.36643 
 C                     0.9342   -0.50914   9.2271 
 H                     0.06437  -0.33002   9.88058 
 H                     1.60333  -1.23763   9.71833 
 O                     1.6255    0.72146   8.95461 
 H                     1.92332   1.11538   9.79073 
 H                     2.30356   0.44445   7.27567 
 H                     2.4943   -1.16697   4.63426 
 H                    -1.64435  -1.95711   4.23743 
 O                    -3.42669  -4.29167   5.83061 
 C                    -3.22572  -4.60485   7.22571 
 C                    -3.00054  -3.31503   8.06762 
 C                    -3.06668  -2.04605   7.19787 
 C                    -4.35607  -2.0292    6.35888 
 C                    -4.54635  -3.40273   5.62782 
 H                    -4.13399  -5.09739   7.61612 
 H                    -2.01444  -3.37844   8.54775 
 H                    -3.05951  -1.16207   7.85512 
 H                    -5.18298  -1.9134    7.07518 
 H                    -5.45168  -3.89465   6.03206 
 O                    -4.43613  -0.88943   5.50979 
 O                    -4.0491   -3.31446   9.04517 
 O                    -2.22616  -5.58114   7.32541 
 C                    -4.7416   -3.29176   4.12885 
 H                    -4.87841  -4.2993    3.70537 
 H                    -5.63456  -2.68207   3.92412 
 O                    -3.55955  -2.67098   3.55898 
 H                    -3.70118  -2.57212   2.60215 
 H                    -3.89252  -1.07826   4.71865 
 H                    -3.76363  -2.78571   9.80934 
 O                     0.83728  -5.89831   5.31392 
 C                     1.79659  -6.23014   6.33686 
 C                     1.54874  -5.33509   7.54963 
 C                     0.09541  -5.41071   8.03059 
 C                    -0.90045  -5.23473   6.87821 
 C                    -0.50107  -6.19713   5.73543 
 H                     1.68133  -7.30452   6.60007 
 H                     1.76406  -4.30067   7.22255 
 H                    -0.07758  -6.41046   8.47327 
 H                    -0.55448  -7.23494   6.12584 
 H                    -0.8816   -4.1966    6.51126 
 O                    -0.13099  -4.40338   9.02327 
 O                     2.3565   -5.6899    8.66991 
 O                     3.07049  -5.94995   5.86179 
 C                    -1.38818  -6.15286   4.5004 
 H                    -0.98609  -6.86066   3.76164 
 H                    -2.4056   -6.46789   4.76995 
 O                    -1.42423  -4.8646    3.86705 
 H                    -2.10833  -4.33838   4.3382 
 H                     0.4873   -4.5977    9.75115 
 H                     3.28871  -5.60518   8.39987 
 C                     3.54637  -6.8512    4.82692 
 H                     4.22614  -7.58488   5.2898 
 H                     2.69067  -7.3953    4.39912 
 C                     4.27668  -6.04157   3.76173 
 H                     4.65224  -6.7474    3.00188 
 H                     5.16538  -5.5807    4.21995 
 C                     3.43332  -4.93647   3.10706 
 H                     3.08479  -4.26425   3.90634 
 H                     4.09171  -4.33601   2.45774 
 C                     2.24662  -5.45031   2.27932 
 H                     2.61118  -6.09579   1.46379 
 H                     1.58559  -6.07321   2.90193 
 C                     1.41135  -4.34813   1.63271 
 H                     0.6501   -4.77186   0.96421 
 H                     2.03762  -3.66178   1.04459 
 N                     0.68576  -3.52374   2.65613 
 H                     0.13427  -2.75957   2.24383 
 H                     1.33062  -3.03287   3.32324 
 H                    -0.00703  -4.09625   3.21225 
 
 The following ModRedundant input section has been read:
 B      45      84 B                                                           
 B      58      84 B                                                           
 B      56      84 B                                                           
 B      41      82 B                                                           
 B      62      82 B                                                           
 B      35      82 B                                                           
 B      13      83 B                                                           
 B      19      83 B                                                           
 B      14      83 B                                                           
 
 NAtoms=     84 NQM=       84 NQMF=       0 NMMI=      0 NMMIF=      0
                NMic=       0 NMicF=      0.
                    Isotopes and Nuclear Properties:
 (Nuclear quadrupole moments (NQMom) in fm**2, nuclear magnetic moments (NMagM)
  in nuclear magnetons)

  Atom         1           2           3           4           5           6           7           8           9          10
 IAtWgt=          16          12          12          12          12          12           1           1           1           1
 AtmWgt=  15.9949146  12.0000000  12.0000000  12.0000000  12.0000000  12.0000000   1.0078250   1.0078250   1.0078250   1.0078250
 NucSpn=           0           0           0           0           0           0           1           1           1           1
 AtZEff=   0.0000000   0.0000000   0.0000000   0.0000000   0.0000000   0.0000000   0.0000000   0.0000000   0.0000000   0.0000000
 NQMom=    0.0000000   0.0000000   0.0000000   0.0000000   0.0000000   0.0000000   0.0000000   0.0000000   0.0000000   0.0000000
 NMagM=    0.0000000   0.0000000   0.0000000   0.0000000   0.0000000   0.0000000   2.7928460   2.7928460   2.7928460   2.7928460
 AtZNuc=   8.0000000   6.0000000   6.0000000   6.0000000   6.0000000   6.0000000   1.0000000   1.0000000   1.0000000   1.0000000

  Atom        11          12          13          14          15          16          17          18          19          20
 IAtWgt=           1          16          16          16          16          12           1           1          16           1
 AtmWgt=   1.0078250  15.9949146  15.9949146  15.9949146  15.9949146  12.0000000   1.0078250   1.0078250  15.9949146   1.0078250
 NucSpn=           1           0           0           0           0           0           1           1           0           1
 AtZEff=   0.0000000   0.0000000   0.0000000   0.0000000   0.0000000   0.0000000   0.0000000   0.0000000   0.0000000   0.0000000
 NQMom=    0.0000000   0.0000000   0.0000000   0.0000000   0.0000000   0.0000000   0.0000000   0.0000000   0.0000000   0.0000000
 NMagM=    2.7928460   0.0000000   0.0000000   0.0000000   0.0000000   0.0000000   2.7928460   2.7928460   0.0000000   2.7928460
 AtZNuc=   1.0000000   8.0000000   8.0000000   8.0000000   8.0000000   6.0000000   1.0000000   1.0000000   8.0000000   1.0000000

  Atom        21          22          23          24          25          26          27          28          29          30
 IAtWgt=           1           1           1          16          12          12          12          12          12           1
 AtmWgt=   1.0078250   1.0078250   1.0078250  15.9949146  12.0000000  12.0000000  12.0000000  12.0000000  12.0000000   1.0078250
 NucSpn=           1           1           1           0           0           0           0           0           0           1
 AtZEff=   0.0000000   0.0000000   0.0000000   0.0000000   0.0000000   0.0000000   0.0000000   0.0000000   0.0000000   0.0000000
 NQMom=    0.0000000   0.0000000   0.0000000   0.0000000   0.0000000   0.0000000   0.0000000   0.0000000   0.0000000   0.0000000
 NMagM=    2.7928460   2.7928460   2.7928460   0.0000000   0.0000000   0.0000000   0.0000000   0.0000000   0.0000000   2.7928460
 AtZNuc=   1.0000000   1.0000000   1.0000000   8.0000000   6.0000000   6.0000000   6.0000000   6.0000000   6.0000000   1.0000000

  Atom        31          32          33          34          35          36          37          38          39          40
 IAtWgt=           1           1           1           1          16          16          16          12           1           1
 AtmWgt=   1.0078250   1.0078250   1.0078250   1.0078250  15.9949146  15.9949146  15.9949146  12.0000000   1.0078250   1.0078250
 NucSpn=           1           1           1           1           0           0           0           0           1           1
 AtZEff=   0.0000000   0.0000000   0.0000000   0.0000000   0.0000000   0.0000000   0.0000000   0.0000000   0.0000000   0.0000000
 NQMom=    0.0000000   0.0000000   0.0000000   0.0000000   0.0000000   0.0000000   0.0000000   0.0000000   0.0000000   0.0000000
 NMagM=    2.7928460   2.7928460   2.7928460   2.7928460   0.0000000   0.0000000   0.0000000   0.0000000   2.7928460   2.7928460
 AtZNuc=   1.0000000   1.0000000   1.0000000   1.0000000   8.0000000   8.0000000   8.0000000   6.0000000   1.0000000   1.0000000

  Atom        41          42          43          44          45          46          47          48          49          50
 IAtWgt=          16           1           1           1          16          12          12          12          12          12
 AtmWgt=  15.9949146   1.0078250   1.0078250   1.0078250  15.9949146  12.0000000  12.0000000  12.0000000  12.0000000  12.0000000
 NucSpn=           0           1           1           1           0           0           0           0           0           0
 AtZEff=   0.0000000   0.0000000   0.0000000   0.0000000   0.0000000   0.0000000   0.0000000   0.0000000   0.0000000   0.0000000
 NQMom=    0.0000000   0.0000000   0.0000000   0.0000000   0.0000000   0.0000000   0.0000000   0.0000000   0.0000000   0.0000000
 NMagM=    0.0000000   2.7928460   2.7928460   2.7928460   0.0000000   0.0000000   0.0000000   0.0000000   0.0000000   0.0000000
 AtZNuc=   8.0000000   1.0000000   1.0000000   1.0000000   8.0000000   6.0000000   6.0000000   6.0000000   6.0000000   6.0000000

  Atom        51          52          53          54          55          56          57          58          59          60
 IAtWgt=           1           1           1           1           1          16          16          16          12           1
 AtmWgt=   1.0078250   1.0078250   1.0078250   1.0078250   1.0078250  15.9949146  15.9949146  15.9949146  12.0000000   1.0078250
 NucSpn=           1           1           1           1           1           0           0           0           0           1
 AtZEff=   0.0000000   0.0000000   0.0000000   0.0000000   0.0000000   0.0000000   0.0000000   0.0000000   0.0000000   0.0000000
 NQMom=    0.0000000   0.0000000   0.0000000   0.0000000   0.0000000   0.0000000   0.0000000   0.0000000   0.0000000   0.0000000
 NMagM=    2.7928460   2.7928460   2.7928460   2.7928460   2.7928460   0.0000000   0.0000000   0.0000000   0.0000000   2.7928460
 AtZNuc=   1.0000000   1.0000000   1.0000000   1.0000000   1.0000000   8.0000000   8.0000000   8.0000000   6.0000000   1.0000000

  Atom        61          62          63          64          65          66          67          68          69          70
 IAtWgt=           1          16           1           1           1          12           1           1          12           1
 AtmWgt=   1.0078250  15.9949146   1.0078250   1.0078250   1.0078250  12.0000000   1.0078250   1.0078250  12.0000000   1.0078250
 NucSpn=           1           0           1           1           1           0           1           1           0           1
 AtZEff=   0.0000000   0.0000000   0.0000000   0.0000000   0.0000000   0.0000000   0.0000000   0.0000000   0.0000000   0.0000000
 NQMom=    0.0000000   0.0000000   0.0000000   0.0000000   0.0000000   0.0000000   0.0000000   0.0000000   0.0000000   0.0000000
 NMagM=    2.7928460   0.0000000   2.7928460   2.7928460   2.7928460   0.0000000   2.7928460   2.7928460   0.0000000   2.7928460
 AtZNuc=   1.0000000   8.0000000   1.0000000   1.0000000   1.0000000   6.0000000   1.0000000   1.0000000   6.0000000   1.0000000

  Atom        71          72          73          74          75          76          77          78          79          80
 IAtWgt=           1          12           1           1          12           1           1          12           1           1
 AtmWgt=   1.0078250  12.0000000   1.0078250   1.0078250  12.0000000   1.0078250   1.0078250  12.0000000   1.0078250   1.0078250
 NucSpn=           1           0           1           1           0           1           1           0           1           1
 AtZEff=   0.0000000   0.0000000   0.0000000   0.0000000   0.0000000   0.0000000   0.0000000   0.0000000   0.0000000   0.0000000
 NQMom=    0.0000000   0.0000000   0.0000000   0.0000000   0.0000000   0.0000000   0.0000000   0.0000000   0.0000000   0.0000000
 NMagM=    2.7928460   0.0000000   2.7928460   2.7928460   0.0000000   2.7928460   2.7928460   0.0000000   2.7928460   2.7928460
 AtZNuc=   1.0000000   6.0000000   1.0000000   1.0000000   6.0000000   1.0000000   1.0000000   6.0000000   1.0000000   1.0000000

  Atom        81          82          83          84
 IAtWgt=          14           1           1           1
 AtmWgt=  14.0030740   1.0078250   1.0078250   1.0078250
 NucSpn=           2           1           1           1
 AtZEff=   0.0000000   0.0000000   0.0000000   0.0000000
 NQMom=    2.0440000   0.0000000   0.0000000   0.0000000
 NMagM=    0.4037610   2.7928460   2.7928460   2.7928460
 AtZNuc=   7.0000000   1.0000000   1.0000000   1.0000000
 Leave Link  101 at Thu Apr 28 02:53:04 2016, MaxMem= 10737418240 cpu:         4.9
 (Enter /share/apps//g09/l103.exe)

 GradGradGradGradGradGradGradGradGradGradGradGradGradGradGradGradGradGrad
 Berny optimization.
 Initialization pass.
                           ----------------------------
                           !    Initial Parameters    !
                           ! (Angstroms and Degrees)  !
 --------------------------                            --------------------------
 ! Name  Definition              Value          Derivative Info.                !
 --------------------------------------------------------------------------------
 ! R1    R(1,2)                  1.4057         estimate D2E/DX2                !
 ! R2    R(1,6)                  1.4436         estimate D2E/DX2                !
 ! R3    R(2,3)                  1.5391         estimate D2E/DX2                !
 ! R4    R(2,7)                  1.1008         estimate D2E/DX2                !
 ! R5    R(2,15)                 1.438          estimate D2E/DX2                !
 ! R6    R(3,4)                  1.5385         estimate D2E/DX2                !
 ! R7    R(3,8)                  1.0999         estimate D2E/DX2                !
 ! R8    R(3,14)                 1.4332         estimate D2E/DX2                !
 ! R9    R(4,5)                  1.5305         estimate D2E/DX2                !
 ! R10   R(4,9)                  1.0999         estimate D2E/DX2                !
 ! R11   R(4,13)                 1.4401         estimate D2E/DX2                !
 ! R12   R(5,6)                  1.5365         estimate D2E/DX2                !
 ! R13   R(5,10)                 1.1098         estimate D2E/DX2                !
 ! R14   R(5,12)                 1.4269         estimate D2E/DX2                !
 ! R15   R(6,11)                 1.1061         estimate D2E/DX2                !
 ! R16   R(6,16)                 1.521          estimate D2E/DX2                !
 ! R17   R(12,21)                0.9828         estimate D2E/DX2                !
 ! R18   R(13,22)                0.9796         estimate D2E/DX2                !
 ! R19   R(13,83)                1.746          estimate D2E/DX2                !
 ! R20   R(14,23)                0.9805         estimate D2E/DX2                !
 ! R21   R(14,83)                2.7897         estimate D2E/DX2                !
 ! R22   R(15,27)                1.4452         estimate D2E/DX2                !
 ! R23   R(16,17)                1.1026         estimate D2E/DX2                !
 ! R24   R(16,18)                1.1044         estimate D2E/DX2                !
 ! R25   R(16,19)                1.4375         estimate D2E/DX2                !
 ! R26   R(19,20)                0.9711         estimate D2E/DX2                !
 ! R27   R(19,83)                6.7745         estimate D2E/DX2                !
 ! R28   R(24,25)                1.4439         estimate D2E/DX2                !
 ! R29   R(24,29)                1.4439         estimate D2E/DX2                !
 ! R30   R(25,26)                1.5566         estimate D2E/DX2                !
 ! R31   R(25,30)                1.1045         estimate D2E/DX2                !
 ! R32   R(25,37)                1.4008         estimate D2E/DX2                !
 ! R33   R(26,27)                1.5399         estimate D2E/DX2                !
 ! R34   R(26,31)                1.0986         estimate D2E/DX2                !
 ! R35   R(26,36)                1.4336         estimate D2E/DX2                !
 ! R36   R(27,28)                1.5384         estimate D2E/DX2                !
 ! R37   R(27,32)                1.1016         estimate D2E/DX2                !
 ! R38   R(28,29)                1.5676         estimate D2E/DX2                !
 ! R39   R(28,33)                1.1001         estimate D2E/DX2                !
 ! R40   R(28,35)                1.4235         estimate D2E/DX2                !
 ! R41   R(29,34)                1.1068         estimate D2E/DX2                !
 ! R42   R(29,38)                1.5157         estimate D2E/DX2                !
 ! R43   R(35,43)                0.9783         estimate D2E/DX2                !
 ! R44   R(35,82)                5.9205         estimate D2E/DX2                !
 ! R45   R(36,44)                0.9721         estimate D2E/DX2                !
 ! R46   R(37,49)                1.4414         estimate D2E/DX2                !
 ! R47   R(38,39)                1.1014         estimate D2E/DX2                !
 ! R48   R(38,40)                1.1005         estimate D2E/DX2                !
 ! R49   R(38,41)                1.4517         estimate D2E/DX2                !
 ! R50   R(41,42)                0.9723         estimate D2E/DX2                !
 ! R51   R(41,82)                3.922          estimate D2E/DX2                !
 ! R52   R(45,46)                1.4411         estimate D2E/DX2                !
 ! R53   R(45,50)                1.4346         estimate D2E/DX2                !
 ! R54   R(45,84)                2.8944         estimate D2E/DX2                !
 ! R55   R(46,47)                1.5275         estimate D2E/DX2                !
 ! R56   R(46,51)                1.1121         estimate D2E/DX2                !
 ! R57   R(46,58)                1.3882         estimate D2E/DX2                !
 ! R58   R(47,48)                1.5327         estimate D2E/DX2                !
 ! R59   R(47,52)                1.1061         estimate D2E/DX2                !
 ! R60   R(47,57)                1.426          estimate D2E/DX2                !
 ! R61   R(48,49)                1.5332         estimate D2E/DX2                !
 ! R62   R(48,53)                1.107          estimate D2E/DX2                !
 ! R63   R(48,56)                1.4323         estimate D2E/DX2                !
 ! R64   R(49,50)                1.5465         estimate D2E/DX2                !
 ! R65   R(49,55)                1.1012         estimate D2E/DX2                !
 ! R66   R(50,54)                1.1101         estimate D2E/DX2                !
 ! R67   R(50,59)                1.5213         estimate D2E/DX2                !
 ! R68   R(56,64)                0.9746         estimate D2E/DX2                !
 ! R69   R(56,84)                5.8205         estimate D2E/DX2                !
 ! R70   R(57,65)                0.9742         estimate D2E/DX2                !
 ! R71   R(58,66)                1.4525         estimate D2E/DX2                !
 ! R72   R(58,84)                4.464          estimate D2E/DX2                !
 ! R73   R(59,60)                1.0993         estimate D2E/DX2                !
 ! R74   R(59,61)                1.0987         estimate D2E/DX2                !
 ! R75   R(59,62)                1.436          estimate D2E/DX2                !
 ! R76   R(62,63)                0.9833         estimate D2E/DX2                !
 ! R77   R(62,82)                3.0814         estimate D2E/DX2                !
 ! R78   R(66,67)                1.1021         estimate D2E/DX2                !
 ! R79   R(66,68)                1.1006         estimate D2E/DX2                !
 ! R80   R(66,69)                1.5243         estimate D2E/DX2                !
 ! R81   R(69,70)                1.103          estimate D2E/DX2                !
 ! R82   R(69,71)                1.101          estimate D2E/DX2                !
 ! R83   R(69,72)                1.5366         estimate D2E/DX2                !
 ! R84   R(72,73)                1.101          estimate D2E/DX2                !
 ! R85   R(72,74)                1.1026         estimate D2E/DX2                !
 ! R86   R(72,75)                1.5354         estimate D2E/DX2                !
 ! R87   R(75,76)                1.1021         estimate D2E/DX2                !
 ! R88   R(75,77)                1.1012         estimate D2E/DX2                !
 ! R89   R(75,78)                1.5266         estimate D2E/DX2                !
 ! R90   R(78,79)                1.0982         estimate D2E/DX2                !
 ! R91   R(78,80)                1.0996         estimate D2E/DX2                !
 ! R92   R(78,81)                1.5012         estimate D2E/DX2                !
 ! R93   R(81,82)                1.0286         estimate D2E/DX2                !
 ! R94   R(81,83)                1.0497         estimate D2E/DX2                !
 ! R95   R(81,84)                1.0569         estimate D2E/DX2                !
 ! A1    A(2,1,6)              114.8924         estimate D2E/DX2                !
 ! A2    A(1,2,3)              113.1148         estimate D2E/DX2                !
 ! A3    A(1,2,7)              104.7475         estimate D2E/DX2                !
 ! A4    A(1,2,15)             113.5792         estimate D2E/DX2                !
 ! A5    A(3,2,7)              111.343          estimate D2E/DX2                !
 ! A6    A(3,2,15)             104.1996         estimate D2E/DX2                !
 ! A7    A(7,2,15)             110.0016         estimate D2E/DX2                !
 ! A8    A(2,3,4)              109.8712         estimate D2E/DX2                !
 ! A9    A(2,3,8)              107.8526         estimate D2E/DX2                !
 ! A10   A(2,3,14)             110.7134         estimate D2E/DX2                !
 ! A11   A(4,3,8)              108.7327         estimate D2E/DX2                !
 ! A12   A(4,3,14)             112.1968         estimate D2E/DX2                !
 ! A13   A(8,3,14)             107.3267         estimate D2E/DX2                !
 ! A14   A(3,4,5)              110.3423         estimate D2E/DX2                !
 ! A15   A(3,4,9)              109.7027         estimate D2E/DX2                !
 ! A16   A(3,4,13)             111.7074         estimate D2E/DX2                !
 ! A17   A(5,4,9)              110.0476         estimate D2E/DX2                !
 ! A18   A(5,4,13)             109.3999         estimate D2E/DX2                !
 ! A19   A(9,4,13)             105.5344         estimate D2E/DX2                !
 ! A20   A(4,5,6)              109.6935         estimate D2E/DX2                !
 ! A21   A(4,5,10)             108.6494         estimate D2E/DX2                !
 ! A22   A(4,5,12)             105.1797         estimate D2E/DX2                !
 ! A23   A(6,5,10)             107.3345         estimate D2E/DX2                !
 ! A24   A(6,5,12)             115.6733         estimate D2E/DX2                !
 ! A25   A(10,5,12)            110.1525         estimate D2E/DX2                !
 ! A26   A(1,6,5)              112.2772         estimate D2E/DX2                !
 ! A27   A(1,6,11)             109.8325         estimate D2E/DX2                !
 ! A28   A(1,6,16)             107.4336         estimate D2E/DX2                !
 ! A29   A(5,6,11)             106.7758         estimate D2E/DX2                !
 ! A30   A(5,6,16)             114.1312         estimate D2E/DX2                !
 ! A31   A(11,6,16)            106.1869         estimate D2E/DX2                !
 ! A32   A(5,12,21)            107.3569         estimate D2E/DX2                !
 ! A33   A(4,13,22)            106.252          estimate D2E/DX2                !
 ! A34   A(4,13,83)            107.4497         estimate D2E/DX2                !
 ! A35   A(22,13,83)           138.0993         estimate D2E/DX2                !
 ! A36   A(3,14,23)            106.7285         estimate D2E/DX2                !
 ! A37   A(3,14,83)             91.1867         estimate D2E/DX2                !
 ! A38   A(23,14,83)           112.5731         estimate D2E/DX2                !
 ! A39   A(2,15,27)            115.7735         estimate D2E/DX2                !
 ! A40   A(6,16,17)            108.5125         estimate D2E/DX2                !
 ! A41   A(6,16,18)            108.2207         estimate D2E/DX2                !
 ! A42   A(6,16,19)            109.6802         estimate D2E/DX2                !
 ! A43   A(17,16,18)           108.754          estimate D2E/DX2                !
 ! A44   A(17,16,19)           110.6493         estimate D2E/DX2                !
 ! A45   A(18,16,19)           110.9538         estimate D2E/DX2                !
 ! A46   A(16,19,20)           109.3621         estimate D2E/DX2                !
 ! A47   A(16,19,83)            70.2589         estimate D2E/DX2                !
 ! A48   A(20,19,83)           162.5346         estimate D2E/DX2                !
 ! A49   A(25,24,29)           112.1578         estimate D2E/DX2                !
 ! A50   A(24,25,26)           111.2839         estimate D2E/DX2                !
 ! A51   A(24,25,30)           108.8924         estimate D2E/DX2                !
 ! A52   A(24,25,37)           108.6183         estimate D2E/DX2                !
 ! A53   A(26,25,30)           107.2941         estimate D2E/DX2                !
 ! A54   A(26,25,37)           115.8346         estimate D2E/DX2                !
 ! A55   A(30,25,37)           104.5266         estimate D2E/DX2                !
 ! A56   A(25,26,27)           111.7855         estimate D2E/DX2                !
 ! A57   A(25,26,31)           108.5654         estimate D2E/DX2                !
 ! A58   A(25,26,36)           105.2677         estimate D2E/DX2                !
 ! A59   A(27,26,31)           109.449          estimate D2E/DX2                !
 ! A60   A(27,26,36)           110.6963         estimate D2E/DX2                !
 ! A61   A(31,26,36)           111.0106         estimate D2E/DX2                !
 ! A62   A(15,27,26)           107.8838         estimate D2E/DX2                !
 ! A63   A(15,27,28)           111.7987         estimate D2E/DX2                !
 ! A64   A(15,27,32)           108.7304         estimate D2E/DX2                !
 ! A65   A(26,27,28)           110.6746         estimate D2E/DX2                !
 ! A66   A(26,27,32)           108.9068         estimate D2E/DX2                !
 ! A67   A(28,27,32)           108.7873         estimate D2E/DX2                !
 ! A68   A(27,28,29)           110.2721         estimate D2E/DX2                !
 ! A69   A(27,28,33)           106.0243         estimate D2E/DX2                !
 ! A70   A(27,28,35)           112.4078         estimate D2E/DX2                !
 ! A71   A(29,28,33)           107.737          estimate D2E/DX2                !
 ! A72   A(29,28,35)           114.6176         estimate D2E/DX2                !
 ! A73   A(33,28,35)           105.1777         estimate D2E/DX2                !
 ! A74   A(24,29,28)           112.3218         estimate D2E/DX2                !
 ! A75   A(24,29,34)           108.0203         estimate D2E/DX2                !
 ! A76   A(24,29,38)           106.4902         estimate D2E/DX2                !
 ! A77   A(28,29,34)           108.5659         estimate D2E/DX2                !
 ! A78   A(28,29,38)           114.3749         estimate D2E/DX2                !
 ! A79   A(34,29,38)           106.7604         estimate D2E/DX2                !
 ! A80   A(28,35,43)           107.2513         estimate D2E/DX2                !
 ! A81   A(28,35,82)            91.8743         estimate D2E/DX2                !
 ! A82   A(43,35,82)            20.6058         estimate D2E/DX2                !
 ! A83   A(26,36,44)           108.7512         estimate D2E/DX2                !
 ! A84   A(25,37,49)           117.8224         estimate D2E/DX2                !
 ! A85   A(29,38,39)           109.2239         estimate D2E/DX2                !
 ! A86   A(29,38,40)           109.2128         estimate D2E/DX2                !
 ! A87   A(29,38,41)           108.3393         estimate D2E/DX2                !
 ! A88   A(39,38,40)           109.5409         estimate D2E/DX2                !
 ! A89   A(39,38,41)           109.961          estimate D2E/DX2                !
 ! A90   A(40,38,41)           110.5349         estimate D2E/DX2                !
 ! A91   A(38,41,42)           108.1307         estimate D2E/DX2                !
 ! A92   A(38,41,82)           152.7326         estimate D2E/DX2                !
 ! A93   A(42,41,82)            79.0176         estimate D2E/DX2                !
 ! A94   A(46,45,50)           111.3759         estimate D2E/DX2                !
 ! A95   A(46,45,84)           148.5364         estimate D2E/DX2                !
 ! A96   A(50,45,84)            94.0655         estimate D2E/DX2                !
 ! A97   A(45,46,47)           108.7012         estimate D2E/DX2                !
 ! A98   A(45,46,51)           108.7505         estimate D2E/DX2                !
 ! A99   A(45,46,58)           108.7524         estimate D2E/DX2                !
 ! A100  A(47,46,51)           111.1821         estimate D2E/DX2                !
 ! A101  A(47,46,58)           107.5981         estimate D2E/DX2                !
 ! A102  A(51,46,58)           111.7828         estimate D2E/DX2                !
 ! A103  A(46,47,48)           111.9674         estimate D2E/DX2                !
 ! A104  A(46,47,52)           106.3572         estimate D2E/DX2                !
 ! A105  A(46,47,57)           112.708          estimate D2E/DX2                !
 ! A106  A(48,47,52)           108.8764         estimate D2E/DX2                !
 ! A107  A(48,47,57)           106.1601         estimate D2E/DX2                !
 ! A108  A(52,47,57)           110.7782         estimate D2E/DX2                !
 ! A109  A(47,48,49)           111.9856         estimate D2E/DX2                !
 ! A110  A(47,48,53)           108.5556         estimate D2E/DX2                !
 ! A111  A(47,48,56)           109.431          estimate D2E/DX2                !
 ! A112  A(49,48,53)           107.6217         estimate D2E/DX2                !
 ! A113  A(49,48,56)           109.7269         estimate D2E/DX2                !
 ! A114  A(53,48,56)           109.4705         estimate D2E/DX2                !
 ! A115  A(37,49,48)           109.6719         estimate D2E/DX2                !
 ! A116  A(37,49,50)           108.4957         estimate D2E/DX2                !
 ! A117  A(37,49,55)           110.2241         estimate D2E/DX2                !
 ! A118  A(48,49,50)           108.4356         estimate D2E/DX2                !
 ! A119  A(48,49,55)           110.3367         estimate D2E/DX2                !
 ! A120  A(50,49,55)           109.6332         estimate D2E/DX2                !
 ! A121  A(45,50,49)           109.1721         estimate D2E/DX2                !
 ! A122  A(45,50,54)           110.0562         estimate D2E/DX2                !
 ! A123  A(45,50,59)           107.4226         estimate D2E/DX2                !
 ! A124  A(49,50,54)           108.0278         estimate D2E/DX2                !
 ! A125  A(49,50,59)           115.5442         estimate D2E/DX2                !
 ! A126  A(54,50,59)           106.539          estimate D2E/DX2                !
 ! A127  A(48,56,64)           106.0883         estimate D2E/DX2                !
 ! A128  A(48,56,84)            48.8361         estimate D2E/DX2                !
 ! A129  A(64,56,84)           137.9574         estimate D2E/DX2                !
 ! A130  A(47,57,65)           107.6158         estimate D2E/DX2                !
 ! A131  A(46,58,66)           114.7877         estimate D2E/DX2                !
 ! A132  A(46,58,84)            69.7744         estimate D2E/DX2                !
 ! A133  A(66,58,84)            93.4771         estimate D2E/DX2                !
 ! A134  A(50,59,60)           108.2737         estimate D2E/DX2                !
 ! A135  A(50,59,61)           109.4204         estimate D2E/DX2                !
 ! A136  A(50,59,62)           113.5043         estimate D2E/DX2                !
 ! A137  A(60,59,61)           108.6016         estimate D2E/DX2                !
 ! A138  A(60,59,62)           106.8827         estimate D2E/DX2                !
 ! A139  A(61,59,62)           110.0114         estimate D2E/DX2                !
 ! A140  A(59,62,63)           106.6328         estimate D2E/DX2                !
 ! A141  A(59,62,82)           146.3577         estimate D2E/DX2                !
 ! A142  A(63,62,82)           103.8098         estimate D2E/DX2                !
 ! A143  A(58,66,67)           108.4157         estimate D2E/DX2                !
 ! A144  A(58,66,68)           109.2062         estimate D2E/DX2                !
 ! A145  A(58,66,69)           108.9832         estimate D2E/DX2                !
 ! A146  A(67,66,68)           108.2824         estimate D2E/DX2                !
 ! A147  A(67,66,69)           110.5836         estimate D2E/DX2                !
 ! A148  A(68,66,69)           111.3133         estimate D2E/DX2                !
 ! A149  A(66,69,70)           107.7367         estimate D2E/DX2                !
 ! A150  A(66,69,71)           108.5563         estimate D2E/DX2                !
 ! A151  A(66,69,72)           114.6306         estimate D2E/DX2                !
 ! A152  A(70,69,71)           106.2448         estimate D2E/DX2                !
 ! A153  A(70,69,72)           110.7074         estimate D2E/DX2                !
 ! A154  A(71,69,72)           108.6204         estimate D2E/DX2                !
 ! A155  A(69,72,73)           107.671          estimate D2E/DX2                !
 ! A156  A(69,72,74)           108.3512         estimate D2E/DX2                !
 ! A157  A(69,72,75)           114.4065         estimate D2E/DX2                !
 ! A158  A(73,72,74)           106.5021         estimate D2E/DX2                !
 ! A159  A(73,72,75)           110.5504         estimate D2E/DX2                !
 ! A160  A(74,72,75)           109.0443         estimate D2E/DX2                !
 ! A161  A(72,75,76)           109.8322         estimate D2E/DX2                !
 ! A162  A(72,75,77)           110.393          estimate D2E/DX2                !
 ! A163  A(72,75,78)           114.1798         estimate D2E/DX2                !
 ! A164  A(76,75,77)           106.5978         estimate D2E/DX2                !
 ! A165  A(76,75,78)           106.8824         estimate D2E/DX2                !
 ! A166  A(77,75,78)           108.6286         estimate D2E/DX2                !
 ! A167  A(75,78,79)           111.0106         estimate D2E/DX2                !
 ! A168  A(75,78,80)           111.4417         estimate D2E/DX2                !
 ! A169  A(75,78,81)           111.8503         estimate D2E/DX2                !
 ! A170  A(79,78,80)           108.0629         estimate D2E/DX2                !
 ! A171  A(79,78,81)           106.9689         estimate D2E/DX2                !
 ! A172  A(80,78,81)           107.2857         estimate D2E/DX2                !
 ! A173  A(78,81,82)           113.1947         estimate D2E/DX2                !
 ! A174  A(78,81,83)           113.1504         estimate D2E/DX2                !
 ! A175  A(78,81,84)           112.2153         estimate D2E/DX2                !
 ! A176  A(82,81,83)           103.6919         estimate D2E/DX2                !
 ! A177  A(82,81,84)           105.1825         estimate D2E/DX2                !
 ! A178  A(83,81,84)           108.7602         estimate D2E/DX2                !
 ! A179  A(35,82,41)            23.195          estimate D2E/DX2                !
 ! A180  A(35,82,62)            62.2739         estimate D2E/DX2                !
 ! A181  A(35,82,81)           115.3047         estimate D2E/DX2                !
 ! A182  A(41,82,62)            50.3889         estimate D2E/DX2                !
 ! A183  A(41,82,81)           112.7881         estimate D2E/DX2                !
 ! A184  A(62,82,81)            63.4175         estimate D2E/DX2                !
 ! A185  A(13,83,14)            77.0509         estimate D2E/DX2                !
 ! A186  A(13,83,19)            19.2484         estimate D2E/DX2                !
 ! A187  A(13,83,81)           162.3959         estimate D2E/DX2                !
 ! A188  A(14,83,19)            62.3236         estimate D2E/DX2                !
 ! A189  A(14,83,81)            85.4836         estimate D2E/DX2                !
 ! A190  A(19,83,81)           144.5073         estimate D2E/DX2                !
 ! A191  A(45,84,56)            41.2716         estimate D2E/DX2                !
 ! A192  A(45,84,58)            27.0476         estimate D2E/DX2                !
 ! A193  A(45,84,81)           121.8793         estimate D2E/DX2                !
 ! A194  A(56,84,58)            53.1443         estimate D2E/DX2                !
 ! A195  A(56,84,81)           124.6027         estimate D2E/DX2                !
 ! A196  A(58,84,81)            94.8958         estimate D2E/DX2                !
 ! D1    D(6,1,2,3)            -54.4541         estimate D2E/DX2                !
 ! D2    D(6,1,2,7)           -175.8909         estimate D2E/DX2                !
 ! D3    D(6,1,2,15)            64.0556         estimate D2E/DX2                !
 ! D4    D(2,1,6,5)             54.9118         estimate D2E/DX2                !
 ! D5    D(2,1,6,11)           -63.7296         estimate D2E/DX2                !
 ! D6    D(2,1,6,16)          -178.809          estimate D2E/DX2                !
 ! D7    D(1,2,3,4)             53.1882         estimate D2E/DX2                !
 ! D8    D(1,2,3,8)            -65.1821         estimate D2E/DX2                !
 ! D9    D(1,2,3,14)           177.6694         estimate D2E/DX2                !
 ! D10   D(7,2,3,4)            170.8303         estimate D2E/DX2                !
 ! D11   D(7,2,3,8)             52.46           estimate D2E/DX2                !
 ! D12   D(7,2,3,14)           -64.6885         estimate D2E/DX2                !
 ! D13   D(15,2,3,4)           -70.6359         estimate D2E/DX2                !
 ! D14   D(15,2,3,8)           170.9939         estimate D2E/DX2                !
 ! D15   D(15,2,3,14)           53.8454         estimate D2E/DX2                !
 ! D16   D(1,2,15,27)           67.8561         estimate D2E/DX2                !
 ! D17   D(3,2,15,27)         -168.6208         estimate D2E/DX2                !
 ! D18   D(7,2,15,27)          -49.1734         estimate D2E/DX2                !
 ! D19   D(2,3,4,5)            -53.583          estimate D2E/DX2                !
 ! D20   D(2,3,4,9)             67.8234         estimate D2E/DX2                !
 ! D21   D(2,3,4,13)          -175.5133         estimate D2E/DX2                !
 ! D22   D(8,3,4,5)             64.2424         estimate D2E/DX2                !
 ! D23   D(8,3,4,9)           -174.3512         estimate D2E/DX2                !
 ! D24   D(8,3,4,13)           -57.6879         estimate D2E/DX2                !
 ! D25   D(14,3,4,5)          -177.2015         estimate D2E/DX2                !
 ! D26   D(14,3,4,9)           -55.795          estimate D2E/DX2                !
 ! D27   D(14,3,4,13)           60.8682         estimate D2E/DX2                !
 ! D28   D(2,3,14,23)          -29.0201         estimate D2E/DX2                !
 ! D29   D(2,3,14,83)         -143.0452         estimate D2E/DX2                !
 ! D30   D(4,3,14,23)           94.1257         estimate D2E/DX2                !
 ! D31   D(4,3,14,83)          -19.8994         estimate D2E/DX2                !
 ! D32   D(8,3,14,23)         -146.4915         estimate D2E/DX2                !
 ! D33   D(8,3,14,83)           99.4834         estimate D2E/DX2                !
 ! D34   D(3,4,5,6)             54.3632         estimate D2E/DX2                !
 ! D35   D(3,4,5,10)           171.4149         estimate D2E/DX2                !
 ! D36   D(3,4,5,12)           -70.6594         estimate D2E/DX2                !
 ! D37   D(9,4,5,6)            -66.8382         estimate D2E/DX2                !
 ! D38   D(9,4,5,10)            50.2135         estimate D2E/DX2                !
 ! D39   D(9,4,5,12)           168.1392         estimate D2E/DX2                !
 ! D40   D(13,4,5,6)           177.6461         estimate D2E/DX2                !
 ! D41   D(13,4,5,10)          -65.3021         estimate D2E/DX2                !
 ! D42   D(13,4,5,12)           52.6235         estimate D2E/DX2                !
 ! D43   D(3,4,13,22)           79.706          estimate D2E/DX2                !
 ! D44   D(3,4,13,83)          -75.0252         estimate D2E/DX2                !
 ! D45   D(5,4,13,22)          -42.7652         estimate D2E/DX2                !
 ! D46   D(5,4,13,83)          162.5037         estimate D2E/DX2                !
 ! D47   D(9,4,13,22)         -161.1313         estimate D2E/DX2                !
 ! D48   D(9,4,13,83)           44.1375         estimate D2E/DX2                !
 ! D49   D(4,5,6,1)            -54.0003         estimate D2E/DX2                !
 ! D50   D(4,5,6,11)            66.4262         estimate D2E/DX2                !
 ! D51   D(4,5,6,16)          -176.5675         estimate D2E/DX2                !
 ! D52   D(10,5,6,1)          -171.8737         estimate D2E/DX2                !
 ! D53   D(10,5,6,11)          -51.4473         estimate D2E/DX2                !
 ! D54   D(10,5,6,16)           65.559          estimate D2E/DX2                !
 ! D55   D(12,5,6,1)            64.7263         estimate D2E/DX2                !
 ! D56   D(12,5,6,11)         -174.8473         estimate D2E/DX2                !
 ! D57   D(12,5,6,16)          -57.841          estimate D2E/DX2                !
 ! D58   D(4,5,12,21)          155.0614         estimate D2E/DX2                !
 ! D59   D(6,5,12,21)           33.8741         estimate D2E/DX2                !
 ! D60   D(10,5,12,21)         -88.0336         estimate D2E/DX2                !
 ! D61   D(1,6,16,17)           49.8855         estimate D2E/DX2                !
 ! D62   D(1,6,16,18)          167.7363         estimate D2E/DX2                !
 ! D63   D(1,6,16,19)          -71.0933         estimate D2E/DX2                !
 ! D64   D(5,6,16,17)          175.0597         estimate D2E/DX2                !
 ! D65   D(5,6,16,18)          -67.0895         estimate D2E/DX2                !
 ! D66   D(5,6,16,19)           54.0809         estimate D2E/DX2                !
 ! D67   D(11,6,16,17)         -67.5946         estimate D2E/DX2                !
 ! D68   D(11,6,16,18)          50.2562         estimate D2E/DX2                !
 ! D69   D(11,6,16,19)         171.4266         estimate D2E/DX2                !
 ! D70   D(4,13,83,14)          41.406          estimate D2E/DX2                !
 ! D71   D(4,13,83,19)           3.3325         estimate D2E/DX2                !
 ! D72   D(4,13,83,81)          34.071          estimate D2E/DX2                !
 ! D73   D(22,13,83,14)       -100.7414         estimate D2E/DX2                !
 ! D74   D(22,13,83,19)       -138.815          estimate D2E/DX2                !
 ! D75   D(22,13,83,81)       -108.0765         estimate D2E/DX2                !
 ! D76   D(3,14,83,13)         -12.2981         estimate D2E/DX2                !
 ! D77   D(3,14,83,19)           0.973          estimate D2E/DX2                !
 ! D78   D(3,14,83,81)         165.4821         estimate D2E/DX2                !
 ! D79   D(23,14,83,13)       -120.985          estimate D2E/DX2                !
 ! D80   D(23,14,83,19)       -107.7138         estimate D2E/DX2                !
 ! D81   D(23,14,83,81)         56.7952         estimate D2E/DX2                !
 ! D82   D(2,15,27,26)        -136.9075         estimate D2E/DX2                !
 ! D83   D(2,15,27,28)         101.181          estimate D2E/DX2                !
 ! D84   D(2,15,27,32)         -18.9425         estimate D2E/DX2                !
 ! D85   D(6,16,19,20)         178.9452         estimate D2E/DX2                !
 ! D86   D(6,16,19,83)         -19.5937         estimate D2E/DX2                !
 ! D87   D(17,16,19,20)         59.2657         estimate D2E/DX2                !
 ! D88   D(17,16,19,83)       -139.2732         estimate D2E/DX2                !
 ! D89   D(18,16,19,20)        -61.5462         estimate D2E/DX2                !
 ! D90   D(18,16,19,83)         99.9149         estimate D2E/DX2                !
 ! D91   D(16,19,83,13)       -138.7715         estimate D2E/DX2                !
 ! D92   D(16,19,83,14)         83.9657         estimate D2E/DX2                !
 ! D93   D(16,19,83,81)         56.6696         estimate D2E/DX2                !
 ! D94   D(20,19,83,13)        -46.8773         estimate D2E/DX2                !
 ! D95   D(20,19,83,14)        175.8599         estimate D2E/DX2                !
 ! D96   D(20,19,83,81)        148.5638         estimate D2E/DX2                !
 ! D97   D(29,24,25,26)        -57.8767         estimate D2E/DX2                !
 ! D98   D(29,24,25,30)         60.1914         estimate D2E/DX2                !
 ! D99   D(29,24,25,37)        173.4603         estimate D2E/DX2                !
 ! D100  D(25,24,29,28)         60.5906         estimate D2E/DX2                !
 ! D101  D(25,24,29,34)        -59.1125         estimate D2E/DX2                !
 ! D102  D(25,24,29,38)       -173.478          estimate D2E/DX2                !
 ! D103  D(24,25,26,27)          0.6429         estimate D2E/DX2                !
 ! D104  D(24,25,26,31)       -120.1876         estimate D2E/DX2                !
 ! D105  D(24,25,26,36)        120.8826         estimate D2E/DX2                !
 ! D106  D(30,25,26,27)       -118.385          estimate D2E/DX2                !
 ! D107  D(30,25,26,31)        120.7845         estimate D2E/DX2                !
 ! D108  D(30,25,26,36)          1.8546         estimate D2E/DX2                !
 ! D109  D(37,25,26,27)        125.3436         estimate D2E/DX2                !
 ! D110  D(37,25,26,31)          4.5131         estimate D2E/DX2                !
 ! D111  D(37,25,26,36)       -114.4167         estimate D2E/DX2                !
 ! D112  D(24,25,37,49)         63.5811         estimate D2E/DX2                !
 ! D113  D(26,25,37,49)        -62.4822         estimate D2E/DX2                !
 ! D114  D(30,25,37,49)        179.7009         estimate D2E/DX2                !
 ! D115  D(25,26,27,15)        -70.8788         estimate D2E/DX2                !
 ! D116  D(25,26,27,28)         51.7249         estimate D2E/DX2                !
 ! D117  D(25,26,27,32)        171.2697         estimate D2E/DX2                !
 ! D118  D(31,26,27,15)         49.4365         estimate D2E/DX2                !
 ! D119  D(31,26,27,28)        172.0402         estimate D2E/DX2                !
 ! D120  D(31,26,27,32)        -68.415          estimate D2E/DX2                !
 ! D121  D(36,26,27,15)        172.1114         estimate D2E/DX2                !
 ! D122  D(36,26,27,28)        -65.2848         estimate D2E/DX2                !
 ! D123  D(36,26,27,32)         54.26           estimate D2E/DX2                !
 ! D124  D(25,26,36,44)        155.8667         estimate D2E/DX2                !
 ! D125  D(27,26,36,44)        -83.1776         estimate D2E/DX2                !
 ! D126  D(31,26,36,44)         38.5842         estimate D2E/DX2                !
 ! D127  D(15,27,28,29)         71.2929         estimate D2E/DX2                !
 ! D128  D(15,27,28,33)       -172.3494         estimate D2E/DX2                !
 ! D129  D(15,27,28,35)        -57.9517         estimate D2E/DX2                !
 ! D130  D(26,27,28,29)        -49.0004         estimate D2E/DX2                !
 ! D131  D(26,27,28,33)         67.3574         estimate D2E/DX2                !
 ! D132  D(26,27,28,35)       -178.2449         estimate D2E/DX2                !
 ! D133  D(32,27,28,29)       -168.617          estimate D2E/DX2                !
 ! D134  D(32,27,28,33)        -52.2593         estimate D2E/DX2                !
 ! D135  D(32,27,28,35)         62.1384         estimate D2E/DX2                !
 ! D136  D(27,28,29,24)         -4.7125         estimate D2E/DX2                !
 ! D137  D(27,28,29,34)        114.6724         estimate D2E/DX2                !
 ! D138  D(27,28,29,38)       -126.2396         estimate D2E/DX2                !
 ! D139  D(33,28,29,24)       -119.9961         estimate D2E/DX2                !
 ! D140  D(33,28,29,34)         -0.6113         estimate D2E/DX2                !
 ! D141  D(33,28,29,38)        118.4768         estimate D2E/DX2                !
 ! D142  D(35,28,29,24)        123.3295         estimate D2E/DX2                !
 ! D143  D(35,28,29,34)       -117.2857         estimate D2E/DX2                !
 ! D144  D(35,28,29,38)          1.8024         estimate D2E/DX2                !
 ! D145  D(27,28,35,43)         80.8856         estimate D2E/DX2                !
 ! D146  D(27,28,35,82)         66.9289         estimate D2E/DX2                !
 ! D147  D(29,28,35,43)        -46.0688         estimate D2E/DX2                !
 ! D148  D(29,28,35,82)        -60.0255         estimate D2E/DX2                !
 ! D149  D(33,28,35,43)       -164.2017         estimate D2E/DX2                !
 ! D150  D(33,28,35,82)       -178.1584         estimate D2E/DX2                !
 ! D151  D(24,29,38,39)         55.9999         estimate D2E/DX2                !
 ! D152  D(24,29,38,40)        175.7781         estimate D2E/DX2                !
 ! D153  D(24,29,38,41)        -63.7671         estimate D2E/DX2                !
 ! D154  D(28,29,38,39)       -179.3202         estimate D2E/DX2                !
 ! D155  D(28,29,38,40)        -59.542          estimate D2E/DX2                !
 ! D156  D(28,29,38,41)         60.9128         estimate D2E/DX2                !
 ! D157  D(34,29,38,39)        -59.2199         estimate D2E/DX2                !
 ! D158  D(34,29,38,40)         60.5583         estimate D2E/DX2                !
 ! D159  D(34,29,38,41)       -178.9868         estimate D2E/DX2                !
 ! D160  D(28,35,82,41)         75.4499         estimate D2E/DX2                !
 ! D161  D(28,35,82,62)         22.4742         estimate D2E/DX2                !
 ! D162  D(28,35,82,81)        -13.6556         estimate D2E/DX2                !
 ! D163  D(43,35,82,41)        -63.6693         estimate D2E/DX2                !
 ! D164  D(43,35,82,62)       -116.6451         estimate D2E/DX2                !
 ! D165  D(43,35,82,81)       -152.7748         estimate D2E/DX2                !
 ! D166  D(25,37,49,48)        121.8829         estimate D2E/DX2                !
 ! D167  D(25,37,49,50)       -119.8412         estimate D2E/DX2                !
 ! D168  D(25,37,49,55)          0.2126         estimate D2E/DX2                !
 ! D169  D(29,38,41,42)       -177.9951         estimate D2E/DX2                !
 ! D170  D(29,38,41,82)         80.5996         estimate D2E/DX2                !
 ! D171  D(39,38,41,42)         62.701          estimate D2E/DX2                !
 ! D172  D(39,38,41,82)        -38.7043         estimate D2E/DX2                !
 ! D173  D(40,38,41,42)        -58.3666         estimate D2E/DX2                !
 ! D174  D(40,38,41,82)       -159.7719         estimate D2E/DX2                !
 ! D175  D(38,41,82,35)       -126.3593         estimate D2E/DX2                !
 ! D176  D(38,41,82,62)        -12.9001         estimate D2E/DX2                !
 ! D177  D(38,41,82,81)        -25.0168         estimate D2E/DX2                !
 ! D178  D(42,41,82,35)        125.2563         estimate D2E/DX2                !
 ! D179  D(42,41,82,62)       -121.2845         estimate D2E/DX2                !
 ! D180  D(42,41,82,81)       -133.4012         estimate D2E/DX2                !
 ! D181  D(50,45,46,47)        -64.5198         estimate D2E/DX2                !
 ! D182  D(50,45,46,51)         56.6626         estimate D2E/DX2                !
 ! D183  D(50,45,46,58)        178.6076         estimate D2E/DX2                !
 ! D184  D(84,45,46,47)         77.2472         estimate D2E/DX2                !
 ! D185  D(84,45,46,51)       -161.5705         estimate D2E/DX2                !
 ! D186  D(84,45,46,58)        -39.6254         estimate D2E/DX2                !
 ! D187  D(46,45,50,49)         68.0328         estimate D2E/DX2                !
 ! D188  D(46,45,50,54)        -50.3748         estimate D2E/DX2                !
 ! D189  D(46,45,50,59)       -165.9811         estimate D2E/DX2                !
 ! D190  D(84,45,50,49)        -93.0723         estimate D2E/DX2                !
 ! D191  D(84,45,50,54)        148.5201         estimate D2E/DX2                !
 ! D192  D(84,45,50,59)         32.9138         estimate D2E/DX2                !
 ! D193  D(46,45,84,56)        -79.022          estimate D2E/DX2                !
 ! D194  D(46,45,84,58)         24.3926         estimate D2E/DX2                !
 ! D195  D(46,45,84,81)         28.7472         estimate D2E/DX2                !
 ! D196  D(50,45,84,56)         65.686          estimate D2E/DX2                !
 ! D197  D(50,45,84,58)        169.1007         estimate D2E/DX2                !
 ! D198  D(50,45,84,81)        173.4552         estimate D2E/DX2                !
 ! D199  D(45,46,47,48)         53.943          estimate D2E/DX2                !
 ! D200  D(45,46,47,52)        -64.8705         estimate D2E/DX2                !
 ! D201  D(45,46,47,57)        173.555          estimate D2E/DX2                !
 ! D202  D(51,46,47,48)        -65.7354         estimate D2E/DX2                !
 ! D203  D(51,46,47,52)        175.4511         estimate D2E/DX2                !
 ! D204  D(51,46,47,57)         53.8767         estimate D2E/DX2                !
 ! D205  D(58,46,47,48)        171.5516         estimate D2E/DX2                !
 ! D206  D(58,46,47,52)         52.7381         estimate D2E/DX2                !
 ! D207  D(58,46,47,57)        -68.8363         estimate D2E/DX2                !
 ! D208  D(45,46,58,66)        -71.0231         estimate D2E/DX2                !
 ! D209  D(45,46,58,84)         13.2982         estimate D2E/DX2                !
 ! D210  D(47,46,58,66)        171.4014         estimate D2E/DX2                !
 ! D211  D(47,46,58,84)       -104.2773         estimate D2E/DX2                !
 ! D212  D(51,46,58,66)         49.0592         estimate D2E/DX2                !
 ! D213  D(51,46,58,84)        133.3805         estimate D2E/DX2                !
 ! D214  D(46,47,48,49)        -49.0035         estimate D2E/DX2                !
 ! D215  D(46,47,48,53)         69.6753         estimate D2E/DX2                !
 ! D216  D(46,47,48,56)       -170.902          estimate D2E/DX2                !
 ! D217  D(52,47,48,49)         68.3094         estimate D2E/DX2                !
 ! D218  D(52,47,48,53)       -173.0118         estimate D2E/DX2                !
 ! D219  D(52,47,48,56)        -53.5891         estimate D2E/DX2                !
 ! D220  D(57,47,48,49)       -172.3885         estimate D2E/DX2                !
 ! D221  D(57,47,48,53)        -53.7097         estimate D2E/DX2                !
 ! D222  D(57,47,48,56)         65.713          estimate D2E/DX2                !
 ! D223  D(46,47,57,65)         59.8807         estimate D2E/DX2                !
 ! D224  D(48,47,57,65)       -177.2001         estimate D2E/DX2                !
 ! D225  D(52,47,57,65)        -59.1519         estimate D2E/DX2                !
 ! D226  D(47,48,49,37)        168.3994         estimate D2E/DX2                !
 ! D227  D(47,48,49,50)         50.0863         estimate D2E/DX2                !
 ! D228  D(47,48,49,55)        -69.9977         estimate D2E/DX2                !
 ! D229  D(53,48,49,37)         49.1693         estimate D2E/DX2                !
 ! D230  D(53,48,49,50)        -69.1439         estimate D2E/DX2                !
 ! D231  D(53,48,49,55)        170.7721         estimate D2E/DX2                !
 ! D232  D(56,48,49,37)        -69.8717         estimate D2E/DX2                !
 ! D233  D(56,48,49,50)        171.8152         estimate D2E/DX2                !
 ! D234  D(56,48,49,55)         51.7312         estimate D2E/DX2                !
 ! D235  D(47,48,56,64)        -60.2564         estimate D2E/DX2                !
 ! D236  D(47,48,56,84)         80.5049         estimate D2E/DX2                !
 ! D237  D(49,48,56,64)        176.498          estimate D2E/DX2                !
 ! D238  D(49,48,56,84)        -42.7408         estimate D2E/DX2                !
 ! D239  D(53,48,56,64)         58.6009         estimate D2E/DX2                !
 ! D240  D(53,48,56,84)       -160.6379         estimate D2E/DX2                !
 ! D241  D(37,49,50,45)       -177.7917         estimate D2E/DX2                !
 ! D242  D(37,49,50,54)        -58.1231         estimate D2E/DX2                !
 ! D243  D(37,49,50,59)         61.0428         estimate D2E/DX2                !
 ! D244  D(48,49,50,45)        -58.7348         estimate D2E/DX2                !
 ! D245  D(48,49,50,54)         60.9338         estimate D2E/DX2                !
 ! D246  D(48,49,50,59)       -179.9003         estimate D2E/DX2                !
 ! D247  D(55,49,50,45)         61.787          estimate D2E/DX2                !
 ! D248  D(55,49,50,54)       -178.5444         estimate D2E/DX2                !
 ! D249  D(55,49,50,59)        -59.3785         estimate D2E/DX2                !
 ! D250  D(45,50,59,60)         56.6217         estimate D2E/DX2                !
 ! D251  D(45,50,59,61)        174.8255         estimate D2E/DX2                !
 ! D252  D(45,50,59,62)        -61.8756         estimate D2E/DX2                !
 ! D253  D(49,50,59,60)        178.7262         estimate D2E/DX2                !
 ! D254  D(49,50,59,61)        -63.07           estimate D2E/DX2                !
 ! D255  D(49,50,59,62)         60.229          estimate D2E/DX2                !
 ! D256  D(54,50,59,60)        -61.2915         estimate D2E/DX2                !
 ! D257  D(54,50,59,61)         56.9123         estimate D2E/DX2                !
 ! D258  D(54,50,59,62)       -179.7887         estimate D2E/DX2                !
 ! D259  D(48,56,84,45)        -16.7801         estimate D2E/DX2                !
 ! D260  D(48,56,84,58)        -50.3395         estimate D2E/DX2                !
 ! D261  D(48,56,84,81)       -117.5348         estimate D2E/DX2                !
 ! D262  D(64,56,84,45)         48.3907         estimate D2E/DX2                !
 ! D263  D(64,56,84,58)         14.8312         estimate D2E/DX2                !
 ! D264  D(64,56,84,81)        -52.364          estimate D2E/DX2                !
 ! D265  D(46,58,66,67)       -100.3984         estimate D2E/DX2                !
 ! D266  D(46,58,66,68)         17.3835         estimate D2E/DX2                !
 ! D267  D(46,58,66,69)        139.1772         estimate D2E/DX2                !
 ! D268  D(84,58,66,67)       -169.7003         estimate D2E/DX2                !
 ! D269  D(84,58,66,68)        -51.9184         estimate D2E/DX2                !
 ! D270  D(84,58,66,69)         69.8753         estimate D2E/DX2                !
 ! D271  D(46,58,84,45)        -13.7973         estimate D2E/DX2                !
 ! D272  D(46,58,84,56)         39.5137         estimate D2E/DX2                !
 ! D273  D(46,58,84,81)        169.913          estimate D2E/DX2                !
 ! D274  D(66,58,84,45)        101.3689         estimate D2E/DX2                !
 ! D275  D(66,58,84,56)        154.6799         estimate D2E/DX2                !
 ! D276  D(66,58,84,81)        -74.9208         estimate D2E/DX2                !
 ! D277  D(50,59,62,63)        -84.6531         estimate D2E/DX2                !
 ! D278  D(50,59,62,82)         69.3199         estimate D2E/DX2                !
 ! D279  D(60,59,62,63)        156.0512         estimate D2E/DX2                !
 ! D280  D(60,59,62,82)        -49.9758         estimate D2E/DX2                !
 ! D281  D(61,59,62,63)         38.3214         estimate D2E/DX2                !
 ! D282  D(61,59,62,82)       -167.7055         estimate D2E/DX2                !
 ! D283  D(59,62,82,35)       -155.6519         estimate D2E/DX2                !
 ! D284  D(59,62,82,41)       -179.742          estimate D2E/DX2                !
 ! D285  D(59,62,82,81)        -12.2393         estimate D2E/DX2                !
 ! D286  D(63,62,82,35)         -1.3068         estimate D2E/DX2                !
 ! D287  D(63,62,82,41)        -25.3969         estimate D2E/DX2                !
 ! D288  D(63,62,82,81)        142.1058         estimate D2E/DX2                !
 ! D289  D(58,66,69,70)        178.4894         estimate D2E/DX2                !
 ! D290  D(58,66,69,71)         63.8328         estimate D2E/DX2                !
 ! D291  D(58,66,69,72)        -57.7967         estimate D2E/DX2                !
 ! D292  D(67,66,69,70)         59.4082         estimate D2E/DX2                !
 ! D293  D(67,66,69,71)        -55.2484         estimate D2E/DX2                !
 ! D294  D(67,66,69,72)       -176.8779         estimate D2E/DX2                !
 ! D295  D(68,66,69,70)        -61.0037         estimate D2E/DX2                !
 ! D296  D(68,66,69,71)       -175.6603         estimate D2E/DX2                !
 ! D297  D(68,66,69,72)         62.7101         estimate D2E/DX2                !
 ! D298  D(66,69,72,73)         57.8274         estimate D2E/DX2                !
 ! D299  D(66,69,72,74)        172.6473         estimate D2E/DX2                !
 ! D300  D(66,69,72,75)        -65.4799         estimate D2E/DX2                !
 ! D301  D(70,69,72,73)        179.9407         estimate D2E/DX2                !
 ! D302  D(70,69,72,74)        -65.2393         estimate D2E/DX2                !
 ! D303  D(70,69,72,75)         56.6335         estimate D2E/DX2                !
 ! D304  D(71,69,72,73)        -63.7672         estimate D2E/DX2                !
 ! D305  D(71,69,72,74)         51.0528         estimate D2E/DX2                !
 ! D306  D(71,69,72,75)        172.9256         estimate D2E/DX2                !
 ! D307  D(69,72,75,76)        -60.0485         estimate D2E/DX2                !
 ! D308  D(69,72,75,77)         57.2124         estimate D2E/DX2                !
 ! D309  D(69,72,75,78)        179.9289         estimate D2E/DX2                !
 ! D310  D(73,72,75,76)        178.2091         estimate D2E/DX2                !
 ! D311  D(73,72,75,77)        -64.53           estimate D2E/DX2                !
 ! D312  D(73,72,75,78)         58.1865         estimate D2E/DX2                !
 ! D313  D(74,72,75,76)         61.4443         estimate D2E/DX2                !
 ! D314  D(74,72,75,77)        178.7052         estimate D2E/DX2                !
 ! D315  D(74,72,75,78)        -58.5783         estimate D2E/DX2                !
 ! D316  D(72,75,78,79)        173.5556         estimate D2E/DX2                !
 ! D317  D(72,75,78,80)         53.0461         estimate D2E/DX2                !
 ! D318  D(72,75,78,81)        -67.0481         estimate D2E/DX2                !
 ! D319  D(76,75,78,79)         51.8935         estimate D2E/DX2                !
 ! D320  D(76,75,78,80)        -68.616          estimate D2E/DX2                !
 ! D321  D(76,75,78,81)        171.2898         estimate D2E/DX2                !
 ! D322  D(77,75,78,79)        -62.7722         estimate D2E/DX2                !
 ! D323  D(77,75,78,80)        176.7183         estimate D2E/DX2                !
 ! D324  D(77,75,78,81)         56.6241         estimate D2E/DX2                !
 ! D325  D(75,78,81,82)        178.5786         estimate D2E/DX2                !
 ! D326  D(75,78,81,83)         60.9796         estimate D2E/DX2                !
 ! D327  D(75,78,81,84)        -62.5551         estimate D2E/DX2                !
 ! D328  D(79,78,81,82)        -59.6702         estimate D2E/DX2                !
 ! D329  D(79,78,81,83)       -177.2692         estimate D2E/DX2                !
 ! D330  D(79,78,81,84)         59.1961         estimate D2E/DX2                !
 ! D331  D(80,78,81,82)         56.081          estimate D2E/DX2                !
 ! D332  D(80,78,81,83)        -61.518          estimate D2E/DX2                !
 ! D333  D(80,78,81,84)        174.9474         estimate D2E/DX2                !
 ! D334  D(78,81,82,35)        155.1979         estimate D2E/DX2                !
 ! D335  D(78,81,82,41)        129.9107         estimate D2E/DX2                !
 ! D336  D(78,81,82,62)        119.4931         estimate D2E/DX2                !
 ! D337  D(83,81,82,35)        -81.8035         estimate D2E/DX2                !
 ! D338  D(83,81,82,41)       -107.0907         estimate D2E/DX2                !
 ! D339  D(83,81,82,62)       -117.5083         estimate D2E/DX2                !
 ! D340  D(84,81,82,35)         32.3446         estimate D2E/DX2                !
 ! D341  D(84,81,82,41)          7.0574         estimate D2E/DX2                !
 ! D342  D(84,81,82,62)         -3.3602         estimate D2E/DX2                !
 ! D343  D(78,81,83,13)        170.0879         estimate D2E/DX2                !
 ! D344  D(78,81,83,14)        162.918          estimate D2E/DX2                !
 ! D345  D(78,81,83,19)       -173.0413         estimate D2E/DX2                !
 ! D346  D(82,81,83,13)         47.06           estimate D2E/DX2                !
 ! D347  D(82,81,83,14)         39.8901         estimate D2E/DX2                !
 ! D348  D(82,81,83,19)         63.9308         estimate D2E/DX2                !
 ! D349  D(84,81,83,13)        -64.4969         estimate D2E/DX2                !
 ! D350  D(84,81,83,14)        -71.6668         estimate D2E/DX2                !
 ! D351  D(84,81,83,19)        -47.6261         estimate D2E/DX2                !
 ! D352  D(78,81,84,45)         76.197          estimate D2E/DX2                !
 ! D353  D(78,81,84,56)        125.9401         estimate D2E/DX2                !
 ! D354  D(78,81,84,58)         78.1828         estimate D2E/DX2                !
 ! D355  D(82,81,84,45)       -160.3227         estimate D2E/DX2                !
 ! D356  D(82,81,84,56)       -110.5795         estimate D2E/DX2                !
 ! D357  D(82,81,84,58)       -158.3368         estimate D2E/DX2                !
 ! D358  D(83,81,84,45)        -49.7624         estimate D2E/DX2                !
 ! D359  D(83,81,84,56)         -0.0193         estimate D2E/DX2                !
 ! D360  D(83,81,84,58)        -47.7766         estimate D2E/DX2                !
 --------------------------------------------------------------------------------
 Trust Radius=3.00D-01 FncErr=1.00D-07 GrdErr=1.00D-06
 Number of steps in this run=    504 maximum allowed number of steps=    504.
 GradGradGradGradGradGradGradGradGradGradGradGradGradGradGradGradGradGrad

 Leave Link  103 at Thu Apr 28 02:53:04 2016, MaxMem= 10737418240 cpu:         0.5
 (Enter /share/apps//g09/l202.exe)
 Stoichiometry    C23H44NO16(1+)
 Framework group  C1[X(C23H44NO16)]
 Deg. of freedom   246
 Full point group                 C1      NOp   1
 Largest Abelian subgroup         C1      NOp   1
 Largest concise Abelian subgroup C1      NOp   1
                         Standard orientation:                         
 ---------------------------------------------------------------------
 Center     Atomic      Atomic             Coordinates (Angstroms)
 Number     Number       Type             X           Y           Z
 ---------------------------------------------------------------------
      1          8           0       -2.212420    2.562212   -0.995054
      2          6           0       -2.116498    1.259721   -1.514864
      3          6           0       -0.829785    1.026309   -2.326432
      4          6           0        0.397247    1.420264   -1.486058
      5          6           0        0.245735    2.849877   -0.960971
      6          6           0       -1.083007    2.984337   -0.201231
      7          1           0       -3.013034    1.141808   -2.142606
      8          1           0       -0.870549    1.671681   -3.216128
      9          1           0        0.511408    0.719985   -0.645563
     10          1           0        1.062418    3.050376   -0.236832
     11          1           0       -1.000449    2.349942    0.701086
     12          8           0        0.389402    3.686403   -2.108002
     13          8           0        1.617481    1.315738   -2.243609
     14          8           0       -0.758957   -0.329508   -2.785504
     15          8           0       -2.086104    0.237654   -0.503770
     16          6           0       -1.375680    4.391877    0.295380
     17          1           0       -2.382648    4.402377    0.744411
     18          1           0       -0.636114    4.643363    1.076109
     19          8           0       -1.300134    5.317792   -0.801660
     20          1           0       -1.504039    6.212060   -0.482797
     21          1           0       -0.081687    4.527734   -1.918143
     22          1           0        1.667541    2.123487   -2.795581
     23          1           0       -1.244282   -0.874809   -2.130954
     24          8           0       -2.114829   -2.246738    0.788821
     25          6           0       -2.241590   -1.475063    2.002585
     26          6           0       -2.929287   -0.105040    1.731916
     27          6           0       -3.307456    0.061409    0.248530
     28          6           0       -4.113006   -1.152313   -0.246124
     29          6           0       -3.392068   -2.484136    0.158519
     30          1           0       -2.880805   -2.028608    2.713192
     31          1           0       -2.238488    0.697155    2.025545
     32          1           0       -3.925294    0.966564    0.137078
     33          1           0       -5.074591   -1.116352    0.287109
     34          1           0       -4.033514   -3.027371    0.878561
     35          8           0       -4.448275   -1.055156   -1.626194
     36          8           0       -4.101536   -0.101518    2.557085
     37          8           0       -0.989622   -1.416609    2.628175
     38          6           0       -3.132568   -3.430815   -0.996387
     39          1           0       -2.637011   -4.338402   -0.617047
     40          1           0       -4.090873   -3.702816   -1.464021
     41          8           0       -2.271666   -2.759139   -1.952974
     42          1           0       -2.133227   -3.356864   -2.707239
     43          1           0       -3.662053   -1.335867   -2.136221
     44          1           0       -4.356457    0.819772    2.733907
     45          8           0        2.317574   -1.099684    1.049137
     46          6           0        2.941632   -0.139664    1.924184
     47          6           0        1.933348    0.963680    2.239385
     48          6           0        0.620141    0.399319    2.792734
     49          6           0        0.080221   -0.748113    1.931008
     50          6           0        1.222995   -1.763436    1.696805
     51          1           0        3.269921   -0.660583    2.850319
     52          1           0        1.726450    1.479109    1.282884
     53          1           0        0.809124   -0.003156    3.806484
     54          1           0        1.544897   -2.152456    2.685423
     55          1           0       -0.277697   -0.364073    0.962954
     56          8           0       -0.353983    1.446545    2.868790
     57          8           0        2.412701    1.884584    3.216908
     58          8           0        4.008785    0.445286    1.256325
     59          6           0        0.860778   -2.975320    0.851607
     60          1           0        1.758434   -3.600472    0.742882
     61          1           0        0.086117   -3.560794    1.365577
     62          8           0        0.423774   -2.638912   -0.474253
     63          1           0       -0.536256   -2.435832   -0.411134
     64          1           0        0.017397    2.117719    3.470001
     65          1           0        3.225841    2.290437    2.865907
     66          6           0        5.151740   -0.427500    1.052441
     67          1           0        5.911454   -0.190099    1.814744
     68          1           0        4.838105   -1.473238    1.191529
     69          6           0        5.707711   -0.197433   -0.348077
     70          1           0        6.589234   -0.848930   -0.470878
     71          1           0        6.078154    0.837359   -0.412369
     72          6           0        4.698704   -0.428780   -1.483628
     73          1           0        3.842850    0.242261   -1.312102
     74          1           0        5.162863   -0.108466   -2.431047
     75          6           0        4.224248   -1.882227   -1.624430
     76          1           0        5.085831   -2.538797   -1.827481
     77          1           0        3.776909   -2.232917   -0.681290
     78          6           0        3.220740   -2.105889   -2.752937
     79          1           0        3.004086   -3.174807   -2.881063
     80          1           0        3.598674   -1.717524   -3.709762
     81          7           0        1.911910   -1.423201   -2.480192
     82          1           0        1.227553   -1.541216   -3.239017
     83          1           0        2.001490   -0.381582   -2.386173
     84          1           0        1.435630   -1.802738   -1.616418
 ---------------------------------------------------------------------
 Rotational constants (GHZ):      0.1118116      0.0816786      0.0736717
 Leave Link  202 at Thu Apr 28 02:53:04 2016, MaxMem= 10737418240 cpu:         0.7
 (Enter /share/apps//g09/l301.exe)
[...]
 0000275,-0.00001504,0.00000861,-0.00000465,-0.00001521,-0.00003984,-0.
 00005086,-0.00013279,-0.00002665,-0.00002594,-0.00004195,-0.00009264,-
 0.00004129,-0.00011708,-0.00019749,-0.00007737,0.00016984,0.00001015,0
 .00000782,-0.00002062,0.00004063,0.00001002,-0.00001493,0.00034402,-0.
 00002988,-0.00019537,-0.00011624,0.00005313,0.00002034,-0.00004568,0.0
 0007856,0.00012666,0.00001948,0.00000007,0.00001125,-0.00066076,0.0002
 1557,-0.00059672,0.00102420,0.00013453,0.00022223,0.00001598,0.0002493
 8,-0.00004822,0.00013133,0.00005521,0.00010861,-0.00000529,0.00004376,
 0.00008207,0.00004447,-0.00002858,0.00010083,-0.00009810,-0.00003630,-
 0.00007736,0.00002009,-0.00004310,-0.00001680,-0.00003392,-0.00002490,
 -0.00000126,-0.00001440,0.00002780,-0.00005117,0.00003825,0.00005109,0
 .00008077,-0.00013284,-0.00014363,-0.00008517,-0.00010840,-0.00013882,
 -0.00005542,-0.00046231,-0.00028100,0.00026476,0.00011150,-0.00070838,
 0.00048539,-0.00001558,0.00002350,-0.00002894,0.00000859,0.00013260,-0
 .00007401,0.00081887,0.00066993,-0.00022923,-0.00030784,0.00011438,0.0
 0023187,0.00004000,0.00003255,-0.00002668,0.00001560,0.00007530,-0.000
 02909,0.00025582,0.00010832,-0.00003425,-0.00006247,-0.00005527,0.0000
 5533,-0.00006670,-0.00009612,0.00001071,-0.00024890,-0.00045370,-0.001
 05418,0.00025994,-0.00036483,0.00017944,-0.00009782,0.00009865,-0.0000
 5791,0.00015502,0.00077340,0.00203433,-0.00103283,0.00080759,-0.002071
 75,-0.00027497,0.00005026,0.00016845,0.00099977,-0.00012774,0.00048253
 ,-0.00040853,-0.00011496,-0.00038049,-0.00019256,-0.00010220,-0.000069
 98,0.02101171,0.00729956,0.01198875,-0.00280977,0.00356560,0.00423750,
 0.00017125,-0.00016130,0.00045121,-0.18256157,-0.07971774,-0.11516387,
 -0.01388027,-0.00825127,-0.01178816,0.19480181,-0.00052381,-0.00012901
 ,0.00005847,0.00052494,0.00084294,-0.00091691,0.00060503,-0.00032459,0
 .00086094,0.00739016,0.00139789,-0.00572090,-0.00167523,0.00030365,0.0
 0081951,0.00106876,0.00039443,0.00032031,-0.00020148,-0.00004582,0.000
 21543,0.00008720,-0.00027791,0.00001507,-0.00075718,-0.00023548,0.0006
 7206,0.00009521,-0.00011139,-0.00007467,-0.00001834,0.00007712,-0.0000
 1852,-0.00009686,0.00051391,0.00094319,-0.00032382,0.00138141,0.004923
 16,-0.00183305,-0.00164761,-0.00123918,-0.00103065,-0.00068199,0.00050
 006,-0.00039991,0.00004768,-0.00002438,-0.00000252,0.00010655,0.000178
 64,0.00003721,-0.00002445,-0.00001821,-0.00003371,0.00014106,0.0003349
 9,-0.00005334,-0.00007880,-0.00002447,-0.00015313,-0.00042972,-0.00030
 853,-0.00135145,-0.00211240,0.00200119,0.00013301,0.00086055,0.0004792
 9,0.00013407,-0.00029419,-0.00026987,-0.00012813,0.00036316,0.00020655
 ,-0.00000466,0.00011189,-0.00006805,0.00058696,0.00000229,-0.00028280,
 0.00002956,0.00012496,0.00007661,-0.00005438,0.00020648,0.00000981,0.0
 0000849,-0.00002530,-0.00002496,-0.00001013,0.00005113,-0.00003297,-0.
 00001348,-0.00001555,0.00001625,-0.00004658,-0.00001768,-0.00003053,0.
 00000889,-0.00003090,-0.00001223,-0.00022055,-0.00022363,-0.00011783,-
 0.00009801,-0.00015234,0.00009214,0.00028720,-0.00035100,-0.00022804,-
 0.00010240,-0.00002622,0.00006451,-0.00003792,-0.00002929,-0.00002172,
 0.00002848,0.00000486,0.00000938,0.00012073,-0.00033553,-0.00025190,-0
 .00021930,0.00016650,0.00009533,0.00017867,0.00016677,0.00016832,0.000
 02574,0.00002658,-0.00003644,0.00015481,0.00030075,-0.00099558,0.00025
 743,-0.00014029,0.00096252,0.00008768,0.00046341,-0.00001086,-0.000009
 62,0.00021170,0.00029121,-0.00020154,0.00028870,0.00011439,-0.00072149
 ,0.00003824,0.00028894,-0.00001996,0.00004139,-0.00016756,-0.00003817,
 -0.00001144,0.00003886,-0.00001915,-0.00007274,0.00001029,0.00008231,0
 .00003830,-0.00012689,0.00008169,0.00010820,0.00006631,-0.00001821,-0.
 00046863,-0.00026962,-0.00001376,-0.00034771,-0.00024790,0.00015068,-0
 .00003132,-0.00072628,0.00010017,-0.00060200,0.00025653,-0.00005284,-0
 .00004160,-0.00006350,0.00004600,0.00012842,-0.00002931,0.00100273,0.0
 0051918,-0.00053322,-0.00030362,0.00048818,0.00038435,0.00001786,0.000
 08753,-0.00000827,0.00000242,0.00019140,0.00012194,-0.00012591,0.00002
 689,0.00039476,-0.00000885,0.00002507,-0.00013217,-0.00000825,-0.00013
 952,0.00003159,-0.00015740,-0.00008465,0.00059994,-0.00008541,0.000197
 70,-0.00012616,-0.00017451,0.00011683,-0.00014005,0.00056330,-0.000226
 19,-0.00100691,0.00123451,0.00121691,0.00156030,-0.00032395,0.00013001
 ,0.00032189,-0.00064314,-0.00093129,0.00000656,-0.00030393,0.00043139,
 0.00009007,0.00003628,-0.00036914,-0.00000587,-0.00675714,-0.00862836,
 -0.01097207,0.00115325,-0.00004552,-0.00079782,-0.00028481,0.00091947,
 0.00112882,-0.08480031,-0.11519451,-0.08102537,0.01988474,0.01516378,0
 .02021971,0.08053500,0.11482830,-0.00064783,-0.00003996,-0.00023402,0.
 00037248,0.00080091,-0.00071244,0.00126741,0.00007966,0.00232996,0.006
 28578,-0.00163259,-0.00727730,-0.00106617,0.00039938,-0.00004856,0.001
 10963,0.00012048,0.00022566,-0.00023379,-0.00001005,0.00024827,-0.0000
 1386,-0.00012555,-0.00005368,-0.00002334,0.00005698,-0.00042694,0.0000
 1156,-0.00008068,-0.00008814,0.,0.00009308,-0.00004053,0.00001428,0.00
 111088,0.00136656,0.00312766,0.00612765,-0.00524125,-0.00082955,-0.001
 40077,-0.00254904,-0.00102644,-0.00056207,0.00024423,-0.00035818,0.000
 02614,-0.00006347,-0.00000908,0.00010414,0.00017135,0.00001943,-0.0000
 1875,-0.00003855,-0.00004226,0.00021099,0.00038228,-0.00005178,-0.0000
 9773,-0.00001911,-0.00011894,-0.00047081,-0.00036548,-0.00249019,-0.00
 071124,0.00523725,0.00018091,0.00035529,0.00028885,0.00006756,-0.00017
 710,-0.00054325,0.00017517,0.00009222,0.00042271,0.00002988,0.00009506
 ,-0.00008145,0.00054375,0.00002178,-0.00025089,0.00003720,0.00007580,0
 .00014851,0.00000096,0.00015857,0.00002101,-0.00002067,-0.00000458,-0.
 00004678,0.00000706,0.00002713,-0.00004391,-0.00001111,-0.00001170,0.0
 0000856,-0.00004175,-0.00001641,-0.00003443,0.00000655,-0.00002697,-0.
 00001583,-0.00020702,-0.00016242,-0.00021454,-0.00013720,-0.00010632,0
 .00007526,-0.00018906,-0.00025406,-0.00013144,-0.00021645,-0.00007070,
 0.00016645,-0.00002078,-0.00002026,-0.00002788,0.00004592,0.00001290,-
 0.00000619,0.00030358,-0.00027477,-0.00034136,-0.00023826,0.00015077,0
 .00009073,0.00012395,0.00016809,0.00022339,0.00004235,0.00000908,-0.00
 003031,-0.00045127,-0.00043657,-0.00071874,0.00010311,0.00026750,0.000
 35630,0.00004872,0.00068889,-0.00024751,0.00014097,0.00008389,0.000111
 74,-0.00002800,0.00039906,0.00000703,0.00035841,0.00024274,0.00016239,
 0.00000102,-0.00009288,-0.00004975,-0.00005626,-0.00017224,-0.00003915
 ,-0.00004690,-0.00007212,0.00003911,-0.00011654,-0.00005376,-0.0000730
 2,0.00014814,0.00002095,0.00008445,-0.00015067,-0.00033427,-0.00010769
 ,0.00006187,-0.00039938,0.00005473,0.00023841,-0.00048203,-0.00047049,
 0.00063827,-0.00119635,0.00053784,-0.00007557,-0.00002600,-0.00003436,
 -0.00000378,0.00034022,-0.00016608,0.00250481,0.00158666,-0.00289709,-
 0.00011008,0.00078217,0.00030194,0.00003930,0.00006982,-0.00006666,-0.
 00005364,0.00017588,0.00003319,-0.00026590,0.00041203,0.00050851,0.000
 02697,-0.00003077,-0.00012080,-0.00003984,-0.00013800,-0.00000079,0.00
 010110,-0.00023760,-0.00025896,0.00009423,-0.00007191,-0.00001253,-0.0
 0015716,0.00010663,-0.00009966,0.00015446,0.00055017,0.00083096,-0.000
 93038,0.00078417,0.00054103,0.00020799,-0.00008426,-0.00024737,0.00009
 738,0.00011957,0.00162225,-0.00052062,0.00045833,-0.00035104,-0.000003
 74,-0.00003259,0.00006371,-0.00896652,-0.01113719,-0.01559192,0.001902
 41,-0.00057614,-0.00078595,-0.00064513,0.00078508,-0.00003994,-0.11462
 965,-0.07572888,-0.17421411,-0.01241452,-0.00509939,-0.00950134,0.1179
 2684,0.07883208,0.18679811,-0.00053602,-0.00019696,-0.00010399,0.00085
 197,0.00090505,-0.00027703,0.00017908,-0.00019410,0.00028733,0.0014567
 8,-0.00030857,-0.00145196,-0.00013858,0.00014066,-0.00012992,0.0004420
 2,0.00005068,0.00002509,-0.00006869,-0.00005836,0.00006627,-0.00007478
 ,-0.00010097,-0.00010357,0.00020282,0.00002319,-0.00021702,0.00000213,
 -0.00001840,-0.00002692,0.00001115,0.00004773,0.00000755,-0.00015589,0
 .00017116,0.00040193,0.00005913,0.00130776,0.00180850,-0.00153802,-0.0
 0059232,0.00030397,-0.00078995,-0.00084130,0.00016565,-0.00001789,0.00
 011085,0.00000255,-0.00001288,0.00003387,0.00006728,0.00000311,-0.0000
 1149,-0.00001392,-0.00012508,-0.00006679,0.00009792,0.00001258,-0.0000
 1193,0.00000109,0.00004689,-0.00009681,-0.00013516,-0.00026042,-0.0001
 5033,0.00012556,0.00019165,0.00172035,0.00063038,0.00107634,-0.0005550
 1,-0.00179306,0.00031901,-0.00007930,0.00135209,-0.00010881,0.00018298
 ,0.00008272,0.00034051,0.00001291,-0.00008549,0.00008476,0.00030814,0.
 00007158,-0.00065459,0.00066834,-0.00022029,-0.00000844,0.00004876,-0.
 00017058,0.00003996,-0.00001799,-0.00002971,-0.00001185,-0.00004739,-0
 .00002376,-0.00002792,-0.00005538,-0.00004482,0.00016346,-0.00007901,-
 0.00003498,-0.00012931,-0.00047844,-0.00012353,0.00004724,-0.00017926,
 -0.00024062,-0.00042738,-0.00015798,-0.00045138,-0.00056537,-0.0000476
 3,0.00035493,-0.00015779,-0.00000714,-0.00009852,0.00012975,-0.0000398
 8,-0.00003624,0.00092653,-0.00119526,-0.00015687,-0.00012752,0.0005083
 2,-0.00024781,0.00013452,0.00036452,0.00018828,0.00001466,0.00000326,0
 .00005225,-0.00265401,-0.00092748,0.00044242,0.00130457,0.00011989,-0.
 00003757,0.00027524,0.00021925,-0.00012566,0.00059260,0.00010559,0.000
 20345,-0.00024987,0.00021160,0.00032436,0.00284971,0.00128096,-0.00015
 140,-0.00001555,-0.00017073,0.00006572,-0.00002492,-0.00009932,-0.0000
 3494,-0.00007388,-0.00005369,-0.00002147,-0.00076694,-0.00004550,-0.00
 035040,0.00013721,0.00018855,0.00030560,-0.00043892,-0.00023518,-0.000
 31257,-0.00036154,-0.00005860,0.00003654,-0.00118914,-0.00017316,0.000
 92516,0.00628586,-0.00908575,0.00230213,-0.00030636,0.00085195,0.00003
 198,-0.00015106,0.00264554,-0.00130523,-0.00066860,0.00625391,-0.00475
 712,-0.00225551,0.00441222,0.00100864,0.00010759,0.00000444,-0.0000406
 5,0.00003861,0.00002179,-0.00010095,0.00034341,-0.00019659,-0.00056463
 ,-0.00000857,-0.00001205,0.00017290,0.00003385,0.00012516,-0.00007507,
 -0.00001727,0.00025015,-0.00016153,-0.00001072,-0.00011779,0.00005668,
 0.00011308,-0.00011419,0.00013719,-0.00045615,-0.00015975,0.00007322,-
 0.00032111,-0.00008747,-0.00034855,0.00011816,-0.00005565,-0.00002067,
 -0.00049200,-0.00056112,-0.00078460,0.00077826,-0.00031433,-0.00004233
 ,0.00021635,0.00085353,-0.00022359,-0.00920135,-0.00164866,0.00930180,
 0.00107068,-0.00052756,-0.00137491,0.00079205,0.00045902,-0.00010014,-
 0.17027390,-0.10056095,0.09261877,0.01735716,0.01227449,-0.01307654,-0
 .01334853,-0.01227915,0.00909241,0.17007269,-0.00020667,-0.00014530,0.
 00046295,0.00078255,0.00051788,-0.00052020,-0.00102478,-0.00074736,-0.
 00117749,0.00042178,-0.00028978,-0.00056015,-0.00003591,0.00004601,-0.
 00029825,0.00012271,0.00018641,-0.00011875,-0.00001828,-0.00006218,0.0
 0002921,0.00006113,0.00005843,0.00011598,0.00001389,0.00031455,-0.0003
 0887,0.00010003,-0.00000735,0.00008257,0.00000264,0.00003815,-0.000000
 62,0.00004268,0.00014934,0.00037848,0.00036950,0.00072763,0.00074448,-
 0.00072787,0.00284775,0.00147091,-0.00072626,-0.00061080,0.00057522,-0
 .00003707,0.00005840,-0.00002577,-0.00001083,0.00002957,0.00004089,0.0
 0002771,-0.00000641,0.00001006,-0.00004642,-0.00002621,0.00010903,-0.0
 0000886,-0.00001240,-0.00000723,0.00001000,-0.00007227,-0.00013668,-0.
 00018083,-0.00009167,0.00014245,0.00162394,-0.00032132,-0.00075766,0.0
 0088011,-0.00061141,-0.00106782,-0.00001750,0.00026276,0.00064813,-0.0
 0007455,0.00018073,0.00000800,0.00047630,0.00007654,-0.00021106,0.0000
 5706,0.00025402,-0.00002814,-0.00053560,0.00055174,-0.00023719,0.00001
 660,0.00000573,-0.00009577,0.00000110,0.00001038,-0.00001896,-0.000041
 35,-0.00003509,0.00002391,-0.00004122,-0.00004318,-0.00003129,0.000122
 71,-0.00007392,0.00001416,-0.00016161,-0.00036165,0.00005614,0.0000116
 5,-0.00019539,-0.00006655,0.00018324,-0.00036370,-0.00038145,-0.000010
 81,0.00029780,-0.00009619,-0.00017038,-0.00005797,-0.00005267,-0.00002
 121,-0.00007556,0.00003615,-0.00019921,-0.00094622,0.00034969,0.000221
 54,0.00021935,-0.00010903,0.00021487,0.00016683,0.00002720,0.00000581,
 0.00002212,0.00000026,-0.00203476,-0.00006130,-0.00133752,0.00210860,0
 .00012048,0.00055240,0.00006948,0.00037173,0.00002199,0.00025131,0.000
 14041,0.00031399,-0.00033101,0.00037300,0.00028026,0.00029511,0.000206
 87,0.00078203,-0.00014961,-0.00000776,-0.00019172,-0.00003446,-0.00006
 681,-0.00001761,-0.00003402,-0.00005423,0.00000312,-0.00020536,0.00006
 984,-0.00030392,0.00006665,0.00017065,0.00015934,-0.00016622,-0.000336
 52,-0.00036240,-0.00025916,-0.00019820,-0.00028546,-0.00098209,-0.0001
 1049,0.00048367,-0.00049967,-0.00533928,0.00232467,-0.00020786,0.00000
 985,-0.00007758,0.00013891,0.00077173,-0.00048602,0.00607356,-0.008855
 11,-0.00330142,0.00118641,0.00604308,0.00004933,0.00004405,0.00001982,
 0.00000089,0.00006101,0.00007559,0.00001234,0.00041465,-0.00015974,-0.
 00031100,-0.00006452,-0.00000682,0.00006596,-0.00001331,-0.00002535,-0
 .00003988,0.00002678,0.00010230,-0.00005659,0.00000223,-0.00006316,0.0
 0004301,0.00003130,-0.00006433,0.00005798,-0.00013433,-0.00037897,0.00
 056670,-0.00010629,0.00004411,-0.00023240,-0.00031728,-0.00010936,-0.0
 0006673,0.00038820,0.00222359,-0.00160774,-0.00017657,-0.00034242,0.00
 031753,-0.00020817,-0.00104454,0.00079456,0.01442557,0.01942410,-0.010
 05163,-0.00018557,0.00022677,-0.00026228,0.00302613,-0.00342876,-0.004
 38627,-0.09548469,-0.15230967,0.08036440,-0.01756498,-0.01599790,0.012
 87900,-0.00710849,-0.00831786,0.00567499,0.09618607,0.16501969,0.00023
 211,0.00016857,-0.00003969,-0.00049076,-0.00060336,0.00017996,0.000576
 87,-0.00010689,-0.00003537,-0.00186613,-0.00115572,0.00134512,0.000200
 63,-0.00009780,-0.00038217,-0.00019585,-0.00015086,-0.00004282,0.00002
 880,0.00005834,-0.00002039,-0.00007241,0.00011915,-0.00001892,0.000049
 90,0.00010124,-0.00069777,-0.00002788,0.00002705,0.00001623,0.00001665
 ,-0.00002365,-0.00002583,0.00021711,0.00022082,-0.00009078,0.00020808,
 -0.00110645,-0.00346435,0.00021059,0.00009724,-0.00124152,0.00023059,0
 .00056947,-0.00009998,0.00000173,-0.00009881,-0.00002968,0.00000502,-0
 .00001413,-0.00003324,-0.00001176,0.00000904,-0.00000432,0.00008302,0.
 00010271,-0.00002400,-0.00000751,-0.00000881,-0.00000535,0.00002076,0.
 00005027,0.00001781,0.00013845,0.00008752,-0.00005804,0.00020453,-0.00
 090429,0.00018306,-0.00073828,0.00043425,0.00063472,0.00022514,-0.0002
 8274,-0.00045810,0.00009574,-0.00010605,-0.00009583,-0.00005615,0.0000
 2328,0.00002312,-0.00003620,-0.00018218,0.00006510,0.00052637,-0.00044
 041,0.00018600,-0.00003850,-0.00000049,0.00006678,-0.00001250,-0.00000
 636,-0.00000589,-0.00001760,0.00003125,0.00001800,0.00001097,0.0000260
 6,0.00001411,-0.00011225,0.00005190,-0.00000301,0.00003228,0.00025874,
 -0.00010261,-0.00009398,0.00012831,0.00014745,-0.00037477,0.00018209,0
 .00042348,0.00002158,-0.00017450,0.00002038,0.00011330,0.00001298,0.00
 005828,-0.00000390,0.00005814,-0.00001623,-0.00003516,0.00062235,-0.00
 042460,-0.00030977,-0.00005740,0.00021714,-0.00005333,-0.00010567,0.00
 003002,0.00000845,-0.00001689,-0.00003188,0.00217073,-0.00076175,0.001
 32612,-0.00244954,-0.00016871,-0.00060878,-0.00013218,-0.00009532,-0.0
 0015375,-0.00026195,-0.00021237,-0.00034682,0.00035827,0.00016575,-0.0
 0044255,0.00023827,0.00044446,-0.00072616,0.00022824,-0.00005152,0.000
 25437,-0.00001761,-0.00001471,0.00001584,0.00005256,0.00001983,0.00004
 566,0.00012270,-0.00017130,0.00029285,0.00007557,-0.00028172,-0.000252
 92,0.00015066,0.00025326,0.00034357,0.00035712,0.00004813,0.00032113,0
 .00125658,-0.00003977,-0.00079213,-0.00158922,0.00507218,-0.00213707,0
 .00007205,-0.00071904,0.00022172,-0.00004608,-0.00126403,0.00055270,-0
 .00528804,-0.00287186,-0.00118182,0.00139405,-0.00239266,-0.00139572,-
 0.00004963,-0.00001000,-0.00002626,-0.00009145,-0.00002862,0.00001548,
 -0.00046643,0.00037841,0.00060678,0.00005631,-0.00002353,-0.00012535,-
 0.00001909,-0.00004978,0.00004814,-0.00001279,-0.00022837,0.00008455,0
 .00003711,0.00007068,-0.00005577,-0.00008144,0.00009881,-0.00010320,0.
 00008810,0.00040928,-0.00016708,-0.00005270,-0.00011714,0.00024930,0.0
 0005475,-0.00003438,-0.00014459,-0.00088469,-0.00004063,0.00190035,-0.
 00055886,0.00042347,-0.00026338,0.00020171,-0.00045171,0.00054685,0.01
 517985,0.00925817,-0.01448982,-0.00055144,0.00082176,-0.00010315,0.000
 72298,-0.00235609,-0.00131128,0.08775503,0.08009328,-0.13672114,0.0088
 4712,0.01009208,-0.00779892,-0.01280639,-0.01167374,0.02131741,-0.0929
 6420,-0.08138804,0.14501044\\-0.00000291,0.00000513,0.00000258,0.00000
 556,0.00000216,-0.00000669,-0.00000696,0.00000144,-0.00000794,0.000003
 52,-0.00000093,0.00001328,0.00000358,-0.00000085,-0.00001052,-0.000007
 51,-0.00000568,0.00000205,-0.00000084,-0.00000007,0.00000060,0.0000014
 1,-0.00000002,0.00000011,0.00000029,-0.00000109,0.00000019,-0.00000191
 ,-0.00000092,0.00000375,-0.00000061,0.00000314,0.00000038,-0.00000088,
 -0.00000109,-0.00000999,0.00001481,-0.00001513,-0.00000647,0.00000098,
 0.00001436,-0.00000387,-0.00001066,-0.00000815,0.00000266,0.00000201,0
 .00001327,-0.00000383,-0.00000200,-0.00000047,0.00000243,-0.00000313,-
 0.00000237,0.00000175,-0.00000994,-0.00001067,0.00000648,0.,0.00000295
 ,-0.00000011,0.00000107,0.00000338,0.00001087,0.00000050,0.00000055,0.
 00000112,0.00000214,-0.00001176,0.00000203,-0.00001038,0.00000377,-0.0
 0000365,-0.00000782,0.00000389,-0.00000470,-0.00000786,0.00000713,0.00
 000351,0.00001361,0.00000005,-0.00000810,-0.00000187,0.00001233,-0.000
 01128,0.00001238,-0.00001501,-0.00000116,-0.00000011,-0.00000012,-0.00
 000304,-0.00000198,-0.00000080,-0.00000216,-0.00000362,0.00000142,-0.0
 0000094,-0.00000010,0.00000093,-0.00000409,-0.00000124,0.00000048,-0.0
 0000451,0.00000259,-0.00000992,0.00000876,-0.00000112,-0.00000214,-0.0
 0000702,0.00001273,-0.00000056,-0.00000376,0.00001094,0.00001142,0.000
 00098,-0.00000237,-0.00000043,-0.00000744,-0.00000113,-0.00000005,-0.0
 0000123,-0.00000249,-0.00000890,-0.00000656,-0.00000028,-0.00000355,-0
 .00000428,-0.00000122,0.00000567,-0.00000805,-0.00000141,0.00000268,-0
 .00000090,-0.00000624,0.00000302,-0.00000647,-0.00000165,-0.00001111,0
 .00000714,0.00000728,0.00000596,0.00000497,-0.00000425,0.00000838,0.00
 001106,-0.00002398,0.00000279,0.00000204,0.00001525,-0.00000874,-0.000
 00129,-0.00000142,0.00000148,0.00000305,0.00000228,-0.00000135,-0.0000
 0085,0.00000068,-0.00000250,-0.00000018,0.00000026,0.00000202,0.000001
 02,0.00000011,-0.00000174,-0.00000385,0.00000088,-0.00000325,-0.000012
 43,-0.00000735,-0.00000994,-0.00000195,0.00000190,0.00000089,-0.000011
 89,-0.00000130,0.00000760,-0.00000693,-0.00000039,-0.00000264,-0.00000
 059,-0.00000068,-0.00000131,0.00000033,0.00001253,0.00000607,-0.000001
 97,-0.00000521,-0.00000380,0.00000595,-0.00000637,-0.00000120,0.000006
 51,-0.00000014,0.00000725,0.00000530,-0.00000248,0.00000413,0.00001794
 ,0.00000032,-0.00000263,0.00000386,0.00000062,-0.00000235,0.00000011,0
 .00000398,0.00000036,0.00000057,0.00000038,-0.00000115,0.00000527,0.00
 000090,0.00000132,0.00000357,0.00000214,-0.00000049,0.00000429,-0.0000
 0040,0.00000015,0.00000224,0.00000273,-0.00000192,0.00000219,0.0000014
 7,0.00000179,0.00000281,0.00000244,-0.00000030,0.00000126,0.00000166,-
 0.00000073,0.00000166,0.00001017,-0.00000973,-0.00000344,0.00000284,-0
 .00000015,0.00000044,0.00000230,0.00000220,0.00000362,-0.00000129,-0.0
 0001663,0.00001306,0.00001303,-0.00000243,-0.00000849,-0.00001660,0.00
 003189,0.00001002,-0.00000217,0.00000332,0.00000880\\\@


 It is also a good rule not to put too much confidence in
 experimental results until they have been confirmed by
 Theory.
                             -- Sir Arthur Eddington
 Job cpu time:      19 days 10 hours 22 minutes 51.4 seconds.
 File lengths (MBytes):  RWF=  17336 Int=      0 D2E=      0 Chk=     99 Scr=      1
 Normal termination of Gaussian 09 at Sat Apr 30 05:09:23 2016.
