 Entering Gaussian System, Link 0=g09
 Initial command:
 /share/apps//g09/l1.exe "/scratch/Gau-42918.inp" -scrdir="/scratch/"
 Entering Link 1 = /share/apps//g09/l1.exe PID=     42919.
  
 Copyright (c) 1988,1990,1992,1993,1995,1998,2003,2009,2013,
            Gaussian, Inc.  All Rights Reserved.
  
 This is part of the Gaussian(R) 09 program.  It is based on
 the Gaussian(R) 03 system (copyright 2003, Gaussian, Inc.),
 the Gaussian(R) 98 system (copyright 1998, Gaussian, Inc.),
 the Gaussian(R) 94 system (copyright 1995, Gaussian, Inc.),
 the Gaussian 92(TM) system (copyright 1992, Gaussian, Inc.),
 the Gaussian 90(TM) system (copyright 1990, Gaussian, Inc.),
 the Gaussian 88(TM) system (copyright 1988, Gaussian, Inc.),
 the Gaussian 86(TM) system (copyright 1986, Carnegie Mellon
 University), and the Gaussian 82(TM) system (copyright 1983,
 Carnegie Mellon University). Gaussian is a federally registered
 trademark of Gaussian, Inc.
  
 This software contains proprietary and confidential information,
 including trade secrets, belonging to Gaussian, Inc.
  
 This software is provided under written license and may be
 used, copied, transmitted, or stored only in accord with that
 written license.
  
 The following legend is applicable only to US Government
 contracts under FAR:
  
                    RESTRICTED RIGHTS LEGEND
  
 Use, reproduction and disclosure by the US Government is
 subject to restrictions as set forth in subparagraphs (a)
 and (c) of the Commercial Computer Software - Restricted
 Rights clause in FAR 52.227-19.
  
 Gaussian, Inc.
 340 Quinnipiac St., Bldg. 40, Wallingford CT 06492
  
  
 ---------------------------------------------------------------
 Warning -- This program may not be used in any manner that
 competes with the business of Gaussian, Inc. or will provide
 assistance to any competitor of Gaussian, Inc.  The licensee
 of this program is prohibited from giving any competitor of
 Gaussian, Inc. access to this program.  By using this program,
 the user acknowledges that Gaussian, Inc. is engaged in the
 business of creating and licensing software in the field of
 computational chemistry and represents and warrants to the
 licensee that it is not a competitor of Gaussian, Inc. and that
 it will not use this program in any manner prohibited above.
 ---------------------------------------------------------------
  

 Cite this work as:
 Gaussian 09, Revision D.01,
 M. J. Frisch, G. W. Trucks, H. B. Schlegel, G. E. Scuseria, 
 M. A. Robb, J. R. Cheeseman, G. Scalmani, V. Barone, B. Mennucci, 
 G. A. Petersson, H. Nakatsuji, M. Caricato, X. Li, H. P. Hratchian, 
 A. F. Izmaylov, J. Bloino, G. Zheng, J. L. Sonnenberg, M. Hada, 
 M. Ehara, K. Toyota, R. Fukuda, J. Hasegawa, M. Ishida, T. Nakajima, 
 Y. Honda, O. Kitao, H. Nakai, T. Vreven, J. A. Montgomery, Jr., 
 J. E. Peralta, F. Ogliaro, M. Bearpark, J. J. Heyd, E. Brothers, 
 K. N. Kudin, V. N. Staroverov, T. Keith, R. Kobayashi, J. Normand, 
 K. Raghavachari, A. Rendell, J. C. Burant, S. S. Iyengar, J. Tomasi, 
 M. Cossi, N. Rega, J. M. Millam, M. Klene, J. E. Knox, J. B. Cross, 
 V. Bakken, C. Adamo, J. Jaramillo, R. Gomperts, R. E. Stratmann, 
 O. Yazyev, A. J. Austin, R. Cammi, C. Pomelli, J. W. Ochterski, 
 R. L. Martin, K. Morokuma, V. G. Zakrzewski, G. A. Voth, 
 P. Salvador, J. J. Dannenberg, S. Dapprich, A. D. Daniels, 
 O. Farkas, J. B. Foresman, J. V. Ortiz, J. Cioslowski, 
 and D. J. Fox, Gaussian, Inc., Wallingford CT, 2013.
 
 ******************************************
 Gaussian 09:  EM64L-G09RevD.01 24-Apr-2013
                30-Mar-2016 
 ******************************************
 %nproc=20
 Will use up to   20 processors via shared memory.
 %mem=80GB
 %chk=Tri_A154_of.chk
 ----------------------------------------------------------------------
 #P PBE1PBE/6-311+G(d,p) opt=ModRedundant optcyc=999 freq EmpiricalDisp
 ersion=GD3
 ----------------------------------------------------------------------
 1/6=999,14=-1,18=120,19=15,26=3,38=1/1,3;
 2/9=110,12=2,17=6,18=5,40=1/2;
 3/5=4,6=6,7=111,11=2,16=1,25=1,30=1,71=1,74=-13,124=31/1,2,3;
 4//1;
 5/5=2,38=5/2;
 6/7=2,8=2,9=2,10=2,28=1/1;
 7//1,2,3,16;
 1/6=999,14=-1,18=20,19=15,26=3/3(2);
 2/9=110/2;
 99//99;
 2/9=110/2;
 3/5=4,6=6,7=111,11=2,16=1,25=1,30=1,71=1,74=-13,124=31/1,2,3;
 4/5=5,16=3,69=1/1;
 5/5=2,38=5/2;
 7//1,2,3,16;
 1/6=999,14=-1,18=20,19=15,26=3/3(-5);
 2/9=110/2;
 6/7=2,8=2,9=2,10=2,19=2,28=1/1;
 99/9=1/99;
 Leave Link    1 at Wed Mar 30 16:09:56 2016, MaxMem= 10737418240 cpu:         2.2
 (Enter /share/apps//g09/l101.exe)
 -------
 disacch
 -------
 Symbolic Z-matrix:
 Charge =  1 Multiplicity = 1
 O                     2.21831   1.38521  -1.55738 
 C                     1.94641   1.30863  -0.16754 
 C                     1.65364  -0.11537   0.28607 
 C                     2.57303  -1.15913  -0.30128 
 C                     2.69313  -0.98374  -1.80144 
 C                     3.14203   0.44825  -2.0916 
 C                     3.25447   0.75383  -3.57596 
 O                     2.05722   0.49711  -4.28609 
 O                     1.44842  -1.28052  -2.38692 
 O                     2.04471  -2.44808  -0.02736 
 O                     1.7151   -0.23486   1.68336 
 O                     0.75057   1.94636   0.05341 
 C                     0.6096    3.35669  -0.02478 
 C                     0.18767   3.8502    1.34352 
 O                     1.23038   3.61843   2.254 
 C                    -1.05555   3.08584   1.75243 
 C                    -2.15699   3.10855   0.68675 
 O                    -1.67038   2.91488  -0.62311 
 C                    -0.5347    3.65738  -0.99257 
 C                    -0.26614   3.3698   -2.45937 
 O                    -0.07585   2.00327  -2.77036 
 O                    -3.12491   2.13188   0.90818 
 C                    -2.68736   0.7874    0.94382 
 C                    -3.00182   0.19567   2.30703 
 C                    -2.67555  -1.28394   2.33406 
 C                    -3.42061  -2.00468   1.22832 
 O                    -3.14463  -1.39306  -0.00293 
 C                    -3.42894  -0.01033  -0.12994 
 C                    -3.03343   0.33738  -1.54898 
 O                    -1.69402  -0.03768  -1.80319 
 O                    -2.93346  -3.29914   1.14898 
 C                    -3.79605  -4.30147   0.59198 
 C                    -3.16689  -4.92192  -0.63885 
 C                    -3.1947   -3.9992   -1.86103 
 C                    -1.9618   -4.03402  -2.75729 
 C                    -0.64714  -3.77441  -2.04569 
 N                    -0.70698  -2.61895  -1.11443 
 O                    -3.02706  -1.75509   3.60814 
 O                    -2.26715   0.86314   3.30971 
 O                    -1.52486   3.60688   2.96402 
 H                     2.77721   1.76096   0.39105 
 H                     0.64122  -0.31824  -0.08452 
 H                     3.57005  -1.06326   0.14321 
 H                     3.46916  -1.66564  -2.17307 
 H                     4.13155   0.60378  -1.64055 
 H                     4.02099   0.11089  -4.0104 
 H                     3.57291   1.79137  -3.70468 
 H                     1.4242    1.21057  -4.14405 
 H                     1.43439  -0.84137  -3.25401 
 H                     2.08822  -2.57624   0.92396 
 H                     1.20112   0.47184   2.0839 
 H                     1.54      3.8341   -0.3435 
 H                    -0.03807   4.92298   1.27615 
 H                     0.89156   3.81599   3.1316 
 H                    -0.73705   2.05322   1.89522 
 H                    -2.69488   4.06103   0.75559 
 H                    -0.73875   4.73773  -0.92899 
 H                    -1.12799   3.70381  -3.03664 
 H                     0.59991   3.96212  -2.77538 
 H                     0.71156   1.70049  -2.28211 
 H                    -1.61647   0.7141    0.73411 
 H                    -4.07764   0.32309   2.49198 
 H                    -1.59854  -1.40909   2.14918 
 H                    -4.50199  -2.00053   1.43178 
 H                    -4.50628   0.17178  -0.01409 
 H                    -3.6952   -0.20886  -2.22769 
 H                    -3.17603   1.40522  -1.70681 
 H                    -1.19422   0.73635  -2.1196 
 H                    -4.76494  -3.85512   0.35155 
 H                    -3.95068  -5.05549   1.36591 
 H                    -3.68616  -5.8583   -0.85399 
 H                    -2.14688  -5.21288  -0.37041 
 H                    -3.34469  -2.97223  -1.526 
 H                    -4.06736  -4.23533  -2.47234 
 H                    -2.09151  -3.29634  -3.55321 
 H                    -1.86572  -5.00361  -3.25243 
 H                    -0.33961  -4.63169  -1.44747 
 H                     0.15289  -3.56348  -2.75206 
 H                    -1.37746  -2.78618  -0.35979 
 H                    -1.00377  -1.72827  -1.55779 
 H                     0.23223  -2.47113  -0.71795 
 H                    -2.74125  -2.66609   3.6975 
 H                    -2.4024    0.37563   4.12775 
 H                    -2.01033   2.89419   3.39538 
 
 The following ModRedundant input section has been read:
 B      10      81 B                                                           
 B      30      80 B                                                           
 
 NAtoms=     84 NQM=       84 NQMF=       0 NMMI=      0 NMMIF=      0
                NMic=       0 NMicF=      0.
                    Isotopes and Nuclear Properties:
 (Nuclear quadrupole moments (NQMom) in fm**2, nuclear magnetic moments (NMagM)
  in nuclear magnetons)

  Atom         1           2           3           4           5           6           7           8           9          10
 IAtWgt=          16          12          12          12          12          12          12          16          16          16
 AtmWgt=  15.9949146  12.0000000  12.0000000  12.0000000  12.0000000  12.0000000  12.0000000  15.9949146  15.9949146  15.9949146
 NucSpn=           0           0           0           0           0           0           0           0           0           0
 AtZEff=   0.0000000   0.0000000   0.0000000   0.0000000   0.0000000   0.0000000   0.0000000   0.0000000   0.0000000   0.0000000
 NQMom=    0.0000000   0.0000000   0.0000000   0.0000000   0.0000000   0.0000000   0.0000000   0.0000000   0.0000000   0.0000000
 NMagM=    0.0000000   0.0000000   0.0000000   0.0000000   0.0000000   0.0000000   0.0000000   0.0000000   0.0000000   0.0000000
 AtZNuc=   8.0000000   6.0000000   6.0000000   6.0000000   6.0000000   6.0000000   6.0000000   8.0000000   8.0000000   8.0000000

  Atom        11          12          13          14          15          16          17          18          19          20
 IAtWgt=          16          16          12          12          16          12          12          16          12          12
 AtmWgt=  15.9949146  15.9949146  12.0000000  12.0000000  15.9949146  12.0000000  12.0000000  15.9949146  12.0000000  12.0000000
 NucSpn=           0           0           0           0           0           0           0           0           0           0
 AtZEff=   0.0000000   0.0000000   0.0000000   0.0000000   0.0000000   0.0000000   0.0000000   0.0000000   0.0000000   0.0000000
 NQMom=    0.0000000   0.0000000   0.0000000   0.0000000   0.0000000   0.0000000   0.0000000   0.0000000   0.0000000   0.0000000
 NMagM=    0.0000000   0.0000000   0.0000000   0.0000000   0.0000000   0.0000000   0.0000000   0.0000000   0.0000000   0.0000000
 AtZNuc=   8.0000000   8.0000000   6.0000000   6.0000000   8.0000000   6.0000000   6.0000000   8.0000000   6.0000000   6.0000000

  Atom        21          22          23          24          25          26          27          28          29          30
 IAtWgt=          16          16          12          12          12          12          16          12          12          16
 AtmWgt=  15.9949146  15.9949146  12.0000000  12.0000000  12.0000000  12.0000000  15.9949146  12.0000000  12.0000000  15.9949146
 NucSpn=           0           0           0           0           0           0           0           0           0           0
 AtZEff=   0.0000000   0.0000000   0.0000000   0.0000000   0.0000000   0.0000000   0.0000000   0.0000000   0.0000000   0.0000000
 NQMom=    0.0000000   0.0000000   0.0000000   0.0000000   0.0000000   0.0000000   0.0000000   0.0000000   0.0000000   0.0000000
 NMagM=    0.0000000   0.0000000   0.0000000   0.0000000   0.0000000   0.0000000   0.0000000   0.0000000   0.0000000   0.0000000
 AtZNuc=   8.0000000   8.0000000   6.0000000   6.0000000   6.0000000   6.0000000   8.0000000   6.0000000   6.0000000   8.0000000

  Atom        31          32          33          34          35          36          37          38          39          40
 IAtWgt=          16          12          12          12          12          12          14          16          16          16
 AtmWgt=  15.9949146  12.0000000  12.0000000  12.0000000  12.0000000  12.0000000  14.0030740  15.9949146  15.9949146  15.9949146
 NucSpn=           0           0           0           0           0           0           2           0           0           0
 AtZEff=   0.0000000   0.0000000   0.0000000   0.0000000   0.0000000   0.0000000   0.0000000   0.0000000   0.0000000   0.0000000
 NQMom=    0.0000000   0.0000000   0.0000000   0.0000000   0.0000000   0.0000000   2.0440000   0.0000000   0.0000000   0.0000000
 NMagM=    0.0000000   0.0000000   0.0000000   0.0000000   0.0000000   0.0000000   0.4037610   0.0000000   0.0000000   0.0000000
 AtZNuc=   8.0000000   6.0000000   6.0000000   6.0000000   6.0000000   6.0000000   7.0000000   8.0000000   8.0000000   8.0000000

  Atom        41          42          43          44          45          46          47          48          49          50
 IAtWgt=           1           1           1           1           1           1           1           1           1           1
 AtmWgt=   1.0078250   1.0078250   1.0078250   1.0078250   1.0078250   1.0078250   1.0078250   1.0078250   1.0078250   1.0078250
 NucSpn=           1           1           1           1           1           1           1           1           1           1
 AtZEff=   0.0000000   0.0000000   0.0000000   0.0000000   0.0000000   0.0000000   0.0000000   0.0000000   0.0000000   0.0000000
 NQMom=    0.0000000   0.0000000   0.0000000   0.0000000   0.0000000   0.0000000   0.0000000   0.0000000   0.0000000   0.0000000
 NMagM=    2.7928460   2.7928460   2.7928460   2.7928460   2.7928460   2.7928460   2.7928460   2.7928460   2.7928460   2.7928460
 AtZNuc=   1.0000000   1.0000000   1.0000000   1.0000000   1.0000000   1.0000000   1.0000000   1.0000000   1.0000000   1.0000000

  Atom        51          52          53          54          55          56          57          58          59          60
 IAtWgt=           1           1           1           1           1           1           1           1           1           1
 AtmWgt=   1.0078250   1.0078250   1.0078250   1.0078250   1.0078250   1.0078250   1.0078250   1.0078250   1.0078250   1.0078250
 NucSpn=           1           1           1           1           1           1           1           1           1           1
 AtZEff=   0.0000000   0.0000000   0.0000000   0.0000000   0.0000000   0.0000000   0.0000000   0.0000000   0.0000000   0.0000000
 NQMom=    0.0000000   0.0000000   0.0000000   0.0000000   0.0000000   0.0000000   0.0000000   0.0000000   0.0000000   0.0000000
 NMagM=    2.7928460   2.7928460   2.7928460   2.7928460   2.7928460   2.7928460   2.7928460   2.7928460   2.7928460   2.7928460
 AtZNuc=   1.0000000   1.0000000   1.0000000   1.0000000   1.0000000   1.0000000   1.0000000   1.0000000   1.0000000   1.0000000

  Atom        61          62          63          64          65          66          67          68          69          70
 IAtWgt=           1           1           1           1           1           1           1           1           1           1
 AtmWgt=   1.0078250   1.0078250   1.0078250   1.0078250   1.0078250   1.0078250   1.0078250   1.0078250   1.0078250   1.0078250
 NucSpn=           1           1           1           1           1           1           1           1           1           1
 AtZEff=   0.0000000   0.0000000   0.0000000   0.0000000   0.0000000   0.0000000   0.0000000   0.0000000   0.0000000   0.0000000
 NQMom=    0.0000000   0.0000000   0.0000000   0.0000000   0.0000000   0.0000000   0.0000000   0.0000000   0.0000000   0.0000000
 NMagM=    2.7928460   2.7928460   2.7928460   2.7928460   2.7928460   2.7928460   2.7928460   2.7928460   2.7928460   2.7928460
 AtZNuc=   1.0000000   1.0000000   1.0000000   1.0000000   1.0000000   1.0000000   1.0000000   1.0000000   1.0000000   1.0000000

  Atom        71          72          73          74          75          76          77          78          79          80
 IAtWgt=           1           1           1           1           1           1           1           1           1           1
 AtmWgt=   1.0078250   1.0078250   1.0078250   1.0078250   1.0078250   1.0078250   1.0078250   1.0078250   1.0078250   1.0078250
 NucSpn=           1           1           1           1           1           1           1           1           1           1
 AtZEff=   0.0000000   0.0000000   0.0000000   0.0000000   0.0000000   0.0000000   0.0000000   0.0000000   0.0000000   0.0000000
 NQMom=    0.0000000   0.0000000   0.0000000   0.0000000   0.0000000   0.0000000   0.0000000   0.0000000   0.0000000   0.0000000
 NMagM=    2.7928460   2.7928460   2.7928460   2.7928460   2.7928460   2.7928460   2.7928460   2.7928460   2.7928460   2.7928460
 AtZNuc=   1.0000000   1.0000000   1.0000000   1.0000000   1.0000000   1.0000000   1.0000000   1.0000000   1.0000000   1.0000000

  Atom        81          82          83          84
 IAtWgt=           1           1           1           1
 AtmWgt=   1.0078250   1.0078250   1.0078250   1.0078250
 NucSpn=           1           1           1           1
 AtZEff=   0.0000000   0.0000000   0.0000000   0.0000000
 NQMom=    0.0000000   0.0000000   0.0000000   0.0000000
 NMagM=    2.7928460   2.7928460   2.7928460   2.7928460
 AtZNuc=   1.0000000   1.0000000   1.0000000   1.0000000
 Leave Link  101 at Wed Mar 30 16:09:56 2016, MaxMem= 10737418240 cpu:         5.4
 (Enter /share/apps//g09/l103.exe)

 GradGradGradGradGradGradGradGradGradGradGradGradGradGradGradGradGradGrad
 Berny optimization.
 Initialization pass.
                           ----------------------------
                           !    Initial Parameters    !
                           ! (Angstroms and Degrees)  !
 --------------------------                            --------------------------
 ! Name  Definition              Value          Derivative Info.                !
 --------------------------------------------------------------------------------
 ! R1    R(1,2)                  1.4183         estimate D2E/DX2                !
 ! R2    R(1,6)                  1.4201         estimate D2E/DX2                !
 ! R3    R(2,3)                  1.5229         estimate D2E/DX2                !
 ! R4    R(2,12)                 1.3732         estimate D2E/DX2                !
 ! R5    R(2,41)                 1.0986         estimate D2E/DX2                !
 ! R6    R(3,4)                  1.5099         estimate D2E/DX2                !
 ! R7    R(3,11)                 1.4037         estimate D2E/DX2                !
 ! R8    R(3,42)                 1.097          estimate D2E/DX2                !
 ! R9    R(4,5)                  1.5151         estimate D2E/DX2                !
 ! R10   R(4,10)                 1.4197         estimate D2E/DX2                !
 ! R11   R(4,43)                 1.0958         estimate D2E/DX2                !
 ! R12   R(5,6)                  1.5285         estimate D2E/DX2                !
 ! R13   R(5,9)                  1.4072         estimate D2E/DX2                !
 ! R14   R(5,44)                 1.0979         estimate D2E/DX2                !
 ! R15   R(6,7)                  1.5197         estimate D2E/DX2                !
 ! R16   R(6,45)                 1.0985         estimate D2E/DX2                !
 ! R17   R(7,8)                  1.4155         estimate D2E/DX2                !
 ! R18   R(7,46)                 1.0907         estimate D2E/DX2                !
 ! R19   R(7,47)                 1.0929         estimate D2E/DX2                !
 ! R20   R(8,48)                 0.9643         estimate D2E/DX2                !
 ! R21   R(9,49)                 0.9721         estimate D2E/DX2                !
 ! R22   R(10,50)                0.9609         estimate D2E/DX2                !
 ! R23   R(10,81)                1.9397         estimate D2E/DX2                !
 ! R24   R(11,51)                0.9613         estimate D2E/DX2                !
 ! R25   R(12,13)                1.4195         estimate D2E/DX2                !
 ! R26   R(13,14)                1.5145         estimate D2E/DX2                !
 ! R27   R(13,19)                1.5285         estimate D2E/DX2                !
 ! R28   R(13,52)                1.0932         estimate D2E/DX2                !
 ! R29   R(14,15)                1.4035         estimate D2E/DX2                !
 ! R30   R(14,16)                1.5156         estimate D2E/DX2                !
 ! R31   R(14,53)                1.0983         estimate D2E/DX2                !
 ! R32   R(15,54)                0.9613         estimate D2E/DX2                !
 ! R33   R(16,17)                1.5328         estimate D2E/DX2                !
 ! R34   R(16,40)                1.3999         estimate D2E/DX2                !
 ! R35   R(16,55)                1.09           estimate D2E/DX2                !
 ! R36   R(17,18)                1.4107         estimate D2E/DX2                !
 ! R37   R(17,22)                1.3928         estimate D2E/DX2                !
 ! R38   R(17,56)                1.096          estimate D2E/DX2                !
 ! R39   R(18,19)                1.4063         estimate D2E/DX2                !
 ! R40   R(19,20)                1.5187         estimate D2E/DX2                !
 ! R41   R(19,57)                1.1013         estimate D2E/DX2                !
 ! R42   R(20,21)                1.4143         estimate D2E/DX2                !
 ! R43   R(20,58)                1.0898         estimate D2E/DX2                !
 ! R44   R(20,59)                1.0958         estimate D2E/DX2                !
 ! R45   R(21,60)                0.9747         estimate D2E/DX2                !
 ! R46   R(22,23)                1.4143         estimate D2E/DX2                !
 ! R47   R(23,24)                1.519          estimate D2E/DX2                !
 ! R48   R(23,28)                1.5295         estimate D2E/DX2                !
 ! R49   R(23,61)                1.0937         estimate D2E/DX2                !
 ! R50   R(24,25)                1.5154         estimate D2E/DX2                !
 ! R51   R(24,39)                1.4109         estimate D2E/DX2                !
 ! R52   R(24,62)                1.099          estimate D2E/DX2                !
 ! R53   R(25,26)                1.5157         estimate D2E/DX2                !
 ! R54   R(25,38)                1.4031         estimate D2E/DX2                !
 ! R55   R(25,63)                1.0999         estimate D2E/DX2                !
 ! R56   R(26,27)                1.4022         estimate D2E/DX2                !
 ! R57   R(26,31)                1.3854         estimate D2E/DX2                !
 ! R58   R(26,64)                1.1004         estimate D2E/DX2                !
 ! R59   R(27,28)                1.4174         estimate D2E/DX2                !
 ! R60   R(28,29)                1.5136         estimate D2E/DX2                !
 ! R61   R(28,65)                1.0987         estimate D2E/DX2                !
 ! R62   R(29,30)                1.414          estimate D2E/DX2                !
 ! R63   R(29,66)                1.0941         estimate D2E/DX2                !
 ! R64   R(29,67)                1.0888         estimate D2E/DX2                !
 ! R65   R(30,68)                0.9742         estimate D2E/DX2                !
 ! R66   R(30,80)                1.8425         estimate D2E/DX2                !
 ! R67   R(31,32)                1.4349         estimate D2E/DX2                !
 ! R68   R(32,33)                1.5152         estimate D2E/DX2                !
 ! R69   R(32,69)                1.0935         estimate D2E/DX2                !
 ! R70   R(32,70)                1.0915         estimate D2E/DX2                !
 ! R71   R(33,34)                1.5316         estimate D2E/DX2                !
 ! R72   R(33,71)                1.0921         estimate D2E/DX2                !
 ! R73   R(33,72)                1.0941         estimate D2E/DX2                !
 ! R74   R(34,35)                1.5246         estimate D2E/DX2                !
 ! R75   R(34,73)                1.0906         estimate D2E/DX2                !
 ! R76   R(34,74)                1.0913         estimate D2E/DX2                !
 ! R77   R(35,36)                1.5173         estimate D2E/DX2                !
 ! R78   R(35,75)                1.0929         estimate D2E/DX2                !
 ! R79   R(35,76)                1.0929         estimate D2E/DX2                !
 ! R80   R(36,37)                1.4852         estimate D2E/DX2                !
 ! R81   R(36,77)                1.0897         estimate D2E/DX2                !
 ! R82   R(36,78)                1.0879         estimate D2E/DX2                !
 ! R83   R(37,79)                1.0232         estimate D2E/DX2                !
 ! R84   R(37,80)                1.0383         estimate D2E/DX2                !
 ! R85   R(37,81)                1.0301         estimate D2E/DX2                !
 ! R86   R(38,82)                0.959          estimate D2E/DX2                !
 ! R87   R(39,83)                0.9618         estimate D2E/DX2                !
 ! R88   R(40,84)                0.9642         estimate D2E/DX2                !
 ! A1    A(2,1,6)              117.2414         estimate D2E/DX2                !
 ! A2    A(1,2,3)              112.2863         estimate D2E/DX2                !
 ! A3    A(1,2,12)             107.4314         estimate D2E/DX2                !
 ! A4    A(1,2,41)             109.3334         estimate D2E/DX2                !
 ! A5    A(3,2,12)             102.6454         estimate D2E/DX2                !
 ! A6    A(3,2,41)             112.2678         estimate D2E/DX2                !
 ! A7    A(12,2,41)            112.6785         estimate D2E/DX2                !
 ! A8    A(2,3,4)              114.4227         estimate D2E/DX2                !
 ! A9    A(2,3,11)             111.5718         estimate D2E/DX2                !
 ! A10   A(2,3,42)             104.4605         estimate D2E/DX2                !
 ! A11   A(4,3,11)             107.5607         estimate D2E/DX2                !
 ! A12   A(4,3,42)             107.6202         estimate D2E/DX2                !
 ! A13   A(11,3,42)            111.1569         estimate D2E/DX2                !
 ! A14   A(3,4,5)              110.6957         estimate D2E/DX2                !
 ! A15   A(3,4,10)             109.0244         estimate D2E/DX2                !
 ! A16   A(3,4,43)             109.6183         estimate D2E/DX2                !
 ! A17   A(5,4,10)             109.0037         estimate D2E/DX2                !
 ! A18   A(5,4,43)             108.6246         estimate D2E/DX2                !
 ! A19   A(10,4,43)            109.8618         estimate D2E/DX2                !
 ! A20   A(4,5,6)              108.6439         estimate D2E/DX2                !
 ! A21   A(4,5,9)              108.5071         estimate D2E/DX2                !
 ! A22   A(4,5,44)             108.6196         estimate D2E/DX2                !
 ! A23   A(6,5,9)              112.2335         estimate D2E/DX2                !
 ! A24   A(6,5,44)             108.0619         estimate D2E/DX2                !
 ! A25   A(9,5,44)             110.6957         estimate D2E/DX2                !
 ! A26   A(1,6,5)              110.836          estimate D2E/DX2                !
 ! A27   A(1,6,7)              106.4341         estimate D2E/DX2                !
 ! A28   A(1,6,45)             109.7582         estimate D2E/DX2                !
 ! A29   A(5,6,7)              113.2999         estimate D2E/DX2                !
 ! A30   A(5,6,45)             108.6169         estimate D2E/DX2                !
 ! A31   A(7,6,45)             107.8146         estimate D2E/DX2                !
 ! A32   A(6,7,8)              113.0156         estimate D2E/DX2                !
 ! A33   A(6,7,46)             108.8155         estimate D2E/DX2                !
 ! A34   A(6,7,47)             109.1169         estimate D2E/DX2                !
 ! A35   A(8,7,46)             106.7193         estimate D2E/DX2                !
 ! A36   A(8,7,47)             111.0716         estimate D2E/DX2                !
 ! A37   A(46,7,47)            107.9342         estimate D2E/DX2                !
 ! A38   A(7,8,48)             110.3133         estimate D2E/DX2                !
 ! A39   A(5,9,49)             106.7755         estimate D2E/DX2                !
 ! A40   A(4,10,50)            107.1731         estimate D2E/DX2                !
 ! A41   A(4,10,81)            106.8472         estimate D2E/DX2                !
 ! A42   A(50,10,81)           113.1538         estimate D2E/DX2                !
 ! A43   A(3,11,51)            109.1945         estimate D2E/DX2                !
 ! A44   A(2,12,13)            122.6186         estimate D2E/DX2                !
 ! A45   A(12,13,14)           107.5563         estimate D2E/DX2                !
 ! A46   A(12,13,19)           107.7379         estimate D2E/DX2                !
 ! A47   A(12,13,52)           111.4331         estimate D2E/DX2                !
 ! A48   A(14,13,19)           107.4189         estimate D2E/DX2                !
 ! A49   A(14,13,52)           110.9889         estimate D2E/DX2                !
 ! A50   A(19,13,52)           111.5077         estimate D2E/DX2                !
 ! A51   A(13,14,15)           108.9832         estimate D2E/DX2                !
 ! A52   A(13,14,16)           107.9348         estimate D2E/DX2                !
 ! A53   A(13,14,53)           108.6694         estimate D2E/DX2                !
 ! A54   A(15,14,16)           110.5544         estimate D2E/DX2                !
 ! A55   A(15,14,53)           110.718          estimate D2E/DX2                !
 ! A56   A(16,14,53)           109.9103         estimate D2E/DX2                !
 ! A57   A(14,15,54)           107.2444         estimate D2E/DX2                !
 ! A58   A(14,16,17)           113.2284         estimate D2E/DX2                !
 ! A59   A(14,16,40)           108.7111         estimate D2E/DX2                !
 ! A60   A(14,16,55)           105.8685         estimate D2E/DX2                !
 ! A61   A(17,16,40)           110.8133         estimate D2E/DX2                !
 ! A62   A(17,16,55)           108.3661         estimate D2E/DX2                !
 ! A63   A(40,16,55)           109.7054         estimate D2E/DX2                !
 ! A64   A(16,17,18)           113.3074         estimate D2E/DX2                !
 ! A65   A(16,17,22)           112.2391         estimate D2E/DX2                !
 ! A66   A(16,17,56)           108.7759         estimate D2E/DX2                !
 ! A67   A(18,17,22)           106.9224         estimate D2E/DX2                !
 ! A68   A(18,17,56)           110.2986         estimate D2E/DX2                !
 ! A69   A(22,17,56)           104.9725         estimate D2E/DX2                !
 ! A70   A(17,18,19)           116.7459         estimate D2E/DX2                !
 ! A71   A(13,19,18)           109.5341         estimate D2E/DX2                !
 ! A72   A(13,19,20)           116.2243         estimate D2E/DX2                !
 ! A73   A(13,19,57)           107.1653         estimate D2E/DX2                !
 ! A74   A(18,19,20)           107.2525         estimate D2E/DX2                !
 ! A75   A(18,19,57)           110.6805         estimate D2E/DX2                !
 ! A76   A(20,19,57)           105.9197         estimate D2E/DX2                !
 ! A77   A(19,20,21)           114.7799         estimate D2E/DX2                !
 ! A78   A(19,20,58)           108.2845         estimate D2E/DX2                !
 ! A79   A(19,20,59)           108.4178         estimate D2E/DX2                !
 ! A80   A(21,20,58)           106.6226         estimate D2E/DX2                !
 ! A81   A(21,20,59)           110.6419         estimate D2E/DX2                !
 ! A82   A(58,20,59)           107.8552         estimate D2E/DX2                !
 ! A83   A(20,21,60)           107.3784         estimate D2E/DX2                !
 ! A84   A(17,22,23)           117.1047         estimate D2E/DX2                !
 ! A85   A(22,23,24)           109.2009         estimate D2E/DX2                !
 ! A86   A(22,23,28)           109.1547         estimate D2E/DX2                !
 ! A87   A(22,23,61)           111.2106         estimate D2E/DX2                !
 ! A88   A(24,23,28)           109.0558         estimate D2E/DX2                !
 ! A89   A(24,23,61)           110.4062         estimate D2E/DX2                !
 ! A90   A(28,23,61)           107.7692         estimate D2E/DX2                !
 ! A91   A(23,24,25)           110.5967         estimate D2E/DX2                !
 ! A92   A(23,24,39)           110.2242         estimate D2E/DX2                !
 ! A93   A(23,24,62)           107.9695         estimate D2E/DX2                !
 ! A94   A(25,24,39)           109.7017         estimate D2E/DX2                !
 ! A95   A(25,24,62)           108.721          estimate D2E/DX2                !
 ! A96   A(39,24,62)           109.5894         estimate D2E/DX2                !
 ! A97   A(24,25,26)           110.2091         estimate D2E/DX2                !
 ! A98   A(24,25,38)           106.8646         estimate D2E/DX2                !
 ! A99   A(24,25,63)           108.5975         estimate D2E/DX2                !
 ! A100  A(26,25,38)           112.3099         estimate D2E/DX2                !
 ! A101  A(26,25,63)           107.7345         estimate D2E/DX2                !
 ! A102  A(38,25,63)           111.083          estimate D2E/DX2                !
 ! A103  A(25,26,27)           109.6592         estimate D2E/DX2                !
 ! A104  A(25,26,31)           108.2551         estimate D2E/DX2                !
 ! A105  A(25,26,64)           110.2676         estimate D2E/DX2                !
 ! A106  A(27,26,31)           106.742          estimate D2E/DX2                !
 ! A107  A(27,26,64)           110.7404         estimate D2E/DX2                !
 ! A108  A(31,26,64)           111.081          estimate D2E/DX2                !
 ! A109  A(26,27,28)           117.6926         estimate D2E/DX2                !
 ! A110  A(23,28,27)           110.4054         estimate D2E/DX2                !
 ! A111  A(23,28,29)           114.3099         estimate D2E/DX2                !
 ! A112  A(23,28,65)           108.3575         estimate D2E/DX2                !
 ! A113  A(27,28,29)           104.8155         estimate D2E/DX2                !
 ! A114  A(27,28,65)           110.4218         estimate D2E/DX2                !
 ! A115  A(29,28,65)           108.4808         estimate D2E/DX2                !
 ! A116  A(28,29,30)           110.8021         estimate D2E/DX2                !
 ! A117  A(28,29,66)           107.9899         estimate D2E/DX2                !
 ! A118  A(28,29,67)           109.0852         estimate D2E/DX2                !
 ! A119  A(30,29,66)           109.2089         estimate D2E/DX2                !
 ! A120  A(30,29,67)           110.9862         estimate D2E/DX2                !
 ! A121  A(66,29,67)           108.6941         estimate D2E/DX2                !
 ! A122  A(29,30,68)           109.4892         estimate D2E/DX2                !
 ! A123  A(29,30,80)           125.0516         estimate D2E/DX2                !
 ! A124  A(68,30,80)           125.4572         estimate D2E/DX2                !
 ! A125  A(26,31,32)           117.6157         estimate D2E/DX2                !
 ! A126  A(31,32,33)           110.5946         estimate D2E/DX2                !
 ! A127  A(31,32,69)           109.4422         estimate D2E/DX2                !
 ! A128  A(31,32,70)           107.0059         estimate D2E/DX2                !
 ! A129  A(33,32,69)           110.8826         estimate D2E/DX2                !
 ! A130  A(33,32,70)           110.6052         estimate D2E/DX2                !
 ! A131  A(69,32,70)           108.2005         estimate D2E/DX2                !
 ! A132  A(32,33,34)           113.2021         estimate D2E/DX2                !
 ! A133  A(32,33,71)           108.2815         estimate D2E/DX2                !
 ! A134  A(32,33,72)           107.2595         estimate D2E/DX2                !
 ! A135  A(34,33,71)           110.5304         estimate D2E/DX2                !
 ! A136  A(34,33,72)           111.8949         estimate D2E/DX2                !
 ! A137  A(71,33,72)           105.2827         estimate D2E/DX2                !
 ! A138  A(33,34,35)           116.1445         estimate D2E/DX2                !
 ! A139  A(33,34,73)           108.9449         estimate D2E/DX2                !
 ! A140  A(33,34,74)           109.3384         estimate D2E/DX2                !
 ! A141  A(35,34,73)           108.2585         estimate D2E/DX2                !
 ! A142  A(35,34,74)           108.2036         estimate D2E/DX2                !
 ! A143  A(73,34,74)           105.4175         estimate D2E/DX2                !
 ! A144  A(34,35,36)           114.9013         estimate D2E/DX2                !
 ! A145  A(34,35,75)           108.4643         estimate D2E/DX2                !
 ! A146  A(34,35,76)           110.957          estimate D2E/DX2                !
 ! A147  A(36,35,75)           109.2017         estimate D2E/DX2                !
 ! A148  A(36,35,76)           106.7441         estimate D2E/DX2                !
 ! A149  A(75,35,76)           106.2182         estimate D2E/DX2                !
 ! A150  A(35,36,37)           113.096          estimate D2E/DX2                !
 ! A151  A(35,36,77)           111.5555         estimate D2E/DX2                !
 ! A152  A(35,36,78)           111.4598         estimate D2E/DX2                !
 ! A153  A(37,36,77)           106.2124         estimate D2E/DX2                !
 ! A154  A(37,36,78)           106.6134         estimate D2E/DX2                !
 ! A155  A(77,36,78)           107.5452         estimate D2E/DX2                !
 ! A156  A(36,37,79)           111.2036         estimate D2E/DX2                !
 ! A157  A(36,37,80)           114.2775         estimate D2E/DX2                !
 ! A158  A(36,37,81)           108.435          estimate D2E/DX2                !
 ! A159  A(79,37,80)           105.5352         estimate D2E/DX2                !
 ! A160  A(79,37,81)           109.6957         estimate D2E/DX2                !
 ! A161  A(80,37,81)           107.5706         estimate D2E/DX2                !
 ! A162  A(25,38,82)           109.2044         estimate D2E/DX2                !
 ! A163  A(24,39,83)           106.9427         estimate D2E/DX2                !
 ! A164  A(16,40,84)           106.3129         estimate D2E/DX2                !
 ! A165  A(30,80,37)           162.0096         estimate D2E/DX2                !
 ! A166  L(10,81,37,8,-1)      182.8505         estimate D2E/DX2                !
 ! A167  L(10,81,37,8,-2)      172.6493         estimate D2E/DX2                !
 ! D1    D(6,1,2,3)            -47.7214         estimate D2E/DX2                !
 ! D2    D(6,1,2,12)          -159.8486         estimate D2E/DX2                !
 ! D3    D(6,1,2,41)            77.5745         estimate D2E/DX2                !
 ! D4    D(2,1,6,5)             56.7387         estimate D2E/DX2                !
 ! D5    D(2,1,6,7)           -179.6534         estimate D2E/DX2                !
 ! D6    D(2,1,6,45)           -63.2381         estimate D2E/DX2                !
 ! D7    D(1,2,3,4)             42.8744         estimate D2E/DX2                !
 ! D8    D(1,2,3,11)           165.2765         estimate D2E/DX2                !
 ! D9    D(1,2,3,42)           -74.5407         estimate D2E/DX2                !
 ! D10   D(12,2,3,4)           157.946          estimate D2E/DX2                !
 ! D11   D(12,2,3,11)          -79.652          estimate D2E/DX2                !
 ! D12   D(12,2,3,42)           40.5309         estimate D2E/DX2                !
 ! D13   D(41,2,3,4)           -80.7983         estimate D2E/DX2                !
 ! D14   D(41,2,3,11)           41.6037         estimate D2E/DX2                !
 ! D15   D(41,2,3,42)          161.7865         estimate D2E/DX2                !
 ! D16   D(1,2,12,13)          -71.8695         estimate D2E/DX2                !
 ! D17   D(3,2,12,13)          169.5877         estimate D2E/DX2                !
 ! D18   D(41,2,12,13)          48.6135         estimate D2E/DX2                !
 ! D19   D(2,3,4,5)            -48.4897         estimate D2E/DX2                !
 ! D20   D(2,3,4,10)          -168.3881         estimate D2E/DX2                !
 ! D21   D(2,3,4,43)            71.3182         estimate D2E/DX2                !
 ! D22   D(11,3,4,5)          -173.0479         estimate D2E/DX2                !
 ! D23   D(11,3,4,10)           67.0537         estimate D2E/DX2                !
 ! D24   D(11,3,4,43)          -53.24           estimate D2E/DX2                !
 ! D25   D(42,3,4,5)            67.1033         estimate D2E/DX2                !
 ! D26   D(42,3,4,10)          -52.795          estimate D2E/DX2                !
 ! D27   D(42,3,4,43)         -173.0888         estimate D2E/DX2                !
 ! D28   D(2,3,11,51)           48.5476         estimate D2E/DX2                !
 ! D29   D(4,3,11,51)          174.808          estimate D2E/DX2                !
 ! D30   D(42,3,11,51)         -67.616          estimate D2E/DX2                !
 ! D31   D(3,4,5,6)             55.0364         estimate D2E/DX2                !
 ! D32   D(3,4,5,9)            -67.2432         estimate D2E/DX2                !
 ! D33   D(3,4,5,44)           172.3565         estimate D2E/DX2                !
 ! D34   D(10,4,5,6)           174.9472         estimate D2E/DX2                !
 ! D35   D(10,4,5,9)            52.6676         estimate D2E/DX2                !
 ! D36   D(10,4,5,44)          -67.7327         estimate D2E/DX2                !
 ! D37   D(43,4,5,6)           -65.3657         estimate D2E/DX2                !
 ! D38   D(43,4,5,9)           172.3546         estimate D2E/DX2                !
 ! D39   D(43,4,5,44)           51.9543         estimate D2E/DX2                !
 ! D40   D(3,4,10,50)          -66.4004         estimate D2E/DX2                !
 ! D41   D(3,4,10,81)           55.1727         estimate D2E/DX2                !
 ! D42   D(5,4,10,50)          172.6608         estimate D2E/DX2                !
 ! D43   D(5,4,10,81)          -65.7661         estimate D2E/DX2                !
 ! D44   D(43,4,10,50)          53.7433         estimate D2E/DX2                !
 ! D45   D(43,4,10,81)         175.3164         estimate D2E/DX2                !
 ! D46   D(4,5,6,1)            -58.601          estimate D2E/DX2                !
 ! D47   D(4,5,6,7)           -178.1714         estimate D2E/DX2                !
 ! D48   D(4,5,6,45)            62.0551         estimate D2E/DX2                !
 ! D49   D(9,5,6,1)             61.3875         estimate D2E/DX2                !
 ! D50   D(9,5,6,7)            -58.1829         estimate D2E/DX2                !
 ! D51   D(9,5,6,45)          -177.9564         estimate D2E/DX2                !
 ! D52   D(44,5,6,1)          -176.2763         estimate D2E/DX2                !
 ! D53   D(44,5,6,7)            64.1533         estimate D2E/DX2                !
 ! D54   D(44,5,6,45)          -55.6202         estimate D2E/DX2                !
 ! D55   D(4,5,9,49)           158.1545         estimate D2E/DX2                !
 ! D56   D(6,5,9,49)            38.0865         estimate D2E/DX2                !
 ! D57   D(44,5,9,49)          -82.7427         estimate D2E/DX2                !
 ! D58   D(1,6,7,8)            -66.4721         estimate D2E/DX2                !
 ! D59   D(1,6,7,46)           175.1718         estimate D2E/DX2                !
 ! D60   D(1,6,7,47)            57.63           estimate D2E/DX2                !
 ! D61   D(5,6,7,8)             55.5878         estimate D2E/DX2                !
 ! D62   D(5,6,7,46)           -62.7683         estimate D2E/DX2                !
 ! D63   D(5,6,7,47)           179.6899         estimate D2E/DX2                !
 ! D64   D(45,6,7,8)           175.8185         estimate D2E/DX2                !
 ! D65   D(45,6,7,46)           57.4624         estimate D2E/DX2                !
 ! D66   D(45,6,7,47)          -60.0794         estimate D2E/DX2                !
 ! D67   D(6,7,8,48)            78.004          estimate D2E/DX2                !
 ! D68   D(46,7,8,48)         -162.4261         estimate D2E/DX2                !
 ! D69   D(47,7,8,48)          -45.0201         estimate D2E/DX2                !
 ! D70   D(4,10,37,36)         122.4599         estimate D2E/DX2                !
 ! D71   D(4,10,37,79)        -118.3587         estimate D2E/DX2                !
 ! D72   D(4,10,37,80)          -1.1988         estimate D2E/DX2                !
 ! D73   D(50,10,37,36)       -118.1694         estimate D2E/DX2                !
 ! D74   D(50,10,37,79)          1.012          estimate D2E/DX2                !
 ! D75   D(50,10,37,80)        118.1719         estimate D2E/DX2                !
 ! D76   D(2,12,13,14)        -117.9766         estimate D2E/DX2                !
 ! D77   D(2,12,13,19)         126.5017         estimate D2E/DX2                !
 ! D78   D(2,12,13,52)           3.8799         estimate D2E/DX2                !
 ! D79   D(12,13,14,15)         65.6521         estimate D2E/DX2                !
 ! D80   D(12,13,14,16)        -54.4534         estimate D2E/DX2                !
 ! D81   D(12,13,14,53)       -173.609          estimate D2E/DX2                !
 ! D82   D(19,13,14,15)       -178.6156         estimate D2E/DX2                !
 ! D83   D(19,13,14,16)         61.279          estimate D2E/DX2                !
 ! D84   D(19,13,14,53)        -57.8767         estimate D2E/DX2                !
 ! D85   D(52,13,14,15)        -56.4804         estimate D2E/DX2                !
 ! D86   D(52,13,14,16)       -176.5859         estimate D2E/DX2                !
 ! D87   D(52,13,14,53)         64.2585         estimate D2E/DX2                !
 ! D88   D(12,13,19,18)         51.3427         estimate D2E/DX2                !
 ! D89   D(12,13,19,20)        -70.3638         estimate D2E/DX2                !
 ! D90   D(12,13,19,57)        171.4608         estimate D2E/DX2                !
 ! D91   D(14,13,19,18)        -64.2695         estimate D2E/DX2                !
 ! D92   D(14,13,19,20)        174.024          estimate D2E/DX2                !
 ! D93   D(14,13,19,57)         55.8487         estimate D2E/DX2                !
 ! D94   D(52,13,19,18)        173.9186         estimate D2E/DX2                !
 ! D95   D(52,13,19,20)         52.212          estimate D2E/DX2                !
 ! D96   D(52,13,19,57)        -65.9633         estimate D2E/DX2                !
 ! D97   D(13,14,15,54)       -171.6585         estimate D2E/DX2                !
 ! D98   D(16,14,15,54)        -53.1836         estimate D2E/DX2                !
 ! D99   D(53,14,15,54)         68.8672         estimate D2E/DX2                !
 ! D100  D(13,14,16,17)        -51.4742         estimate D2E/DX2                !
 ! D101  D(13,14,16,40)       -175.0891         estimate D2E/DX2                !
 ! D102  D(13,14,16,55)         67.1112         estimate D2E/DX2                !
 ! D103  D(15,14,16,17)       -170.5859         estimate D2E/DX2                !
 ! D104  D(15,14,16,40)         65.7992         estimate D2E/DX2                !
 ! D105  D(15,14,16,55)        -52.0005         estimate D2E/DX2                !
 ! D106  D(53,14,16,17)         66.8901         estimate D2E/DX2                !
 ! D107  D(53,14,16,40)        -56.7248         estimate D2E/DX2                !
 ! D108  D(53,14,16,55)       -174.5245         estimate D2E/DX2                !
 ! D109  D(14,16,17,18)         42.6951         estimate D2E/DX2                !
 ! D110  D(14,16,17,22)        163.9314         estimate D2E/DX2                !
 ! D111  D(14,16,17,56)        -80.359          estimate D2E/DX2                !
 ! D112  D(40,16,17,18)        165.1484         estimate D2E/DX2                !
 ! D113  D(40,16,17,22)        -73.6153         estimate D2E/DX2                !
 ! D114  D(40,16,17,56)         42.0943         estimate D2E/DX2                !
 ! D115  D(55,16,17,18)        -74.4348         estimate D2E/DX2                !
 ! D116  D(55,16,17,22)         46.8015         estimate D2E/DX2                !
 ! D117  D(55,16,17,56)        162.5111         estimate D2E/DX2                !
 ! D118  D(14,16,40,84)       -153.908          estimate D2E/DX2                !
 ! D119  D(17,16,40,84)         81.0467         estimate D2E/DX2                !
 ! D120  D(55,16,40,84)        -38.5703         estimate D2E/DX2                !
 ! D121  D(16,17,18,19)        -46.1755         estimate D2E/DX2                !
 ! D122  D(22,17,18,19)       -170.358          estimate D2E/DX2                !
 ! D123  D(56,17,18,19)         76.0347         estimate D2E/DX2                !
 ! D124  D(16,17,22,23)        -58.8388         estimate D2E/DX2                !
 ! D125  D(18,17,22,23)         65.996          estimate D2E/DX2                !
 ! D126  D(56,17,22,23)       -176.8281         estimate D2E/DX2                !
 ! D127  D(17,18,19,13)         57.4248         estimate D2E/DX2                !
 ! D128  D(17,18,19,20)       -175.6232         estimate D2E/DX2                !
 ! D129  D(17,18,19,57)        -60.5217         estimate D2E/DX2                !
 ! D130  D(13,19,20,21)         65.5754         estimate D2E/DX2                !
 ! D131  D(13,19,20,58)       -175.4537         estimate D2E/DX2                !
 ! D132  D(13,19,20,59)        -58.6857         estimate D2E/DX2                !
 ! D133  D(18,19,20,21)        -57.3311         estimate D2E/DX2                !
 ! D134  D(18,19,20,58)         61.6398         estimate D2E/DX2                !
 ! D135  D(18,19,20,59)        178.4078         estimate D2E/DX2                !
 ! D136  D(57,19,20,21)       -175.5683         estimate D2E/DX2                !
 ! D137  D(57,19,20,58)        -56.5974         estimate D2E/DX2                !
 ! D138  D(57,19,20,59)         60.1706         estimate D2E/DX2                !
 ! D139  D(19,20,21,60)        -61.9605         estimate D2E/DX2                !
 ! D140  D(58,20,21,60)        178.1425         estimate D2E/DX2                !
 ! D141  D(59,20,21,60)         61.1161         estimate D2E/DX2                !
 ! D142  D(17,22,23,24)        119.1809         estimate D2E/DX2                !
 ! D143  D(17,22,23,28)       -121.6788         estimate D2E/DX2                !
 ! D144  D(17,22,23,61)         -2.9053         estimate D2E/DX2                !
 ! D145  D(22,23,24,25)        174.225          estimate D2E/DX2                !
 ! D146  D(22,23,24,39)        -64.2912         estimate D2E/DX2                !
 ! D147  D(22,23,24,62)         55.3862         estimate D2E/DX2                !
 ! D148  D(28,23,24,25)         55.0233         estimate D2E/DX2                !
 ! D149  D(28,23,24,39)        176.5071         estimate D2E/DX2                !
 ! D150  D(28,23,24,62)        -63.8155         estimate D2E/DX2                !
 ! D151  D(61,23,24,25)        -63.2058         estimate D2E/DX2                !
 ! D152  D(61,23,24,39)         58.2781         estimate D2E/DX2                !
 ! D153  D(61,23,24,62)        177.9554         estimate D2E/DX2                !
 ! D154  D(22,23,28,27)       -172.2611         estimate D2E/DX2                !
 ! D155  D(22,23,28,29)         69.8722         estimate D2E/DX2                !
 ! D156  D(22,23,28,65)        -51.2172         estimate D2E/DX2                !
 ! D157  D(24,23,28,27)        -53.0307         estimate D2E/DX2                !
 ! D158  D(24,23,28,29)       -170.8974         estimate D2E/DX2                !
 ! D159  D(24,23,28,65)         68.0132         estimate D2E/DX2                !
 ! D160  D(61,23,28,27)         66.8413         estimate D2E/DX2                !
 ! D161  D(61,23,28,29)        -51.0254         estimate D2E/DX2                !
 ! D162  D(61,23,28,65)       -172.1148         estimate D2E/DX2                !
 ! D163  D(23,24,25,26)        -56.1564         estimate D2E/DX2                !
 ! D164  D(23,24,25,38)       -178.4521         estimate D2E/DX2                !
 ! D165  D(23,24,25,63)         61.6404         estimate D2E/DX2                !
 ! D166  D(39,24,25,26)       -177.9483         estimate D2E/DX2                !
 ! D167  D(39,24,25,38)         59.756          estimate D2E/DX2                !
 ! D168  D(39,24,25,63)        -60.1515         estimate D2E/DX2                !
 ! D169  D(62,24,25,26)         62.2255         estimate D2E/DX2                !
 ! D170  D(62,24,25,38)        -60.0701         estimate D2E/DX2                !
 ! D171  D(62,24,25,63)       -179.9777         estimate D2E/DX2                !
 ! D172  D(23,24,39,83)       -172.0873         estimate D2E/DX2                !
 ! D173  D(25,24,39,83)        -50.0727         estimate D2E/DX2                !
 ! D174  D(62,24,39,83)         69.2216         estimate D2E/DX2                !
 ! D175  D(24,25,26,27)         54.3251         estimate D2E/DX2                !
 ! D176  D(24,25,26,31)        170.4253         estimate D2E/DX2                !
 ! D177  D(24,25,26,64)        -67.8694         estimate D2E/DX2                !
 ! D178  D(38,25,26,27)        173.3508         estimate D2E/DX2                !
 ! D179  D(38,25,26,31)        -70.5491         estimate D2E/DX2                !
 ! D180  D(38,25,26,64)         51.1563         estimate D2E/DX2                !
 ! D181  D(63,25,26,27)        -64.0029         estimate D2E/DX2                !
 ! D182  D(63,25,26,31)         52.0973         estimate D2E/DX2                !
 ! D183  D(63,25,26,64)        173.8026         estimate D2E/DX2                !
 ! D184  D(24,25,38,82)       -173.5186         estimate D2E/DX2                !
 ! D185  D(26,25,38,82)         65.5127         estimate D2E/DX2                !
 ! D186  D(63,25,38,82)        -55.2224         estimate D2E/DX2                !
 ! D187  D(25,26,27,28)        -56.8251         estimate D2E/DX2                !
 ! D188  D(31,26,27,28)       -173.8789         estimate D2E/DX2                !
 ! D189  D(64,26,27,28)         65.0871         estimate D2E/DX2                !
 ! D190  D(25,26,31,32)        155.4916         estimate D2E/DX2                !
 ! D191  D(27,26,31,32)        -86.5288         estimate D2E/DX2                !
 ! D192  D(64,26,31,32)         34.2881         estimate D2E/DX2                !
 ! D193  D(26,27,28,23)         56.7063         estimate D2E/DX2                !
 ! D194  D(26,27,28,29)       -179.7388         estimate D2E/DX2                !
 ! D195  D(26,27,28,65)        -63.1003         estimate D2E/DX2                !
 ! D196  D(23,28,29,30)         66.4101         estimate D2E/DX2                !
 ! D197  D(23,28,29,66)       -174.0247         estimate D2E/DX2                !
 ! D198  D(23,28,29,67)        -56.059          estimate D2E/DX2                !
 ! D199  D(27,28,29,30)        -54.6022         estimate D2E/DX2                !
 ! D200  D(27,28,29,66)         64.963          estimate D2E/DX2                !
 ! D201  D(27,28,29,67)       -177.0713         estimate D2E/DX2                !
 ! D202  D(65,28,29,30)       -172.5687         estimate D2E/DX2                !
 ! D203  D(65,28,29,66)        -53.0035         estimate D2E/DX2                !
 ! D204  D(65,28,29,67)         64.9622         estimate D2E/DX2                !
 ! D205  D(28,29,30,68)       -124.7729         estimate D2E/DX2                !
 ! D206  D(28,29,30,80)         54.7453         estimate D2E/DX2                !
 ! D207  D(66,29,30,68)        116.396          estimate D2E/DX2                !
 ! D208  D(66,29,30,80)        -64.0858         estimate D2E/DX2                !
 ! D209  D(67,29,30,68)         -3.4171         estimate D2E/DX2                !
 ! D210  D(67,29,30,80)        176.1011         estimate D2E/DX2                !
 ! D211  D(29,30,80,37)        -60.4562         estimate D2E/DX2                !
 ! D212  D(68,30,80,37)        118.9862         estimate D2E/DX2                !
 ! D213  D(26,31,32,33)        119.7915         estimate D2E/DX2                !
 ! D214  D(26,31,32,69)         -2.6511         estimate D2E/DX2                !
 ! D215  D(26,31,32,70)       -119.6732         estimate D2E/DX2                !
 ! D216  D(31,32,33,34)        -73.8899         estimate D2E/DX2                !
 ! D217  D(31,32,33,71)        163.1909         estimate D2E/DX2                !
 ! D218  D(31,32,33,72)         50.0295         estimate D2E/DX2                !
 ! D219  D(69,32,33,34)         47.7069         estimate D2E/DX2                !
 ! D220  D(69,32,33,71)        -75.2122         estimate D2E/DX2                !
 ! D221  D(69,32,33,72)        171.6264         estimate D2E/DX2                !
 ! D222  D(70,32,33,34)        167.7461         estimate D2E/DX2                !
 ! D223  D(70,32,33,71)         44.8269         estimate D2E/DX2                !
 ! D224  D(70,32,33,72)        -68.3345         estimate D2E/DX2                !
 ! D225  D(32,33,34,35)        141.8754         estimate D2E/DX2                !
 ! D226  D(32,33,34,73)         19.3624         estimate D2E/DX2                !
 ! D227  D(32,33,34,74)        -95.3678         estimate D2E/DX2                !
 ! D228  D(71,33,34,35)        -96.4591         estimate D2E/DX2                !
 ! D229  D(71,33,34,73)        141.0279         estimate D2E/DX2                !
 ! D230  D(71,33,34,74)         26.2977         estimate D2E/DX2                !
 ! D231  D(72,33,34,35)         20.5315         estimate D2E/DX2                !
 ! D232  D(72,33,34,73)       -101.9815         estimate D2E/DX2                !
 ! D233  D(72,33,34,74)        143.2883         estimate D2E/DX2                !
 ! D234  D(33,34,35,36)        -54.5344         estimate D2E/DX2                !
 ! D235  D(33,34,35,75)       -177.0334         estimate D2E/DX2                !
 ! D236  D(33,34,35,76)         66.6584         estimate D2E/DX2                !
 ! D237  D(73,34,35,36)         68.3385         estimate D2E/DX2                !
 ! D238  D(73,34,35,75)        -54.1605         estimate D2E/DX2                !
 ! D239  D(73,34,35,76)       -170.4687         estimate D2E/DX2                !
 ! D240  D(74,34,35,36)       -177.884          estimate D2E/DX2                !
 ! D241  D(74,34,35,75)         59.617          estimate D2E/DX2                !
 ! D242  D(74,34,35,76)        -56.6911         estimate D2E/DX2                !
 ! D243  D(34,35,36,37)        -45.5662         estimate D2E/DX2                !
 ! D244  D(34,35,36,77)         74.0913         estimate D2E/DX2                !
 ! D245  D(34,35,36,78)       -165.6732         estimate D2E/DX2                !
 ! D246  D(75,35,36,37)         76.535          estimate D2E/DX2                !
 ! D247  D(75,35,36,77)       -163.8076         estimate D2E/DX2                !
 ! D248  D(75,35,36,78)        -43.572          estimate D2E/DX2                !
 ! D249  D(76,35,36,37)       -169.0324         estimate D2E/DX2                !
 ! D250  D(76,35,36,77)        -49.375          estimate D2E/DX2                !
 ! D251  D(76,35,36,78)         70.8606         estimate D2E/DX2                !
 ! D252  D(35,36,37,79)         62.8215         estimate D2E/DX2                !
 ! D253  D(35,36,37,80)        -56.5277         estimate D2E/DX2                !
 ! D254  D(35,36,37,81)       -176.4901         estimate D2E/DX2                !
 ! D255  D(77,36,37,79)        -59.859          estimate D2E/DX2                !
 ! D256  D(77,36,37,80)       -179.2082         estimate D2E/DX2                !
 ! D257  D(77,36,37,81)         60.8294         estimate D2E/DX2                !
 ! D258  D(78,36,37,79)       -174.3388         estimate D2E/DX2                !
 ! D259  D(78,36,37,80)         66.312          estimate D2E/DX2                !
 ! D260  D(78,36,37,81)        -53.6504         estimate D2E/DX2                !
 ! D261  D(36,37,80,30)        154.6132         estimate D2E/DX2                !
 ! D262  D(79,37,80,30)         32.1198         estimate D2E/DX2                !
 ! D263  D(81,37,80,30)        -84.9418         estimate D2E/DX2                !
 --------------------------------------------------------------------------------
 Trust Radius=3.00D-01 FncErr=1.00D-07 GrdErr=1.00D-06
 Number of steps in this run=    504 maximum allowed number of steps=    504.
 GradGradGradGradGradGradGradGradGradGradGradGradGradGradGradGradGradGrad

 Leave Link  103 at Wed Mar 30 16:09:57 2016, MaxMem= 10737418240 cpu:         0.4
 (Enter /share/apps//g09/l202.exe)
 Stoichiometry    C23H44NO16(1+)
 Framework group  C1[X(C23H44NO16)]
 Deg. of freedom   246
 Full point group                 C1      NOp   1
 Largest Abelian subgroup         C1      NOp   1
 Largest concise Abelian subgroup C1      NOp   1
                         Standard orientation:                         
 ---------------------------------------------------------------------
 Center     Atomic      Atomic             Coordinates (Angstroms)
 Number     Number       Type             X           Y           Z
 ---------------------------------------------------------------------
      1          8           0       -2.900953    1.861126    0.352397
      2          6           0       -2.526199    0.793998    1.208112
      3          6           0       -1.154848    1.010055    1.834185
      4          6           0       -0.907802    2.415878    2.326449
      5          6           0       -1.287130    3.429065    1.265681
      6          6           0       -2.736808    3.181200    0.849392
      7          6           0       -3.215208    4.116559   -0.248598
      8          8           0       -2.395653    4.080770   -1.402135
      9          8           0       -0.393799    3.301081    0.185983
     10          8           0        0.470274    2.562905    2.634402
     11          8           0       -0.937123    0.139064    2.913280
     12          8           0       -2.326323   -0.313467    0.421269
     13          6           0       -3.394000   -1.016312   -0.196056
     14          6           0       -3.395953   -2.424875    0.360511
     15          8           0       -3.708808   -2.375079    1.727836
     16          6           0       -2.013961   -3.011058    0.151853
     17          6           0       -1.515537   -2.884976   -1.292113
     18          8           0       -1.786836   -1.626247   -1.868332
     19          6           0       -3.084612   -1.114927   -1.689712
     20          6           0       -3.171616    0.179036   -2.479915
     21          8           0       -2.211462    1.155386   -2.126115
     22          8           0       -0.141915   -3.090562   -1.395458
     23          6           0        0.696435   -2.229546   -0.649692
     24          6           0        1.509320   -3.052895    0.334526
     25          6           0        2.520246   -2.181042    1.051695
     26          6           0        3.409449   -1.475722    0.047165
     27          8           0        2.617499   -0.773655   -0.872692
     28          6           0        1.649465   -1.507218   -1.603239
     29          6           0        0.980810   -0.483823   -2.495746
     30          8           0        0.481890    0.597597   -1.733565
     31          8           0        4.165817   -0.532814    0.723973
     32          6           0        5.412098   -0.133084    0.135775
     33          6           0        5.412394    1.354322   -0.152955
     34          6           0        4.545396    1.735529   -1.356659
     35          6           0        3.760931    3.037131   -1.234259
     36          6           0        2.871384    3.134111   -0.008941
     37          7           0        2.076063    1.903229    0.232530
     38          8           0        3.247046   -3.021266    1.908788
     39          8           0        0.657639   -3.667198    1.276808
     40          8           0       -2.028369   -4.350682    0.557911
     41          1           0       -3.309228    0.641264    1.963355
     42          1           0       -0.447542    0.814657    1.018694
     43          1           0       -1.511413    2.603675    3.221545
     44          1           0       -1.225684    4.434176    1.703053
     45          1           0       -3.383590    3.331640    1.724507
     46          1           0       -3.186810    5.140966    0.124829
     47          1           0       -4.252495    3.877167   -0.495963
     48          1           0       -2.590958    3.295950   -1.927330
     49          1           0       -0.837961    3.678565   -0.591912
     50          1           0        0.655392    1.993387    3.385873
     51          1           0       -1.166750   -0.755973    2.648301
     52          1           0       -4.353170   -0.523239   -0.017119
     53          1           0       -4.140520   -3.018258   -0.187093
     54          1           0       -3.574472   -3.258058    2.083242
     55          1           0       -1.346993   -2.438725    0.796620
     56          1           0       -1.967260   -3.683174   -1.892204
     57          1           0       -3.833153   -1.790361   -2.132782
     58          1           0       -3.008552   -0.051504   -3.532459
     59          1           0       -4.186223    0.579958   -2.377053
     60          1           0       -2.366756    1.391823   -1.193345
     61          1           0        0.113616   -1.469769   -0.121282
     62          1           0        2.048453   -3.824404   -0.232873
     63          1           0        1.978598   -1.410032    1.619106
     64          1           0        4.053540   -2.203522   -0.468830
     65          1           0        2.137510   -2.258362   -2.239510
     66          1           0        1.728671   -0.111540   -3.202199
     67          1           0        0.182074   -0.967515   -3.055736
     68          1           0       -0.468129    0.712760   -1.915883
     69          1           0        5.583911   -0.707680   -0.778611
     70          1           0        6.197834   -0.385904    0.850005
     71          1           0        6.445353    1.672856   -0.308733
     72          1           0        5.088549    1.862368    0.760364
     73          1           0        3.839214    0.928254   -1.554208
     74          1           0        5.171883    1.797592   -2.248093
     75          1           0        3.150186    3.158958   -2.132387
     76          1           0        4.433912    3.897749   -1.203702
     77          1           0        3.453960    3.302394    0.896408
     78          1           0        2.159538    3.951979   -0.097621
     79          1           0        2.683152    1.101222    0.420193
     80          1           0        1.477634    1.618042   -0.566541
     81          1           0        1.458459    2.067705    1.040414
     82          1           0        3.828570   -2.488525    2.454323
     83          1           0        1.221635   -4.068445    1.944683
     84          1           0       -1.123342   -4.566807    0.810686
 ---------------------------------------------------------------------
 Rotational constants (GHZ):      0.1095577      0.0918659      0.0661045
 Leave Link  202 at Wed Mar 30 16:09:57 2016, MaxMem= 10737418240 cpu:         4.8
 (Enter /share/apps//g09/l301.exe)
 Standard basis: 6-311+G(d,p) (5D, 7F)
 Ernie: Thresh=  0.10000D-02 Tol=  0.10000D-05 Strict=F.
 There are  1184 symmetry adapted cartesian basis functions of A   symmetry.
 There are  1144 symmetry adapted basis functions of A   symmetry.
  1144 basis functions,  1792 primitive gaussians,  1184 cartesian basis functions
   158 alpha electrons      158 beta electrons
       nuclear repulsion energy      6135.1092958047 Hartrees.
 IExCor= 1009 DFT=T Ex+Corr=PBE1PBE ExCW=0 ScaHFX=  0.250000
 ScaDFX=  0.750000  0.750000  1.000000  1.000000 ScalE2=  1.000000  1.000000
 IRadAn=      0 IRanWt=     -1 IRanGd=            0 ICorTp=0 IEmpDi=131
 NAtoms=   84 NActive=   84 NUniq=   84 SFac= 1.00D+00 NAtFMM=   60 NAOKFM=T Big=T
 Integral buffers will be    131072 words long.
 Raffenetti 2 integral format.
 Two-electron integral symmetry is turned on.
 R6Disp:  Grimme-D3 Dispersion energy=       -0.0904291398 Hartrees.
 Nuclear repulsion after empirical dispersion term =     6135.0188666649 Hartrees.
 Leave Link  301 at Wed Mar 30 16:10:01 2016, MaxMem= 10737418240 cpu:         4.9
 (Enter /share/apps//g09/l302.exe)
 NPDir=0 NMtPBC=     1 NCelOv=     1 NCel=       1 NClECP=     1 NCelD=      1
         NCelK=      1 NCelE2=     1 NClLst=     1 CellRange=     0.0.
 One-electron integrals computed using PRISM.
 NBasis=  1144 RedAO= T EigKep=  1.21D-06  NBF=  1144
 NBsUse=  1144 1.00D-06 EigRej= -1.00D+00 NBFU=  1144
 Precomputing XC quadrature grid using
 IXCGrd= 4 IRadAn=           0 IRanWt=          -1 IRanGd=           0 AccXCQ= 0.00D+00.
 Generated NRdTot=       0 NPtTot=           0 NUsed=           0 NTot=          32
 NSgBfM=  1106  1109  1111  1111  1116 MxSgAt=    84 MxSgA2=    84.
 Leave Link  302 at Wed Mar 30 16:10:27 2016, MaxMem= 10737418240 cpu:        98.5
 (Enter /share/apps//g09/l303.exe)
 DipDrv:  MaxL=1.
 Leave Link  303 at Wed Mar 30 16:10:32 2016, MaxMem= 10737418240 cpu:        53.4
 (Enter /share/apps//g09/l401.exe)
 ExpMin= 4.38D-02 ExpMax= 8.59D+03 ExpMxC= 1.30D+03 IAcc=2 IRadAn=         4 AccDes= 0.00D+00
 Harris functional with IExCor= 1009 and IRadAn=       4 diagonalized for initial guess.
 HarFok:  IExCor= 1009 AccDes= 0.00D+00 IRadAn=         4 IDoV= 1 UseB2=F ITyADJ=14
 ICtDFT=  3500011 ScaDFX=  1.000000  1.000000  1.000000  1.000000
 FoFCou: FMM=F IPFlag=           0 FMFlag=      100000 FMFlg1=        2001
         NFxFlg=           0 DoJE=T BraDBF=F KetDBF=T FulRan=T
         wScrn=  0.000000 ICntrl=     500 IOpCl=  0 I1Cent=   200000004 NGrid=           0
         NMat0=    1 NMatS0=      1 NMatT0=    0 NMatD0=    1 NMtDS0=    0 NMtDT0=    0
 Petite list used in FoFCou.
 Harris En= -2159.74541929137    
 JPrj=0 DoOrth=F DoCkMO=F.
 Leave Link  401 at Wed Mar 30 16:10:44 2016, MaxMem= 10737418240 cpu:       133.6
 (Enter /share/apps//g09/l502.exe)
 Closed shell SCF:
 Using DIIS extrapolation, IDIIS=  1040.
 Integral symmetry usage will be decided dynamically.
 IVT=     4256630 IEndB=     4256630 NGot= 10737418240 MDV= 10734581291
 LenX= 10734581291 LenY= 10733178251
 Requested convergence on RMS density matrix=1.00D-08 within 128 cycles.
 Requested convergence on MAX density matrix=1.00D-06.
 Requested convergence on             energy=1.00D-06.
 No special actions if energy rises.
 Fock matrices will be formed incrementally for  20 cycles.

 Cycle   1  Pass 1  IDiag  1:
 FoFJK:  IHMeth= 1 ICntrl=       0 DoSepK=F KAlg= 0 I1Cent=   0 FoldK=F
 IRaf= 810000000 NMat=   1 IRICut=       1 DoRegI=T DoRafI=F ISym2E= 0.
 FoFCou: FMM=T IPFlag=           0 FMFlag=      100000 FMFlg1=        2001
         NFxFlg=           0 DoJE=F BraDBF=F KetDBF=F FulRan=T
         wScrn=  0.000000 ICntrl=       0 IOpCl=  0 I1Cent=           0 NGrid=           0
         NMat0=    1 NMatS0=      1 NMatT0=    0 NMatD0=    1 NMtDS0=    0 NMtDT0=    0
 Symmetry not used in FoFCou.
 FMM levels:  10  Number of levels for PrismC:   9
 E= -2158.68594334792    
 DIIS: error= 1.08D-02 at cycle   1 NSaved=   1.
 NSaved= 1 IEnMin= 1 EnMin= -2158.68594334792     IErMin= 1 ErrMin= 1.08D-02
 ErrMax= 1.08D-02  0.00D+00 EMaxC= 1.00D-01 BMatC= 1.06D+00 BMatP= 1.06D+00
 IDIUse=3 WtCom= 8.92D-01 WtEn= 1.08D-01
 Coeff-Com:  0.100D+01
 Coeff-En:   0.100D+01
 Coeff:      0.100D+01
 Gap=     0.257 Goal=   None    Shift=    0.000
 GapD=    0.257 DampG=1.000 DampE=0.500 DampFc=0.5000 IDamp=-1.
 Damping current iteration by 5.00D-01
 RMSDP=1.21D-02 MaxDP=3.16D+00              OVMax= 1.39D-01

 Cycle   2  Pass 1  IDiag  1:
 RMSU=  6.05D-03    CP:  1.00D+00
 E= -2158.98637779234     Delta-E=       -0.300434444413 Rises=F Damp=T
 DIIS: error= 2.56D-03 at cycle   2 NSaved=   2.
 NSaved= 2 IEnMin= 2 EnMin= -2158.98637779234     IErMin= 2 ErrMin= 2.56D-03
 ErrMax= 2.56D-03  0.00D+00 EMaxC= 1.00D-01 BMatC= 8.07D-02 BMatP= 1.06D+00
 IDIUse=3 WtCom= 9.74D-01 WtEn= 2.56D-02
 Coeff-Com:  0.506D-01 0.949D+00
 Coeff-En:   0.141D+00 0.859D+00
 Coeff:      0.529D-01 0.947D+00
 Gap=     0.273 Goal=   None    Shift=    0.000
 RMSDP=4.80D-03 MaxDP=1.30D+00 DE=-3.00D-01 OVMax= 8.20D-02

 Cycle   3  Pass 1  IDiag  1:
 RMSU=  3.24D-03    CP:  9.28D-01  9.82D-01
 E= -2159.36769641802     Delta-E=       -0.381318625683 Rises=F Damp=F
 DIIS: error= 2.85D-03 at cycle   3 NSaved=   3.
 NSaved= 3 IEnMin= 3 EnMin= -2159.36769641802     IErMin= 2 ErrMin= 2.56D-03
 ErrMax= 2.85D-03  0.00D+00 EMaxC= 1.00D-01 BMatC= 4.46D-02 BMatP= 8.07D-02
 IDIUse=3 WtCom= 9.71D-01 WtEn= 2.85D-02
 Coeff-Com: -0.688D-01 0.410D+00 0.659D+00
 Coeff-En:   0.000D+00 0.000D+00 0.100D+01
 Coeff:     -0.668D-01 0.398D+00 0.669D+00
 Gap=     0.269 Goal=   None    Shift=    0.000
 RMSDP=1.61D-03 MaxDP=3.25D-01 DE=-3.81D-01 OVMax= 1.69D-02

 Cycle   4  Pass 1  IDiag  1:
 RMSU=  1.33D-03    CP:  9.41D-01  1.06D+00  8.65D-01
 E= -2159.39578205815     Delta-E=       -0.028085640130 Rises=F Damp=F
 DIIS: error= 1.03D-03 at cycle   4 NSaved=   4.
 NSaved= 4 IEnMin= 4 EnMin= -2159.39578205815     IErMin= 4 ErrMin= 1.03D-03
 ErrMax= 1.03D-03  0.00D+00 EMaxC= 1.00D-01 BMatC= 5.46D-03 BMatP= 4.46D-02
 IDIUse=3 WtCom= 9.90D-01 WtEn= 1.03D-02
 Coeff-Com: -0.360D-01 0.123D+00 0.334D+00 0.579D+00
 Coeff-En:   0.000D+00 0.000D+00 0.539D-01 0.946D+00
 Coeff:     -0.356D-01 0.122D+00 0.331D+00 0.583D+00
 Gap=     0.262 Goal=   None    Shift=    0.000
 RMSDP=1.33D-03 MaxDP=3.71D-01 DE=-2.81D-02 OVMax= 5.99D-03

 Cycle   5  Pass 1  IDiag  1:
 RMSU=  3.64D-04    CP:  9.17D-01  1.05D+00  8.48D-01  6.08D-01
 E= -2159.40036990152     Delta-E=       -0.004587843370 Rises=F Damp=F
 DIIS: error= 3.09D-04 at cycle   5 NSaved=   5.
 NSaved= 5 IEnMin= 5 EnMin= -2159.40036990152     IErMin= 5 ErrMin= 3.09D-04
 ErrMax= 3.09D-04  0.00D+00 EMaxC= 1.00D-01 BMatC= 2.85D-04 BMatP= 5.46D-03
 IDIUse=3 WtCom= 9.97D-01 WtEn= 3.09D-03
 Coeff-Com: -0.119D-01 0.276D-01 0.103D+00 0.261D+00 0.620D+00
 Coeff-En:   0.000D+00 0.000D+00 0.000D+00 0.000D+00 0.100D+01
 Coeff:     -0.118D-01 0.275D-01 0.103D+00 0.260D+00 0.621D+00
 Gap=     0.262 Goal=   None    Shift=    0.000
 RMSDP=2.11D-04 MaxDP=5.28D-02 DE=-4.59D-03 OVMax= 1.47D-03

 Cycle   6  Pass 1  IDiag  1:
 RMSU=  8.37D-05    CP:  9.21D-01  1.05D+00  8.66D-01  6.15D-01  7.35D-01
 E= -2159.40057304294     Delta-E=       -0.000203141424 Rises=F Damp=F
 DIIS: error= 6.90D-05 at cycle   6 NSaved=   6.
 NSaved= 6 IEnMin= 6 EnMin= -2159.40057304294     IErMin= 6 ErrMin= 6.90D-05
 ErrMax= 6.90D-05  0.00D+00 EMaxC= 1.00D-01 BMatC= 2.53D-05 BMatP= 2.85D-04
 IDIUse=1 WtCom= 1.00D+00 WtEn= 0.00D+00
 Coeff-Com: -0.405D-02 0.735D-02 0.343D-01 0.102D+00 0.319D+00 0.542D+00
 Coeff:     -0.405D-02 0.735D-02 0.343D-01 0.102D+00 0.319D+00 0.542D+00
 Gap=     0.262 Goal=   None    Shift=    0.000
 RMSDP=4.44D-05 MaxDP=1.19D-02 DE=-2.03D-04 OVMax= 4.42D-04

 Cycle   7  Pass 1  IDiag  1:
 RMSU=  1.97D-05    CP:  9.21D-01  1.05D+00  8.67D-01  6.30D-01  7.39D-01
                    CP:  7.40D-01
 E= -2159.40059042117     Delta-E=       -0.000017378226 Rises=F Damp=F
 DIIS: error= 2.03D-05 at cycle   7 NSaved=   7.
 NSaved= 7 IEnMin= 7 EnMin= -2159.40059042117     IErMin= 7 ErrMin= 2.03D-05
 ErrMax= 2.03D-05  0.00D+00 EMaxC= 1.00D-01 BMatC= 1.80D-06 BMatP= 2.53D-05
 IDIUse=1 WtCom= 1.00D+00 WtEn= 0.00D+00
 Coeff-Com: -0.109D-02 0.158D-02 0.944D-02 0.322D-01 0.114D+00 0.273D+00
 Coeff-Com:  0.571D+00
 Coeff:     -0.109D-02 0.158D-02 0.944D-02 0.322D-01 0.114D+00 0.273D+00
 Coeff:      0.571D+00
 Gap=     0.262 Goal=   None    Shift=    0.000
 RMSDP=1.24D-05 MaxDP=2.35D-03 DE=-1.74D-05 OVMax= 1.24D-04

 Cycle   8  Pass 1  IDiag  1:
 RMSU=  9.52D-06    CP:  9.21D-01  1.05D+00  8.66D-01  6.32D-01  7.47D-01
                    CP:  7.02D-01  7.96D-01
 E= -2159.40059162650     Delta-E=       -0.000001205326 Rises=F Damp=F
 DIIS: error= 5.80D-06 at cycle   8 NSaved=   8.
 NSaved= 8 IEnMin= 8 EnMin= -2159.40059162650     IErMin= 8 ErrMin= 5.80D-06
 ErrMax= 5.80D-06  0.00D+00 EMaxC= 1.00D-01 BMatC= 1.42D-07 BMatP= 1.80D-06
 IDIUse=1 WtCom= 1.00D+00 WtEn= 0.00D+00
 Coeff-Com: -0.483D-05-0.175D-03 0.189D-03 0.246D-02 0.124D-01 0.534D-01
 Coeff-Com:  0.257D+00 0.675D+00
 Coeff:     -0.483D-05-0.175D-03 0.189D-03 0.246D-02 0.124D-01 0.534D-01
 Coeff:      0.257D+00 0.675D+00
 Gap=     0.262 Goal=   None    Shift=    0.000
 RMSDP=3.79D-06 MaxDP=7.99D-04 DE=-1.21D-06 OVMax= 3.46D-05

 Cycle   9  Pass 1  IDiag  1:
 RMSU=  2.12D-06    CP:  9.21D-01  1.05D+00  8.66D-01  6.32D-01  7.49D-01
                    CP:  7.12D-01  8.46D-01  7.91D-01
 E= -2159.40059173485     Delta-E=       -0.000000108355 Rises=F Damp=F
 DIIS: error= 1.36D-06 at cycle   9 NSaved=   9.
 NSaved= 9 IEnMin= 9 EnMin= -2159.40059173485     IErMin= 9 ErrMin= 1.36D-06
 ErrMax= 1.36D-06  0.00D+00 EMaxC= 1.00D-01 BMatC= 1.19D-08 BMatP= 1.42D-07
 IDIUse=1 WtCom= 1.00D+00 WtEn= 0.00D+00
 Coeff-Com:  0.650D-04-0.177D-03-0.533D-03-0.953D-03-0.207D-02 0.567D-02
 Coeff-Com:  0.794D-01 0.312D+00 0.607D+00
 Coeff:      0.650D-04-0.177D-03-0.533D-03-0.953D-03-0.207D-02 0.567D-02
 Coeff:      0.794D-01 0.312D+00 0.607D+00
 Gap=     0.262 Goal=   None    Shift=    0.000
 RMSDP=8.79D-07 MaxDP=1.70D-04 DE=-1.08D-07 OVMax= 9.14D-06

 Cycle  10  Pass 1  IDiag  1:
 RMSU=  5.10D-07    CP:  9.21D-01  1.05D+00  8.66D-01  6.32D-01  7.49D-01
                    CP:  7.16D-01  8.49D-01  8.32D-01  8.23D-01
 E= -2159.40059174344     Delta-E=       -0.000000008593 Rises=F Damp=F
 DIIS: error= 4.64D-07 at cycle  10 NSaved=  10.
 NSaved=10 IEnMin=10 EnMin= -2159.40059174344     IErMin=10 ErrMin= 4.64D-07
 ErrMax= 4.64D-07  0.00D+00 EMaxC= 1.00D-01 BMatC= 1.35D-09 BMatP= 1.19D-08
 IDIUse=1 WtCom= 1.00D+00 WtEn= 0.00D+00
 Coeff-Com:  0.291D-04-0.668D-04-0.271D-03-0.623D-03-0.191D-02-0.143D-02
 Coeff-Com:  0.182D-01 0.995D-01 0.309D+00 0.578D+00
 Coeff:      0.291D-04-0.668D-04-0.271D-03-0.623D-03-0.191D-02-0.143D-02
 Coeff:      0.182D-01 0.995D-01 0.309D+00 0.578D+00
 Gap=     0.262 Goal=   None    Shift=    0.000
 RMSDP=2.78D-07 MaxDP=6.37D-05 DE=-8.59D-09 OVMax= 3.48D-06

 Cycle  11  Pass 1  IDiag  1:
 RMSU=  1.85D-07    CP:  9.21D-01  1.05D+00  8.66D-01  6.32D-01  7.49D-01
                    CP:  7.16D-01  8.53D-01  8.41D-01  8.02D-01  7.58D-01
 E= -2159.40059174438     Delta-E=       -0.000000000931 Rises=F Damp=F
 DIIS: error= 1.45D-07 at cycle  11 NSaved=  11.
 NSaved=11 IEnMin=11 EnMin= -2159.40059174438     IErMin=11 ErrMin= 1.45D-07
 ErrMax= 1.45D-07  0.00D+00 EMaxC= 1.00D-01 BMatC= 9.29D-11 BMatP= 1.35D-09
 IDIUse=1 WtCom= 1.00D+00 WtEn= 0.00D+00
 Coeff-Com:  0.743D-05-0.158D-04-0.843D-04-0.205D-03-0.688D-03-0.987D-03
[...]
 001823,0.00003525,0.00005554,-0.00015815,-0.00003701,0.00010019,0.0000
 1339,-0.00002675,-0.00003257,0.00000349,-0.00001004,0.00000027,-0.0000
 0461,0.00000392,-0.00000151,0.00001056,-0.00000253,-0.00000056,-0.0000
 0341,0.00002104,0.00002191,-0.00004832,-0.00001826,-0.00002274,-0.0019
 9389,0.00034818,-0.00069937,-0.02730113,-0.05033977,0.05027245,-0.0001
 7042,0.00023989,-0.00003015,-0.00003280,-0.00000948,0.00000690,-0.0000
 1678,-0.00001510,-0.00006917,-0.00001574,0.00000585,0.00001345,-0.0000
 0046,0.00000117,-0.00001816,-0.00000624,-0.00000345,0.00000221,-0.0000
 0304,-0.00000109,0.00000152,-0.00000142,0.00000384,-0.00000738,0.00001
 918,-0.00001498,0.00000504,0.00000325,-0.00002024,0.00002759,-0.000033
 41,0.00004988,0.00007443,-0.00008669,-0.00027027,0.00057054,-0.0000175
 6,0.00001809,0.00002091,-0.00015087,-0.00004669,0.00001741,0.00006234,
 -0.00014672,0.00011274,0.00061894,-0.00013665,-0.00015269,0.00006390,0
 .00003514,0.00002799,-0.00001581,0.00000016,-0.00001045,-0.00000145,0.
 00000472,-0.00000401,-0.00000428,0.00000643,0.00000834,0.00006775,-0.0
 0003869,0.00003091,0.00013672,-0.00012570,-0.00001257,-0.00060358,0.00
 037010,-0.00103207,-0.00035594,0.00029137,0.00051447,-0.00017889,-0.00
 009152,-0.00012075,-0.00000023,0.00007023,0.00005973,0.00001370,0.0000
 2365,-0.00011280,-0.00000680,-0.00000392,0.00000952,0.00000897,-0.0000
 2257,0.,-0.00000594,0.00000518,-0.00001259,0.00000494,-0.00001198,-0.0
 0000155,0.00000017,-0.00000212,-0.00000004,-0.00000812,0.00000441,0.00
 000104,0.00000319,0.00000038,-0.00000381,-0.00000446,-0.00000298,-0.00
 000066,-0.00000476,-0.00000002,0.00000183,-0.00000509,-0.00000015,-0.0
 0000053,0.00000560,0.00000243,-0.00000139,0.00000164,-0.00000057,0.000
 00297,0.00005516,0.00001118,-0.00000532,0.00002723,-0.00001588,0.00000
 456,0.00007155,0.00002048,0.00005377,0.00015033,0.00045380,0.00104636,
 0.02957274,0.00006070,-0.00009928,-0.00002993,-0.00012413,0.00015287,0
 .00006030,0.00001764,-0.00001733,-0.00011793,0.00003912,0.00013417,-0.
 00002794,0.00001528,0.00000275,-0.00000356,-0.00002459,0.00006274,0.00
 002569,0.00000305,-0.00000431,-0.00001252,0.00000626,-0.00003333,0.000
 01445,-0.00001997,-0.00006111,0.00002728,-0.00010590,-0.00013409,0.000
 07164,-0.00010679,-0.00016852,0.00012701,0.00012026,-0.00017183,-0.000
 02030,0.00000511,0.00014684,0.00002494,0.00014293,-0.00017476,-0.00002
 861,0.00000737,0.00003598,-0.00013377,-0.00022290,0.00043592,0.0002633
 6,-0.00007534,-0.00002877,-0.00012459,0.00008612,0.00000278,-0.0002019
 3,-0.00006594,-0.00005777,0.00001499,-0.00001970,0.00006742,0.00002884
 ,0.00004990,-0.00007978,-0.00002527,0.00008620,0.00024562,0.00052907,-
 0.00228221,-0.00356430,-0.00314012,0.00094493,0.01020184,-0.02087029,-
 0.00031215,0.00103740,-0.00712748,-0.00039290,0.00020398,-0.00058195,0
 .00023634,-0.00076254,0.00149692,0.00013025,0.00197616,-0.00115369,-0.
 00042832,-0.00036488,-0.00008302,0.00015180,-0.00013989,-0.00002276,0.
 00025458,-0.00002299,0.00064563,-0.00019153,-0.00025296,-0.00021147,0.
 00002381,0.00002272,0.00000263,-0.00001274,0.00003161,-0.00001269,0.00
 001420,-0.00000171,-0.00000341,-0.00000917,-0.00002098,-0.00001102,-0.
 00002121,-0.00006126,0.00007267,0.00051712,0.00135492,0.00205381,-0.03
 858833,-0.16567642,0.23414393,-0.00031518,-0.00077589,-0.00055599,0.00
 000648,-0.00000328,0.00000004,-0.00001054,0.00003129,-0.00000295,-0.00
 000847,-0.00001354,-0.00000382,-0.00000066,-0.00000172,-0.00000126,0.0
 0000485,-0.00000331,-0.00000121,0.00000338,0.00000005,-0.00000450,-0.0
 0000218,-0.00000500,0.00000710,-0.00002053,0.00001974,0.00000796,-0.00
 000237,0.00004088,-0.00002242,0.00007918,0.00002896,-0.00005084,-0.000
 02189,0.00020529,0.00002770,0.00001032,-0.00001289,-0.00001111,-0.0000
 7810,-0.00001145,0.00002346,-0.00008429,-0.00007517,0.00009899,0.00019
 584,-0.00037788,-0.00001028,0.00002972,-0.00000497,0.00003094,0.000015
 10,0.00000236,0.00000382,-0.00000026,-0.00000546,0.00000055,0.00000420
 ,-0.00000590,-0.00000705,-0.00005038,0.00003314,-0.00000365,0.00007385
 ,-0.00005356,0.00016721,-0.00092982,-0.00006830,-0.00008151,-0.0000551
 9,-0.00027231,0.00036238,0.00001454,0.00006166,0.00004254,0.00004053,-
 0.00008689,-0.00000740,0.00004622,0.00001879,-0.00021512,-0.00001946,-
 0.00001378,0.00007556,0.00001340,0.00000902,0.00001631,0.00003015,0.00
 002540,0.00000535,0.00000284,-0.00000657,-0.00000612,-0.00000393,0.000
 01027,0.00003041,0.00000381,-0.00001444,-0.00000376,-0.00000742,0.0000
 0048,-0.00002724,0.00000485,0.00000404,0.00001592,-0.00001088,-0.00000
 865,0.00002016,-0.00000166,0.00000482,0.00000005,0.00001605,-0.0000115
 7,-0.00000622,-0.00000248,0.00000821,0.00001038,0.00007185,0.00002461,
 -0.00017614,-0.00003452,0.00017402,-0.00005431,0.00006197,0.00003251,-
 0.00003280,0.00058104,-0.00008370,0.00131994,0.04057206,0.15681778,-0.
 00009057,0.00000918,0.00012065,0.00013986,-0.00001502,-0.00008407,0.00
 002821,0.00003230,-0.00017218,0.00004500,-0.00003094,0.00000403,0.0000
 1910,0.00001686,-0.00000753,0.00006852,-0.00003658,-0.00002574,0.00001
 205,0.00000860,-0.00001552,-0.00003060,-0.00001282,0.00003895,-0.00004
 430,-0.00000426,0.00004089,-0.00009357,0.00004076,0.00002046,-0.000281
 26,-0.00006370,0.00016969,-0.00011037,-0.00000484,0.00007181,-0.000016
 10,0.00002032,-0.00004103,0.00023748,0.00000873,0.00006592,-0.00020856
 ,-0.00007122,-0.00012085,0.00002749,-0.00003373,-0.00001719,0.00027233
 ,0.00035466,-0.00038364,-0.00017960,-0.00012014,0.00024439,0.00012228,
 0.00010067,-0.00005157,-0.00000607,-0.00000344,-0.00003319,-0.00003378
 ,-0.00001104,0.00005812,0.00011181,-0.00052000,0.00111206,-0.00404623,
 -0.00362603,-0.00276316,0.00147913,0.01277273,-0.02979484,0.00105347,0
 .00005862,0.00042744,-0.00032544,0.00037371,-0.00170229,0.00002259,-0.
 00020133,0.00043318,0.00054124,0.00125922,-0.00099173,-0.00043216,-0.0
 0030476,-0.00020358,0.00005944,-0.00001724,0.00015173,0.00033140,0.000
 99019,0.00064938,-0.00031863,-0.00028371,-0.00002151,0.00006811,0.0000
 9040,0.00001431,-0.00000644,0.00000284,-0.00001472,0.00000817,0.000008
 83,-0.00000313,-0.00000494,-0.00007145,-0.00003952,-0.00003985,0.00003
 812,0.00006093,0.00029685,0.00079789,-0.00037700,0.02257718,0.19590155
 ,-0.37580183,-0.00052516,-0.00104326,-0.00000976,-0.00001604,-0.000007
 62,0.00000682,0.00000107,-0.00000375,-0.00003111,-0.00001337,-0.000001
 36,0.00000084,-0.00000931,0.00000865,0.00001392,-0.00000998,0.00000259
 ,-0.00000438,-0.00000058,0.00000556,0.00000399,0.00000377,-0.00000636,
 -0.00000042,0.00001900,-0.00000199,-0.00002979,0.00001112,0.00001131,-
 0.00003370,0.00007054,-0.00005254,0.00000948,0.00036188,0.00013269,-0.
 00007172,-0.00002137,0.00000249,0.00001822,-0.00005280,-0.00004279,0.0
 0001236,0.00008267,0.00002510,0.00011764,0.00030007,0.00028420,-0.0003
 9109,0.00000481,-0.00004267,0.00002851,-0.00000623,-0.00002541,-0.0000
 0040,0.00000642,0.00000503,-0.00000199,-0.00001499,-0.00000024,0.00001
 075,0.00002087,0.00000002,-0.00002692,0.00001201,-0.00009421,0.0004213
 7,0.00052437,0.00079440,0.00123066,0.00014518,-0.00029995,-0.00021657,
 0.00005727,0.00005703,0.00011930,-0.00005064,-0.00002511,-0.00003876,0
 .00006380,0.00006317,-0.00012342,-0.00002013,-0.00001179,0.00001956,0.
 00002825,0.00001305,-0.00005207,0.00001687,0.00000990,0.00000567,0.000
 01919,0.00005386,0.00000305,-0.00000489,0.00002457,0.00004934,-0.00000
 659,-0.00001829,0.00000032,-0.00000955,-0.00000727,-0.00003279,0.00000
 577,0.00000679,0.00001000,-0.00000629,-0.00000871,0.00000308,-0.000001
 44,0.00001088,0.00000581,0.00001059,0.00000393,-0.00000062,-0.00000189
 ,0.00000530,0.00001036,0.00006766,-0.00003951,-0.00012584,0.00001267,0
 .00000918,-0.00003894,0.00006389,-0.00001050,-0.00001604,0.00023791,0.
 00000224,0.00039080,-0.02303512,-0.20891425,0.40693584,0.00010659,-0.0
 0007134,-0.00025930,-0.00021169,0.00020028,0.00021974,0.00002881,0.000
 01087,0.00024851,-0.00000671,0.00010111,-0.00003299,0.00005398,-0.0000
 0855,0.00005307,-0.00006135,0.00007426,0.00001442,0.00003581,-0.000014
 20,0.00003342,-0.00002688,-0.00000241,-0.00004157,-0.00005870,-0.00003
 706,-0.00006172,-0.00004689,-0.00010295,-0.00002044,0.00001640,-0.0001
 7054,-0.00024824,0.00042489,-0.00008088,-0.00062340,-0.00110746,-0.000
 98598,0.00033139,-0.00144356,0.00172733,0.00460319,0.00065757,0.000500
 51,-0.00005321,-0.01056311,-0.01067504,0.01016928,0.00314383,0.0012883
 9,-0.00186005,-0.00080351,-0.00036334,-0.00075530,-0.00009515,-0.00009
 475,0.00002728,-0.00004348,-0.00000527,0.00006307,-0.00005170,-0.00004
 794,-0.00006020,-0.00070404,-0.00013313,0.00151937,0.00053667,-0.00089
 988,-0.00036160,-0.00008954,-0.00121696,-0.00036505,0.00001620,-0.0000
 7357,0.00000928,0.00006709,-0.00009202,-0.00011519,-0.00004901,0.00011
 274,0.00008975,-0.00011221,-0.00005125,0.00005863,0.00014608,0.0000055
 6,-0.00005743,-0.00021728,-0.00002795,0.00005493,-0.00002807,0.0001241
 6,0.00007384,-0.00001884,-0.00004492,-0.00002107,0.00000594,0.00000596
 ,0.00000227,-0.00000136,-0.00000011,-0.00000525,0.00001055,0.00000021,
 -0.00000047,-0.00000298,0.00000909,0.00001020,-0.00005465,-0.00000941,
 -0.00000736,-0.00008910,0.00009360,-0.00002173,-0.00301726,0.00114884,
 -0.00060986,-0.11744365,-0.16073481,0.11528897,-0.00000414,-0.00001908
 ,0.00000445,-0.00000634,0.00001073,-0.00002968,-0.00001294,-0.00000258
 ,0.00000381,-0.00000330,-0.00000619,-0.00001616,0.00000283,-0.00000908
 ,0.00000175,-0.00000089,-0.00000156,-0.00000899,-0.00000547,0.00000081
 ,0.00000036,0.00000610,0.00000125,0.00002108,0.00001045,0.00000813,0.0
 0001765,0.00000694,0.00005107,0.00001084,-0.00014220,0.00033254,0.0001
 7773,-0.00005501,0.00018196,0.00033736,0.00019847,0.00019066,-0.000134
 63,-0.00015697,-0.00085049,0.00012821,0.00079033,-0.00134741,-0.000934
 39,-0.00001327,0.00016147,-0.00012857,0.00000940,-0.00003326,0.0000210
 0,0.00000161,0.00000113,-0.00001211,0.00001201,-0.00000230,0.00000268,
 0.00004694,-0.00001572,0.00006686,-0.00013430,0.00024283,0.00019290,-0
 .00027603,-0.00034165,-0.00011492,-0.00004717,0.00007155,0.00001663,-0
 .00002406,-0.00000829,0.00000271,-0.00008113,-0.00004645,-0.00004949,-
 0.00002201,-0.00000472,0.00001463,0.00002157,0.00002515,-0.00001760,0.
 00009010,0.00009572,-0.00000478,-0.00000304,0.00000513,-0.00000300,0.0
 0000514,0.00000384,0.00000266,-0.00000122,0.00000170,0.00000552,-0.000
 00581,0.00000211,-0.00000078,0.00000207,-0.00000425,-0.00000798,-0.000
 00344,-0.00000173,0.00000126,-0.00000208,-0.00000196,0.00000103,-0.000
 00551,0.00000193,0.00000025,0.00000573,0.00000122,-0.00000163,0.000001
 40,0.00000428,0.00000688,0.00005406,-0.00000939,-0.00003843,0.00004041
 ,-0.00000461,-0.00000322,0.00008481,0.00003294,0.00002971,0.00003414,-
 0.00000398,0.00002222,0.00034542,-0.00013118,0.00040549,0.13033415,0.0
 0016658,-0.00028636,-0.00013262,-0.00044848,0.00049103,0.00013352,0.00
 013548,0.00006544,-0.00033006,0.00001750,0.00012614,0.00000097,0.00006
 608,0.00003985,0.00001051,-0.00008517,0.00015974,0.00005857,0.00003249
 ,-0.00000755,-0.00000506,-0.00001474,-0.00007187,0.00000662,-0.0000886
 9,-0.00010602,0.00003348,-0.00014556,-0.00017479,0.00007100,-0.0003053
 2,-0.00024226,0.00036991,0.00031165,-0.00072046,-0.00001547,0.00104258
 ,0.00144390,-0.00009712,0.00100151,-0.00167859,-0.00399499,0.00042893,
 -0.00012913,-0.00003256,0.00944186,0.01262803,-0.01121473,0.00237627,0
 .00168964,-0.00007184,-0.00064785,-0.00061964,-0.00151952,-0.00005174,
 -0.00024050,0.00035130,-0.00013409,0.00030276,0.00014727,0.00001505,-0
 .00039309,-0.00007552,-0.00068151,-0.00232850,0.00067302,0.00015170,0.
 00144046,-0.00092959,-0.00393384,-0.00116866,-0.00546499,0.00123936,0.
 00033835,0.00114498,-0.00036634,0.00002593,-0.00126250,-0.00002139,-0.
 00031122,0.00049337,-0.00025347,-0.00026746,0.00015143,0.00035909,0.00
 021385,-0.00011832,-0.00035761,-0.00022513,0.00022722,0.00024413,0.000
 83314,0.00061430,-0.00028772,-0.00030028,-0.00010563,0.00005238,0.0000
 7178,0.00001395,-0.00000819,0.00000739,-0.00001982,0.00002018,0.000010
 56,-0.00000408,-0.00000815,-0.00005224,-0.00003357,-0.00008205,0.00000
 216,0.00006947,0.00017479,0.00056245,0.00019739,0.00171551,0.00305514,
 0.00329552,-0.18620378,-0.31101373,0.17666987,0.00001950,-0.00001366,-
 0.00000530,0.00001364,0.00000422,-0.00001712,-0.00001317,-0.00000916,-
 0.00000879,-0.00001255,-0.00001207,0.00000572,0.00001229,-0.00001217,-
 0.00000325,0.00000448,-0.00000173,-0.00001361,-0.00001086,-0.00001158,
 0.00001575,-0.00002718,0.00004889,0.00002662,0.00002130,0.00007928,-0.
 00004251,0.00007587,-0.00000025,-0.00004280,0.00034925,0.00032454,-0.0
 0026120,0.00022722,-0.00026600,-0.00046321,-0.00013836,0.00012250,-0.0
 0007120,-0.00065886,-0.00013348,0.00006680,0.00177137,-0.00013612,-0.0
 0205842,0.00001336,-0.00025235,0.00028520,0.00001097,-0.00002194,0.000
 01976,-0.00000189,-0.00002146,-0.00003398,0.00000360,-0.00004521,-0.00
 000298,-0.00004500,0.00009644,0.00002683,0.00012075,-0.00001384,-0.000
 01975,0.00060769,0.00030191,0.00045733,-0.00005138,-0.00009422,-0.0000
 0878,-0.00001047,0.00002695,0.00007505,0.00001247,0.00002388,-0.000004
 70,-0.00005276,-0.00002603,0.00010507,0.00003225,0.00002793,0.00005115
 ,0.00021562,0.00033179,-0.00006668,0.00001394,0.00000926,0.00000014,0.
 00001825,0.00004007,0.00000589,-0.00000547,0.00002181,0.00004505,-0.00
 000632,-0.00001426,-0.00000308,-0.00000777,-0.00001520,-0.00004265,0.0
 0000345,0.00000675,0.00001469,-0.00000747,-0.00001374,0.00000888,-0.00
 000830,0.00001286,0.00000464,0.00001691,-0.00000101,-0.00000208,-0.000
 00161,0.00001388,0.00001705,0.00012324,-0.00004131,-0.00017305,0.00004
 490,0.00006094,-0.00006375,0.00013259,0.00003588,-0.00001028,0.0000169
 7,-0.00013276,0.00014443,0.00035101,0.00014597,0.00167169,0.17195914,0
 .29638354,-0.00017006,0.00012040,0.00012101,0.00028732,-0.00023880,-0.
 00008980,0.00002351,-0.00001454,0.00010764,0.00002021,-0.00007110,-0.0
 0001179,0.00001816,-0.00000561,0.00000630,0.00007560,-0.00008986,-0.00
 003105,0.00001619,0.00001547,0.00000238,-0.00004650,0.00001869,0.00002
 131,-0.00003470,0.00004029,0.00000173,-0.00001623,0.00009085,-0.000025
 50,-0.00003139,0.00007681,-0.00014164,-0.00052402,0.00024141,0.0003229
 7,0.00114576,0.00088153,0.00003476,0.00032840,-0.00295282,-0.00470071,
 -0.00084028,0.00024141,0.00059991,0.02189407,0.02642121,-0.02575316,0.
 00156525,0.00107192,-0.00384547,-0.00075630,-0.00029263,0.00091676,0.0
 0048357,0.00027437,-0.00001969,-0.00004711,-0.00012000,-0.00008817,-0.
 00010784,0.00010659,0.00009609,-0.00000929,0.00114248,0.00216351,0.000
 22535,-0.00198171,-0.00027718,0.00075908,-0.00087779,0.00093735,-0.000
 28065,-0.00026986,-0.00021386,0.00001040,-0.00032939,0.00040383,0.0000
 6933,0.00055051,-0.00014955,-0.00004637,-0.00023479,-0.00018264,0.0000
 3407,-0.00004618,-0.00007196,-0.00006693,0.00013535,0.00010000,-0.0000
 2596,0.00011673,-0.00009167,-0.00002083,-0.00005231,-0.00000854,0.0000
 0100,-0.00000224,0.00000670,-0.00000039,-0.00001265,0.00000078,-0.0000
 0066,0.00000446,0.00000280,0.00000040,-0.00003755,-0.00002788,-0.00002
 331,0.00006991,-0.00000308,-0.00000612,0.00022088,-0.00029954,-0.00089
 296,0.00015278,-0.00484711,0.10364652,0.13302641,-0.13003389,-0.000038
 06,-0.00000100,0.00000175,-0.00000099,-0.00002768,-0.00002869,-0.00001
 003,0.00000784,0.00000449,-0.00000704,0.00001046,0.00000461,-0.0000155
 3,0.00000659,-0.00000300,-0.00000393,0.00000526,0.00000760,0.00000500,
 -0.00000208,-0.00000734,0.00004605,-0.00002402,-0.00003924,0.00001370,
 -0.00002559,-0.00001066,0.00001207,-0.00002823,0.00002607,0.00007039,-
 0.00012057,0.00016807,-0.00001644,-0.00012607,-0.00029760,-0.00031686,
 -0.00006950,0.00005887,0.00095324,-0.00044226,0.00039022,-0.00006587,0
 .00013128,0.00221252,0.00002329,0.00009907,-0.00010163,-0.00004978,-0.
 00003905,-0.00001599,0.00000077,0.00000749,-0.00002410,-0.00002982,0.0
 0001690,0.00005997,0.00009974,-0.00004025,-0.00000741,-0.00004023,0.00
 007230,-0.00014865,-0.00011274,-0.00005186,0.00000542,0.00002591,0.000
 03223,-0.00001822,0.00001316,0.00000955,-0.00002653,0.00000448,0.00001
 288,0.00002928,-0.00000312,0.00004038,0.00003113,-0.00002833,-0.000003
 20,-0.00008600,0.00001963,-0.00004186,-0.00006376,-0.00000260,-0.00000
 420,0.00000502,0.00000282,0.00001363,-0.00000489,0.00000418,0.00000632
 ,-0.00000100,-0.00000321,-0.00000288,0.00000056,-0.00000480,-0.0000081
 1,-0.00000647,0.00000221,0.00000276,0.00000046,0.00000157,-0.00000273,
 -0.00001073,-0.00000086,0.00000686,0.00000346,-0.00000047,0.00000958,0
 .00000245,0.00000086,-0.00000253,0.00000190,0.00000652,-0.00003743,0.0
 0001771,0.00004472,-0.00012273,0.00001296,0.00001341,-0.00001528,0.000
 01140,0.00003172,0.00001707,0.00002296,-0.00002253,0.00227431,0.000800
 52,-0.12727851,-0.15893422,0.16209053\\-0.00002881,0.00003237,0.000007
 99,0.00005739,-0.00003147,0.00001958,-0.00000825,-0.00000409,-0.000037
 44,0.00004132,0.00003297,0.00001273,0.00000545,-0.00000013,0.00001447,
 0.00002368,-0.00003567,-0.00000850,0.00001776,0.00001141,0.00000755,0.
 00000593,0.00000163,-0.00001819,-0.00000853,-0.00000796,0.00001029,-0.
 00004759,-0.00001928,-0.00001482,0.00001819,0.00001503,0.00001561,-0.0
 0002671,0.00001033,-0.00002471,-0.00000246,0.00001732,-0.00000199,-0.0
 0002877,0.00001064,-0.00002942,0.00002195,0.00000923,0.00001147,-0.000
 00971,-0.00001126,-0.00002734,0.00002843,0.00002718,0.00002184,-0.0000
 2312,-0.00002978,0.00000090,0.00004762,0.00003381,0.00000033,-0.000012
 44,0.00002400,-0.00000338,0.00001515,-0.00001527,-0.00000968,-0.000013
 51,-0.00000913,-0.00000639,0.00001555,-0.00000313,0.00000107,0.0000004
 2,-0.00001524,0.00000786,0.00000811,0.00001696,-0.00001637,-0.00002205
 ,0.00005727,0.00002857,-0.00001890,-0.00003721,-0.00000923,-0.00000969
 ,0.00003198,0.00001219,0.00000256,0.00001879,-0.00001047,-0.00004548,0
 .00000965,0.00002656,0.00003479,-0.00002871,-0.00001551,-0.00003094,-0
 .00001730,0.00001278,0.00000906,-0.00000955,0.00001477,-0.00000176,0.0
 0001010,0.00000692,-0.00000442,-0.00000145,-0.00000408,0.00000655,-0.0
 0001288,-0.00000757,-0.00002101,0.00005181,0.00005582,0.00000297,-0.00
 000515,0.00000886,-0.00000107,0.00001129,-0.00000061,0.00001665,-0.000
 00437,0.00001729,-0.00001372,-0.00000079,-0.00001482,0.00001441,-0.000
 00045,0.00000249,-0.00001055,-0.00001572,-0.00001074,-0.00000740,0.000
 00657,-0.00000375,-0.00001826,0.00000297,-0.00000924,-0.00001070,-0.00
 000203,-0.00000168,-0.00000833,-0.00001519,-0.00000689,-0.00000451,-0.
 00001332,0.00000686,-0.00002069,0.00000086,-0.00002112,-0.00000449,0.0
 0001006,-0.00000154,-0.00000622,-0.00001294,-0.00000782,-0.00000811,-0
 .00001130,-0.00000286,0.00000947,-0.00001174,0.00000031,0.00000315,-0.
 00000465,-0.00000527,-0.00000116,0.00001056,0.00000056,0.00000479,-0.0
 0000794,-0.00000627,-0.00000835,-0.00002029,0.00000213,0.00000946,-0.0
 0000770,-0.00000095,-0.00000521,-0.00001523,0.00000065,-0.00000225,-0.
 00000229,-0.00001544,-0.00001081,0.00000452,0.00000122,0.00001107,0.00
 000759,-0.00000300,-0.00001035,0.00000261,0.00000363,0.00001685,-0.000
 00589,-0.00000588,0.00001522,-0.00000028,0.00000273,0.00000194,-0.0000
 0027,0.00001321,0.00000688,-0.00001090,0.00000009,0.00001119,0.0000036
 1,0.00001557,0.00001470,0.00000158,0.00000191,-0.00000289,0.00000842,0
 .00000096,-0.00000291,0.00001241,0.00000843,-0.00001504,0.00000301,0.0
 0000176,-0.00000654,-0.00000062,0.00000541,0.00000367,-0.00000021,0.00
 001027,-0.00000092,-0.00000763,0.00001324,-0.00001020,0.00000578,0.000
 01250,-0.00000489,0.00000769,-0.00000296,-0.00001221,-0.00000173,0.000
 00782,0.00000542,-0.00000610,-0.00000149,0.00003986,-0.00005460,-0.000
 06259,0.00002080,-0.00001876,0.00001132,0.00000073,0.00000915,0.000001
 40,0.00000722,0.00000556,-0.00000646,-0.00000447,0.00001091,-0.0000034
 6\\\@


 We find comfort among those who agree with us -- growth among those who don't.
 -- Frank A. Clark
 Job cpu time:      21 days  5 hours 44 minutes 24.1 seconds.
 File lengths (MBytes):  RWF=  24123 Int=      0 D2E=      0 Chk=     97 Scr=      1
 Normal termination of Gaussian 09 at Sat Apr  2 03:13:32 2016.
