 Entering Gaussian System, Link 0=g09
 Initial command:
 /share/apps//g09/l1.exe "/scratch/Gau-688.inp" -scrdir="/scratch/"
 Entering Link 1 = /share/apps//g09/l1.exe PID=       689.
  
 Copyright (c) 1988,1990,1992,1993,1995,1998,2003,2009,2013,
            Gaussian, Inc.  All Rights Reserved.
  
 This is part of the Gaussian(R) 09 program.  It is based on
 the Gaussian(R) 03 system (copyright 2003, Gaussian, Inc.),
 the Gaussian(R) 98 system (copyright 1998, Gaussian, Inc.),
 the Gaussian(R) 94 system (copyright 1995, Gaussian, Inc.),
 the Gaussian 92(TM) system (copyright 1992, Gaussian, Inc.),
 the Gaussian 90(TM) system (copyright 1990, Gaussian, Inc.),
 the Gaussian 88(TM) system (copyright 1988, Gaussian, Inc.),
 the Gaussian 86(TM) system (copyright 1986, Carnegie Mellon
 University), and the Gaussian 82(TM) system (copyright 1983,
 Carnegie Mellon University). Gaussian is a federally registered
 trademark of Gaussian, Inc.
  
 This software contains proprietary and confidential information,
 including trade secrets, belonging to Gaussian, Inc.
  
 This software is provided under written license and may be
 used, copied, transmitted, or stored only in accord with that
 written license.
  
 The following legend is applicable only to US Government
 contracts under FAR:
  
                    RESTRICTED RIGHTS LEGEND
  
 Use, reproduction and disclosure by the US Government is
 subject to restrictions as set forth in subparagraphs (a)
 and (c) of the Commercial Computer Software - Restricted
 Rights clause in FAR 52.227-19.
  
 Gaussian, Inc.
 340 Quinnipiac St., Bldg. 40, Wallingford CT 06492
  
  
 ---------------------------------------------------------------
 Warning -- This program may not be used in any manner that
 competes with the business of Gaussian, Inc. or will provide
 assistance to any competitor of Gaussian, Inc.  The licensee
 of this program is prohibited from giving any competitor of
 Gaussian, Inc. access to this program.  By using this program,
 the user acknowledges that Gaussian, Inc. is engaged in the
 business of creating and licensing software in the field of
 computational chemistry and represents and warrants to the
 licensee that it is not a competitor of Gaussian, Inc. and that
 it will not use this program in any manner prohibited above.
 ---------------------------------------------------------------
  

 Cite this work as:
 Gaussian 09, Revision D.01,
 M. J. Frisch, G. W. Trucks, H. B. Schlegel, G. E. Scuseria, 
 M. A. Robb, J. R. Cheeseman, G. Scalmani, V. Barone, B. Mennucci, 
 G. A. Petersson, H. Nakatsuji, M. Caricato, X. Li, H. P. Hratchian, 
 A. F. Izmaylov, J. Bloino, G. Zheng, J. L. Sonnenberg, M. Hada, 
 M. Ehara, K. Toyota, R. Fukuda, J. Hasegawa, M. Ishida, T. Nakajima, 
 Y. Honda, O. Kitao, H. Nakai, T. Vreven, J. A. Montgomery, Jr., 
 J. E. Peralta, F. Ogliaro, M. Bearpark, J. J. Heyd, E. Brothers, 
 K. N. Kudin, V. N. Staroverov, T. Keith, R. Kobayashi, J. Normand, 
 K. Raghavachari, A. Rendell, J. C. Burant, S. S. Iyengar, J. Tomasi, 
 M. Cossi, N. Rega, J. M. Millam, M. Klene, J. E. Knox, J. B. Cross, 
 V. Bakken, C. Adamo, J. Jaramillo, R. Gomperts, R. E. Stratmann, 
 O. Yazyev, A. J. Austin, R. Cammi, C. Pomelli, J. W. Ochterski, 
 R. L. Martin, K. Morokuma, V. G. Zakrzewski, G. A. Voth, 
 P. Salvador, J. J. Dannenberg, S. Dapprich, A. D. Daniels, 
 O. Farkas, J. B. Foresman, J. V. Ortiz, J. Cioslowski, 
 and D. J. Fox, Gaussian, Inc., Wallingford CT, 2013.
 
 ******************************************
 Gaussian 09:  EM64L-G09RevD.01 24-Apr-2013
                 2-May-2016 
 ******************************************
 %nproc=20
 Will use up to   20 processors via shared memory.
 %mem=80GB
 %chk=Tri_A131_of.chk
 ----------------------------------------------------------------------
 #P PBE1PBE/6-311+G(d,p) opt=ModRedundant freq optcyc=999 EmpiricalDisp
 ersion=GD3
 ----------------------------------------------------------------------
 1/6=999,14=-1,18=120,19=15,26=3,38=1/1,3;
 2/9=110,12=2,17=6,18=5,40=1/2;
 3/5=4,6=6,7=111,11=2,16=1,25=1,30=1,71=1,74=-13,124=31/1,2,3;
 4//1;
 5/5=2,38=5/2;
 6/7=2,8=2,9=2,10=2,28=1/1;
 7//1,2,3,16;
 1/6=999,14=-1,18=20,19=15,26=3/3(2);
 2/9=110/2;
 99//99;
 2/9=110/2;
 3/5=4,6=6,7=111,11=2,16=1,25=1,30=1,71=1,74=-13,124=31/1,2,3;
 4/5=5,16=3,69=1/1;
 5/5=2,38=5/2;
 7//1,2,3,16;
 1/6=999,14=-1,18=20,19=15,26=3/3(-5);
 2/9=110/2;
 6/7=2,8=2,9=2,10=2,19=2,28=1/1;
 99/9=1/99;
 Leave Link    1 at Mon May  2 23:43:04 2016, MaxMem= 10737418240 cpu:         3.0
 (Enter /share/apps//g09/l101.exe)
 -----
 trich
 -----
 Symbolic Z-matrix:
 Charge =  1 Multiplicity = 1
 O                    -0.73865  -0.26318   7.4337 
 C                    -1.31005  -0.78569   6.2578 
 C                    -0.27394  -0.96612   5.13655 
 C                     0.87654  -1.85135   5.64459 
 C                     1.46304  -1.31141   6.95148 
 C                     0.35655  -1.0304    7.97709 
 H                    -2.08173  -0.05787   5.96478 
 H                     0.12198   0.03039   4.88507 
 H                     0.49306  -2.86857   5.80938 
 H                     2.12758  -2.07833   7.38543 
 H                    -0.00755  -2.01128   8.33061 
 O                     2.23292  -0.15587   6.58407 
 O                     1.93149  -1.97721   4.67411 
 O                    -0.88271  -1.5031    3.95836 
 O                    -1.89619  -2.08009   6.43062 
 C                     0.85808  -0.19306   9.15766 
 H                     0.85145   0.86683   8.85194 
 H                     0.17649  -0.31484   10.0146 
 O                     2.18767  -0.63748   9.47758 
 H                     2.4581   -0.21357   10.30857 
 H                     2.8103    0.0415    7.34564 
 H                     2.51643  -1.20315   4.81912 
 H                    -1.71548  -1.95022   4.23149 
 O                    -3.4411   -4.38684   5.9178 
 C                    -3.21722  -4.68508   7.3031 
 C                    -2.9658   -3.39049   8.14234 
 C                    -3.05612  -2.12342   7.28008 
 C                    -4.36325  -2.13356   6.47736 
 C                    -4.52141  -3.47147   5.68351 
 H                    -4.11084  -5.18804   7.71858 
 H                    -1.96102  -3.44523   8.58103 
 H                    -3.04498  -1.25776   7.96092 
 H                    -5.17496  -2.09685   7.22183 
 H                    -5.46662  -3.94773   6.01219 
 O                    -4.46586  -1.01015   5.59052 
 O                    -3.96105  -3.25788   9.16586 
 O                    -2.20136  -5.65175   7.37742 
 C                    -4.62381  -3.32541   4.17549 
 H                    -4.95171  -4.28776   3.74979 
 H                    -5.35815  -2.54453   3.93748 
 O                    -3.32654  -2.98096   3.63449 
 H                    -3.46395  -2.65635   2.72881 
 H                    -4.93966  -0.30211   6.05705 
 H                    -3.69363  -3.80637   9.92252 
 O                     0.8379   -5.94132   5.31278 
 C                     1.80427  -6.261     6.33117 
 C                     1.56651  -5.34882   7.53193 
 C                     0.12249  -5.43664   8.02992 
 C                    -0.89392  -5.27469   6.89336 
 C                    -0.50285  -6.22829   5.74029 
 H                     1.69359  -7.33184   6.61012 
 H                     1.76912  -4.31802   7.18666 
 H                    -0.0317   -6.43993   8.4735 
 H                    -0.56475  -7.26735   6.12642 
 H                    -0.90841  -4.23669   6.52761 
 O                    -0.09949  -4.43463   9.02843 
 O                     2.38908  -5.67891   8.64984 
 O                     3.0751   -5.9841    5.84344 
 C                    -1.38415  -6.17926   4.49912 
 H                    -1.04301  -6.97003   3.81397 
 H                    -2.42471  -6.38324   4.78202 
 O                    -1.29512  -4.93808   3.78638 
 H                    -2.06938  -4.36646   3.99522 
 H                     0.60525  -4.55592   9.69202 
 H                     3.31693  -5.5556    8.38055 
 C                     3.54961  -6.89701   4.82048 
 H                     4.19777  -7.65164   5.29563 
 H                     2.68952  -7.41464   4.36917 
 C                     4.3258   -6.1006    3.77811 
 H                     4.69435  -6.80853   3.01692 
 H                     5.21869  -5.67056   4.25782 
 C                     3.52378  -4.96571   3.12265 
 H                     3.17747  -4.2965    3.92593 
 H                     4.2071   -4.37313   2.49233 
 C                     2.33883  -5.44005   2.26954 
 H                     2.70355  -6.06407   1.43773 
 H                     1.66422  -6.07435   2.86598 
 C                     1.51938  -4.30708   1.65688 
 H                     0.76605  -4.69971   0.96101 
 H                     2.15633  -3.59867   1.10754 
 N                     0.78246  -3.53305   2.70821 
 H                     0.22305  -2.7557    2.33169 
 H                     1.41467  -3.06746   3.40108 
 H                     0.09169  -4.1436    3.23155 
 
 The following ModRedundant input section has been read:
 B      45      84 B                                                           
 B      58      84 B                                                           
 B      56      84 B                                                           
 B      41      82 B                                                           
 B      62      82 B                                                           
 B      35      82 B                                                           
 B      13      83 B                                                           
 B      19      83 B                                                           
 B      14      83 B                                                           
 
 NAtoms=     84 NQM=       84 NQMF=       0 NMMI=      0 NMMIF=      0
                NMic=       0 NMicF=      0.
                    Isotopes and Nuclear Properties:
 (Nuclear quadrupole moments (NQMom) in fm**2, nuclear magnetic moments (NMagM)
  in nuclear magnetons)

  Atom         1           2           3           4           5           6           7           8           9          10
 IAtWgt=          16          12          12          12          12          12           1           1           1           1
 AtmWgt=  15.9949146  12.0000000  12.0000000  12.0000000  12.0000000  12.0000000   1.0078250   1.0078250   1.0078250   1.0078250
 NucSpn=           0           0           0           0           0           0           1           1           1           1
 AtZEff=   0.0000000   0.0000000   0.0000000   0.0000000   0.0000000   0.0000000   0.0000000   0.0000000   0.0000000   0.0000000
 NQMom=    0.0000000   0.0000000   0.0000000   0.0000000   0.0000000   0.0000000   0.0000000   0.0000000   0.0000000   0.0000000
 NMagM=    0.0000000   0.0000000   0.0000000   0.0000000   0.0000000   0.0000000   2.7928460   2.7928460   2.7928460   2.7928460
 AtZNuc=   8.0000000   6.0000000   6.0000000   6.0000000   6.0000000   6.0000000   1.0000000   1.0000000   1.0000000   1.0000000

  Atom        11          12          13          14          15          16          17          18          19          20
 IAtWgt=           1          16          16          16          16          12           1           1          16           1
 AtmWgt=   1.0078250  15.9949146  15.9949146  15.9949146  15.9949146  12.0000000   1.0078250   1.0078250  15.9949146   1.0078250
 NucSpn=           1           0           0           0           0           0           1           1           0           1
 AtZEff=   0.0000000   0.0000000   0.0000000   0.0000000   0.0000000   0.0000000   0.0000000   0.0000000   0.0000000   0.0000000
 NQMom=    0.0000000   0.0000000   0.0000000   0.0000000   0.0000000   0.0000000   0.0000000   0.0000000   0.0000000   0.0000000
 NMagM=    2.7928460   0.0000000   0.0000000   0.0000000   0.0000000   0.0000000   2.7928460   2.7928460   0.0000000   2.7928460
 AtZNuc=   1.0000000   8.0000000   8.0000000   8.0000000   8.0000000   6.0000000   1.0000000   1.0000000   8.0000000   1.0000000

  Atom        21          22          23          24          25          26          27          28          29          30
 IAtWgt=           1           1           1          16          12          12          12          12          12           1
 AtmWgt=   1.0078250   1.0078250   1.0078250  15.9949146  12.0000000  12.0000000  12.0000000  12.0000000  12.0000000   1.0078250
 NucSpn=           1           1           1           0           0           0           0           0           0           1
 AtZEff=   0.0000000   0.0000000   0.0000000   0.0000000   0.0000000   0.0000000   0.0000000   0.0000000   0.0000000   0.0000000
 NQMom=    0.0000000   0.0000000   0.0000000   0.0000000   0.0000000   0.0000000   0.0000000   0.0000000   0.0000000   0.0000000
 NMagM=    2.7928460   2.7928460   2.7928460   0.0000000   0.0000000   0.0000000   0.0000000   0.0000000   0.0000000   2.7928460
 AtZNuc=   1.0000000   1.0000000   1.0000000   8.0000000   6.0000000   6.0000000   6.0000000   6.0000000   6.0000000   1.0000000

  Atom        31          32          33          34          35          36          37          38          39          40
 IAtWgt=           1           1           1           1          16          16          16          12           1           1
 AtmWgt=   1.0078250   1.0078250   1.0078250   1.0078250  15.9949146  15.9949146  15.9949146  12.0000000   1.0078250   1.0078250
 NucSpn=           1           1           1           1           0           0           0           0           1           1
 AtZEff=   0.0000000   0.0000000   0.0000000   0.0000000   0.0000000   0.0000000   0.0000000   0.0000000   0.0000000   0.0000000
 NQMom=    0.0000000   0.0000000   0.0000000   0.0000000   0.0000000   0.0000000   0.0000000   0.0000000   0.0000000   0.0000000
 NMagM=    2.7928460   2.7928460   2.7928460   2.7928460   0.0000000   0.0000000   0.0000000   0.0000000   2.7928460   2.7928460
 AtZNuc=   1.0000000   1.0000000   1.0000000   1.0000000   8.0000000   8.0000000   8.0000000   6.0000000   1.0000000   1.0000000

  Atom        41          42          43          44          45          46          47          48          49          50
 IAtWgt=          16           1           1           1          16          12          12          12          12          12
 AtmWgt=  15.9949146   1.0078250   1.0078250   1.0078250  15.9949146  12.0000000  12.0000000  12.0000000  12.0000000  12.0000000
 NucSpn=           0           1           1           1           0           0           0           0           0           0
 AtZEff=   0.0000000   0.0000000   0.0000000   0.0000000   0.0000000   0.0000000   0.0000000   0.0000000   0.0000000   0.0000000
 NQMom=    0.0000000   0.0000000   0.0000000   0.0000000   0.0000000   0.0000000   0.0000000   0.0000000   0.0000000   0.0000000
 NMagM=    0.0000000   2.7928460   2.7928460   2.7928460   0.0000000   0.0000000   0.0000000   0.0000000   0.0000000   0.0000000
 AtZNuc=   8.0000000   1.0000000   1.0000000   1.0000000   8.0000000   6.0000000   6.0000000   6.0000000   6.0000000   6.0000000

  Atom        51          52          53          54          55          56          57          58          59          60
 IAtWgt=           1           1           1           1           1          16          16          16          12           1
 AtmWgt=   1.0078250   1.0078250   1.0078250   1.0078250   1.0078250  15.9949146  15.9949146  15.9949146  12.0000000   1.0078250
 NucSpn=           1           1           1           1           1           0           0           0           0           1
 AtZEff=   0.0000000   0.0000000   0.0000000   0.0000000   0.0000000   0.0000000   0.0000000   0.0000000   0.0000000   0.0000000
 NQMom=    0.0000000   0.0000000   0.0000000   0.0000000   0.0000000   0.0000000   0.0000000   0.0000000   0.0000000   0.0000000
 NMagM=    2.7928460   2.7928460   2.7928460   2.7928460   2.7928460   0.0000000   0.0000000   0.0000000   0.0000000   2.7928460
 AtZNuc=   1.0000000   1.0000000   1.0000000   1.0000000   1.0000000   8.0000000   8.0000000   8.0000000   6.0000000   1.0000000

  Atom        61          62          63          64          65          66          67          68          69          70
 IAtWgt=           1          16           1           1           1          12           1           1          12           1
 AtmWgt=   1.0078250  15.9949146   1.0078250   1.0078250   1.0078250  12.0000000   1.0078250   1.0078250  12.0000000   1.0078250
 NucSpn=           1           0           1           1           1           0           1           1           0           1
 AtZEff=   0.0000000   0.0000000   0.0000000   0.0000000   0.0000000   0.0000000   0.0000000   0.0000000   0.0000000   0.0000000
 NQMom=    0.0000000   0.0000000   0.0000000   0.0000000   0.0000000   0.0000000   0.0000000   0.0000000   0.0000000   0.0000000
 NMagM=    2.7928460   0.0000000   2.7928460   2.7928460   2.7928460   0.0000000   2.7928460   2.7928460   0.0000000   2.7928460
 AtZNuc=   1.0000000   8.0000000   1.0000000   1.0000000   1.0000000   6.0000000   1.0000000   1.0000000   6.0000000   1.0000000

  Atom        71          72          73          74          75          76          77          78          79          80
 IAtWgt=           1          12           1           1          12           1           1          12           1           1
 AtmWgt=   1.0078250  12.0000000   1.0078250   1.0078250  12.0000000   1.0078250   1.0078250  12.0000000   1.0078250   1.0078250
 NucSpn=           1           0           1           1           0           1           1           0           1           1
 AtZEff=   0.0000000   0.0000000   0.0000000   0.0000000   0.0000000   0.0000000   0.0000000   0.0000000   0.0000000   0.0000000
 NQMom=    0.0000000   0.0000000   0.0000000   0.0000000   0.0000000   0.0000000   0.0000000   0.0000000   0.0000000   0.0000000
 NMagM=    2.7928460   0.0000000   2.7928460   2.7928460   0.0000000   2.7928460   2.7928460   0.0000000   2.7928460   2.7928460
 AtZNuc=   1.0000000   6.0000000   1.0000000   1.0000000   6.0000000   1.0000000   1.0000000   6.0000000   1.0000000   1.0000000

  Atom        81          82          83          84
 IAtWgt=          14           1           1           1
 AtmWgt=  14.0030740   1.0078250   1.0078250   1.0078250
 NucSpn=           2           1           1           1
 AtZEff=   0.0000000   0.0000000   0.0000000   0.0000000
 NQMom=    2.0440000   0.0000000   0.0000000   0.0000000
 NMagM=    0.4037610   2.7928460   2.7928460   2.7928460
 AtZNuc=   7.0000000   1.0000000   1.0000000   1.0000000
 Leave Link  101 at Mon May  2 23:43:04 2016, MaxMem= 10737418240 cpu:         2.7
 (Enter /share/apps//g09/l103.exe)

 GradGradGradGradGradGradGradGradGradGradGradGradGradGradGradGradGradGrad
 Berny optimization.
 Initialization pass.
                           ----------------------------
                           !    Initial Parameters    !
                           ! (Angstroms and Degrees)  !
 --------------------------                            --------------------------
 ! Name  Definition              Value          Derivative Info.                !
 --------------------------------------------------------------------------------
 ! R1    R(1,2)                  1.4079         estimate D2E/DX2                !
 ! R2    R(1,6)                  1.4434         estimate D2E/DX2                !
 ! R3    R(2,3)                  1.5373         estimate D2E/DX2                !
 ! R4    R(2,7)                  1.1005         estimate D2E/DX2                !
 ! R5    R(2,15)                 1.4314         estimate D2E/DX2                !
 ! R6    R(3,4)                  1.538          estimate D2E/DX2                !
 ! R7    R(3,8)                  1.1014         estimate D2E/DX2                !
 ! R8    R(3,14)                 1.4308         estimate D2E/DX2                !
 ! R9    R(4,5)                  1.5308         estimate D2E/DX2                !
 ! R10   R(4,9)                  1.0995         estimate D2E/DX2                !
 ! R11   R(4,13)                 1.439          estimate D2E/DX2                !
 ! R12   R(5,6)                  1.5347         estimate D2E/DX2                !
 ! R13   R(5,10)                 1.1037         estimate D2E/DX2                !
 ! R14   R(5,12)                 1.4363         estimate D2E/DX2                !
 ! R15   R(6,11)                 1.1044         estimate D2E/DX2                !
 ! R16   R(6,16)                 1.5318         estimate D2E/DX2                !
 ! R17   R(12,21)                0.9759         estimate D2E/DX2                !
 ! R18   R(13,22)                0.981          estimate D2E/DX2                !
 ! R19   R(13,83)                1.754          estimate D2E/DX2                !
 ! R20   R(14,23)                0.9839         estimate D2E/DX2                !
 ! R21   R(14,83)                2.8347         estimate D2E/DX2                !
 ! R22   R(15,27)                1.4384         estimate D2E/DX2                !
 ! R23   R(16,17)                1.1031         estimate D2E/DX2                !
 ! R24   R(16,18)                1.1017         estimate D2E/DX2                !
 ! R25   R(16,19)                1.4379         estimate D2E/DX2                !
 ! R26   R(19,20)                0.9713         estimate D2E/DX2                !
 ! R27   R(19,83)                6.5899         estimate D2E/DX2                !
 ! R28   R(24,25)                1.4346         estimate D2E/DX2                !
 ! R29   R(24,29)                1.4352         estimate D2E/DX2                !
 ! R30   R(25,26)                1.5632         estimate D2E/DX2                !
 ! R31   R(25,30)                1.1064         estimate D2E/DX2                !
 ! R32   R(25,37)                1.4043         estimate D2E/DX2                !
 ! R33   R(26,27)                1.5353         estimate D2E/DX2                !
 ! R34   R(26,31)                1.0977         estimate D2E/DX2                !
 ! R35   R(26,36)                1.4338         estimate D2E/DX2                !
 ! R36   R(27,28)                1.534          estimate D2E/DX2                !
 ! R37   R(27,32)                1.1014         estimate D2E/DX2                !
 ! R38   R(28,29)                1.5637         estimate D2E/DX2                !
 ! R39   R(28,33)                1.102          estimate D2E/DX2                !
 ! R40   R(28,35)                1.4349         estimate D2E/DX2                !
 ! R41   R(29,34)                1.1083         estimate D2E/DX2                !
 ! R42   R(29,38)                1.5185         estimate D2E/DX2                !
 ! R43   R(35,43)                0.9713         estimate D2E/DX2                !
 ! R44   R(35,82)                5.971          estimate D2E/DX2                !
 ! R45   R(36,44)                0.9721         estimate D2E/DX2                !
 ! R46   R(37,49)                1.4443         estimate D2E/DX2                !
 ! R47   R(38,39)                1.1022         estimate D2E/DX2                !
 ! R48   R(38,40)                1.098          estimate D2E/DX2                !
 ! R49   R(38,41)                1.4471         estimate D2E/DX2                !
 ! R50   R(41,42)                0.9719         estimate D2E/DX2                !
 ! R51   R(41,82)                3.7878         estimate D2E/DX2                !
 ! R52   R(45,46)                1.4399         estimate D2E/DX2                !
 ! R53   R(45,50)                1.4362         estimate D2E/DX2                !
 ! R54   R(45,84)                2.8496         estimate D2E/DX2                !
 ! R55   R(46,47)                1.5266         estimate D2E/DX2                !
 ! R56   R(46,51)                1.1121         estimate D2E/DX2                !
 ! R57   R(46,58)                1.3891         estimate D2E/DX2                !
 ! R58   R(47,48)                1.53           estimate D2E/DX2                !
 ! R59   R(47,52)                1.1058         estimate D2E/DX2                !
 ! R60   R(47,57)                1.4266         estimate D2E/DX2                !
 ! R61   R(48,49)                1.5333         estimate D2E/DX2                !
 ! R62   R(48,53)                1.1078         estimate D2E/DX2                !
 ! R63   R(48,56)                1.4319         estimate D2E/DX2                !
 ! R64   R(49,50)                1.5466         estimate D2E/DX2                !
 ! R65   R(49,55)                1.1006         estimate D2E/DX2                !
 ! R66   R(50,54)                1.1102         estimate D2E/DX2                !
 ! R67   R(50,59)                1.523          estimate D2E/DX2                !
 ! R68   R(56,64)                0.9756         estimate D2E/DX2                !
 ! R69   R(56,84)                5.8073         estimate D2E/DX2                !
 ! R70   R(57,65)                0.974          estimate D2E/DX2                !
 ! R71   R(58,66)                1.4509         estimate D2E/DX2                !
 ! R72   R(58,84)                4.3715         estimate D2E/DX2                !
 ! R73   R(59,60)                1.1005         estimate D2E/DX2                !
 ! R74   R(59,61)                1.0975         estimate D2E/DX2                !
 ! R75   R(59,62)                1.434          estimate D2E/DX2                !
 ! R76   R(62,63)                0.9848         estimate D2E/DX2                !
 ! R77   R(62,82)                3.0305         estimate D2E/DX2                !
 ! R78   R(66,67)                1.1024         estimate D2E/DX2                !
 ! R79   R(66,68)                1.1006         estimate D2E/DX2                !
 ! R80   R(66,69)                1.5242         estimate D2E/DX2                !
 ! R81   R(69,70)                1.1029         estimate D2E/DX2                !
 ! R82   R(69,71)                1.101          estimate D2E/DX2                !
 ! R83   R(69,72)                1.5365         estimate D2E/DX2                !
 ! R84   R(72,73)                1.1014         estimate D2E/DX2                !
 ! R85   R(72,74)                1.1024         estimate D2E/DX2                !
 ! R86   R(72,75)                1.5352         estimate D2E/DX2                !
 ! R87   R(75,76)                1.102          estimate D2E/DX2                !
 ! R88   R(75,77)                1.1014         estimate D2E/DX2                !
 ! R89   R(75,78)                1.5266         estimate D2E/DX2                !
 ! R90   R(78,79)                1.0981         estimate D2E/DX2                !
 ! R91   R(78,80)                1.0997         estimate D2E/DX2                !
 ! R92   R(78,81)                1.4992         estimate D2E/DX2                !
 ! R93   R(81,82)                1.0291         estimate D2E/DX2                !
 ! R94   R(81,83)                1.0472         estimate D2E/DX2                !
 ! R95   R(81,84)                1.0601         estimate D2E/DX2                !
 ! A1    A(2,1,6)              115.1573         estimate D2E/DX2                !
 ! A2    A(1,2,3)              112.2836         estimate D2E/DX2                !
 ! A3    A(1,2,7)              105.1605         estimate D2E/DX2                !
 ! A4    A(1,2,15)             113.6377         estimate D2E/DX2                !
 ! A5    A(3,2,7)              110.8564         estimate D2E/DX2                !
 ! A6    A(3,2,15)             104.9462         estimate D2E/DX2                !
 ! A7    A(7,2,15)             110.0641         estimate D2E/DX2                !
 ! A8    A(2,3,4)              109.3171         estimate D2E/DX2                !
 ! A9    A(2,3,8)              107.6154         estimate D2E/DX2                !
 ! A10   A(2,3,14)             110.9706         estimate D2E/DX2                !
 ! A11   A(4,3,8)              109.1049         estimate D2E/DX2                !
 ! A12   A(4,3,14)             111.98           estimate D2E/DX2                !
 ! A13   A(8,3,14)             107.7283         estimate D2E/DX2                !
 ! A14   A(3,4,5)              111.4439         estimate D2E/DX2                !
 ! A15   A(3,4,9)              108.7301         estimate D2E/DX2                !
 ! A16   A(3,4,13)             112.085          estimate D2E/DX2                !
 ! A17   A(5,4,9)              109.389          estimate D2E/DX2                !
 ! A18   A(5,4,13)             109.0103         estimate D2E/DX2                !
 ! A19   A(9,4,13)             106.0131         estimate D2E/DX2                !
 ! A20   A(4,5,6)              111.0317         estimate D2E/DX2                !
 ! A21   A(4,5,10)             108.7392         estimate D2E/DX2                !
 ! A22   A(4,5,12)             105.7083         estimate D2E/DX2                !
 ! A23   A(6,5,10)             107.3735         estimate D2E/DX2                !
 ! A24   A(6,5,12)             114.2114         estimate D2E/DX2                !
 ! A25   A(10,5,12)            109.687          estimate D2E/DX2                !
 ! A26   A(1,6,5)              113.1296         estimate D2E/DX2                !
 ! A27   A(1,6,11)             110.0263         estimate D2E/DX2                !
 ! A28   A(1,6,16)             104.3602         estimate D2E/DX2                !
 ! A29   A(5,6,11)             106.798          estimate D2E/DX2                !
 ! A30   A(5,6,16)             112.2775         estimate D2E/DX2                !
 ! A31   A(11,6,16)            110.2881         estimate D2E/DX2                !
 ! A32   A(5,12,21)            106.2736         estimate D2E/DX2                !
 ! A33   A(4,13,22)            105.5714         estimate D2E/DX2                !
 ! A34   A(4,13,83)            109.1384         estimate D2E/DX2                !
 ! A35   A(22,13,83)           140.6656         estimate D2E/DX2                !
 ! A36   A(3,14,23)            107.5836         estimate D2E/DX2                !
 ! A37   A(3,14,83)             91.3851         estimate D2E/DX2                !
 ! A38   A(23,14,83)           119.3243         estimate D2E/DX2                !
 ! A39   A(2,15,27)            115.3892         estimate D2E/DX2                !
 ! A40   A(6,16,17)            108.0383         estimate D2E/DX2                !
 ! A41   A(6,16,18)            109.6636         estimate D2E/DX2                !
 ! A42   A(6,16,19)            107.7741         estimate D2E/DX2                !
 ! A43   A(17,16,18)           108.5455         estimate D2E/DX2                !
 ! A44   A(17,16,19)           111.3567         estimate D2E/DX2                !
 ! A45   A(18,16,19)           111.3974         estimate D2E/DX2                !
 ! A46   A(16,19,20)           108.2345         estimate D2E/DX2                !
 ! A47   A(16,19,83)            78.4836         estimate D2E/DX2                !
 ! A48   A(25,24,29)           114.0595         estimate D2E/DX2                !
 ! A49   A(24,25,26)           111.7994         estimate D2E/DX2                !
 ! A50   A(24,25,30)           109.3339         estimate D2E/DX2                !
 ! A51   A(24,25,37)           107.8848         estimate D2E/DX2                !
 ! A52   A(26,25,30)           107.7447         estimate D2E/DX2                !
 ! A53   A(26,25,37)           115.1722         estimate D2E/DX2                !
 ! A54   A(30,25,37)           104.5649         estimate D2E/DX2                !
 ! A55   A(25,26,27)           111.8703         estimate D2E/DX2                !
 ! A56   A(25,26,31)           108.6918         estimate D2E/DX2                !
 ! A57   A(25,26,36)           110.3782         estimate D2E/DX2                !
 ! A58   A(27,26,31)           108.6294         estimate D2E/DX2                !
 ! A59   A(27,26,36)           106.4846         estimate D2E/DX2                !
 ! A60   A(31,26,36)           110.7748         estimate D2E/DX2                !
 ! A61   A(15,27,26)           108.0051         estimate D2E/DX2                !
 ! A62   A(15,27,28)           112.23           estimate D2E/DX2                !
 ! A63   A(15,27,32)           109.4656         estimate D2E/DX2                !
 ! A64   A(26,27,28)           109.7899         estimate D2E/DX2                !
 ! A65   A(26,27,32)           107.511          estimate D2E/DX2                !
 ! A66   A(28,27,32)           109.7126         estimate D2E/DX2                !
 ! A67   A(27,28,29)           110.947          estimate D2E/DX2                !
 ! A68   A(27,28,33)           105.8971         estimate D2E/DX2                !
 ! A69   A(27,28,35)           112.2824         estimate D2E/DX2                !
 ! A70   A(29,28,33)           107.2749         estimate D2E/DX2                !
 ! A71   A(29,28,35)           110.4172         estimate D2E/DX2                !
 ! A72   A(33,28,35)           109.8014         estimate D2E/DX2                !
 ! A73   A(24,29,28)           112.7484         estimate D2E/DX2                !
 ! A74   A(24,29,34)           108.631          estimate D2E/DX2                !
 ! A75   A(24,29,38)           105.9153         estimate D2E/DX2                !
 ! A76   A(28,29,34)           107.6606         estimate D2E/DX2                !
 ! A77   A(28,29,38)           115.3837         estimate D2E/DX2                !
 ! A78   A(34,29,38)           106.161          estimate D2E/DX2                !
 ! A79   A(28,35,43)           107.9825         estimate D2E/DX2                !
 ! A80   A(28,35,82)            92.997          estimate D2E/DX2                !
 ! A81   A(43,35,82)           149.1254         estimate D2E/DX2                !
 ! A82   A(26,36,44)           108.2117         estimate D2E/DX2                !
 ! A83   A(25,37,49)           117.221          estimate D2E/DX2                !
 ! A84   A(29,38,39)           108.6407         estimate D2E/DX2                !
 ! A85   A(29,38,40)           109.1936         estimate D2E/DX2                !
 ! A86   A(29,38,41)           109.4932         estimate D2E/DX2                !
 ! A87   A(39,38,40)           109.7702         estimate D2E/DX2                !
 ! A88   A(39,38,41)           109.2758         estimate D2E/DX2                !
 ! A89   A(40,38,41)           110.439          estimate D2E/DX2                !
 ! A90   A(38,41,42)           107.5259         estimate D2E/DX2                !
 ! A91   A(42,41,82)            78.0013         estimate D2E/DX2                !
 ! A92   A(46,45,50)           111.8173         estimate D2E/DX2                !
 ! A93   A(46,45,84)           146.3456         estimate D2E/DX2                !
 ! A94   A(50,45,84)            95.6814         estimate D2E/DX2                !
 ! A95   A(45,46,47)           108.6106         estimate D2E/DX2                !
 ! A96   A(45,46,51)           108.9292         estimate D2E/DX2                !
 ! A97   A(45,46,58)           108.749          estimate D2E/DX2                !
 ! A98   A(47,46,51)           111.258          estimate D2E/DX2                !
 ! A99   A(47,46,58)           107.4308         estimate D2E/DX2                !
 ! A100  A(51,46,58)           111.7814         estimate D2E/DX2                !
 ! A101  A(46,47,48)           111.6363         estimate D2E/DX2                !
 ! A102  A(46,47,52)           106.4317         estimate D2E/DX2                !
 ! A103  A(46,47,57)           112.8487         estimate D2E/DX2                !
 ! A104  A(48,47,52)           109.151          estimate D2E/DX2                !
 ! A105  A(48,47,57)           106.0126         estimate D2E/DX2                !
 ! A106  A(52,47,57)           110.7753         estimate D2E/DX2                !
 ! A107  A(47,48,49)           112.2287         estimate D2E/DX2                !
 ! A108  A(47,48,53)           108.2816         estimate D2E/DX2                !
 ! A109  A(47,48,56)           109.4582         estimate D2E/DX2                !
 ! A110  A(49,48,53)           107.47           estimate D2E/DX2                !
 ! A111  A(49,48,56)           109.8901         estimate D2E/DX2                !
 ! A112  A(53,48,56)           109.4494         estimate D2E/DX2                !
 ! A113  A(37,49,48)           108.9094         estimate D2E/DX2                !
 ! A114  A(37,49,50)           108.531          estimate D2E/DX2                !
 ! A115  A(37,49,55)           110.2228         estimate D2E/DX2                !
 ! A116  A(48,49,50)           108.657          estimate D2E/DX2                !
 ! A117  A(48,49,55)           110.7721         estimate D2E/DX2                !
 ! A118  A(50,49,55)           109.6985         estimate D2E/DX2                !
 ! A119  A(45,50,49)           109.5593         estimate D2E/DX2                !
 ! A120  A(45,50,54)           110.0341         estimate D2E/DX2                !
 ! A121  A(45,50,59)           106.9285         estimate D2E/DX2                !
 ! A122  A(49,50,54)           107.6781         estimate D2E/DX2                !
 ! A123  A(49,50,59)           116.1947         estimate D2E/DX2                !
 ! A124  A(54,50,59)           106.3379         estimate D2E/DX2                !
 ! A125  A(48,56,64)           105.9825         estimate D2E/DX2                !
 ! A126  A(48,56,84)            48.2321         estimate D2E/DX2                !
 ! A127  A(64,56,84)           131.4097         estimate D2E/DX2                !
 ! A128  A(47,57,65)           107.6575         estimate D2E/DX2                !
 ! A129  A(46,58,66)           114.9194         estimate D2E/DX2                !
 ! A130  A(46,58,84)            70.6915         estimate D2E/DX2                !
 ! A131  A(66,58,84)            93.8332         estimate D2E/DX2                !
 ! A132  A(50,59,60)           107.7495         estimate D2E/DX2                !
 ! A133  A(50,59,61)           109.4264         estimate D2E/DX2                !
 ! A134  A(50,59,62)           113.3894         estimate D2E/DX2                !
 ! A135  A(60,59,61)           108.7141         estimate D2E/DX2                !
 ! A136  A(60,59,62)           107.052          estimate D2E/DX2                !
 ! A137  A(61,59,62)           110.3562         estimate D2E/DX2                !
 ! A138  A(59,62,63)           110.3755         estimate D2E/DX2                !
 ! A139  A(59,62,82)           153.25           estimate D2E/DX2                !
 ! A140  A(63,62,82)            94.4539         estimate D2E/DX2                !
 ! A141  A(58,66,67)           108.6091         estimate D2E/DX2                !
 ! A142  A(58,66,68)           109.236          estimate D2E/DX2                !
 ! A143  A(58,66,69)           108.6601         estimate D2E/DX2                !
 ! A144  A(67,66,68)           108.3155         estimate D2E/DX2                !
 ! A145  A(67,66,69)           110.6716         estimate D2E/DX2                !
 ! A146  A(68,66,69)           111.3005         estimate D2E/DX2                !
 ! A147  A(66,69,70)           107.8646         estimate D2E/DX2                !
 ! A148  A(66,69,71)           108.6076         estimate D2E/DX2                !
 ! A149  A(66,69,72)           114.3212         estimate D2E/DX2                !
 ! A150  A(70,69,71)           106.2845         estimate D2E/DX2                !
 ! A151  A(70,69,72)           110.7388         estimate D2E/DX2                !
 ! A152  A(71,69,72)           108.7035         estimate D2E/DX2                !
 ! A153  A(69,72,73)           107.5651         estimate D2E/DX2                !
 ! A154  A(69,72,74)           108.5051         estimate D2E/DX2                !
 ! A155  A(69,72,75)           114.3133         estimate D2E/DX2                !
 ! A156  A(73,72,74)           106.5763         estimate D2E/DX2                !
 ! A157  A(73,72,75)           110.5076         estimate D2E/DX2                !
 ! A158  A(74,72,75)           109.0727         estimate D2E/DX2                !
 ! A159  A(72,75,76)           109.8138         estimate D2E/DX2                !
 ! A160  A(72,75,77)           110.4725         estimate D2E/DX2                !
 ! A161  A(72,75,78)           114.0806         estimate D2E/DX2                !
 ! A162  A(76,75,77)           106.5802         estimate D2E/DX2                !
 ! A163  A(76,75,78)           107.157          estimate D2E/DX2                !
 ! A164  A(77,75,78)           108.418          estimate D2E/DX2                !
 ! A165  A(75,78,79)           110.9283         estimate D2E/DX2                !
 ! A166  A(75,78,80)           111.5713         estimate D2E/DX2                !
 ! A167  A(75,78,81)           111.4446         estimate D2E/DX2                !
 ! A168  A(79,78,80)           108.1265         estimate D2E/DX2                !
 ! A169  A(79,78,81)           106.9646         estimate D2E/DX2                !
 ! A170  A(80,78,81)           107.6036         estimate D2E/DX2                !
 ! A171  A(78,81,82)           113.6184         estimate D2E/DX2                !
 ! A172  A(78,81,83)           113.3788         estimate D2E/DX2                !
 ! A173  A(78,81,84)           111.6627         estimate D2E/DX2                !
 ! A174  A(82,81,83)           103.5579         estimate D2E/DX2                !
 ! A175  A(82,81,84)           105.1569         estimate D2E/DX2                !
 ! A176  A(83,81,84)           108.8342         estimate D2E/DX2                !
 ! A177  A(35,82,41)            25.0116         estimate D2E/DX2                !
 ! A178  A(35,82,62)            63.5857         estimate D2E/DX2                !
 ! A179  A(35,82,81)           116.617          estimate D2E/DX2                !
 ! A180  A(41,82,62)            47.3602         estimate D2E/DX2                !
 ! A181  A(41,82,81)           109.7948         estimate D2E/DX2                !
 ! A182  A(62,82,81)            63.4298         estimate D2E/DX2                !
 ! A183  A(13,83,14)            75.7051         estimate D2E/DX2                !
 ! A184  A(13,83,19)            21.0863         estimate D2E/DX2                !
 ! A185  A(13,83,81)           159.1505         estimate D2E/DX2                !
 ! A186  A(14,83,19)            73.1598         estimate D2E/DX2                !
 ! A187  A(14,83,81)            83.4627         estimate D2E/DX2                !
 ! A188  A(19,83,81)           147.661          estimate D2E/DX2                !
 ! A189  A(45,84,56)            41.2324         estimate D2E/DX2                !
 ! A190  A(45,84,58)            28.273          estimate D2E/DX2                !
 ! A191  A(45,84,81)           123.5912         estimate D2E/DX2                !
 ! A192  A(56,84,58)            53.4848         estimate D2E/DX2                !
 ! A193  A(56,84,81)           122.8945         estimate D2E/DX2                !
 ! A194  A(58,84,81)            95.3212         estimate D2E/DX2                !
 ! A195  L(20,19,83,16,-1)     186.7181         estimate D2E/DX2                !
 ! A196  L(38,41,82,42,-1)     185.5272         estimate D2E/DX2                !
 ! A197  L(20,19,83,16,-2)     171.3362         estimate D2E/DX2                !
 ! A198  L(38,41,82,42,-2)     189.415          estimate D2E/DX2                !
 ! D1    D(6,1,2,3)            -56.6537         estimate D2E/DX2                !
 ! D2    D(6,1,2,7)           -177.2956         estimate D2E/DX2                !
 ! D3    D(6,1,2,15)            62.2678         estimate D2E/DX2                !
 ! D4    D(2,1,6,5)             53.0389         estimate D2E/DX2                !
 ! D5    D(2,1,6,11)           -66.3131         estimate D2E/DX2                !
 ! D6    D(2,1,6,16)           175.3748         estimate D2E/DX2                !
 ! D7    D(1,2,3,4)             55.7614         estimate D2E/DX2                !
 ! D8    D(1,2,3,8)            -62.61           estimate D2E/DX2                !
 ! D9    D(1,2,3,14)           179.7546         estimate D2E/DX2                !
 ! D10   D(7,2,3,4)            173.0568         estimate D2E/DX2                !
 ! D11   D(7,2,3,8)             54.6853         estimate D2E/DX2                !
 ! D12   D(7,2,3,14)           -62.95           estimate D2E/DX2                !
 ! D13   D(15,2,3,4)           -68.1477         estimate D2E/DX2                !
 ! D14   D(15,2,3,8)           173.4809         estimate D2E/DX2                !
 ! D15   D(15,2,3,14)           55.8455         estimate D2E/DX2                !
 ! D16   D(1,2,15,27)           66.75           estimate D2E/DX2                !
 ! D17   D(3,2,15,27)         -170.2085         estimate D2E/DX2                !
 ! D18   D(7,2,15,27)          -50.881          estimate D2E/DX2                !
 ! D19   D(2,3,4,5)            -53.1502         estimate D2E/DX2                !
 ! D20   D(2,3,4,9)             67.4998         estimate D2E/DX2                !
 ! D21   D(2,3,4,13)          -175.633          estimate D2E/DX2                !
 ! D22   D(8,3,4,5)             64.2877         estimate D2E/DX2                !
 ! D23   D(8,3,4,9)           -175.0622         estimate D2E/DX2                !
 ! D24   D(8,3,4,13)           -58.195          estimate D2E/DX2                !
 ! D25   D(14,3,4,5)          -176.5479         estimate D2E/DX2                !
 ! D26   D(14,3,4,9)           -55.8979         estimate D2E/DX2                !
 ! D27   D(14,3,4,13)           60.9694         estimate D2E/DX2                !
 ! D28   D(2,3,14,23)          -21.5835         estimate D2E/DX2                !
 ! D29   D(2,3,14,83)         -143.0211         estimate D2E/DX2                !
 ! D30   D(4,3,14,23)          100.8776         estimate D2E/DX2                !
 ! D31   D(4,3,14,83)          -20.56           estimate D2E/DX2                !
 ! D32   D(8,3,14,23)         -139.1501         estimate D2E/DX2                !
 ! D33   D(8,3,14,83)           99.4124         estimate D2E/DX2                !
 ! D34   D(3,4,5,6)             50.2791         estimate D2E/DX2                !
 ! D35   D(3,4,5,10)           168.2004         estimate D2E/DX2                !
 ! D36   D(3,4,5,12)           -74.0926         estimate D2E/DX2                !
 ! D37   D(9,4,5,6)            -69.9839         estimate D2E/DX2                !
 ! D38   D(9,4,5,10)            47.9375         estimate D2E/DX2                !
 ! D39   D(9,4,5,12)           165.6445         estimate D2E/DX2                !
 ! D40   D(13,4,5,6)           174.5127         estimate D2E/DX2                !
 ! D41   D(13,4,5,10)          -67.5659         estimate D2E/DX2                !
 ! D42   D(13,4,5,12)           50.1411         estimate D2E/DX2                !
 ! D43   D(3,4,13,22)           86.1314         estimate D2E/DX2                !
 ! D44   D(3,4,13,83)          -75.0617         estimate D2E/DX2                !
 ! D45   D(5,4,13,22)          -37.7234         estimate D2E/DX2                !
 ! D46   D(5,4,13,83)          161.0835         estimate D2E/DX2                !
 ! D47   D(9,4,13,22)         -155.3807         estimate D2E/DX2                !
 ! D48   D(9,4,13,83)           43.4263         estimate D2E/DX2                !
 ! D49   D(4,5,6,1)            -48.7821         estimate D2E/DX2                !
 ! D50   D(4,5,6,11)            72.4114         estimate D2E/DX2                !
 ! D51   D(4,5,6,16)          -166.5856         estimate D2E/DX2                !
 ! D52   D(10,5,6,1)          -167.5291         estimate D2E/DX2                !
 ! D53   D(10,5,6,11)          -46.3356         estimate D2E/DX2                !
 ! D54   D(10,5,6,16)           74.6674         estimate D2E/DX2                !
 ! D55   D(12,5,6,1)            70.6197         estimate D2E/DX2                !
 ! D56   D(12,5,6,11)         -168.1868         estimate D2E/DX2                !
 ! D57   D(12,5,6,16)          -47.1838         estimate D2E/DX2                !
 ! D58   D(4,5,12,21)         -164.0218         estimate D2E/DX2                !
 ! D59   D(6,5,12,21)           73.6189         estimate D2E/DX2                !
 ! D60   D(10,5,12,21)         -46.9523         estimate D2E/DX2                !
 ! D61   D(1,6,16,17)          -40.885          estimate D2E/DX2                !
 ! D62   D(1,6,16,18)           77.2521         estimate D2E/DX2                !
 ! D63   D(1,6,16,19)         -161.3219         estimate D2E/DX2                !
 ! D64   D(5,6,16,17)           82.008          estimate D2E/DX2                !
 ! D65   D(5,6,16,18)         -159.8549         estimate D2E/DX2                !
 ! D66   D(5,6,16,19)          -38.4289         estimate D2E/DX2                !
 ! D67   D(11,6,16,17)        -159.018          estimate D2E/DX2                !
 ! D68   D(11,6,16,18)         -40.881          estimate D2E/DX2                !
 ! D69   D(11,6,16,19)          80.545          estimate D2E/DX2                !
 ! D70   D(4,13,83,14)          40.699          estimate D2E/DX2                !
 ! D71   D(4,13,83,19)         -39.5038         estimate D2E/DX2                !
 ! D72   D(4,13,83,81)          38.303          estimate D2E/DX2                !
 ! D73   D(22,13,83,14)       -109.9642         estimate D2E/DX2                !
 ! D74   D(22,13,83,19)        169.8331         estimate D2E/DX2                !
 ! D75   D(22,13,83,81)       -112.3601         estimate D2E/DX2                !
 ! D76   D(3,14,83,13)         -11.1782         estimate D2E/DX2                !
 ! D77   D(3,14,83,19)          10.5628         estimate D2E/DX2                !
 ! D78   D(3,14,83,81)         167.9637         estimate D2E/DX2                !
 ! D79   D(23,14,83,13)       -122.2894         estimate D2E/DX2                !
 ! D80   D(23,14,83,19)       -100.5484         estimate D2E/DX2                !
 ! D81   D(23,14,83,81)         56.8525         estimate D2E/DX2                !
 ! D82   D(2,15,27,26)        -139.9304         estimate D2E/DX2                !
 ! D83   D(2,15,27,28)          98.9097         estimate D2E/DX2                !
 ! D84   D(2,15,27,32)         -23.1586         estimate D2E/DX2                !
 ! D85   D(6,16,19,20)        -171.1208         estimate D2E/DX2                !
 ! D86   D(6,16,19,83)          17.543          estimate D2E/DX2                !
 ! D87   D(17,16,19,20)         70.5525         estimate D2E/DX2                !
 ! D88   D(17,16,19,83)       -100.7836         estimate D2E/DX2                !
 ! D89   D(18,16,19,20)        -50.7804         estimate D2E/DX2                !
 ! D90   D(18,16,19,83)        137.8834         estimate D2E/DX2                !
 ! D91   D(16,19,83,13)         99.065          estimate D2E/DX2                !
 ! D92   D(16,19,83,14)          5.1697         estimate D2E/DX2                !
 ! D93   D(16,19,83,81)        -40.3676         estimate D2E/DX2                !
 ! D94   D(29,24,25,26)        -56.2607         estimate D2E/DX2                !
 ! D95   D(29,24,25,30)         62.9614         estimate D2E/DX2                !
 ! D96   D(29,24,25,37)        176.119          estimate D2E/DX2                !
 ! D97   D(25,24,29,28)         54.7693         estimate D2E/DX2                !
 ! D98   D(25,24,29,34)        -64.4743         estimate D2E/DX2                !
 ! D99   D(25,24,29,38)       -178.1508         estimate D2E/DX2                !
 ! D100  D(24,25,26,27)          1.415          estimate D2E/DX2                !
 ! D101  D(24,25,26,31)       -118.5311         estimate D2E/DX2                !
 ! D102  D(24,25,26,36)        119.7927         estimate D2E/DX2                !
 ! D103  D(30,25,26,27)       -118.7418         estimate D2E/DX2                !
 ! D104  D(30,25,26,31)        121.3121         estimate D2E/DX2                !
 ! D105  D(30,25,26,36)         -0.3642         estimate D2E/DX2                !
 ! D106  D(37,25,26,27)        125.0179         estimate D2E/DX2                !
 ! D107  D(37,25,26,31)          5.0718         estimate D2E/DX2                !
 ! D108  D(37,25,26,36)       -116.6044         estimate D2E/DX2                !
 ! D109  D(24,25,37,49)         63.5369         estimate D2E/DX2                !
 ! D110  D(26,25,37,49)        -62.1122         estimate D2E/DX2                !
 ! D111  D(30,25,37,49)        179.8503         estimate D2E/DX2                !
 ! D112  D(25,26,27,15)        -71.6704         estimate D2E/DX2                !
 ! D113  D(25,26,27,28)         50.9946         estimate D2E/DX2                !
 ! D114  D(25,26,27,32)        170.297          estimate D2E/DX2                !
 ! D115  D(31,26,27,15)         48.3123         estimate D2E/DX2                !
 ! D116  D(31,26,27,28)        170.9772         estimate D2E/DX2                !
 ! D117  D(31,26,27,32)        -69.7203         estimate D2E/DX2                !
 ! D118  D(36,26,27,15)        167.6602         estimate D2E/DX2                !
 ! D119  D(36,26,27,28)        -69.6749         estimate D2E/DX2                !
 ! D120  D(36,26,27,32)         49.6275         estimate D2E/DX2                !
 ! D121  D(25,26,36,44)         82.6465         estimate D2E/DX2                !
 ! D122  D(27,26,36,44)       -155.7301         estimate D2E/DX2                !
 ! D123  D(31,26,36,44)        -37.7888         estimate D2E/DX2                !
 ! D124  D(15,27,28,29)         67.7221         estimate D2E/DX2                !
 ! D125  D(15,27,28,33)       -176.197          estimate D2E/DX2                !
 ! D126  D(15,27,28,35)        -56.3715         estimate D2E/DX2                !
 ! D127  D(26,27,28,29)        -52.4064         estimate D2E/DX2                !
 ! D128  D(26,27,28,33)         63.6744         estimate D2E/DX2                !
 ! D129  D(26,27,28,35)       -176.5            estimate D2E/DX2                !
 ! D130  D(32,27,28,29)       -170.3502         estimate D2E/DX2                !
 ! D131  D(32,27,28,33)        -54.2694         estimate D2E/DX2                !
 ! D132  D(32,27,28,35)         65.5561         estimate D2E/DX2                !
 ! D133  D(27,28,29,24)          1.7678         estimate D2E/DX2                !
 ! D134  D(27,28,29,34)        121.573          estimate D2E/DX2                !
 ! D135  D(27,28,29,38)       -120.1076         estimate D2E/DX2                !
 ! D136  D(33,28,29,24)       -113.4586         estimate D2E/DX2                !
 ! D137  D(33,28,29,34)          6.3466         estimate D2E/DX2                !
 ! D138  D(33,28,29,38)        124.6661         estimate D2E/DX2                !
 ! D139  D(35,28,29,24)        126.9175         estimate D2E/DX2                !
 ! D140  D(35,28,29,34)       -113.2773         estimate D2E/DX2                !
 ! D141  D(35,28,29,38)          5.0421         estimate D2E/DX2                !
 ! D142  D(27,28,35,43)        -92.7637         estimate D2E/DX2                !
 ! D143  D(27,28,35,82)         64.2505         estimate D2E/DX2                !
 ! D144  D(29,28,35,43)        142.8489         estimate D2E/DX2                !
 ! D145  D(29,28,35,82)        -60.1369         estimate D2E/DX2                !
 ! D146  D(33,28,35,43)         24.7626         estimate D2E/DX2                !
 ! D147  D(33,28,35,82)       -178.2231         estimate D2E/DX2                !
 ! D148  D(24,29,38,39)         66.898          estimate D2E/DX2                !
 ! D149  D(24,29,38,40)       -173.4049         estimate D2E/DX2                !
 ! D150  D(24,29,38,41)        -52.3759         estimate D2E/DX2                !
 ! D151  D(28,29,38,39)       -167.6258         estimate D2E/DX2                !
 ! D152  D(28,29,38,40)        -47.9288         estimate D2E/DX2                !
 ! D153  D(28,29,38,41)         73.1003         estimate D2E/DX2                !
 ! D154  D(34,29,38,39)        -48.4748         estimate D2E/DX2                !
 ! D155  D(34,29,38,40)         71.2223         estimate D2E/DX2                !
 ! D156  D(34,29,38,41)       -167.7486         estimate D2E/DX2                !
 ! D157  D(28,35,82,41)         69.9528         estimate D2E/DX2                !
 ! D158  D(28,35,82,62)         26.3593         estimate D2E/DX2                !
 ! D159  D(28,35,82,81)         -9.7824         estimate D2E/DX2                !
 ! D160  D(43,35,82,41)       -156.4165         estimate D2E/DX2                !
 ! D161  D(43,35,82,62)        159.9901         estimate D2E/DX2                !
 ! D162  D(43,35,82,81)        123.8483         estimate D2E/DX2                !
 ! D163  D(25,37,49,48)        121.7943         estimate D2E/DX2                !
 ! D164  D(25,37,49,50)       -120.0761         estimate D2E/DX2                !
 ! D165  D(25,37,49,55)          0.0786         estimate D2E/DX2                !
 ! D166  D(29,38,41,42)       -164.5949         estimate D2E/DX2                !
 ! D167  D(39,38,41,42)         76.5235         estimate D2E/DX2                !
 ! D168  D(40,38,41,42)        -44.3232         estimate D2E/DX2                !
 ! D169  D(29,38,82,35)        -63.3373         estimate D2E/DX2                !
 ! D170  D(29,38,82,62)         63.4377         estimate D2E/DX2                !
 ! D171  D(29,38,82,81)         52.1117         estimate D2E/DX2                !
 ! D172  D(39,38,82,35)       -178.197          estimate D2E/DX2                !
 ! D173  D(39,38,82,62)        -51.422          estimate D2E/DX2                !
 ! D174  D(39,38,82,81)        -62.748          estimate D2E/DX2                !
 ! D175  D(40,38,82,35)         60.3748         estimate D2E/DX2                !
 ! D176  D(40,38,82,62)       -172.8502         estimate D2E/DX2                !
 ! D177  D(40,38,82,81)        175.8239         estimate D2E/DX2                !
 ! D178  D(42,41,82,35)        105.6471         estimate D2E/DX2                !
 ! D179  D(42,41,82,62)       -131.4389         estimate D2E/DX2                !
 ! D180  D(42,41,82,81)       -143.5741         estimate D2E/DX2                !
 ! D181  D(50,45,46,47)        -64.5025         estimate D2E/DX2                !
 ! D182  D(50,45,46,51)         56.8251         estimate D2E/DX2                !
 ! D183  D(50,45,46,58)        178.8759         estimate D2E/DX2                !
 ! D184  D(84,45,46,47)         78.0313         estimate D2E/DX2                !
 ! D185  D(84,45,46,51)       -160.6412         estimate D2E/DX2                !
 ! D186  D(84,45,46,58)        -38.5903         estimate D2E/DX2                !
 ! D187  D(46,45,50,49)         66.7628         estimate D2E/DX2                !
 ! D188  D(46,45,50,54)        -51.4388         estimate D2E/DX2                !
 ! D189  D(46,45,50,59)       -166.524          estimate D2E/DX2                !
 ! D190  D(84,45,50,49)        -93.4353         estimate D2E/DX2                !
 ! D191  D(84,45,50,54)        148.3631         estimate D2E/DX2                !
 ! D192  D(84,45,50,59)         33.2779         estimate D2E/DX2                !
 ! D193  D(46,45,84,56)        -79.1036         estimate D2E/DX2                !
 ! D194  D(46,45,84,58)         23.3428         estimate D2E/DX2                !
 ! D195  D(46,45,84,81)         24.2724         estimate D2E/DX2                !
 ! D196  D(50,45,84,56)         66.3195         estimate D2E/DX2                !
 ! D197  D(50,45,84,58)        168.7659         estimate D2E/DX2                !
 ! D198  D(50,45,84,81)        169.6955         estimate D2E/DX2                !
 ! D199  D(45,46,47,48)         54.7717         estimate D2E/DX2                !
 ! D200  D(45,46,47,52)        -64.2366         estimate D2E/DX2                !
 ! D201  D(45,46,47,57)        174.0573         estimate D2E/DX2                !
 ! D202  D(51,46,47,48)        -65.1157         estimate D2E/DX2                !
 ! D203  D(51,46,47,52)        175.876          estimate D2E/DX2                !
 ! D204  D(51,46,47,57)         54.1699         estimate D2E/DX2                !
 ! D205  D(58,46,47,48)        172.2368         estimate D2E/DX2                !
 ! D206  D(58,46,47,52)         53.2285         estimate D2E/DX2                !
 ! D207  D(58,46,47,57)        -68.4776         estimate D2E/DX2                !
 ! D208  D(45,46,58,66)        -71.3299         estimate D2E/DX2                !
 ! D209  D(45,46,58,84)         13.8131         estimate D2E/DX2                !
 ! D210  D(47,46,58,66)        171.2951         estimate D2E/DX2                !
 ! D211  D(47,46,58,84)       -103.5619         estimate D2E/DX2                !
 ! D212  D(51,46,58,66)         48.9717         estimate D2E/DX2                !
 ! D213  D(51,46,58,84)        134.1148         estimate D2E/DX2                !
 ! D214  D(46,47,48,49)        -49.732          estimate D2E/DX2                !
 ! D215  D(46,47,48,53)         68.729          estimate D2E/DX2                !
 ! D216  D(46,47,48,56)       -172.0203         estimate D2E/DX2                !
 ! D217  D(52,47,48,49)         67.6483         estimate D2E/DX2                !
 ! D218  D(52,47,48,53)       -173.8907         estimate D2E/DX2                !
 ! D219  D(52,47,48,56)        -54.6401         estimate D2E/DX2                !
 ! D220  D(57,47,48,49)       -172.9912         estimate D2E/DX2                !
 ! D221  D(57,47,48,53)        -54.5302         estimate D2E/DX2                !
 ! D222  D(57,47,48,56)         64.7204         estimate D2E/DX2                !
 ! D223  D(46,47,57,65)         62.3153         estimate D2E/DX2                !
 ! D224  D(48,47,57,65)       -175.1926         estimate D2E/DX2                !
 ! D225  D(52,47,57,65)        -56.9043         estimate D2E/DX2                !
 ! D226  D(47,48,49,37)        167.7764         estimate D2E/DX2                !
 ! D227  D(47,48,49,50)         49.7262         estimate D2E/DX2                !
 ! D228  D(47,48,49,55)        -70.8424         estimate D2E/DX2                !
 ! D229  D(53,48,49,37)         48.8373         estimate D2E/DX2                !
 ! D230  D(53,48,49,50)        -69.213          estimate D2E/DX2                !
 ! D231  D(53,48,49,55)        170.2185         estimate D2E/DX2                !
 ! D232  D(56,48,49,37)        -70.1809         estimate D2E/DX2                !
 ! D233  D(56,48,49,50)        171.7689         estimate D2E/DX2                !
 ! D234  D(56,48,49,55)         51.2003         estimate D2E/DX2                !
 ! D235  D(47,48,56,64)        -53.0413         estimate D2E/DX2                !
 ! D236  D(47,48,56,84)         78.7705         estimate D2E/DX2                !
 ! D237  D(49,48,56,64)       -176.7173         estimate D2E/DX2                !
 ! D238  D(49,48,56,84)        -44.9055         estimate D2E/DX2                !
 ! D239  D(53,48,56,64)         65.4862         estimate D2E/DX2                !
 ! D240  D(53,48,56,84)       -162.7019         estimate D2E/DX2                !
 ! D241  D(37,49,50,45)       -175.4481         estimate D2E/DX2                !
 ! D242  D(37,49,50,54)        -55.7906         estimate D2E/DX2                !
 ! D243  D(37,49,50,59)         63.2762         estimate D2E/DX2                !
 ! D244  D(48,49,50,45)        -57.1584         estimate D2E/DX2                !
 ! D245  D(48,49,50,54)         62.4991         estimate D2E/DX2                !
 ! D246  D(48,49,50,59)       -178.4342         estimate D2E/DX2                !
 ! D247  D(55,49,50,45)         64.0715         estimate D2E/DX2                !
 ! D248  D(55,49,50,54)       -176.271          estimate D2E/DX2                !
 ! D249  D(55,49,50,59)        -57.2043         estimate D2E/DX2                !
 ! D250  D(45,50,59,60)         62.5583         estimate D2E/DX2                !
 ! D251  D(45,50,59,61)       -179.4004         estimate D2E/DX2                !
 ! D252  D(45,50,59,62)        -55.7299         estimate D2E/DX2                !
 ! D253  D(49,50,59,60)       -174.7763         estimate D2E/DX2                !
 ! D254  D(49,50,59,61)        -56.7351         estimate D2E/DX2                !
 ! D255  D(49,50,59,62)         66.9355         estimate D2E/DX2                !
 ! D256  D(54,50,59,60)        -54.9828         estimate D2E/DX2                !
 ! D257  D(54,50,59,61)         63.0584         estimate D2E/DX2                !
 ! D258  D(54,50,59,62)       -173.271          estimate D2E/DX2                !
 ! D259  D(48,56,84,45)        -15.5064         estimate D2E/DX2                !
 ! D260  D(48,56,84,58)        -50.6421         estimate D2E/DX2                !
 ! D261  D(48,56,84,81)       -120.6771         estimate D2E/DX2                !
 ! D262  D(64,56,84,45)         57.3114         estimate D2E/DX2                !
 ! D263  D(64,56,84,58)         22.1756         estimate D2E/DX2                !
 ! D264  D(64,56,84,81)        -47.8594         estimate D2E/DX2                !
 ! D265  D(46,58,66,67)        -97.7329         estimate D2E/DX2                !
 ! D266  D(46,58,66,68)         20.2161         estimate D2E/DX2                !
 ! D267  D(46,58,66,69)        141.8121         estimate D2E/DX2                !
 ! D268  D(84,58,66,67)       -168.2037         estimate D2E/DX2                !
 ! D269  D(84,58,66,68)        -50.2547         estimate D2E/DX2                !
 ! D270  D(84,58,66,69)         71.3413         estimate D2E/DX2                !
 ! D271  D(46,58,84,45)        -13.9559         estimate D2E/DX2                !
 ! D272  D(46,58,84,56)         39.2533         estimate D2E/DX2                !
 ! D273  D(46,58,84,81)        166.8218         estimate D2E/DX2                !
 ! D274  D(66,58,84,45)        101.1303         estimate D2E/DX2                !
 ! D275  D(66,58,84,56)        154.3395         estimate D2E/DX2                !
 ! D276  D(66,58,84,81)        -78.092          estimate D2E/DX2                !
 ! D277  D(50,59,62,63)       -100.8928         estimate D2E/DX2                !
 ! D278  D(50,59,62,82)         56.1675         estimate D2E/DX2                !
 ! D279  D(60,59,62,63)        140.4162         estimate D2E/DX2                !
 ! D280  D(60,59,62,82)        -62.5235         estimate D2E/DX2                !
 ! D281  D(61,59,62,63)         22.2678         estimate D2E/DX2                !
 ! D282  D(61,59,62,82)        179.3281         estimate D2E/DX2                !
 ! D283  D(59,62,82,35)       -145.0132         estimate D2E/DX2                !
 ! D284  D(59,62,82,41)       -168.361          estimate D2E/DX2                !
 ! D285  D(59,62,82,81)         -1.1379         estimate D2E/DX2                !
 ! D286  D(63,62,82,35)         13.4879         estimate D2E/DX2                !
 ! D287  D(63,62,82,41)         -9.8599         estimate D2E/DX2                !
 ! D288  D(63,62,82,81)        157.3633         estimate D2E/DX2                !
 ! D289  D(58,66,69,70)        179.0651         estimate D2E/DX2                !
 ! D290  D(58,66,69,71)         64.2697         estimate D2E/DX2                !
 ! D291  D(58,66,69,72)        -57.2963         estimate D2E/DX2                !
 ! D292  D(67,66,69,70)         59.8947         estimate D2E/DX2                !
 ! D293  D(67,66,69,71)        -54.9007         estimate D2E/DX2                !
 ! D294  D(67,66,69,72)       -176.4667         estimate D2E/DX2                !
 ! D295  D(68,66,69,70)        -60.6099         estimate D2E/DX2                !
 ! D296  D(68,66,69,71)       -175.4053         estimate D2E/DX2                !
 ! D297  D(68,66,69,72)         63.0287         estimate D2E/DX2                !
 ! D298  D(66,69,72,73)         57.5842         estimate D2E/DX2                !
 ! D299  D(66,69,72,74)        172.5141         estimate D2E/DX2                !
 ! D300  D(66,69,72,75)        -65.5254         estimate D2E/DX2                !
 ! D301  D(70,69,72,73)        179.6642         estimate D2E/DX2                !
 ! D302  D(70,69,72,74)        -65.406          estimate D2E/DX2                !
 ! D303  D(70,69,72,75)         56.5545         estimate D2E/DX2                !
 ! D304  D(71,69,72,73)        -63.929          estimate D2E/DX2                !
 ! D305  D(71,69,72,74)         51.0008         estimate D2E/DX2                !
 ! D306  D(71,69,72,75)        172.9613         estimate D2E/DX2                !
 ! D307  D(69,72,75,76)        -61.5395         estimate D2E/DX2                !
 ! D308  D(69,72,75,77)         55.7362         estimate D2E/DX2                !
 ! D309  D(69,72,75,78)        178.1646         estimate D2E/DX2                !
 ! D310  D(73,72,75,76)        176.9566         estimate D2E/DX2                !
 ! D311  D(73,72,75,77)        -65.7677         estimate D2E/DX2                !
 ! D312  D(73,72,75,78)         56.6607         estimate D2E/DX2                !
 ! D313  D(74,72,75,76)         60.1096         estimate D2E/DX2                !
 ! D314  D(74,72,75,77)        177.3853         estimate D2E/DX2                !
 ! D315  D(74,72,75,78)        -60.1863         estimate D2E/DX2                !
 ! D316  D(72,75,78,79)        172.9805         estimate D2E/DX2                !
 ! D317  D(72,75,78,80)         52.3586         estimate D2E/DX2                !
 ! D318  D(72,75,78,81)        -67.9518         estimate D2E/DX2                !
 ! D319  D(76,75,78,79)         51.2082         estimate D2E/DX2                !
 ! D320  D(76,75,78,80)        -69.4137         estimate D2E/DX2                !
 ! D321  D(76,75,78,81)        170.2759         estimate D2E/DX2                !
 ! D322  D(77,75,78,79)        -63.4736         estimate D2E/DX2                !
 ! D323  D(77,75,78,80)        175.9045         estimate D2E/DX2                !
 ! D324  D(77,75,78,81)         55.5941         estimate D2E/DX2                !
 ! D325  D(75,78,81,82)        179.6147         estimate D2E/DX2                !
 ! D326  D(75,78,81,83)         61.7247         estimate D2E/DX2                !
 ! D327  D(75,78,81,84)        -61.6518         estimate D2E/DX2                !
 ! D328  D(79,78,81,82)        -58.9825         estimate D2E/DX2                !
 ! D329  D(79,78,81,83)       -176.8725         estimate D2E/DX2                !
 ! D330  D(79,78,81,84)         59.751          estimate D2E/DX2                !
 ! D331  D(80,78,81,82)         56.9965         estimate D2E/DX2                !
 ! D332  D(80,78,81,83)        -60.8936         estimate D2E/DX2                !
 ! D333  D(80,78,81,84)        175.7299         estimate D2E/DX2                !
 ! D334  D(78,81,82,35)        154.6393         estimate D2E/DX2                !
 ! D335  D(78,81,82,41)        128.3974         estimate D2E/DX2                !
 ! D336  D(78,81,82,62)        118.4407         estimate D2E/DX2                !
 ! D337  D(83,81,82,35)        -81.9287         estimate D2E/DX2                !
 ! D338  D(83,81,82,41)       -108.1706         estimate D2E/DX2                !
 ! D339  D(83,81,82,62)       -118.1272         estimate D2E/DX2                !
 ! D340  D(84,81,82,35)         32.237          estimate D2E/DX2                !
 ! D341  D(84,81,82,41)          5.9951         estimate D2E/DX2                !
 ! D342  D(84,81,82,62)         -3.9616         estimate D2E/DX2                !
 ! D343  D(78,81,83,13)        164.1438         estimate D2E/DX2                !
 ! D344  D(78,81,83,14)        161.8068         estimate D2E/DX2                !
 ! D345  D(78,81,83,19)       -154.755          estimate D2E/DX2                !
 ! D346  D(82,81,83,13)         40.5544         estimate D2E/DX2                !
 ! D347  D(82,81,83,14)         38.2174         estimate D2E/DX2                !
 ! D348  D(82,81,83,19)         81.6556         estimate D2E/DX2                !
 ! D349  D(84,81,83,13)        -70.9411         estimate D2E/DX2                !
 ! D350  D(84,81,83,14)        -73.278          estimate D2E/DX2                !
 ! D351  D(84,81,83,19)        -29.8399         estimate D2E/DX2                !
 ! D352  D(78,81,84,45)         79.0927         estimate D2E/DX2                !
 ! D353  D(78,81,84,56)        128.8817         estimate D2E/DX2                !
 ! D354  D(78,81,84,58)         79.5349         estimate D2E/DX2                !
 ! D355  D(82,81,84,45)       -157.2502         estimate D2E/DX2                !
 ! D356  D(82,81,84,56)       -107.4612         estimate D2E/DX2                !
 ! D357  D(82,81,84,58)       -156.808          estimate D2E/DX2                !
 ! D358  D(83,81,84,45)        -46.8232         estimate D2E/DX2                !
 ! D359  D(83,81,84,56)          2.9659         estimate D2E/DX2                !
 ! D360  D(83,81,84,58)        -46.381          estimate D2E/DX2                !
 --------------------------------------------------------------------------------
 Trust Radius=3.00D-01 FncErr=1.00D-07 GrdErr=1.00D-06
 Number of steps in this run=    504 maximum allowed number of steps=    504.
 GradGradGradGradGradGradGradGradGradGradGradGradGradGradGradGradGradGrad

 Leave Link  103 at Mon May  2 23:43:04 2016, MaxMem= 10737418240 cpu:         0.6
 (Enter /share/apps//g09/l202.exe)
 Stoichiometry    C23H44NO16(1+)
 Framework group  C1[X(C23H44NO16)]
 Deg. of freedom   246
 Full point group                 C1      NOp   1
 Largest Abelian subgroup         C1      NOp   1
 Largest concise Abelian subgroup C1      NOp   1
                         Standard orientation:                         
 ---------------------------------------------------------------------
 Center     Atomic      Atomic             Coordinates (Angstroms)
 Number     Number       Type             X           Y           Z
 ---------------------------------------------------------------------
      1          8           0       -2.289460    2.437930   -1.345409
      2          6           0       -2.145327    1.080497   -1.690162
      3          6           0       -0.835077    0.807048   -2.446305
      4          6           0        0.351859    1.302562   -1.603104
      5          6           0        0.169543    2.763672   -1.184301
      6          6           0       -1.212945    2.988441   -0.557110
      7          1           0       -3.017146    0.849578   -2.320782
      8          1           0       -0.869559    1.375242   -3.389170
      9          1           0        0.434382    0.673100   -0.705375
     10          1           0        0.923549    3.009214   -0.416657
     11          1           0       -1.192442    2.512930    0.439453
     12          8           0        0.412928    3.540626   -2.367553
     13          8           0        1.603921    1.167241   -2.299252
     14          8           0       -0.714800   -0.579659   -2.777452
     15          8           0       -2.109893    0.202094   -0.560538
     16          6           0       -1.557721    4.475438   -0.429099
     17          1           0       -1.937673    4.823195   -1.404587
     18          1           0       -2.351079    4.608579    0.323628
     19          8           0       -0.357532    5.173727   -0.055461
     20          1           0       -0.594812    6.089390    0.165074
     21          1           0        0.555195    4.458306   -2.067662
     22          1           0        1.696327    1.983166   -2.835982
     23          1           0       -1.296848   -1.083185   -2.164505
     24          8           0       -2.193906   -2.175416    0.959730
     25          6           0       -2.328211   -1.296051    2.085254
     26          6           0       -2.973927    0.069076    1.681548
     27          6           0       -3.333844    0.112518    0.189674
     28          6           0       -4.153520   -1.129310   -0.183211
     29          6           0       -3.425704   -2.436656    0.271043
     30          1           0       -2.982533   -1.767716    2.842581
     31          1           0       -2.257378    0.873369    1.892973
     32          1           0       -3.935427    1.019382    0.020177
     33          1           0       -5.089229   -1.058047    0.394567
     34          1           0       -4.106446   -2.979555    0.956702
     35          8           0       -4.451268   -1.183690   -1.585870
     36          8           0       -4.196736    0.275200    2.401238
     37          8           0       -1.074614   -1.201970    2.711024
     38          6           0       -3.081965   -3.410681   -0.842089
     39          1           0       -2.784217   -4.371002   -0.390441
     40          1           0       -3.964517   -3.557428   -1.478679
     41          8           0       -1.979731   -2.886211   -1.619423
     42          1           0       -1.942524   -3.388640   -2.450500
     43          1           0       -5.315415   -0.762737   -1.725528
     44          1           0       -3.976683    0.632820    3.277921
     45          8           0        2.260100   -1.071298    1.146960
     46          6           0        2.873318   -0.043588    1.947560
     47          6           0        1.873421    1.095923    2.126850
     48          6           0        0.548283    0.597612    2.707019
     49          6           0        0.002811   -0.617420    1.947254
     50          6           0        1.133157   -1.664163    1.811218
     51          1           0        3.169363   -0.478168    2.927488
     52          1           0        1.693520    1.515581    1.119709
     53          1           0        0.723917    0.283353    3.754646
     54          1           0        1.420415   -1.985070    2.834485
     55          1           0       -0.354198   -0.324938    0.948042
     56          8           0       -0.412418    1.659104    2.682348
     57          8           0        2.339057    2.106080    3.020199
     58          8           0        3.966347    0.466478    1.258587
     59          6           0        0.784939   -2.934051    1.045891
     60          1           0        1.647445   -3.614148    1.114275
     61          1           0       -0.082049   -3.416653    1.514755
     62          8           0        0.536798   -2.708475   -0.348381
     63          1           0       -0.431726   -2.691210   -0.525876
     64          1           0        0.010619    2.414760    3.131509
     65          1           0        3.143951    2.494607    2.633133
     66          6           0        5.105231   -0.428070    1.170615
     67          1           0        5.826602   -0.157795    1.959234
     68          1           0        4.769507   -1.461082    1.348244
     69          6           0        5.735947   -0.280366   -0.209116
     70          1           0        6.609082   -0.952578   -0.255713
     71          1           0        6.128873    0.743419   -0.308022
     72          6           0        4.775400   -0.554398   -1.376632
     73          1           0        3.924308    0.137406   -1.276224
     74          1           0        5.285072   -0.291446   -2.318158
     75          6           0        4.281761   -2.005597   -1.461746
     76          1           0        5.137282   -2.682685   -1.616550
     77          1           0        3.809124   -2.307957   -0.513923
     78          6           0        3.293544   -2.261822   -2.596756
     79          1           0        3.070818   -3.333206   -2.688554
     80          1           0        3.686225   -1.910089   -3.561852
     81          7           0        1.989266   -1.562951   -2.356117
     82          1           0        1.299217   -1.708302   -3.105574
     83          1           0        2.079548   -0.520985   -2.304256
     84          1           0        1.516513   -1.909884   -1.472963
 ---------------------------------------------------------------------
[...]
 ,0.00001931,0.00000734,-0.00000549,0.00002405,-0.00000797,-0.00001866,
 -0.00000158,-0.00000684,-0.00000891,0.00000677,-0.00000168,-0.00001752
 ,-0.00003441,-0.00005649,-0.00006425,-0.00001154,-0.00004127,-0.000055
 50,-0.00004835,-0.00001611,-0.00012025,-0.00021451,-0.00006016,0.00016
 696,0.00002309,0.00001243,-0.00002097,0.00004048,0.00000651,-0.0000086
 5,0.00035461,0.00001414,-0.00014589,-0.00008648,0.00002969,0.00001264,
 0.00001811,0.00001862,0.00000478,0.00001211,0.00001518,0.00002229,-0.0
 0066811,0.00040078,-0.00066250,0.00120151,0.00012315,0.00020789,0.0000
 0783,0.00021335,-0.00002584,0.00013104,0.00004690,0.00011052,0.0000017
 3,-0.00002394,0.00010025,-0.00006218,-0.00006400,0.00009235,-0.0001207
 4,-0.00002969,-0.00008345,0.00004701,-0.00002870,-0.00002116,-0.000036
 49,-0.00001834,-0.00000282,0.00000624,0.00004386,-0.00005823,0.0000111
 8,0.00006621,0.00008852,-0.00013481,-0.00011923,-0.00007470,-0.0001290
 7,-0.00011431,-0.00006556,-0.00054293,-0.00029276,0.00035432,-0.000036
 03,-0.00062214,0.00047332,-0.00001142,0.00004825,-0.00003181,0.0000163
 4,0.00009022,-0.00005212,0.00072449,0.00039258,0.00007062,-0.00028923,
 0.00011071,0.00007066,0.00004418,0.00003396,-0.00002908,0.00002074,0.0
 0006932,-0.00004310,0.00025683,0.00012794,-0.00007160,-0.00005993,-0.0
 0005384,0.00005789,-0.00006683,-0.00008816,-0.00000045,-0.00016865,-0.
 00044644,-0.00119858,0.00025233,-0.00040661,0.00020187,-0.00008054,0.0
 0009135,-0.00004330,-0.00001248,0.00096584,0.00249186,-0.00126543,0.00
 063727,-0.00210559,-0.00014486,0.00000308,0.00001883,0.00094057,0.0000
 1438,0.00037074,-0.00040645,-0.00012014,-0.00036865,-0.00019331,-0.000
 14692,-0.00012092,0.02068132,0.00583203,0.01249851,-0.00257731,0.00305
 913,0.00446638,0.00022408,-0.00024540,0.00039434,-0.19186570,-0.071313
 38,-0.12964301,-0.01473813,-0.00696258,-0.01329895,0.20576475,-0.00048
 107,-0.00012852,-0.00002228,0.00046001,0.00077326,-0.00086661,0.000619
 64,-0.00026364,0.00095769,0.00714719,0.00091426,-0.00479857,-0.0014354
 8,0.00044768,0.00062374,0.00105493,0.00041981,0.00028481,-0.00018912,-
 0.00003051,0.00020757,0.00006467,-0.00022429,0.00000813,-0.00064499,-0
 .00010025,0.00057983,0.00003436,-0.00007219,-0.00011607,-0.00006039,0.
 00005244,0.00002993,-0.00023811,0.00038043,0.00106119,-0.00079669,0.00
 093686,0.00299920,-0.00206705,-0.00139070,-0.00137689,-0.00093315,-0.0
 0063653,0.00045185,-0.00039478,-0.00002564,-0.00003625,0.00003203,-0.0
 0002516,-0.00002152,0.00003287,0.00006939,0.00017460,0.00009140,-0.000
 07712,0.00030732,-0.00006917,0.00003921,-0.00007420,-0.00022483,-0.000
 12479,-0.00012072,-0.00166588,-0.00166812,0.00198224,0.00030813,0.0008
 1524,0.00041425,0.00008315,-0.00027919,-0.00016709,-0.00017552,0.00037
 902,0.00013928,-0.00001550,0.00009926,-0.00001613,0.00054999,0.0000442
 2,-0.00028740,0.00001486,0.00010734,0.00007006,-0.00003308,0.00020698,
 0.00002392,0.00001255,-0.00003101,-0.00001870,-0.00001281,0.00005769,-
 0.00002507,-0.00001194,-0.00001011,0.00001193,-0.00004977,-0.00001745,
 -0.00002326,0.00000455,-0.00002741,-0.00001507,-0.00018227,-0.00017818
 ,-0.00006530,-0.00007074,-0.00017000,0.00004273,0.00034923,-0.00035097
 ,-0.00023957,-0.00010537,-0.00004149,0.00006560,-0.00003471,-0.0000236
 3,-0.00002072,0.00003807,0.00001291,0.00001230,0.00008820,-0.00036067,
 -0.00023804,-0.00015513,0.00017703,0.00011080,0.00007798,0.00000752,0.
 00002232,0.00000508,0.00004255,0.00001869,0.00045156,0.00047039,-0.001
 10903,0.00025097,-0.00024287,0.00112558,0.00010428,0.00040645,0.000024
 70,-0.00003166,0.00025374,0.00030915,-0.00022017,0.00024488,0.00012507
 ,-0.00091344,0.00001703,0.00031225,-0.00002438,0.00006165,-0.00019605,
 -0.00003700,0.00005463,0.00002384,-0.00001363,-0.00007443,0.00001018,0
 .00012357,0.00005551,-0.00014304,0.00007121,0.00012352,0.00007641,-0.0
 0000390,-0.00049535,-0.00027904,-0.00003059,-0.00034454,-0.00029060,0.
 00010771,0.00008113,-0.00075988,-0.00002878,-0.00047699,0.00021369,-0.
 00004659,-0.00001709,-0.00006374,0.00005280,0.00008155,0.00000778,0.00
 069042,0.00027017,-0.00008401,-0.00035214,0.00042152,0.00029727,0.0000
 0935,0.00011496,-0.00000915,0.00001058,0.00020137,0.00012875,-0.000055
 99,-0.00008578,0.00030607,-0.00002140,0.00004106,-0.00011997,-0.000009
 29,-0.00012786,0.00003170,-0.00015226,-0.00004882,0.00060401,-0.000090
 80,0.00021517,-0.00011536,-0.00014999,0.00010756,-0.00012347,0.0004881
 5,-0.00041660,-0.00101741,0.00117110,0.00100894,0.00157440,-0.00039267
 ,0.00020871,0.00039530,-0.00059173,-0.00115334,-0.00039091,-0.00024995
 ,0.00035124,0.00019239,0.00008111,-0.00041935,-0.00005020,-0.00622876,
 -0.00608696,-0.00995600,0.00096594,0.00004659,-0.00073691,-0.00020965,
 0.00070521,0.00117696,-0.07562417,-0.09838983,-0.07503806,0.02124074,0
 .01325371,0.02264345,0.07173040,0.09703659,-0.00058897,-0.00005861,-0.
 00032490,0.00028563,0.00069296,-0.00063522,0.00110782,0.00025755,0.002
 42458,0.00622646,-0.00143102,-0.00574039,-0.00086415,0.00048784,-0.000
 07661,0.00106218,0.00015296,0.00022172,-0.00022130,0.00001145,0.000231
 77,-0.00005084,-0.00012280,-0.00008245,0.00016732,-0.00007577,-0.00037
 717,-0.00003921,-0.00005055,-0.00016950,-0.00004553,0.00006478,0.00000
 567,-0.00005760,0.00076155,0.00138482,0.00249398,0.00444709,-0.0047658
 9,-0.00070177,-0.00134886,-0.00253762,-0.00090500,-0.00048799,0.000207
 50,-0.00030107,-0.00003674,-0.00004171,0.00003776,-0.00000960,-0.00002
 056,0.00002250,0.00005908,0.00016455,0.00004179,-0.00003070,0.00029041
 ,-0.00007547,0.00002687,-0.00007014,-0.00025180,-0.00009015,-0.0001202
 8,-0.00319675,-0.00024320,0.00398124,0.00018485,0.00031797,0.00018228,
 -0.00002158,-0.00014158,-0.00044507,0.00015326,0.00008063,0.00037252,0
 .00002177,0.00009109,-0.00004258,0.00049318,0.00005071,-0.00023429,0.0
 0003151,0.00006395,0.00012400,0.00002978,0.00014225,0.00005857,-0.0000
 2038,-0.00000468,-0.00004037,0.00001530,0.00002507,-0.00003640,-0.0000
 1120,-0.00000520,0.00000450,-0.00004391,-0.00001644,-0.00002763,-0.000
 00324,-0.00002118,-0.00002332,-0.00018555,-0.00011892,-0.00013246,-0.0
 0011351,-0.00013524,0.00003574,-0.00018793,-0.00024668,-0.00013245,-0.
 00027454,-0.00008637,0.00020006,-0.00000952,-0.00000861,-0.00003063,0.
 00006349,0.00001844,-0.00000590,0.00037348,-0.00030241,-0.00033416,-0.
 00018730,0.00015727,0.00010370,0.00008100,0.00000755,0.00002586,0.0000
 2797,0.00003615,0.00001042,-0.00060183,-0.00042548,-0.00065639,0.00011
 458,0.00035618,0.00037183,0.00002478,0.00078883,-0.00031791,0.00016018
 ,0.00007739,0.00009193,-0.00000431,0.00039505,0.00000126,0.00033704,0.
 00023583,0.00016616,-0.00000051,-0.00009439,-0.00005995,-0.00004632,-0
 .00018906,-0.00004984,-0.00005876,-0.00007447,0.00004860,-0.00011600,-
 0.00005202,-0.00007435,0.00015750,0.00002603,0.00010021,-0.00016564,-0
 .00033557,-0.00008905,0.00008494,-0.00044173,0.00009410,0.00028464,-0.
 00051886,-0.00052937,0.00075126,-0.00125595,0.00065559,-0.00007292,0.0
 0003629,-0.00005036,0.00000935,0.00038536,-0.00020589,0.00266890,0.002
 18637,-0.00266063,-0.00020630,0.00065670,0.00021644,0.00004133,0.00008
 533,-0.00008406,-0.00007029,0.00019412,0.00002688,-0.00028679,0.000427
 84,0.00056715,0.00003390,-0.00003921,-0.00013708,-0.00003616,-0.000143
 70,-0.00000995,0.00006601,-0.00020097,-0.00009822,0.00006517,-0.000015
 26,-0.00003969,-0.00014034,0.00010453,-0.00009723,0.00019185,0.0006011
 3,0.00067284,-0.00062537,0.00070892,0.00070172,0.00016483,-0.00010006,
 -0.00023574,-0.00003694,-0.00004079,0.00147051,-0.00051040,0.00048960,
 -0.00024001,0.00002074,-0.00008652,0.00005417,-0.01130071,-0.01016546,
 -0.01812440,0.00224421,-0.00064447,-0.00124044,-0.00062175,0.00083076,
 0.00017858,-0.12913104,-0.07020930,-0.19318371,-0.01092037,-0.00245258
 ,-0.00749507,0.13510576,0.07359181,0.20667783,-0.00051601,-0.00022410,
 -0.00006040,0.00085143,0.00093930,-0.00032745,-0.00001251,-0.00019035,
 0.00021500,0.00159975,-0.00023554,-0.00142228,-0.00008011,0.00016209,-
 0.00010596,0.00043510,0.00009679,0.00002584,-0.00005424,-0.00005143,0.
 00007163,-0.00005630,-0.00011121,-0.00008770,0.00023547,0.00008334,-0.
 00002873,0.00000020,-0.00001067,-0.00003843,-0.00001457,0.00003103,0.0
 0002931,-0.00018731,0.00007358,0.00042260,-0.00006291,0.00127058,0.001
 89172,-0.00186781,-0.00066561,0.00061197,-0.00079171,-0.00085061,0.000
 21367,-0.00000601,-0.00000290,0.00002462,0.00000118,-0.00001701,-0.000
 01406,-0.00000195,0.00002916,0.00006312,-0.00010886,-0.00003674,0.0000
 6272,0.00000761,0.00002564,-0.00002082,0.00000457,-0.00001844,-0.00006
 900,-0.00032762,-0.00013156,0.00003486,0.00057939,0.00162736,0.0004757
 5,0.00067989,-0.00053968,-0.00141466,0.00015876,0.00001414,0.00124174,
 -0.00012679,0.00019545,0.00014809,0.00039057,0.00002893,-0.00011574,0.
 00002545,0.00034195,0.00009931,-0.00055132,0.00062980,-0.00012093,0.00
 001625,0.00004596,-0.00015896,0.00004382,-0.00001668,-0.00002147,-0.00
 001728,-0.00004370,-0.00001695,-0.00002486,-0.00006634,-0.00003736,0.0
 0013453,-0.00005191,-0.00005119,-0.00007759,-0.00047144,-0.00003366,0.
 00006802,-0.00023525,-0.00028160,-0.00037078,-0.00021157,-0.00050999,-
 0.00077463,-0.00015606,0.00050982,-0.00012745,0.00003603,-0.00010053,0
 .00019840,-0.00001748,-0.00005226,0.00113103,-0.00165478,-0.00014301,0
 .00011557,0.00049857,-0.00020215,0.00001211,0.00007895,-0.00001324,0.0
 0000422,0.00004740,0.00012100,-0.00301326,-0.00114127,0.00033884,0.001
 43474,0.00017809,-0.00011279,0.00028585,0.00028914,-0.00017374,0.00066
 667,0.00011319,0.00019628,-0.00033984,0.00023254,0.00036391,0.00313349
 ,0.00111340,-0.00005950,-0.00001938,-0.00019210,0.00008223,-0.00003264
 ,-0.00012949,-0.00005699,-0.00008325,-0.00005926,-0.00001391,-0.000823
 48,-0.00004527,-0.00034254,0.00015285,0.00020717,0.00033315,-0.0004988
 1,-0.00028201,-0.00032562,-0.00037992,-0.00009250,0.00005887,-0.001243
 30,-0.00023794,0.00100938,0.00655796,-0.00991591,0.00408217,-0.0002920
 3,0.00107524,-0.00014400,-0.00005016,0.00282157,-0.00156649,-0.0009031
 7,0.00838516,-0.00483392,-0.00278354,0.00458498,0.00013123,0.00012875,
 0.00001732,-0.00006636,0.00003356,0.00003151,-0.00011154,0.00031548,-0
 .00018066,-0.00053749,-0.00000074,-0.00001848,0.00018063,0.00005150,0.
 00014040,-0.00008621,-0.00001824,0.00026494,-0.00015604,-0.00001697,-0
 .00012163,0.00004852,0.00011000,-0.00012720,0.00014499,-0.00050295,-0.
 00012825,0.00004351,-0.00033491,-0.00010528,-0.00035729,0.00012927,-0.
 00005864,-0.00002725,-0.00054278,-0.00053460,-0.00083809,0.00081518,-0
 .00032721,-0.00009329,0.00010773,0.00097248,-0.00004957,-0.00915054,-0
 .00187708,0.00960996,0.00105153,-0.00044774,-0.00148844,0.00088658,0.0
 0032371,-0.00027046,-0.16504539,-0.10578819,0.07901182,0.01770189,0.01
 283743,-0.01194204,-0.01306514,-0.01309226,0.00786286,0.16504272,-0.00
 023967,-0.00013303,0.00044659,0.00078602,0.00056450,-0.00054072,-0.000
 97549,-0.00072478,-0.00109544,0.00059859,-0.00027894,-0.00062501,-0.00
 003390,0.00004573,-0.00026823,0.00016736,0.00020160,-0.00011336,-0.000
 00968,-0.00005650,0.00003206,0.00006969,0.00006625,0.00011976,0.000036
 65,0.00017529,-0.00026923,0.00007563,0.00001303,0.00004531,-0.00001171
 ,0.00002364,0.00002692,0.00002097,0.00010459,0.00037806,0.00025427,0.0
 0081737,0.00104239,-0.00081906,0.00253954,0.00136550,-0.00072826,-0.00
 062838,0.00054880,-0.00007112,-0.00000610,-0.00004092,0.00000384,-0.00
 002216,-0.00001028,0.00000236,0.00002316,0.00005128,0.00001376,-0.0000
 5382,0.00013149,-0.00000548,0.00002850,-0.00002893,-0.00003116,0.00000
 254,-0.00005871,-0.00025198,-0.00007302,0.00007924,0.00141319,0.000171
 77,-0.00023846,0.00057131,-0.00059152,-0.00071804,-0.00015625,0.000346
 68,0.00054386,-0.00008853,0.00016572,0.00007457,0.00048939,0.00009558,
 -0.00023664,0.00001951,0.00024376,0.00001368,-0.00047332,0.00052547,-0
 .00017040,0.00003388,-0.00000163,-0.00008269,-0.00000124,0.00002060,-0
 .00001597,-0.00003941,-0.00003271,0.00002081,-0.00003898,-0.00004196,-
 0.00002416,0.00010011,-0.00005645,0.00000663,-0.00009431,-0.00034003,0
 .00004069,0.00003675,-0.00021937,-0.00012010,0.00027804,-0.00043338,-0
 .00044716,-0.00009876,0.00023301,-0.00000272,-0.00017558,-0.00003211,-
 0.00005294,0.00001668,-0.00005087,0.00002053,-0.00006057,-0.00147838,0
 .00043486,0.00037493,0.00018859,-0.00010602,0.00002699,0.00003333,0.00
 000064,-0.00001087,0.00004306,0.00007243,-0.00231554,-0.00004557,-0.00
 159368,0.00260842,0.00022299,0.00059419,0.00005976,0.00046083,0.000024
 93,0.00028135,0.00016575,0.00034569,-0.00038113,0.00046857,0.00034717,
 0.00017384,0.00022287,0.00094448,-0.00020058,-0.00000771,-0.00024395,-
 0.00004127,-0.00008072,-0.00003164,-0.00003640,-0.00006311,0.00001261,
 -0.00022150,0.00008649,-0.00035537,0.00017556,0.00012239,0.00005371,-0
 .00019994,-0.00040234,-0.00038646,-0.00029697,-0.00025860,-0.00033019,
 -0.00113483,-0.00013766,0.00060251,-0.00000012,-0.00588706,0.00252382,
 -0.00029728,0.00010491,-0.00011580,0.00013082,0.00101431,-0.00063022,0
 .00673106,-0.00854478,-0.00213153,0.00182777,0.00711125,-0.00098080,0.
 00005705,0.00004387,-0.00001060,0.00006780,0.00009368,0.00000857,0.000
 47258,-0.00019797,-0.00034220,-0.00007238,-0.00000666,0.00007631,-0.00
 000380,-0.00002658,-0.00004909,0.00004684,0.00012101,-0.00009981,0.000
 00280,-0.00008323,0.00005293,0.00003415,-0.00008276,0.00007363,-0.0001
 7307,-0.00041761,0.00064289,-0.00006304,0.00004202,-0.00032720,-0.0003
 0221,-0.00011000,-0.00006949,0.00053537,0.00238450,-0.00171059,-0.0000
 8582,-0.00041957,0.00030315,-0.00011735,-0.00104132,0.00063867,0.01282
 149,0.01892403,-0.00666776,-0.00011159,0.00012739,-0.00030210,0.002895
 56,-0.00275588,-0.00459999,-0.10199748,-0.16712878,0.07620874,-0.01793
 976,-0.01871499,0.01196818,-0.00497448,-0.00717898,0.00242785,0.101069
 72,0.18045685,0.00020165,0.00015790,-0.00006776,-0.00044290,-0.0005625
 9,0.00020506,0.00057120,-0.00005064,0.00004255,-0.00170965,-0.00094291
 ,0.00111403,0.00016282,-0.00013254,-0.00030555,-0.00018800,-0.00016108
 ,-0.00003100,0.00002084,0.00005403,-0.00002572,-0.00007141,0.00009813,
 -0.00003505,0.00008399,0.00034889,-0.00033061,-0.00002202,0.00001832,0
 .00000850,0.00002549,-0.00001219,-0.00002853,0.00024852,0.00016544,-0.
 00013602,0.00035912,-0.00109565,-0.00316598,0.00028598,0.00015814,-0.0
 0131948,0.00022452,0.00050954,-0.00012435,0.00002586,-0.00000665,-0.00
 002772,0.00000385,0.00001923,0.00000768,-0.00000085,-0.00001790,-0.000
 02794,0.00004832,0.00004934,-0.00002367,-0.00001201,-0.00002105,0.0000
 0753,0.00000123,0.00003253,0.00001678,0.00014508,0.00007678,-0.0000416
 9,-0.00002231,-0.00069912,0.00022527,-0.00050360,0.00038695,0.00028877
 ,0.00035140,-0.00034833,-0.00028275,0.00008861,-0.00008796,-0.00012604
 ,-0.00007822,0.00000657,0.00004387,0.00000718,-0.00016802,0.00002872,0
 .00040867,-0.00036205,0.00013348,-0.00005607,0.00001124,0.00004711,-0.
 00000601,-0.00001540,-0.00001106,-0.00001572,0.00002855,0.00001177,0.0
 0000452,0.00002329,0.00000724,-0.00008748,0.00003316,-0.00000115,-0.00
 001314,0.00024077,-0.00007037,-0.00009582,0.00012495,0.00015421,-0.000
 49734,0.00018256,0.00044128,0.00004990,-0.00009218,-0.00003380,0.00008
 379,-0.00000584,0.00004479,-0.00001984,0.00003533,-0.00000743,-0.00007
 634,0.00076961,-0.00042225,-0.00036410,-0.00000003,0.00019480,0.000011
 95,-0.00003424,0.00001075,0.00001872,-0.00002326,-0.00006773,0.0019493
 7,-0.00133525,0.00115484,-0.00266702,-0.00023687,-0.00065197,-0.000116
 61,-0.00009771,-0.00018386,-0.00023844,-0.00023051,-0.00034963,0.00038
 932,0.00021371,-0.00048671,0.00062099,0.00068680,-0.00079761,0.0002719
 0,-0.00006814,0.00029823,-0.00002519,-0.00003149,0.00002014,0.00005296
 ,0.00001801,0.00004951,0.00005434,-0.00020314,0.00029400,-0.00001928,-
 0.00026758,-0.00008210,0.00013503,0.00027813,0.00033954,0.00036245,0.0
 0006811,0.00035591,0.00126146,-0.00005221,-0.00081587,-0.00040778,0.00
 426419,-0.00247464,-0.00000648,-0.00066689,0.00025055,-0.00009339,-0.0
 0085132,0.00035958,-0.00561474,-0.00240123,-0.00344811,0.00144080,-0.0
 0234479,-0.00033706,-0.00005010,-0.00002432,-0.00002208,-0.00009537,-0
 .00003744,0.00001292,-0.00044514,0.00040035,0.00059400,0.00005285,-0.0
 0002980,-0.00012175,-0.00002643,-0.00004871,0.00004869,-0.00004236,-0.
 00021446,0.00012861,0.00003522,0.00008119,-0.00005934,-0.00007077,0.00
 010012,-0.00009945,0.00008625,0.00031912,-0.00021251,-0.00009209,-0.00
 010428,0.00028666,-0.00001172,-0.00002895,-0.00013644,-0.00080644,0.00
 006940,0.00170452,-0.00057812,0.00041373,-0.00017817,0.00019752,-0.000
 52443,0.00058363,0.01710100,0.01286489,-0.01491787,-0.00057645,0.00084
 827,0.00002416,0.00103949,-0.00252880,-0.00207023,0.07570257,0.0758685
 3,-0.11980252,0.00625997,0.00898211,-0.00503487,-0.01352091,-0.0147384
 6,0.02000131,-0.08065900,-0.07710153,0.12945546\\0.00000614,0.00000643
 ,0.00000801,-0.00000315,-0.00001001,-0.00001155,0.00000340,0.00000532,
 -0.00000067,-0.00000365,0.00000282,0.00001128,0.00000563,0.00000338,-0
 .00000177,-0.00000663,0.00000107,-0.00000163,0.00000171,0.00000217,0.0
 0000121,0.00000265,0.00000081,0.00000128,0.00000050,-0.00000108,0.0000
 0161,-0.00000138,-0.00000315,0.00000365,-0.00000153,-0.00000175,0.0000
 0044,-0.00000070,-0.00000539,0.00000052,-0.00000104,-0.00000641,0.0000
 0356,0.00000913,-0.00001157,-0.00000485,0.00000004,0.00000153,-0.00000
 093,0.00000134,-0.00000115,0.00000066,-0.00000319,0.00000035,0.0000038
 1,-0.00000551,-0.00000261,0.00000165,-0.00000524,-0.00000621,0.0000047
 2,-0.00000275,0.00000163,0.00000435,-0.00000022,-0.00000111,0.00000825
 ,0.00000394,-0.00000006,0.00000097,-0.00000552,0.00000767,-0.00000038,
 -0.00000429,0.00000012,-0.00000607,-0.00000634,0.00000596,-0.00000056,
 -0.00000851,0.00000632,-0.00000060,0.00000019,0.00000109,-0.00000520,-
 0.00000032,0.00000576,-0.00000519,0.00000097,-0.00000004,-0.00000397,-
 0.00000279,0.00000183,-0.00000619,-0.00000528,0.00000057,-0.00000349,-
 0.00000239,0.00000130,-0.00000210,0.,0.00000264,-0.00000467,-0.0000004
 6,0.00000214,-0.00000761,0.00000395,0.00000348,-0.00000490,-0.00000395
 ,-0.00000044,-0.00000680,0.00000842,-0.00000100,-0.00000796,0.00000589
 ,0.00000403,-0.00000935,0.00000160,0.00000219,-0.00000711,0.00000263,0
 .00000208,-0.00000711,-0.00001185,0.00000124,0.00000144,0.00001447,0.0
 0000282,-0.00000712,-0.00000133,0.00000244,-0.00000450,-0.00000440,0.0
 0000042,-0.00000231,-0.00000233,0.00001050,-0.00000357,-0.00000682,-0.
 00000910,0.00000601,0.00000178,-0.00000008,0.00000086,-0.00000717,0.00
 000159,-0.00000223,-0.00001983,0.00000137,0.00000862,0.00000314,-0.000
 01073,-0.00000100,-0.00000261,-0.00000071,0.00000171,-0.00000063,-0.00
 000218,0.00000197,-0.00000324,-0.00000224,-0.00000040,0.00000039,0.000
 00229,-0.00000079,0.00000053,-0.00000210,-0.00000506,-0.00000738,-0.00
 000218,0.00000343,-0.00000658,-0.00000491,0.00000407,0.00000258,0.0000
 0130,-0.00000331,-0.00000548,-0.00000248,-0.00001308,-0.00000005,-0.00
 000011,-0.00000238,-0.00000113,0.00000082,-0.00000452,0.00001424,0.000
 01171,0.00001468,-0.00000291,-0.00000152,-0.00000407,-0.00000094,-0.00
 000182,0.00000062,-0.00000188,-0.00000007,0.00000498,-0.00000162,0.000
 00049,0.00001037,-0.00000079,-0.00000388,0.00000448,-0.00000017,-0.000
 00214,0.00000100,0.00000252,-0.00000207,0.00000424,0.00000179,-0.00000
 278,0.00000591,0.00000114,-0.00000149,0.00000634,0.00000241,-0.0000020
 9,0.00000454,0.00000164,-0.00000098,0.00000490,0.00000432,-0.00000223,
 0.00000503,0.00000407,0.00000071,0.00000358,0.00000445,-0.00000074,0.0
 0000249,0.00000224,-0.00000084,0.00000187,0.00000685,-0.00000117,0.000
 00087,0.00000569,0.00000026,0.00000015,0.00000567,0.00000056,0.0000038
 9,-0.00001095,0.00000846,-0.00000689,-0.00000140,-0.00000321,0.0000025
 6,0.00002942,-0.00000323,-0.00000538,0.00000883,-0.00000064,0.00001067
 \\\@


 A MAN THINKING OR WORKING IS ALWAYS ALONE, 
 LET HIM BE WHERE HE WILL.

                                    -- THOREAU
 Job cpu time:      22 days  0 hours 41 minutes 18.0 seconds.
 File lengths (MBytes):  RWF=  17312 Int=      0 D2E=      0 Chk=     99 Scr=      1
 Normal termination of Gaussian 09 at Thu May  5 14:19:35 2016.
