 Entering Gaussian System, Link 0=g09
 Initial command:
 /share/apps//g09/l1.exe "/scratch/Gau-9603.inp" -scrdir="/scratch/"
 Entering Link 1 = /share/apps//g09/l1.exe PID=      9604.
  
 Copyright (c) 1988,1990,1992,1993,1995,1998,2003,2009,2013,
            Gaussian, Inc.  All Rights Reserved.
  
 This is part of the Gaussian(R) 09 program.  It is based on
 the Gaussian(R) 03 system (copyright 2003, Gaussian, Inc.),
 the Gaussian(R) 98 system (copyright 1998, Gaussian, Inc.),
 the Gaussian(R) 94 system (copyright 1995, Gaussian, Inc.),
 the Gaussian 92(TM) system (copyright 1992, Gaussian, Inc.),
 the Gaussian 90(TM) system (copyright 1990, Gaussian, Inc.),
 the Gaussian 88(TM) system (copyright 1988, Gaussian, Inc.),
 the Gaussian 86(TM) system (copyright 1986, Carnegie Mellon
 University), and the Gaussian 82(TM) system (copyright 1983,
 Carnegie Mellon University). Gaussian is a federally registered
 trademark of Gaussian, Inc.
  
 This software contains proprietary and confidential information,
 including trade secrets, belonging to Gaussian, Inc.
  
 This software is provided under written license and may be
 used, copied, transmitted, or stored only in accord with that
 written license.
  
 The following legend is applicable only to US Government
 contracts under FAR:
  
                    RESTRICTED RIGHTS LEGEND
  
 Use, reproduction and disclosure by the US Government is
 subject to restrictions as set forth in subparagraphs (a)
 and (c) of the Commercial Computer Software - Restricted
 Rights clause in FAR 52.227-19.
  
 Gaussian, Inc.
 340 Quinnipiac St., Bldg. 40, Wallingford CT 06492
  
  
 ---------------------------------------------------------------
 Warning -- This program may not be used in any manner that
 competes with the business of Gaussian, Inc. or will provide
 assistance to any competitor of Gaussian, Inc.  The licensee
 of this program is prohibited from giving any competitor of
 Gaussian, Inc. access to this program.  By using this program,
 the user acknowledges that Gaussian, Inc. is engaged in the
 business of creating and licensing software in the field of
 computational chemistry and represents and warrants to the
 licensee that it is not a competitor of Gaussian, Inc. and that
 it will not use this program in any manner prohibited above.
 ---------------------------------------------------------------
  

 Cite this work as:
 Gaussian 09, Revision D.01,
 M. J. Frisch, G. W. Trucks, H. B. Schlegel, G. E. Scuseria, 
 M. A. Robb, J. R. Cheeseman, G. Scalmani, V. Barone, B. Mennucci, 
 G. A. Petersson, H. Nakatsuji, M. Caricato, X. Li, H. P. Hratchian, 
 A. F. Izmaylov, J. Bloino, G. Zheng, J. L. Sonnenberg, M. Hada, 
 M. Ehara, K. Toyota, R. Fukuda, J. Hasegawa, M. Ishida, T. Nakajima, 
 Y. Honda, O. Kitao, H. Nakai, T. Vreven, J. A. Montgomery, Jr., 
 J. E. Peralta, F. Ogliaro, M. Bearpark, J. J. Heyd, E. Brothers, 
 K. N. Kudin, V. N. Staroverov, T. Keith, R. Kobayashi, J. Normand, 
 K. Raghavachari, A. Rendell, J. C. Burant, S. S. Iyengar, J. Tomasi, 
 M. Cossi, N. Rega, J. M. Millam, M. Klene, J. E. Knox, J. B. Cross, 
 V. Bakken, C. Adamo, J. Jaramillo, R. Gomperts, R. E. Stratmann, 
 O. Yazyev, A. J. Austin, R. Cammi, C. Pomelli, J. W. Ochterski, 
 R. L. Martin, K. Morokuma, V. G. Zakrzewski, G. A. Voth, 
 P. Salvador, J. J. Dannenberg, S. Dapprich, A. D. Daniels, 
 O. Farkas, J. B. Foresman, J. V. Ortiz, J. Cioslowski, 
 and D. J. Fox, Gaussian, Inc., Wallingford CT, 2013.
 
 ******************************************
 Gaussian 09:  EM64L-G09RevD.01 24-Apr-2013
                27-Apr-2016 
 ******************************************
 %nproc=20
 Will use up to   20 processors via shared memory.
 %mem=80GB
 %chk=Tri_A131_of.chk
 ----------------------------------------------------------------------
 #P PBE1PBE/6-311+G(d,p) opt=ModRedundant freq optcyc=999 EmpiricalDisp
 ersion=GD3
 ----------------------------------------------------------------------
 1/6=999,14=-1,18=120,19=15,26=3,38=1/1,3;
 2/9=110,12=2,17=6,18=5,40=1/2;
 3/5=4,6=6,7=111,11=2,16=1,25=1,30=1,71=1,74=-13,124=31/1,2,3;
 4//1;
 5/5=2,38=5/2;
 6/7=2,8=2,9=2,10=2,28=1/1;
 7//1,2,3,16;
 1/6=999,14=-1,18=20,19=15,26=3/3(2);
 2/9=110/2;
 99//99;
 2/9=110/2;
 3/5=4,6=6,7=111,11=2,16=1,25=1,30=1,71=1,74=-13,124=31/1,2,3;
 4/5=5,16=3,69=1/1;
 5/5=2,38=5/2;
 7//1,2,3,16;
 1/6=999,14=-1,18=20,19=15,26=3/3(-5);
 2/9=110/2;
 6/7=2,8=2,9=2,10=2,19=2,28=1/1;
 99/9=1/99;
 Leave Link    1 at Wed Apr 27 06:02:03 2016, MaxMem= 10737418240 cpu:         2.3
 (Enter /share/apps//g09/l101.exe)
 -----
 trich
 -----
 Symbolic Z-matrix:
 Charge =  1 Multiplicity = 1
 O                    -3.10284  -3.09541   7.77173 
 C                    -4.15021  -2.51068   6.94199 
 C                    -5.48603  -3.19447   7.2694 
 C                    -5.24226  -4.69405   7.56744 
 C                    -3.98033  -5.2322    6.88495 
 C                    -2.7454   -4.43752   7.35851 
 H                    -3.91593  -2.68594   5.88189 
 H                    -6.12448  -3.10759   6.37059 
 H                    -5.11696  -4.78014   8.66217 
 H                    -3.84975  -6.2871    7.18666 
 H                    -2.36258  -4.90205   8.27975 
 O                    -4.09608  -5.15154   5.45703 
 O                    -6.3089   -5.5249    7.10644 
 O                    -6.13654  -2.66065   8.41499 
 O                    -4.23812  -1.15246   7.24033 
 C                    -1.62239  -4.39198   6.31667 
 H                    -1.27083  -5.41336   6.11288 
 H                    -1.98426  -3.96534   5.36909 
 O                    -0.48158  -3.65209   6.80507 
 H                    -0.78135  -2.74641   7.05093 
 H                    -4.96107  -5.54857   5.24078 
 H                    -7.12842  -5.25124   7.55439 
 H                    -6.20142  -1.69587   8.29191 
 O                    -0.67077   0.64969   5.79392 
 C                    -1.66471   0.371     4.81062 
 C                    -2.70666  -0.66274   5.30845 
 C                    -3.26581  -0.23914   6.6645 
 C                    -2.13512   0.05653   7.66729 
 C                    -1.1685    1.08292   7.06223 
 H                    -2.19013   1.29417   4.50295 
 H                    -2.1791   -1.62473   5.42347 
 H                    -3.84299   0.69056   6.52463 
 H                    -2.58834   0.49224   8.57559 
 H                    -1.72177   2.03841   6.95264 
 O                    -1.38986  -1.12143   8.03925 
 O                    -3.76768  -0.77877   4.38151 
 O                    -0.99055  -0.04844   3.64618 
 C                     0.06571   1.36125   7.92471 
 H                     0.64931   2.17286   7.4703 
 H                    -0.25309   1.68761   8.92891 
 O                     0.94787   0.2316    8.01802 
 H                     0.38076  -0.50362   8.3397 
 H                    -2.05164  -1.82287   8.27789 
 H                    -3.40848  -1.31078   3.63807 
 O                     2.02503  -2.16708   3.40811 
 C                     1.60235  -3.17547   2.48861 
 C                     0.12293  -3.51474   2.68771 
 C                    -0.74266  -2.25883   2.7155 
 C                    -0.21931  -1.25845   3.74781 
 C                     1.26467  -0.94513   3.46094 
 H                     1.80161  -2.8563    1.44482 
 H                     0.02776  -4.0207    3.66878 
 H                    -0.72402  -1.77794   1.71884 
 H                     1.33266  -0.40116   2.49856 
 H                    -0.28978  -1.68723   4.75976 
 O                    -2.0915   -2.62169   3.04503 
 O                    -0.39211  -4.33747   1.64563 
 O                     2.32546  -4.339     2.80419 
 C                     1.96805  -0.10862   4.52959 
 H                     2.9831    0.11519   4.16537 
 H                     1.42466   0.83303   4.67236 
 O                     2.08005  -0.82231   5.76888 
 H                     1.61175  -0.33838   6.50499 
 H                    -2.34266  -3.34051   2.43397 
 H                     0.05583  -5.20117   1.68613 
 C                     3.73103  -4.32729   2.40569 
 H                     3.948    -5.36002   2.09522 
 H                     3.84257  -3.67392   1.52601 
 C                     4.65249  -3.88235   3.53723 
 H                     4.3514   -2.87263   3.85181 
 H                     5.6627   -3.77292   3.11292 
 C                     4.69889  -4.8508    4.7472 
 H                     3.89136  -5.59865   4.66165 
 H                     5.62775  -5.43494   4.69748 
 C                     4.61495  -4.16973   6.13332 
 H                     5.28511  -4.67602   6.84331 
 H                     4.9755   -3.13051   6.07055 
 C                     3.22691  -4.20119   6.77099 
 H                     3.21971  -3.68127   7.73831 
 H                     2.90791  -5.23911   6.94424 
 N                     2.1809   -3.55618   5.91462 
 H                     2.27906  -2.50013   5.84346 
 H                     1.20773  -3.71958   6.27293 
 H                     2.22274  -3.9084    4.94334 
 
 The following ModRedundant input section has been read:
 B      45      84 B                                                           
 B      58      84 B                                                           
 B      56      84 B                                                           
 B      41      82 B                                                           
 B      62      82 B                                                           
 B      35      82 B                                                           
 B      13      83 B                                                           
 B      19      83 B                                                           
 B      14      83 B                                                           
 
 NAtoms=     84 NQM=       84 NQMF=       0 NMMI=      0 NMMIF=      0
                NMic=       0 NMicF=      0.
                    Isotopes and Nuclear Properties:
 (Nuclear quadrupole moments (NQMom) in fm**2, nuclear magnetic moments (NMagM)
  in nuclear magnetons)

  Atom         1           2           3           4           5           6           7           8           9          10
 IAtWgt=          16          12          12          12          12          12           1           1           1           1
 AtmWgt=  15.9949146  12.0000000  12.0000000  12.0000000  12.0000000  12.0000000   1.0078250   1.0078250   1.0078250   1.0078250
 NucSpn=           0           0           0           0           0           0           1           1           1           1
 AtZEff=   0.0000000   0.0000000   0.0000000   0.0000000   0.0000000   0.0000000   0.0000000   0.0000000   0.0000000   0.0000000
 NQMom=    0.0000000   0.0000000   0.0000000   0.0000000   0.0000000   0.0000000   0.0000000   0.0000000   0.0000000   0.0000000
 NMagM=    0.0000000   0.0000000   0.0000000   0.0000000   0.0000000   0.0000000   2.7928460   2.7928460   2.7928460   2.7928460
 AtZNuc=   8.0000000   6.0000000   6.0000000   6.0000000   6.0000000   6.0000000   1.0000000   1.0000000   1.0000000   1.0000000

  Atom        11          12          13          14          15          16          17          18          19          20
 IAtWgt=           1          16          16          16          16          12           1           1          16           1
 AtmWgt=   1.0078250  15.9949146  15.9949146  15.9949146  15.9949146  12.0000000   1.0078250   1.0078250  15.9949146   1.0078250
 NucSpn=           1           0           0           0           0           0           1           1           0           1
 AtZEff=   0.0000000   0.0000000   0.0000000   0.0000000   0.0000000   0.0000000   0.0000000   0.0000000   0.0000000   0.0000000
 NQMom=    0.0000000   0.0000000   0.0000000   0.0000000   0.0000000   0.0000000   0.0000000   0.0000000   0.0000000   0.0000000
 NMagM=    2.7928460   0.0000000   0.0000000   0.0000000   0.0000000   0.0000000   2.7928460   2.7928460   0.0000000   2.7928460
 AtZNuc=   1.0000000   8.0000000   8.0000000   8.0000000   8.0000000   6.0000000   1.0000000   1.0000000   8.0000000   1.0000000

  Atom        21          22          23          24          25          26          27          28          29          30
 IAtWgt=           1           1           1          16          12          12          12          12          12           1
 AtmWgt=   1.0078250   1.0078250   1.0078250  15.9949146  12.0000000  12.0000000  12.0000000  12.0000000  12.0000000   1.0078250
 NucSpn=           1           1           1           0           0           0           0           0           0           1
 AtZEff=   0.0000000   0.0000000   0.0000000   0.0000000   0.0000000   0.0000000   0.0000000   0.0000000   0.0000000   0.0000000
 NQMom=    0.0000000   0.0000000   0.0000000   0.0000000   0.0000000   0.0000000   0.0000000   0.0000000   0.0000000   0.0000000
 NMagM=    2.7928460   2.7928460   2.7928460   0.0000000   0.0000000   0.0000000   0.0000000   0.0000000   0.0000000   2.7928460
 AtZNuc=   1.0000000   1.0000000   1.0000000   8.0000000   6.0000000   6.0000000   6.0000000   6.0000000   6.0000000   1.0000000

  Atom        31          32          33          34          35          36          37          38          39          40
 IAtWgt=           1           1           1           1          16          16          16          12           1           1
 AtmWgt=   1.0078250   1.0078250   1.0078250   1.0078250  15.9949146  15.9949146  15.9949146  12.0000000   1.0078250   1.0078250
 NucSpn=           1           1           1           1           0           0           0           0           1           1
 AtZEff=   0.0000000   0.0000000   0.0000000   0.0000000   0.0000000   0.0000000   0.0000000   0.0000000   0.0000000   0.0000000
 NQMom=    0.0000000   0.0000000   0.0000000   0.0000000   0.0000000   0.0000000   0.0000000   0.0000000   0.0000000   0.0000000
 NMagM=    2.7928460   2.7928460   2.7928460   2.7928460   0.0000000   0.0000000   0.0000000   0.0000000   2.7928460   2.7928460
 AtZNuc=   1.0000000   1.0000000   1.0000000   1.0000000   8.0000000   8.0000000   8.0000000   6.0000000   1.0000000   1.0000000

  Atom        41          42          43          44          45          46          47          48          49          50
 IAtWgt=          16           1           1           1          16          12          12          12          12          12
 AtmWgt=  15.9949146   1.0078250   1.0078250   1.0078250  15.9949146  12.0000000  12.0000000  12.0000000  12.0000000  12.0000000
 NucSpn=           0           1           1           1           0           0           0           0           0           0
 AtZEff=   0.0000000   0.0000000   0.0000000   0.0000000   0.0000000   0.0000000   0.0000000   0.0000000   0.0000000   0.0000000
 NQMom=    0.0000000   0.0000000   0.0000000   0.0000000   0.0000000   0.0000000   0.0000000   0.0000000   0.0000000   0.0000000
 NMagM=    0.0000000   2.7928460   2.7928460   2.7928460   0.0000000   0.0000000   0.0000000   0.0000000   0.0000000   0.0000000
 AtZNuc=   8.0000000   1.0000000   1.0000000   1.0000000   8.0000000   6.0000000   6.0000000   6.0000000   6.0000000   6.0000000

  Atom        51          52          53          54          55          56          57          58          59          60
 IAtWgt=           1           1           1           1           1          16          16          16          12           1
 AtmWgt=   1.0078250   1.0078250   1.0078250   1.0078250   1.0078250  15.9949146  15.9949146  15.9949146  12.0000000   1.0078250
 NucSpn=           1           1           1           1           1           0           0           0           0           1
 AtZEff=   0.0000000   0.0000000   0.0000000   0.0000000   0.0000000   0.0000000   0.0000000   0.0000000   0.0000000   0.0000000
 NQMom=    0.0000000   0.0000000   0.0000000   0.0000000   0.0000000   0.0000000   0.0000000   0.0000000   0.0000000   0.0000000
 NMagM=    2.7928460   2.7928460   2.7928460   2.7928460   2.7928460   0.0000000   0.0000000   0.0000000   0.0000000   2.7928460
 AtZNuc=   1.0000000   1.0000000   1.0000000   1.0000000   1.0000000   8.0000000   8.0000000   8.0000000   6.0000000   1.0000000

  Atom        61          62          63          64          65          66          67          68          69          70
 IAtWgt=           1          16           1           1           1          12           1           1          12           1
 AtmWgt=   1.0078250  15.9949146   1.0078250   1.0078250   1.0078250  12.0000000   1.0078250   1.0078250  12.0000000   1.0078250
 NucSpn=           1           0           1           1           1           0           1           1           0           1
 AtZEff=   0.0000000   0.0000000   0.0000000   0.0000000   0.0000000   0.0000000   0.0000000   0.0000000   0.0000000   0.0000000
 NQMom=    0.0000000   0.0000000   0.0000000   0.0000000   0.0000000   0.0000000   0.0000000   0.0000000   0.0000000   0.0000000
 NMagM=    2.7928460   0.0000000   2.7928460   2.7928460   2.7928460   0.0000000   2.7928460   2.7928460   0.0000000   2.7928460
 AtZNuc=   1.0000000   8.0000000   1.0000000   1.0000000   1.0000000   6.0000000   1.0000000   1.0000000   6.0000000   1.0000000

  Atom        71          72          73          74          75          76          77          78          79          80
 IAtWgt=           1          12           1           1          12           1           1          12           1           1
 AtmWgt=   1.0078250  12.0000000   1.0078250   1.0078250  12.0000000   1.0078250   1.0078250  12.0000000   1.0078250   1.0078250
 NucSpn=           1           0           1           1           0           1           1           0           1           1
 AtZEff=   0.0000000   0.0000000   0.0000000   0.0000000   0.0000000   0.0000000   0.0000000   0.0000000   0.0000000   0.0000000
 NQMom=    0.0000000   0.0000000   0.0000000   0.0000000   0.0000000   0.0000000   0.0000000   0.0000000   0.0000000   0.0000000
 NMagM=    2.7928460   0.0000000   2.7928460   2.7928460   0.0000000   2.7928460   2.7928460   0.0000000   2.7928460   2.7928460
 AtZNuc=   1.0000000   6.0000000   1.0000000   1.0000000   6.0000000   1.0000000   1.0000000   6.0000000   1.0000000   1.0000000

  Atom        81          82          83          84
 IAtWgt=          14           1           1           1
 AtmWgt=  14.0030740   1.0078250   1.0078250   1.0078250
 NucSpn=           2           1           1           1
 AtZEff=   0.0000000   0.0000000   0.0000000   0.0000000
 NQMom=    2.0440000   0.0000000   0.0000000   0.0000000
 NMagM=    0.4037610   2.7928460   2.7928460   2.7928460
 AtZNuc=   7.0000000   1.0000000   1.0000000   1.0000000
 Leave Link  101 at Wed Apr 27 06:02:04 2016, MaxMem= 10737418240 cpu:         4.5
 (Enter /share/apps//g09/l103.exe)

 GradGradGradGradGradGradGradGradGradGradGradGradGradGradGradGradGradGrad
 Berny optimization.
 Initialization pass.
                           ----------------------------
                           !    Initial Parameters    !
                           ! (Angstroms and Degrees)  !
 --------------------------                            --------------------------
 ! Name  Definition              Value          Derivative Info.                !
 --------------------------------------------------------------------------------
 ! R1    R(1,2)                  1.4585         estimate D2E/DX2                !
 ! R2    R(1,6)                  1.4491         estimate D2E/DX2                !
 ! R3    R(2,3)                  1.536          estimate D2E/DX2                !
 ! R4    R(2,7)                  1.0997         estimate D2E/DX2                !
 ! R5    R(2,15)                 1.3934         estimate D2E/DX2                !
 ! R6    R(3,4)                  1.5482         estimate D2E/DX2                !
 ! R7    R(3,8)                  1.1059         estimate D2E/DX2                !
 ! R8    R(3,14)                 1.4214         estimate D2E/DX2                !
 ! R9    R(4,5)                  1.5323         estimate D2E/DX2                !
 ! R10   R(4,9)                  1.1052         estimate D2E/DX2                !
 ! R11   R(4,13)                 1.4285         estimate D2E/DX2                !
 ! R12   R(5,6)                  1.543          estimate D2E/DX2                !
 ! R13   R(5,10)                 1.1049         estimate D2E/DX2                !
 ! R14   R(5,12)                 1.4349         estimate D2E/DX2                !
 ! R15   R(6,11)                 1.1005         estimate D2E/DX2                !
 ! R16   R(6,16)                 1.5325         estimate D2E/DX2                !
 ! R17   R(12,21)                0.976          estimate D2E/DX2                !
 ! R18   R(13,22)                0.9732         estimate D2E/DX2                !
 ! R19   R(13,83)                7.7752         estimate D2E/DX2                !
 ! R20   R(14,23)                0.9748         estimate D2E/DX2                !
 ! R21   R(14,83)                7.7232         estimate D2E/DX2                !
 ! R22   R(15,27)                1.453          estimate D2E/DX2                !
 ! R23   R(16,17)                1.0992         estimate D2E/DX2                !
 ! R24   R(16,18)                1.1004         estimate D2E/DX2                !
 ! R25   R(16,19)                1.4448         estimate D2E/DX2                !
 ! R26   R(19,20)                0.9852         estimate D2E/DX2                !
 ! R27   R(19,83)                1.7724         estimate D2E/DX2                !
 ! R28   R(24,25)                1.4256         estimate D2E/DX2                !
 ! R29   R(24,29)                1.4297         estimate D2E/DX2                !
 ! R30   R(25,26)                1.5499         estimate D2E/DX2                !
 ! R31   R(25,30)                1.1059         estimate D2E/DX2                !
 ! R32   R(25,37)                1.4094         estimate D2E/DX2                !
 ! R33   R(26,27)                1.5267         estimate D2E/DX2                !
 ! R34   R(26,31)                1.1032         estimate D2E/DX2                !
 ! R35   R(26,36)                1.4137         estimate D2E/DX2                !
 ! R36   R(27,28)                1.54           estimate D2E/DX2                !
 ! R37   R(27,32)                1.1032         estimate D2E/DX2                !
 ! R38   R(28,29)                1.5343         estimate D2E/DX2                !
 ! R39   R(28,33)                1.1047         estimate D2E/DX2                !
 ! R40   R(28,35)                1.4427         estimate D2E/DX2                !
 ! R41   R(29,34)                1.1095         estimate D2E/DX2                !
 ! R42   R(29,38)                1.5312         estimate D2E/DX2                !
 ! R43   R(35,43)                0.9934         estimate D2E/DX2                !
 ! R44   R(35,82)                4.4926         estimate D2E/DX2                !
 ! R45   R(36,44)                0.9822         estimate D2E/DX2                !
 ! R46   R(37,49)                1.4385         estimate D2E/DX2                !
 ! R47   R(38,39)                1.0981         estimate D2E/DX2                !
 ! R48   R(38,40)                1.103          estimate D2E/DX2                !
 ! R49   R(38,41)                1.4363         estimate D2E/DX2                !
 ! R50   R(41,42)                0.9827         estimate D2E/DX2                !
 ! R51   R(41,82)                3.7367         estimate D2E/DX2                !
 ! R52   R(45,46)                1.4286         estimate D2E/DX2                !
 ! R53   R(45,50)                1.4402         estimate D2E/DX2                !
 ! R54   R(45,84)                2.3299         estimate D2E/DX2                !
 ! R55   R(46,47)                1.5308         estimate D2E/DX2                !
 ! R56   R(46,51)                1.1095         estimate D2E/DX2                !
 ! R57   R(46,58)                1.4058         estimate D2E/DX2                !
 ! R58   R(47,48)                1.5256         estimate D2E/DX2                !
 ! R59   R(47,52)                1.1079         estimate D2E/DX2                !
 ! R60   R(47,57)                1.4241         estimate D2E/DX2                !
 ! R61   R(48,49)                1.5298         estimate D2E/DX2                !
 ! R62   R(48,53)                1.1068         estimate D2E/DX2                !
 ! R63   R(48,56)                1.4351         estimate D2E/DX2                !
 ! R64   R(49,50)                1.5436         estimate D2E/DX2                !
 ! R65   R(49,55)                1.1013         estimate D2E/DX2                !
 ! R66   R(50,54)                1.1076         estimate D2E/DX2                !
 ! R67   R(50,59)                1.5286         estimate D2E/DX2                !
 ! R68   R(56,64)                0.9763         estimate D2E/DX2                !
 ! R69   R(56,84)                4.8859         estimate D2E/DX2                !
 ! R70   R(57,65)                0.9738         estimate D2E/DX2                !
 ! R71   R(58,66)                1.461          estimate D2E/DX2                !
 ! R72   R(58,84)                2.1845         estimate D2E/DX2                !
 ! R73   R(59,60)                1.1014         estimate D2E/DX2                !
 ! R74   R(59,61)                1.0965         estimate D2E/DX2                !
 ! R75   R(59,62)                1.4345         estimate D2E/DX2                !
 ! R76   R(62,63)                0.9977         estimate D2E/DX2                !
 ! R77   R(62,82)                1.6912         estimate D2E/DX2                !
 ! R78   R(66,67)                1.1            estimate D2E/DX2                !
 ! R79   R(66,68)                1.1014         estimate D2E/DX2                !
 ! R80   R(66,69)                1.5256         estimate D2E/DX2                !
 ! R81   R(69,70)                1.0996         estimate D2E/DX2                !
 ! R82   R(69,71)                1.1012         estimate D2E/DX2                !
 ! R83   R(69,72)                1.5505         estimate D2E/DX2                !
 ! R84   R(72,73)                1.1039         estimate D2E/DX2                !
 ! R85   R(72,74)                1.0984         estimate D2E/DX2                !
 ! R86   R(72,75)                1.5467         estimate D2E/DX2                !
 ! R87   R(75,76)                1.0998         estimate D2E/DX2                !
 ! R88   R(75,77)                1.1018         estimate D2E/DX2                !
 ! R89   R(75,78)                1.5278         estimate D2E/DX2                !
 ! R90   R(78,79)                1.0982         estimate D2E/DX2                !
 ! R91   R(78,80)                1.0996         estimate D2E/DX2                !
 ! R92   R(78,81)                1.4978         estimate D2E/DX2                !
 ! R93   R(81,82)                1.063          estimate D2E/DX2                !
 ! R94   R(81,83)                1.0498         estimate D2E/DX2                !
 ! R95   R(81,84)                1.034          estimate D2E/DX2                !
 ! A1    A(2,1,6)              112.7193         estimate D2E/DX2                !
 ! A2    A(1,2,3)              108.9523         estimate D2E/DX2                !
 ! A3    A(1,2,7)              109.3606         estimate D2E/DX2                !
 ! A4    A(1,2,15)             108.3176         estimate D2E/DX2                !
 ! A5    A(3,2,7)              108.6513         estimate D2E/DX2                !
 ! A6    A(3,2,15)             109.4779         estimate D2E/DX2                !
 ! A7    A(7,2,15)             112.0356         estimate D2E/DX2                !
 ! A8    A(2,3,4)              109.5908         estimate D2E/DX2                !
 ! A9    A(2,3,8)              107.0895         estimate D2E/DX2                !
 ! A10   A(2,3,14)             113.7417         estimate D2E/DX2                !
 ! A11   A(4,3,8)              108.8714         estimate D2E/DX2                !
 ! A12   A(4,3,14)             106.2995         estimate D2E/DX2                !
 ! A13   A(8,3,14)             111.1806         estimate D2E/DX2                !
 ! A14   A(3,4,5)              112.5881         estimate D2E/DX2                !
 ! A15   A(3,4,9)              106.4973         estimate D2E/DX2                !
 ! A16   A(3,4,13)             112.5609         estimate D2E/DX2                !
 ! A17   A(5,4,9)              108.6903         estimate D2E/DX2                !
 ! A18   A(5,4,13)             105.482          estimate D2E/DX2                !
 ! A19   A(9,4,13)             111.0388         estimate D2E/DX2                !
 ! A20   A(4,5,6)              109.9717         estimate D2E/DX2                !
 ! A21   A(4,5,10)             108.1201         estimate D2E/DX2                !
 ! A22   A(4,5,12)             110.9205         estimate D2E/DX2                !
 ! A23   A(6,5,10)             108.259          estimate D2E/DX2                !
 ! A24   A(6,5,12)             109.9399         estimate D2E/DX2                !
 ! A25   A(10,5,12)            109.5685         estimate D2E/DX2                !
 ! A26   A(1,6,5)              111.5375         estimate D2E/DX2                !
 ! A27   A(1,6,11)             103.7717         estimate D2E/DX2                !
 ! A28   A(1,6,16)             110.3096         estimate D2E/DX2                !
 ! A29   A(5,6,11)             108.5384         estimate D2E/DX2                !
 ! A30   A(5,6,16)             113.1501         estimate D2E/DX2                !
 ! A31   A(11,6,16)            109.0704         estimate D2E/DX2                !
 ! A32   A(5,12,21)            105.6117         estimate D2E/DX2                !
 ! A33   A(4,13,22)            108.4623         estimate D2E/DX2                !
 ! A34   A(4,13,83)             34.6825         estimate D2E/DX2                !
 ! A35   A(22,13,83)           142.9508         estimate D2E/DX2                !
 ! A36   A(3,14,23)            107.4816         estimate D2E/DX2                !
 ! A37   A(3,14,83)             44.7484         estimate D2E/DX2                !
 ! A38   A(23,14,83)            99.438          estimate D2E/DX2                !
 ! A39   A(2,15,27)            119.0553         estimate D2E/DX2                !
 ! A40   A(6,16,17)            109.4375         estimate D2E/DX2                !
 ! A41   A(6,16,18)            110.8516         estimate D2E/DX2                !
 ! A42   A(6,16,19)            111.3471         estimate D2E/DX2                !
 ! A43   A(17,16,18)           107.805          estimate D2E/DX2                !
 ! A44   A(17,16,19)           106.617          estimate D2E/DX2                !
 ! A45   A(18,16,19)           110.6224         estimate D2E/DX2                !
 ! A46   A(16,19,20)           108.354          estimate D2E/DX2                !
 ! A47   A(16,19,83)           129.167          estimate D2E/DX2                !
 ! A48   A(20,19,83)           113.5747         estimate D2E/DX2                !
 ! A49   A(25,24,29)           115.3651         estimate D2E/DX2                !
 ! A50   A(24,25,26)           112.1817         estimate D2E/DX2                !
 ! A51   A(24,25,30)           111.0969         estimate D2E/DX2                !
 ! A52   A(24,25,37)           107.13           estimate D2E/DX2                !
 ! A53   A(26,25,30)           109.071          estimate D2E/DX2                !
 ! A54   A(26,25,37)           112.8589         estimate D2E/DX2                !
 ! A55   A(30,25,37)           104.2316         estimate D2E/DX2                !
 ! A56   A(25,26,27)           110.2704         estimate D2E/DX2                !
 ! A57   A(25,26,31)           107.0746         estimate D2E/DX2                !
 ! A58   A(25,26,36)           110.4082         estimate D2E/DX2                !
 ! A59   A(27,26,31)           108.9342         estimate D2E/DX2                !
 ! A60   A(27,26,36)           109.2861         estimate D2E/DX2                !
 ! A61   A(31,26,36)           110.8376         estimate D2E/DX2                !
 ! A62   A(15,27,26)           115.0039         estimate D2E/DX2                !
 ! A63   A(15,27,28)           110.7296         estimate D2E/DX2                !
 ! A64   A(15,27,32)           103.2893         estimate D2E/DX2                !
 ! A65   A(26,27,28)           111.2687         estimate D2E/DX2                !
 ! A66   A(26,27,32)           108.2292         estimate D2E/DX2                !
 ! A67   A(28,27,32)           107.7522         estimate D2E/DX2                !
 ! A68   A(27,28,29)           109.5255         estimate D2E/DX2                !
 ! A69   A(27,28,33)           108.0543         estimate D2E/DX2                !
 ! A70   A(27,28,35)           112.9801         estimate D2E/DX2                !
 ! A71   A(29,28,33)           108.5958         estimate D2E/DX2                !
 ! A72   A(29,28,35)           108.811          estimate D2E/DX2                !
 ! A73   A(33,28,35)           108.784          estimate D2E/DX2                !
 ! A74   A(24,29,28)           111.498          estimate D2E/DX2                !
 ! A75   A(24,29,34)           110.2995         estimate D2E/DX2                !
 ! A76   A(24,29,38)           105.9116         estimate D2E/DX2                !
 ! A77   A(28,29,34)           107.5112         estimate D2E/DX2                !
 ! A78   A(28,29,38)           114.0348         estimate D2E/DX2                !
 ! A79   A(34,29,38)           107.5194         estimate D2E/DX2                !
 ! A80   A(28,35,43)           107.1171         estimate D2E/DX2                !
 ! A81   A(28,35,82)           123.1222         estimate D2E/DX2                !
 ! A82   A(43,35,82)           116.4071         estimate D2E/DX2                !
 ! A83   A(26,36,44)           105.4429         estimate D2E/DX2                !
 ! A84   A(25,37,49)           116.6426         estimate D2E/DX2                !
 ! A85   A(29,38,39)           109.2471         estimate D2E/DX2                !
 ! A86   A(29,38,40)           109.4895         estimate D2E/DX2                !
 ! A87   A(29,38,41)           112.8725         estimate D2E/DX2                !
 ! A88   A(39,38,40)           108.1604         estimate D2E/DX2                !
 ! A89   A(39,38,41)           106.3658         estimate D2E/DX2                !
 ! A90   A(40,38,41)           110.5538         estimate D2E/DX2                !
 ! A91   A(38,41,42)           104.7887         estimate D2E/DX2                !
 ! A92   A(38,41,82)           139.1088         estimate D2E/DX2                !
 ! A93   A(42,41,82)            81.3228         estimate D2E/DX2                !
 ! A94   A(46,45,50)           117.794          estimate D2E/DX2                !
 ! A95   A(46,45,84)            85.5075         estimate D2E/DX2                !
 ! A96   A(50,45,84)           130.9027         estimate D2E/DX2                !
 ! A97   A(45,46,47)           111.0174         estimate D2E/DX2                !
 ! A98   A(45,46,51)           110.445          estimate D2E/DX2                !
 ! A99   A(45,46,58)           106.7103         estimate D2E/DX2                !
 ! A100  A(47,46,51)           111.0796         estimate D2E/DX2                !
 ! A101  A(47,46,58)           106.5274         estimate D2E/DX2                !
 ! A102  A(51,46,58)           110.9094         estimate D2E/DX2                !
 ! A103  A(46,47,48)           111.6081         estimate D2E/DX2                !
 ! A104  A(46,47,52)           107.4208         estimate D2E/DX2                !
 ! A105  A(46,47,57)           112.4811         estimate D2E/DX2                !
 ! A106  A(48,47,52)           108.1243         estimate D2E/DX2                !
 ! A107  A(48,47,57)           106.483          estimate D2E/DX2                !
 ! A108  A(52,47,57)           110.6745         estimate D2E/DX2                !
 ! A109  A(47,48,49)           110.8871         estimate D2E/DX2                !
 ! A110  A(47,48,53)           109.3744         estimate D2E/DX2                !
 ! A111  A(47,48,56)           109.2267         estimate D2E/DX2                !
 ! A112  A(49,48,53)           108.5283         estimate D2E/DX2                !
 ! A113  A(49,48,56)           109.3856         estimate D2E/DX2                !
 ! A114  A(53,48,56)           109.4181         estimate D2E/DX2                !
 ! A115  A(37,49,48)           108.6005         estimate D2E/DX2                !
 ! A116  A(37,49,50)           109.3641         estimate D2E/DX2                !
 ! A117  A(37,49,55)           110.9842         estimate D2E/DX2                !
 ! A118  A(48,49,50)           109.6466         estimate D2E/DX2                !
 ! A119  A(48,49,55)           110.0939         estimate D2E/DX2                !
 ! A120  A(50,49,55)           108.1385         estimate D2E/DX2                !
 ! A121  A(45,50,49)           110.0091         estimate D2E/DX2                !
 ! A122  A(45,50,54)           110.6363         estimate D2E/DX2                !
 ! A123  A(45,50,59)           104.3018         estimate D2E/DX2                !
 ! A124  A(49,50,54)           108.6746         estimate D2E/DX2                !
 ! A125  A(49,50,59)           115.0584         estimate D2E/DX2                !
 ! A126  A(54,50,59)           108.0864         estimate D2E/DX2                !
 ! A127  A(48,56,64)           106.5127         estimate D2E/DX2                !
 ! A128  A(48,56,84)            47.6153         estimate D2E/DX2                !
 ! A129  A(64,56,84)           106.0476         estimate D2E/DX2                !
 ! A130  A(47,57,65)           108.3976         estimate D2E/DX2                !
 ! A131  A(46,58,66)           115.2768         estimate D2E/DX2                !
 ! A132  A(46,58,84)            91.8619         estimate D2E/DX2                !
 ! A133  A(66,58,84)           108.1047         estimate D2E/DX2                !
 ! A134  A(50,59,60)           107.7038         estimate D2E/DX2                !
 ! A135  A(50,59,61)           109.448          estimate D2E/DX2                !
 ! A136  A(50,59,62)           111.5705         estimate D2E/DX2                !
 ! A137  A(60,59,61)           108.9813         estimate D2E/DX2                !
 ! A138  A(60,59,62)           108.3509         estimate D2E/DX2                !
 ! A139  A(61,59,62)           110.6991         estimate D2E/DX2                !
 ! A140  A(59,62,63)           111.0666         estimate D2E/DX2                !
 ! A141  A(59,62,82)           122.7426         estimate D2E/DX2                !
 ! A142  A(63,62,82)           120.2591         estimate D2E/DX2                !
 ! A143  A(58,66,67)           105.0237         estimate D2E/DX2                !
 ! A144  A(58,66,68)           108.6641         estimate D2E/DX2                !
 ! A145  A(58,66,69)           112.4026         estimate D2E/DX2                !
 ! A146  A(67,66,68)           108.1512         estimate D2E/DX2                !
 ! A147  A(67,66,69)           111.3473         estimate D2E/DX2                !
 ! A148  A(68,66,69)           110.9897         estimate D2E/DX2                !
 ! A149  A(66,69,70)           108.3374         estimate D2E/DX2                !
 ! A150  A(66,69,71)           107.2953         estimate D2E/DX2                !
 ! A151  A(66,69,72)           114.5013         estimate D2E/DX2                !
 ! A152  A(70,69,71)           105.6752         estimate D2E/DX2                !
 ! A153  A(70,69,72)           111.0071         estimate D2E/DX2                !
 ! A154  A(71,69,72)           109.5919         estimate D2E/DX2                !
 ! A155  A(69,72,73)           109.9232         estimate D2E/DX2                !
 ! A156  A(69,72,74)           108.7932         estimate D2E/DX2                !
 ! A157  A(69,72,75)           115.0049         estimate D2E/DX2                !
 ! A158  A(73,72,74)           104.7625         estimate D2E/DX2                !
 ! A159  A(73,72,75)           109.1506         estimate D2E/DX2                !
 ! A160  A(74,72,75)           108.7017         estimate D2E/DX2                !
 ! A161  A(72,75,76)           110.0457         estimate D2E/DX2                !
 ! A162  A(72,75,77)           110.2748         estimate D2E/DX2                !
 ! A163  A(72,75,78)           114.474          estimate D2E/DX2                !
 ! A164  A(76,75,77)           105.7587         estimate D2E/DX2                !
 ! A165  A(76,75,78)           105.943          estimate D2E/DX2                !
 ! A166  A(77,75,78)           109.9075         estimate D2E/DX2                !
 ! A167  A(75,78,79)           111.3357         estimate D2E/DX2                !
 ! A168  A(75,78,80)           110.4119         estimate D2E/DX2                !
 ! A169  A(75,78,81)           112.7652         estimate D2E/DX2                !
 ! A170  A(79,78,80)           107.8301         estimate D2E/DX2                !
 ! A171  A(79,78,81)           107.1662         estimate D2E/DX2                !
 ! A172  A(80,78,81)           107.0955         estimate D2E/DX2                !
 ! A173  A(78,81,82)           113.6783         estimate D2E/DX2                !
 ! A174  A(78,81,83)           112.6555         estimate D2E/DX2                !
 ! A175  A(78,81,84)           111.2294         estimate D2E/DX2                !
 ! A176  A(82,81,83)           105.2527         estimate D2E/DX2                !
 ! A177  A(82,81,84)           105.7709         estimate D2E/DX2                !
 ! A178  A(83,81,84)           107.7633         estimate D2E/DX2                !
 ! A179  A(35,82,41)            36.8977         estimate D2E/DX2                !
 ! A180  A(35,82,62)            67.7285         estimate D2E/DX2                !
 ! A181  A(35,82,81)           101.3469         estimate D2E/DX2                !
 ! A182  A(41,82,62)            42.1397         estimate D2E/DX2                !
 ! A183  A(41,82,81)           130.876          estimate D2E/DX2                !
 ! A184  A(13,83,14)            23.4787         estimate D2E/DX2                !
 ! A185  A(13,83,19)            19.1341         estimate D2E/DX2                !
 ! A186  A(14,83,81)           162.7106         estimate D2E/DX2                !
 ! A187  A(45,84,56)            58.1447         estimate D2E/DX2                !
 ! A188  A(45,84,58)            60.3994         estimate D2E/DX2                !
 ! A189  A(45,84,81)           111.1578         estimate D2E/DX2                !
 ! A190  A(56,84,58)            73.3195         estimate D2E/DX2                !
 ! A191  A(56,84,81)           103.8582         estimate D2E/DX2                !
 ! A192  L(62,82,81,35,-1)     169.0754         estimate D2E/DX2                !
 ! A193  L(13,83,81,14,-1)     186.1893         estimate D2E/DX2                !
 ! A194  L(14,83,19,13,-1)      42.6128         estimate D2E/DX2                !
 ! A195  L(19,83,81,24,-1)     168.5366         estimate D2E/DX2                !
 ! A196  L(58,84,81,45,-1)     171.5572         estimate D2E/DX2                !
 ! A197  L(62,82,81,35,-2)     174.4898         estimate D2E/DX2                !
 ! A198  L(13,83,81,14,-2)     218.1508         estimate D2E/DX2                !
 ! A199  L(14,83,19,13,-2)     349.2445         estimate D2E/DX2                !
 ! A200  L(19,83,81,24,-2)     180.0679         estimate D2E/DX2                !
 ! A201  L(58,84,81,45,-2)     181.5045         estimate D2E/DX2                !
 ! D1    D(6,1,2,3)             72.4921         estimate D2E/DX2                !
 ! D2    D(6,1,2,7)            -46.1325         estimate D2E/DX2                !
 ! D3    D(6,1,2,15)          -168.4916         estimate D2E/DX2                !
 ! D4    D(2,1,6,5)            -37.0668         estimate D2E/DX2                !
 ! D5    D(2,1,6,11)          -153.7243         estimate D2E/DX2                !
 ! D6    D(2,1,6,16)            89.5697         estimate D2E/DX2                !
 ! D7    D(1,2,3,4)            -36.1187         estimate D2E/DX2                !
 ! D8    D(1,2,3,8)           -154.062          estimate D2E/DX2                !
 ! D9    D(1,2,3,14)            82.6965         estimate D2E/DX2                !
 ! D10   D(7,2,3,4)             82.9495         estimate D2E/DX2                !
 ! D11   D(7,2,3,8)            -34.9938         estimate D2E/DX2                !
 ! D12   D(7,2,3,14)          -158.2353         estimate D2E/DX2                !
 ! D13   D(15,2,3,4)          -154.408          estimate D2E/DX2                !
 ! D14   D(15,2,3,8)            87.6487         estimate D2E/DX2                !
 ! D15   D(15,2,3,14)          -35.5928         estimate D2E/DX2                !
 ! D16   D(1,2,15,27)           79.1848         estimate D2E/DX2                !
 ! D17   D(3,2,15,27)         -162.1314         estimate D2E/DX2                !
 ! D18   D(7,2,15,27)          -41.5271         estimate D2E/DX2                !
 ! D19   D(2,3,4,5)            -25.7246         estimate D2E/DX2                !
 ! D20   D(2,3,4,9)             93.3001         estimate D2E/DX2                !
 ! D21   D(2,3,4,13)          -144.7967         estimate D2E/DX2                !
 ! D22   D(8,3,4,5)             91.1023         estimate D2E/DX2                !
 ! D23   D(8,3,4,9)           -149.8731         estimate D2E/DX2                !
 ! D24   D(8,3,4,13)           -27.9699         estimate D2E/DX2                !
 ! D25   D(14,3,4,5)          -149.0448         estimate D2E/DX2                !
 ! D26   D(14,3,4,9)           -30.0201         estimate D2E/DX2                !
 ! D27   D(14,3,4,13)           91.883          estimate D2E/DX2                !
 ! D28   D(2,3,14,23)           52.5746         estimate D2E/DX2                !
 ! D29   D(2,3,14,83)          -33.2093         estimate D2E/DX2                !
 ! D30   D(4,3,14,23)          173.2552         estimate D2E/DX2                !
 ! D31   D(4,3,14,83)           87.4714         estimate D2E/DX2                !
 ! D32   D(8,3,14,23)          -68.4043         estimate D2E/DX2                !
 ! D33   D(8,3,14,83)         -154.1882         estimate D2E/DX2                !
 ! D34   D(3,4,5,6)             59.1533         estimate D2E/DX2                !
 ! D35   D(3,4,5,10)           177.1668         estimate D2E/DX2                !
 ! D36   D(3,4,5,12)           -62.6758         estimate D2E/DX2                !
 ! D37   D(9,4,5,6)            -58.5842         estimate D2E/DX2                !
 ! D38   D(9,4,5,10)            59.4293         estimate D2E/DX2                !
 ! D39   D(9,4,5,12)           179.5867         estimate D2E/DX2                !
 ! D40   D(13,4,5,6)          -177.7251         estimate D2E/DX2                !
 ! D41   D(13,4,5,10)          -59.7116         estimate D2E/DX2                !
 ! D42   D(13,4,5,12)           60.4458         estimate D2E/DX2                !
 ! D43   D(3,4,13,22)          -60.0104         estimate D2E/DX2                !
 ! D44   D(3,4,13,83)          115.012          estimate D2E/DX2                !
 ! D45   D(5,4,13,22)          176.8506         estimate D2E/DX2                !
 ! D46   D(5,4,13,83)           -8.1269         estimate D2E/DX2                !
 ! D47   D(9,4,13,22)           59.2822         estimate D2E/DX2                !
 ! D48   D(9,4,13,83)         -125.6954         estimate D2E/DX2                !
 ! D49   D(4,5,6,1)            -26.7258         estimate D2E/DX2                !
 ! D50   D(4,5,6,11)            86.9949         estimate D2E/DX2                !
 ! D51   D(4,5,6,16)          -151.7954         estimate D2E/DX2                !
 ! D52   D(10,5,6,1)          -144.6533         estimate D2E/DX2                !
 ! D53   D(10,5,6,11)          -30.9326         estimate D2E/DX2                !
 ! D54   D(10,5,6,16)           90.277          estimate D2E/DX2                !
 ! D55   D(12,5,6,1)            95.6852         estimate D2E/DX2                !
 ! D56   D(12,5,6,11)         -150.5941         estimate D2E/DX2                !
 ! D57   D(12,5,6,16)          -29.3845         estimate D2E/DX2                !
 ! D58   D(4,5,12,21)          -49.4859         estimate D2E/DX2                !
 ! D59   D(6,5,12,21)         -171.3336         estimate D2E/DX2                !
 ! D60   D(10,5,12,21)          69.8057         estimate D2E/DX2                !
 ! D61   D(1,6,16,17)          172.5122         estimate D2E/DX2                !
 ! D62   D(1,6,16,18)          -68.7108         estimate D2E/DX2                !
 ! D63   D(1,6,16,19)           54.898          estimate D2E/DX2                !
 ! D64   D(5,6,16,17)          -61.7574         estimate D2E/DX2                !
 ! D65   D(5,6,16,18)           57.0195         estimate D2E/DX2                !
 ! D66   D(5,6,16,19)         -179.3717         estimate D2E/DX2                !
 ! D67   D(11,6,16,17)          59.1514         estimate D2E/DX2                !
 ! D68   D(11,6,16,18)         177.9284         estimate D2E/DX2                !
 ! D69   D(11,6,16,19)         -58.4628         estimate D2E/DX2                !
 ! D70   D(4,13,83,14)         -19.7031         estimate D2E/DX2                !
 ! D71   D(4,13,83,19)          -8.9476         estimate D2E/DX2                !
 ! D72   D(22,13,83,14)        -11.8522         estimate D2E/DX2                !
 ! D73   D(22,13,83,19)         -1.0967         estimate D2E/DX2                !
 ! D74   D(3,14,83,13)         -41.586          estimate D2E/DX2                !
 ! D75   D(3,14,83,81)         100.2632         estimate D2E/DX2                !
 ! D76   D(23,14,83,13)       -146.945          estimate D2E/DX2                !
 ! D77   D(23,14,83,81)         -5.0959         estimate D2E/DX2                !
 ! D78   D(2,15,27,26)          29.5746         estimate D2E/DX2                !
 ! D79   D(2,15,27,28)         -97.6161         estimate D2E/DX2                !
 ! D80   D(2,15,27,32)         147.2734         estimate D2E/DX2                !
 ! D81   D(6,16,19,20)         -57.1185         estimate D2E/DX2                !
 ! D82   D(6,16,19,83)         158.4163         estimate D2E/DX2                !
 ! D83   D(17,16,19,20)       -176.4262         estimate D2E/DX2                !
 ! D84   D(17,16,19,83)         39.1085         estimate D2E/DX2                !
 ! D85   D(18,16,19,20)         66.6206         estimate D2E/DX2                !
 ! D86   D(18,16,19,83)        -77.8446         estimate D2E/DX2                !
 ! D87   D(16,19,83,13)        -11.1643         estimate D2E/DX2                !
 ! D88   D(20,19,83,13)       -154.161          estimate D2E/DX2                !
 ! D89   D(29,24,25,26)        -55.1092         estimate D2E/DX2                !
 ! D90   D(29,24,25,30)         67.269          estimate D2E/DX2                !
 ! D91   D(29,24,25,37)       -179.4871         estimate D2E/DX2                !
 ! D92   D(25,24,29,28)         57.2345         estimate D2E/DX2                !
 ! D93   D(25,24,29,34)        -62.1389         estimate D2E/DX2                !
 ! D94   D(25,24,29,38)       -178.1917         estimate D2E/DX2                !
 ! D95   D(24,25,26,27)         51.3676         estimate D2E/DX2                !
 ! D96   D(24,25,26,31)        -67.0109         estimate D2E/DX2                !
 ! D97   D(24,25,26,36)        172.237          estimate D2E/DX2                !
 ! D98   D(30,25,26,27)        -72.1535         estimate D2E/DX2                !
 ! D99   D(30,25,26,31)        169.468          estimate D2E/DX2                !
 ! D100  D(30,25,26,36)         48.7159         estimate D2E/DX2                !
 ! D101  D(37,25,26,27)        172.5039         estimate D2E/DX2                !
 ! D102  D(37,25,26,31)         54.1253         estimate D2E/DX2                !
 ! D103  D(37,25,26,36)        -66.6268         estimate D2E/DX2                !
 ! D104  D(24,25,37,49)         62.8206         estimate D2E/DX2                !
 ! D105  D(26,25,37,49)        -61.1438         estimate D2E/DX2                !
 ! D106  D(30,25,37,49)       -179.3557         estimate D2E/DX2                !
 ! D107  D(25,26,27,15)       -178.918          estimate D2E/DX2                !
 ! D108  D(25,26,27,28)        -52.0013         estimate D2E/DX2                !
 ! D109  D(25,26,27,32)         66.2067         estimate D2E/DX2                !
 ! D110  D(31,26,27,15)        -61.6856         estimate D2E/DX2                !
 ! D111  D(31,26,27,28)         65.2311         estimate D2E/DX2                !
 ! D112  D(31,26,27,32)       -176.5609         estimate D2E/DX2                !
 ! D113  D(36,26,27,15)         59.5439         estimate D2E/DX2                !
 ! D114  D(36,26,27,28)       -173.5393         estimate D2E/DX2                !
 ! D115  D(36,26,27,32)        -55.3314         estimate D2E/DX2                !
 ! D116  D(25,26,36,44)         75.8685         estimate D2E/DX2                !
 ! D117  D(27,26,36,44)       -162.6768         estimate D2E/DX2                !
 ! D118  D(31,26,36,44)        -42.6093         estimate D2E/DX2                !
 ! D119  D(15,27,28,29)       -176.8124         estimate D2E/DX2                !
 ! D120  D(15,27,28,33)        -58.6831         estimate D2E/DX2                !
 ! D121  D(15,27,28,35)         61.7214         estimate D2E/DX2                !
 ! D122  D(26,27,28,29)         53.9685         estimate D2E/DX2                !
 ! D123  D(26,27,28,33)        172.0978         estimate D2E/DX2                !
 ! D124  D(26,27,28,35)        -67.4976         estimate D2E/DX2                !
 ! D125  D(32,27,28,29)        -64.5265         estimate D2E/DX2                !
 ! D126  D(32,27,28,33)         53.6028         estimate D2E/DX2                !
 ! D127  D(32,27,28,35)        174.0073         estimate D2E/DX2                !
 ! D128  D(27,28,29,24)        -55.0206         estimate D2E/DX2                !
 ! D129  D(27,28,29,34)         65.994          estimate D2E/DX2                !
 ! D130  D(27,28,29,38)       -174.9065         estimate D2E/DX2                !
 ! D131  D(33,28,29,24)       -172.8122         estimate D2E/DX2                !
 ! D132  D(33,28,29,34)        -51.7975         estimate D2E/DX2                !
 ! D133  D(33,28,29,38)         67.3019         estimate D2E/DX2                !
 ! D134  D(35,28,29,24)         68.9249         estimate D2E/DX2                !
 ! D135  D(35,28,29,34)       -170.0605         estimate D2E/DX2                !
 ! D136  D(35,28,29,38)        -50.961          estimate D2E/DX2                !
 ! D137  D(27,28,35,43)        -48.4873         estimate D2E/DX2                !
 ! D138  D(27,28,35,82)         90.6762         estimate D2E/DX2                !
 ! D139  D(29,28,35,43)       -170.3561         estimate D2E/DX2                !
 ! D140  D(29,28,35,82)        -31.1926         estimate D2E/DX2                !
 ! D141  D(33,28,35,43)         71.4997         estimate D2E/DX2                !
 ! D142  D(33,28,35,82)       -149.3369         estimate D2E/DX2                !
 ! D143  D(24,29,38,39)         62.5498         estimate D2E/DX2                !
 ! D144  D(24,29,38,40)       -179.1711         estimate D2E/DX2                !
 ! D145  D(24,29,38,41)        -55.5633         estimate D2E/DX2                !
 ! D146  D(28,29,38,39)       -174.4681         estimate D2E/DX2                !
 ! D147  D(28,29,38,40)        -56.189          estimate D2E/DX2                !
 ! D148  D(28,29,38,41)         67.4188         estimate D2E/DX2                !
 ! D149  D(34,29,38,39)        -55.3733         estimate D2E/DX2                !
 ! D150  D(34,29,38,40)         62.9058         estimate D2E/DX2                !
 ! D151  D(34,29,38,41)       -173.4864         estimate D2E/DX2                !
 ! D152  D(28,35,82,41)         67.3166         estimate D2E/DX2                !
 ! D153  D(28,35,82,62)         29.4184         estimate D2E/DX2                !
 ! D154  D(28,35,82,81)       -145.0714         estimate D2E/DX2                !
 ! D155  D(43,35,82,41)       -156.9297         estimate D2E/DX2                !
 ! D156  D(43,35,82,62)        165.1722         estimate D2E/DX2                !
 ! D157  D(43,35,82,81)         -9.3176         estimate D2E/DX2                !
 ! D158  D(25,37,49,48)        121.7253         estimate D2E/DX2                !
 ! D159  D(25,37,49,50)       -118.6513         estimate D2E/DX2                !
 ! D160  D(25,37,49,55)          0.5723         estimate D2E/DX2                !
 ! D161  D(29,38,41,42)        -54.6045         estimate D2E/DX2                !
 ! D162  D(29,38,41,82)         39.2089         estimate D2E/DX2                !
 ! D163  D(39,38,41,42)       -174.3907         estimate D2E/DX2                !
 ! D164  D(39,38,41,82)        -80.5774         estimate D2E/DX2                !
 ! D165  D(40,38,41,42)         68.4132         estimate D2E/DX2                !
 ! D166  D(40,38,41,82)        162.2265         estimate D2E/DX2                !
 ! D167  D(38,41,82,35)        -74.2562         estimate D2E/DX2                !
 ! D168  D(38,41,82,62)         47.8331         estimate D2E/DX2                !
 ! D169  D(38,41,82,81)       -118.2488         estimate D2E/DX2                !
 ! D170  D(42,41,82,35)         28.3473         estimate D2E/DX2                !
 ! D171  D(42,41,82,62)        150.4367         estimate D2E/DX2                !
 ! D172  D(42,41,82,81)        -15.6452         estimate D2E/DX2                !
 ! D173  D(50,45,46,47)        -53.2399         estimate D2E/DX2                !
 ! D174  D(50,45,46,51)         70.4316         estimate D2E/DX2                !
 ! D175  D(50,45,46,58)       -168.9317         estimate D2E/DX2                !
 ! D176  D(84,45,46,47)         81.2703         estimate D2E/DX2                !
 ! D177  D(84,45,46,51)       -155.0582         estimate D2E/DX2                !
 ! D178  D(84,45,46,58)        -34.4215         estimate D2E/DX2                !
 ! D179  D(46,45,50,49)         55.7644         estimate D2E/DX2                !
 ! D180  D(46,45,50,54)        -64.3193         estimate D2E/DX2                !
 ! D181  D(46,45,50,59)        179.6819         estimate D2E/DX2                !
 ! D182  D(84,45,50,49)        -54.0812         estimate D2E/DX2                !
 ! D183  D(84,45,50,54)       -174.1649         estimate D2E/DX2                !
 ! D184  D(84,45,50,59)         69.8362         estimate D2E/DX2                !
 ! D185  D(46,45,84,56)        -64.3332         estimate D2E/DX2                !
 ! D186  D(46,45,84,58)         23.6229         estimate D2E/DX2                !
 ! D187  D(46,45,84,81)       -157.8816         estimate D2E/DX2                !
 ! D188  D(50,45,84,56)         59.0867         estimate D2E/DX2                !
 ! D189  D(50,45,84,58)        147.0428         estimate D2E/DX2                !
 ! D190  D(50,45,84,81)        -34.4617         estimate D2E/DX2                !
 ! D191  D(45,46,47,48)         50.0728         estimate D2E/DX2                !
 ! D192  D(45,46,47,52)        -68.2841         estimate D2E/DX2                !
 ! D193  D(45,46,47,57)        169.6891         estimate D2E/DX2                !
 ! D194  D(51,46,47,48)        -73.235          estimate D2E/DX2                !
 ! D195  D(51,46,47,52)        168.408          estimate D2E/DX2                !
 ! D196  D(51,46,47,57)         46.3813         estimate D2E/DX2                !
 ! D197  D(58,46,47,48)        165.8777         estimate D2E/DX2                !
 ! D198  D(58,46,47,52)         47.5208         estimate D2E/DX2                !
 ! D199  D(58,46,47,57)        -74.5059         estimate D2E/DX2                !
 ! D200  D(45,46,58,66)        -74.083          estimate D2E/DX2                !
 ! D201  D(45,46,58,84)         36.9675         estimate D2E/DX2                !
 ! D202  D(47,46,58,66)        167.2522         estimate D2E/DX2                !
 ! D203  D(47,46,58,84)        -81.6974         estimate D2E/DX2                !
 ! D204  D(51,46,58,66)         46.256          estimate D2E/DX2                !
 ! D205  D(51,46,58,84)        157.3065         estimate D2E/DX2                !
 ! D206  D(46,47,48,49)        -53.3037         estimate D2E/DX2                !
 ! D207  D(46,47,48,53)         66.3484         estimate D2E/DX2                !
 ! D208  D(46,47,48,56)       -173.9239         estimate D2E/DX2                !
 ! D209  D(52,47,48,49)         64.6318         estimate D2E/DX2                !
 ! D210  D(52,47,48,53)       -175.7161         estimate D2E/DX2                !
 ! D211  D(52,47,48,56)        -55.9885         estimate D2E/DX2                !
 ! D212  D(57,47,48,49)       -176.4042         estimate D2E/DX2                !
 ! D213  D(57,47,48,53)        -56.752          estimate D2E/DX2                !
 ! D214  D(57,47,48,56)         62.9756         estimate D2E/DX2                !
 ! D215  D(46,47,57,65)         65.5246         estimate D2E/DX2                !
 ! D216  D(48,47,57,65)       -171.923          estimate D2E/DX2                !
 ! D217  D(52,47,57,65)        -54.6393         estimate D2E/DX2                !
 ! D218  D(47,48,49,37)        174.6892         estimate D2E/DX2                !
 ! D219  D(47,48,49,50)         55.2423         estimate D2E/DX2                !
 ! D220  D(47,48,49,55)        -63.6119         estimate D2E/DX2                !
 ! D221  D(53,48,49,37)         54.5318         estimate D2E/DX2                !
 ! D222  D(53,48,49,50)        -64.915          estimate D2E/DX2                !
 ! D223  D(53,48,49,55)        176.2307         estimate D2E/DX2                !
 ! D224  D(56,48,49,37)        -64.7848         estimate D2E/DX2                !
 ! D225  D(56,48,49,50)        175.7683         estimate D2E/DX2                !
 ! D226  D(56,48,49,55)         56.9141         estimate D2E/DX2                !
 ! D227  D(47,48,56,64)        -51.3696         estimate D2E/DX2                !
 ! D228  D(47,48,56,84)         45.5107         estimate D2E/DX2                !
 ! D229  D(49,48,56,64)       -172.9033         estimate D2E/DX2                !
 ! D230  D(49,48,56,84)        -76.023          estimate D2E/DX2                !
 ! D231  D(53,48,56,64)         68.3311         estimate D2E/DX2                !
 ! D232  D(53,48,56,84)        165.2114         estimate D2E/DX2                !
 ! D233  D(37,49,50,45)       -173.4666         estimate D2E/DX2                !
 ! D234  D(37,49,50,54)        -52.2016         estimate D2E/DX2                !
 ! D235  D(37,49,50,59)         69.1158         estimate D2E/DX2                !
 ! D236  D(48,49,50,45)        -54.4895         estimate D2E/DX2                !
 ! D237  D(48,49,50,54)         66.7755         estimate D2E/DX2                !
 ! D238  D(48,49,50,59)       -171.907          estimate D2E/DX2                !
 ! D239  D(55,49,50,45)         65.565          estimate D2E/DX2                !
 ! D240  D(55,49,50,54)       -173.17           estimate D2E/DX2                !
 ! D241  D(55,49,50,59)        -51.8526         estimate D2E/DX2                !
 ! D242  D(45,50,59,60)         64.2248         estimate D2E/DX2                !
 ! D243  D(45,50,59,61)       -177.4288         estimate D2E/DX2                !
 ! D244  D(45,50,59,62)        -54.5633         estimate D2E/DX2                !
 ! D245  D(49,50,59,60)       -175.1784         estimate D2E/DX2                !
 ! D246  D(49,50,59,61)        -56.8319         estimate D2E/DX2                !
 ! D247  D(49,50,59,62)         66.0336         estimate D2E/DX2                !
 ! D248  D(54,50,59,60)        -53.5417         estimate D2E/DX2                !
 ! D249  D(54,50,59,61)         64.8047         estimate D2E/DX2                !
 ! D250  D(54,50,59,62)       -172.3298         estimate D2E/DX2                !
 ! D251  D(48,56,84,45)         10.7899         estimate D2E/DX2                !
 ! D252  D(48,56,84,58)        -54.3188         estimate D2E/DX2                !
 ! D253  D(48,56,84,81)        117.3123         estimate D2E/DX2                !
 ! D254  D(64,56,84,45)        108.7157         estimate D2E/DX2                !
 ! D255  D(64,56,84,58)         43.607          estimate D2E/DX2                !
 ! D256  D(64,56,84,81)       -144.762          estimate D2E/DX2                !
 ! D257  D(46,58,66,67)       -143.7673         estimate D2E/DX2                !
 ! D258  D(46,58,66,68)        -28.229          estimate D2E/DX2                !
 ! D259  D(46,58,66,69)         95.0138         estimate D2E/DX2                !
 ! D260  D(84,58,66,67)        115.1523         estimate D2E/DX2                !
 ! D261  D(84,58,66,68)       -129.3094         estimate D2E/DX2                !
 ! D262  D(84,58,66,69)         -6.0666         estimate D2E/DX2                !
 ! D263  D(46,58,84,45)        -23.9654         estimate D2E/DX2                !
 ! D264  D(46,58,84,56)         38.4256         estimate D2E/DX2                !
 ! D265  D(66,58,84,45)         93.428          estimate D2E/DX2                !
 ! D266  D(66,58,84,56)        155.8191         estimate D2E/DX2                !
 ! D267  D(50,59,62,63)       -119.9412         estimate D2E/DX2                !
 ! D268  D(50,59,62,82)         32.8957         estimate D2E/DX2                !
 ! D269  D(60,59,62,63)        121.657          estimate D2E/DX2                !
 ! D270  D(60,59,62,82)        -85.506          estimate D2E/DX2                !
 ! D271  D(61,59,62,63)          2.2068         estimate D2E/DX2                !
 ! D272  D(61,59,62,82)        155.0437         estimate D2E/DX2                !
 ! D273  D(59,62,82,35)       -121.8548         estimate D2E/DX2                !
 ! D274  D(59,62,82,41)       -155.1991         estimate D2E/DX2                !
 ! D275  D(63,62,82,35)         28.5935         estimate D2E/DX2                !
 ! D276  D(63,62,82,41)         -4.7508         estimate D2E/DX2                !
 ! D277  D(58,66,69,70)        -58.8469         estimate D2E/DX2                !
 ! D278  D(58,66,69,71)       -172.5076         estimate D2E/DX2                !
 ! D279  D(58,66,69,72)         65.6312         estimate D2E/DX2                !
 ! D280  D(67,66,69,70)       -176.3725         estimate D2E/DX2                !
 ! D281  D(67,66,69,71)         69.9668         estimate D2E/DX2                !
 ! D282  D(67,66,69,72)        -51.8944         estimate D2E/DX2                !
 ! D283  D(68,66,69,70)         63.084          estimate D2E/DX2                !
 ! D284  D(68,66,69,71)        -50.5768         estimate D2E/DX2                !
 ! D285  D(68,66,69,72)       -172.438          estimate D2E/DX2                !
 ! D286  D(66,69,72,73)        -11.5428         estimate D2E/DX2                !
 ! D287  D(66,69,72,74)        102.6394         estimate D2E/DX2                !
 ! D288  D(66,69,72,75)       -135.1899         estimate D2E/DX2                !
 ! D289  D(70,69,72,73)        111.5075         estimate D2E/DX2                !
 ! D290  D(70,69,72,74)       -134.3104         estimate D2E/DX2                !
 ! D291  D(70,69,72,75)        -12.1397         estimate D2E/DX2                !
 ! D292  D(71,69,72,73)       -132.1406         estimate D2E/DX2                !
 ! D293  D(71,69,72,74)        -17.9585         estimate D2E/DX2                !
 ! D294  D(71,69,72,75)        104.2122         estimate D2E/DX2                !
 ! D295  D(69,72,75,76)       -141.3253         estimate D2E/DX2                !
 ! D296  D(69,72,75,77)        -25.0309         estimate D2E/DX2                !
 ! D297  D(69,72,75,78)         99.5087         estimate D2E/DX2                !
 ! D298  D(73,72,75,76)         94.6189         estimate D2E/DX2                !
 ! D299  D(73,72,75,77)       -149.0867         estimate D2E/DX2                !
 ! D300  D(73,72,75,78)        -24.5471         estimate D2E/DX2                !
 ! D301  D(74,72,75,76)        -19.1052         estimate D2E/DX2                !
 ! D302  D(74,72,75,77)         97.1892         estimate D2E/DX2                !
 ! D303  D(74,72,75,78)       -138.2712         estimate D2E/DX2                !
 ! D304  D(72,75,78,79)       -178.4654         estimate D2E/DX2                !
 ! D305  D(72,75,78,80)         61.792          estimate D2E/DX2                !
 ! D306  D(72,75,78,81)        -57.9651         estimate D2E/DX2                !
 ! D307  D(76,75,78,79)         60.088          estimate D2E/DX2                !
 ! D308  D(76,75,78,80)        -59.6546         estimate D2E/DX2                !
 ! D309  D(76,75,78,81)       -179.4117         estimate D2E/DX2                !
 ! D310  D(77,75,78,79)        -53.7314         estimate D2E/DX2                !
 ! D311  D(77,75,78,80)       -173.4739         estimate D2E/DX2                !
 ! D312  D(77,75,78,81)         66.769          estimate D2E/DX2                !
 ! D313  D(75,78,81,82)        -70.0818         estimate D2E/DX2                !
 ! D314  D(75,78,81,83)        170.2936         estimate D2E/DX2                !
 ! D315  D(75,78,81,84)         49.1753         estimate D2E/DX2                !
 ! D316  D(79,78,81,82)         52.7788         estimate D2E/DX2                !
 ! D317  D(79,78,81,83)        -66.8458         estimate D2E/DX2                !
 ! D318  D(79,78,81,84)        172.0359         estimate D2E/DX2                !
 ! D319  D(80,78,81,82)        168.2647         estimate D2E/DX2                !
 ! D320  D(80,78,81,83)         48.6402         estimate D2E/DX2                !
 ! D321  D(80,78,81,84)        -72.4781         estimate D2E/DX2                !
 ! D322  D(78,81,82,35)       -112.5269         estimate D2E/DX2                !
 ! D323  D(78,81,82,41)        -87.3559         estimate D2E/DX2                !
 ! D324  D(83,81,82,35)         11.2203         estimate D2E/DX2                !
 ! D325  D(83,81,82,41)         36.3913         estimate D2E/DX2                !
 ! D326  D(84,81,82,35)        125.1494         estimate D2E/DX2                !
 ! D327  D(84,81,82,41)        150.3204         estimate D2E/DX2                !
 ! D328  D(78,81,83,14)        135.8418         estimate D2E/DX2                !
 ! D329  D(82,81,83,14)         11.4474         estimate D2E/DX2                !
 ! D330  D(84,81,83,14)       -101.083          estimate D2E/DX2                !
 ! D331  D(78,81,84,45)       -136.1734         estimate D2E/DX2                !
 ! D332  D(78,81,84,56)        162.9972         estimate D2E/DX2                !
 ! D333  D(82,81,84,45)        -12.2971         estimate D2E/DX2                !
 ! D334  D(82,81,84,56)        -73.1264         estimate D2E/DX2                !
 ! D335  D(83,81,84,45)         99.8836         estimate D2E/DX2                !
 ! D336  D(83,81,84,56)         39.0543         estimate D2E/DX2                !
 --------------------------------------------------------------------------------
 Trust Radius=3.00D-01 FncErr=1.00D-07 GrdErr=1.00D-06
 Number of steps in this run=    504 maximum allowed number of steps=    504.
 GradGradGradGradGradGradGradGradGradGradGradGradGradGradGradGradGradGrad

 Leave Link  103 at Wed Apr 27 06:02:05 2016, MaxMem= 10737418240 cpu:         5.1
 (Enter /share/apps//g09/l202.exe)
 Stoichiometry    C23H44NO16(1+)
 Framework group  C1[X(C23H44NO16)]
 Deg. of freedom   246
 Full point group                 C1      NOp   1
 Largest Abelian subgroup         C1      NOp   1
 Largest concise Abelian subgroup C1      NOp   1
                         Standard orientation:                         
 ---------------------------------------------------------------------
 Center     Atomic      Atomic             Coordinates (Angstroms)
 Number     Number       Type             X           Y           Z
 ---------------------------------------------------------------------
      1          8           0        2.957213   -0.405684   -1.383389
      2          6           0        3.625756   -0.251877   -0.096239
      3          6           0        4.950288   -1.028992   -0.126058
      4          6           0        4.771811   -2.327616   -0.949897
      5          6           0        3.320196   -2.817847   -0.968716
      6          6           0        2.405020   -1.732026   -1.572266
      7          1           0        2.989927   -0.670907    0.697203
      8          1           0        5.192460   -1.298655    0.918768
      9          1           0        5.078021   -2.087603   -1.984389
     10          1           0        3.268062   -3.712790   -1.614667
     11          1           0        2.389160   -1.855934   -2.665618
     12          8           0        2.875432   -3.153046    0.353662
     13          8           0        5.535323   -3.416614   -0.428662
     14          8           0        6.019095   -0.315132   -0.733148
     15          8           0        3.886031    1.102400    0.102975
     16          6           0        0.968808   -1.790923   -1.040777
     17          1           0        0.518407   -2.756810   -1.310116
     18          1           0        0.953382   -1.706712    0.056287
     19          8           0        0.143449   -0.768382   -1.641287
     20          1           0        0.557145    0.107970   -1.464006
     21          1           0        3.568781   -3.730665    0.725452
     22          1           0        6.476326   -3.168780   -0.444622
     23          1           0        6.076000    0.554341   -0.296184
     24          8           0        0.125349    2.997752    0.678075
     25          6           0        0.644724    2.300166    1.807716
     26          6           0        1.748747    1.286647    1.412718
     27          6           0        2.810148    1.968960    0.553162
     28          6           0        2.173307    2.710446   -0.636838
     29          6           0        1.096576    3.675150   -0.123101
     30          1           0        1.051713    3.003841    2.557496
     31          1           0        1.263091    0.493579    0.819290
     32          1           0        3.330295    2.716457    1.175847
     33          1           0        2.963755    3.298518   -1.136461
     34          1           0        1.607697    4.459330    0.472630
     35          8           0        1.577119    1.819177   -1.602010
     36          8           0        2.359350    0.747635    2.568172
     37          8           0       -0.447832    1.693363    2.459217
     38          6           0        0.309130    4.378630   -1.232000
     39          1           0       -0.366624    5.118390   -0.782666
     40          1           0        1.008059    4.911553   -1.898373
     41          8           0       -0.519088    3.478994   -1.985479
     42          1           0        0.093466    2.777815   -2.299751
     43          1           0        2.246085    1.111621   -1.798909
     44          1           0        1.715002    0.098223    2.925724
     45          8           0       -3.414162    0.116047    0.925594
     46          6           0       -3.429718   -1.161457    1.564914
     47          6           0       -2.006838   -1.671055    1.808119
     48          6           0       -1.140900   -0.615792    2.489220
     49          6           0       -1.174502    0.701672    1.712381
     50          6           0       -2.636907    1.163304    1.536517
     51          1           0       -4.003898   -1.113363    2.513110
     52          1           0       -1.561540   -1.896253    0.818903
     53          1           0       -1.523007   -0.431197    3.511400
     54          1           0       -3.048155    1.425185    2.530999
     55          1           0       -0.736326    0.562136    0.711685
     56          8           0        0.211421   -1.090434    2.563845
     57          8           0       -1.976385   -2.821547    2.646881
     58          8           0       -4.026766   -2.058194    0.661766
     59          6           0       -2.829694    2.365084    0.611820
     60          1           0       -3.894845    2.643649    0.642273
     61          1           0       -2.230217    3.207162    0.977734
     62          8           0       -2.484357    2.048114   -0.743912
     63          1           0       -1.744712    2.632047   -1.071477
     64          1           0        0.171449   -1.980648    2.962716
     65          1           0       -2.413154   -3.555065    2.178423
     66          6           0       -5.474493   -1.925855    0.516375
     67          1           0       -5.843044   -2.953927    0.385085
     68          1           0       -5.888561   -1.530446    1.457316
     69          6           0       -5.861789   -1.041919   -0.665193
     70          1           0       -5.415310   -0.048329   -0.514912
     71          1           0       -6.951185   -0.889027   -0.616417
     72          6           0       -5.479380   -1.619065   -2.052543
     73          1           0       -4.804480   -2.483656   -1.927261
     74          1           0       -6.380697   -2.033580   -2.524008
     75          6           0       -4.831548   -0.606540   -3.025855
     76          1           0       -5.195875   -0.780906   -4.048788
     77          1           0       -5.139195    0.419895   -2.769537
     78          6           0       -3.307906   -0.688951   -3.103273
     79          1           0       -2.901003    0.068366   -3.786631
     80          1           0       -2.995487   -1.676955   -3.471100
     81          7           0       -2.648152   -0.485137   -1.774090
     82          1           0       -2.716829    0.511847   -1.411809
     83          1           0       -1.621014   -0.701222   -1.795090
     84          1           0       -3.080640   -1.078987   -1.046429
 ---------------------------------------------------------------------
 Rotational constants (GHZ):      0.1276643      0.0665568      0.0591816
 Leave Link  202 at Wed Apr 27 06:02:05 2016, MaxMem= 10737418240 cpu:         0.5
 (Enter /share/apps//g09/l301.exe)
 Standard basis: 6-311+G(d,p) (5D, 7F)
 Ernie: Thresh=  0.10000D-02 Tol=  0.10000D-05 Strict=F.
 There are  1184 symmetry adapted cartesian basis functions of A   symmetry.
 There are  1144 symmetry adapted basis functions of A   symmetry.
  1144 basis functions,  1792 primitive gaussians,  1184 cartesian basis functions
   158 alpha electrons      158 beta electrons
       nuclear repulsion energy      5969.1050575294 Hartrees.
 IExCor= 1009 DFT=T Ex+Corr=PBE1PBE ExCW=0 ScaHFX=  0.250000
 ScaDFX=  0.750000  0.750000  1.000000  1.000000 ScalE2=  1.000000  1.000000
 IRadAn=      0 IRanWt=     -1 IRanGd=            0 ICorTp=0 IEmpDi=131
 NAtoms=   84 NActive=   84 NUniq=   84 SFac= 1.00D+00 NAtFMM=   60 NAOKFM=T Big=T
 Integral buffers will be    131072 words long.
 Raffenetti 2 integral format.
 Two-electron integral symmetry is turned on.
 R6Disp:  Grimme-D3 Dispersion energy=       -0.0873463073 Hartrees.
 Nuclear repulsion after empirical dispersion term =     5969.0177112221 Hartrees.
 Leave Link  301 at Wed Apr 27 06:02:06 2016, MaxMem= 10737418240 cpu:         2.2
 (Enter /share/apps//g09/l302.exe)
 NPDir=0 NMtPBC=     1 NCelOv=     1 NCel=       1 NClECP=     1 NCelD=      1
         NCelK=      1 NCelE2=     1 NClLst=     1 CellRange=     0.0.
 One-electron integrals computed using PRISM.
 NBasis=  1144 RedAO= T EigKep=  1.31D-06  NBF=  1144
 NBsUse=  1144 1.00D-06 EigRej= -1.00D+00 NBFU=  1144
 Precomputing XC quadrature grid using
 IXCGrd= 4 IRadAn=           0 IRanWt=          -1 IRanGd=           0 AccXCQ= 0.00D+00.
[...]
 8,0.00002695,0.00068131,0.00036464,-0.00027213,0.00021538,-0.00006292,
 -0.00004511,-0.00001850,-0.00004981,0.00009538,0.00003197,-0.00093886,
 0.00021708,0.00042382,0.00083175,0.00045959,0.00011526,-0.00021033,0.0
 0099081,0.00076539,0.00013675,0.00006677,-0.00030511,-0.00131813,0.001
 21230,-0.00107934,0.00180194,-0.00062946,0.00154531,0.00011117,0.00034
 238,-0.00051432,0.00082102,0.00015164,-0.00027048,0.00047555,0.0000019
 3,-0.00085647,0.00117185,-0.00124988,-0.00006174,-0.00020668,0.0000950
 8,-0.00020714,0.00036918,-0.00014217,-0.00026288,-0.00005988,-0.000030
 83,0.00016981,-0.00028801,0.00010830,-0.00007736,0.00016788,0.00060113
 ,-0.00014381,-0.00090535,-0.00046291,0.00073468,-0.00067536,-0.0000894
 7,0.00032913,-0.00117984,0.00023667,-0.00198604,-0.00001237,-0.0000806
 5,0.00163060,-0.00006752,-0.00003909,-0.00019061,0.00007923,0.00025186
 ,-0.00032299,-0.00146333,0.00377426,-0.00056169,0.00097600,-0.00020144
 ,-0.00126373,0.00007402,0.00003489,-0.00026570,0.00036518,0.00009325,-
 0.00007490,0.00014430,0.00020616,0.00046406,-0.00005992,-0.00006461,0.
 00000209,-0.00003203,0.00007876,-0.00016685,-0.00002964,0.00001856,0.0
 0011817,-0.00010059,-0.00038509,0.00019269,0.00010837,-0.00009318,-0.0
 0023460,0.00021122,0.00002398,0.00006681,0.00000934,0.00038281,0.00012
 471,0.00027793,0.00000621,-0.00016882,-0.00024261,0.00061037,-0.001368
 84,0.00016955,-0.00026798,0.00022853,0.00006079,0.00004155,-0.00021329
 ,-0.01740478,0.00098931,0.00010745,0.00060452,-0.00069567,0.00033418,0
 .00163051,-0.00050832,0.00112366,-0.30886779,-0.03871989,0.09042213,-0
 .00181933,-0.00814362,0.00196515,0.31664807,0.00031127,-0.00030044,-0.
 00012182,-0.00012030,0.00024052,-0.00008653,0.00002075,-0.00000012,0.0
 0002771,-0.00002607,-0.00002716,-0.00003261,-0.00014485,0.00010293,0.0
 0017325,-0.00068592,-0.00041691,-0.00029118,0.00001205,0.00000888,-0.0
 0000005,0.00000850,0.00000245,-0.00000175,0.00000009,-0.00000435,0.000
 00581,-0.00001984,-0.00003551,0.00000968,0.00000651,-0.00001256,0.0000
 2950,0.00008784,-0.00005174,0.00000168,-0.00002126,-0.00002722,0.00001
 126,-0.00000429,-0.00003603,-0.00000900,-0.00008704,-0.00023370,0.0000
 2938,-0.00112796,0.00095340,0.00174261,-0.00034913,-0.00040726,-0.0001
 1095,0.00002558,-0.00001827,-0.00004514,-0.00193380,-0.00971552,-0.002
 74705,0.00423056,0.00118972,-0.00055207,-0.00001772,0.00001749,0.00000
 339,-0.00000765,0.00000688,-0.00000488,0.00001999,0.00001296,-0.000003
 82,-0.00017995,0.00011619,-0.00000448,0.00026461,-0.00005821,0.0000310
 7,0.00002952,0.00000618,0.00008238,0.00010818,0.00011967,-0.00006531,0
 .00002618,-0.00009035,0.00000743,0.00005517,-0.00002919,-0.00011867,-0
 .00003744,0.00000752,-0.00000059,0.00004475,0.00004154,-0.00002549,-0.
 00000767,-0.00001293,0.00000349,-0.00000842,0.00001321,0.00000498,-0.0
 0003113,0.00001724,0.00000264,-0.00026894,-0.00019547,-0.00003139,-0.0
 0010319,-0.00006749,-0.00004823,-0.00016620,0.00016398,-0.00021166,0.0
 0018167,-0.00022761,0.00005857,-0.00002158,0.00002225,-0.00001436,-0.0
 0004316,0.00004202,0.00001741,-0.00019066,0.00039086,0.00012196,0.0001
 9039,-0.00019682,-0.00024988,0.00006958,0.00024108,0.00007680,0.000019
 00,0.00004680,0.00001717,0.00026901,-0.00030469,-0.00018939,0.00011977
 ,0.00034145,0.00036657,0.00003787,0.00016144,-0.00035069,0.00006129,0.
 00022412,0.00009846,-0.00003025,-0.00030251,0.00065527,-0.00017946,0.0
 0004524,0.00016909,-0.00004667,-0.00004087,-0.00001879,-0.00010037,0.0
 0009309,-0.00003152,-0.00000463,-0.00009495,-0.00004977,0.00004988,-0.
 00001799,-0.00007033,0.00047007,-0.00018385,0.00002911,-0.00006577,-0.
 00017118,-0.00000133,-0.00001835,-0.00014562,0.00010010,-0.00012359,-0
 .00027410,-0.00023092,0.00013273,-0.00017778,0.00067395,0.00002967,0.0
 0010938,-0.00015565,0.00000451,0.00002800,-0.00006244,0.00157736,0.000
 34805,-0.00127846,-0.00005672,-0.00081197,0.00006102,-0.00002971,0.000
 06601,-0.00002338,0.00002854,0.00004014,-0.00010134,-0.00004124,0.0000
 4387,0.00008728,0.00002999,0.00000036,0.00000303,-0.00003073,-0.000004
 81,0.00000182,-0.00007234,-0.00022770,0.00009309,0.00001987,0.00005252
 ,-0.00004312,0.00000363,0.00002480,0.00001472,-0.00008629,0.00023397,0
 .00034310,-0.00010546,0.00005642,-0.00005989,0.00002171,0.00001060,0.0
 0004143,0.00191269,-0.00192991,0.00282318,0.00109068,0.00023179,-0.000
 33207,0.00008312,0.00009982,0.00009466,0.01623214,0.00214227,-0.008039
 81,-0.00068696,0.00023357,-0.00013542,0.00061113,-0.00031624,-0.000387
 10,-0.04348295,-0.06784564,0.01459317,-0.03542052,-0.00122248,0.012988
 37,0.04227294,0.07622005,-0.00052380,0.00029565,-0.00012177,0.00045119
 ,-0.00045917,0.00024483,0.00003245,-0.00004108,-0.00006980,0.00014585,
 -0.00005568,-0.00012354,0.00002659,0.00024202,0.00041429,-0.00023601,-
 0.00057125,-0.00061360,-0.00002208,-0.00002904,0.00001735,-0.00003941,
 -0.00000694,0.00000065,0.00000961,-0.00000172,-0.00002554,-0.00001656,
 -0.00000055,-0.00001533,0.00009213,0.00006842,-0.00006582,-0.00020919,
 -0.00006982,-0.00021451,-0.00025799,-0.00004314,0.00001222,-0.00010460
 ,0.00007149,0.00005475,0.00001057,0.00034623,-0.00009873,0.00009256,0.
 00364693,0.00135333,-0.00006829,-0.00036603,0.00020882,-0.00094012,-0.
 00043564,-0.00018295,-0.00144140,-0.00346402,-0.00612837,0.00042215,-0
 .00092521,-0.00060089,0.00001908,0.00001177,0.00007367,0.00002089,0.00
 000291,-0.00000849,0.00003971,-0.00002114,0.00000018,0.00009633,-0.000
 02304,-0.00041730,-0.00032717,0.00015154,0.00062204,0.00014569,-0.0001
 1506,0.00003188,-0.00009757,-0.00005707,0.00013797,0.00022784,-0.00050
 017,0.00023054,-0.00014666,0.00001164,0.00026303,0.00003843,-0.0000082
 6,-0.00005783,-0.00003528,-0.00001382,0.00011098,-0.00002803,0.0000182
 8,-0.00002603,-0.00006374,0.00010890,-0.00003281,0.00002305,0.00001199
 ,-0.00004663,-0.00030111,0.00096499,-0.00001904,0.00001180,0.00004867,
 -0.00027308,0.00047871,-0.00048873,-0.00023276,0.00009082,-0.00011418,
 -0.00001655,-0.00000018,0.00005053,0.00000002,-0.00002079,-0.00000490,
 -0.00001343,0.00006887,0.00027626,-0.00025469,-0.00001686,-0.00043888,
 -0.00005579,0.00016859,-0.00022125,-0.00011405,-0.00014090,0.00005812,
 0.00015229,-0.00045294,-0.00036030,0.00031462,0.00030639,-0.00007941,-
 0.00040856,0.00008558,0.00032093,-0.00142526,-0.00064546,-0.00004140,0
 .00020937,-0.00008342,0.00048357,-0.00033741,-0.00022707,0.00062648,-0
 .00021249,-0.00008753,-0.00000263,0.00009277,-0.00050366,-0.00041221,0
 .00024584,0.00012858,-0.00006765,0.00000628,0.00002400,-0.00004696,0.0
 0005385,-0.00027897,0.00004036,0.00030671,0.00052216,0.00006647,-0.000
 22408,0.00022963,0.00018403,0.00074656,-0.00043982,-0.00008620,-0.0001
 8706,0.00011751,0.00007768,-0.00010307,-0.00000482,0.00000647,-0.00000
 761,-0.00002507,-0.00004884,0.00004898,0.00026875,-0.00101831,-0.00052
 631,-0.00033123,-0.00011323,0.00067986,-0.00012478,-0.00000131,0.00005
 439,0.00000576,-0.00010210,-0.00010514,0.00012717,-0.00009012,0.000169
 17,-0.00002881,0.00000772,-0.00001537,-0.00001602,-0.00001156,0.000041
 03,0.00010196,0.00018936,0.00006876,0.00003411,-0.00013752,-0.00001635
 ,-0.00001783,-0.00007219,-0.00004701,0.00031098,0.00007836,-0.00017572
 ,0.00005492,0.00005852,0.00010206,0.00002702,-0.00002068,0.00008252,-0
 .00239212,0.00283711,-0.00477963,-0.00156634,0.00015850,0.00073658,0.0
 0030683,-0.00010314,-0.00008715,-0.02188544,-0.00612614,0.01236228,-0.
 00065510,-0.00060996,-0.00043859,0.00026501,0.00037130,0.00078119,0.08
 847271,0.01238519,-0.09684782,-0.00039206,0.00145142,-0.00069373,-0.09
 175981,-0.01535923,0.10409517,0.00010747,-0.00009721,-0.00006575,-0.00
 005689,0.00004633,0.00000824,-0.00002428,0.00001438,0.00002573,-0.0000
 3637,-0.00002120,0.00000866,-0.00002743,-0.00001884,0.00005387,-0.0001
 8511,-0.00004759,0.00000078,-0.00000147,-0.00000165,-0.00000155,0.0000
 0164,0.00000090,-0.00000246,0.00000278,0.00000075,-0.00000030,-0.00000
 558,0.00000028,-0.00000150,0.00002153,0.00000098,-0.00002067,0.0000481
 3,0.00000507,-0.00003941,0.00004772,0.00002421,-0.00001031,0.00003961,
 -0.00001799,-0.00003785,0.00002308,-0.00003517,-0.00003996,-0.00033176
 ,0.00035630,0.00022460,-0.00003273,-0.00013693,0.00006275,-0.00014501,
 -0.00002151,-0.00001268,-0.00134313,-0.00103334,-0.00109995,0.00022817
 ,0.00020185,0.00002278,-0.00001906,-0.00000390,-0.00000102,-0.00001255
 ,-0.00000762,0.00000521,-0.00001717,0.00000468,0.00000932,-0.00004920,
 -0.00008536,-0.00016949,-0.00005180,0.00012632,0.00025793,-0.00001691,
 0.00004864,-0.00002352,0.00000032,0.00000923,0.00004390,0.00001171,-0.
 00000325,0.00000876,-0.00002646,0.00003770,0.00007729,0.00000975,-0.00
 002031,-0.00002500,-0.00000389,-0.00001589,0.00003053,0.00000374,-0.00
 000736,-0.00000650,0.00000145,0.00000095,-0.00001219,0.00000716,-0.000
 00800,-0.00000687,-0.00005014,-0.00003790,-0.00005345,0.00004034,-0.00
 006708,-0.00005872,0.00009640,-0.00032894,-0.00006101,0.00005221,-0.00
 001791,0.00001335,-0.00000393,0.00000230,0.00000414,-0.00000635,0.0000
 0500,-0.00000675,-0.00005444,0.00001990,-0.00002407,0.00004640,-0.0000
 1999,-0.00000643,0.00001980,0.00004064,0.00003649,-0.00008657,0.000081
 82,0.00004768,-0.00134972,-0.00023395,0.00074807,0.00198697,-0.0005482
 5,-0.00207943,0.00025784,0.00066812,-0.00258404,-0.00047810,0.00005336
 ,0.00037355,0.00001799,0.00044689,-0.00022540,-0.00014432,0.00035464,-
 0.00023799,-0.00026425,0.00010494,0.00010352,-0.00130286,-0.00072642,0
 .00052638,0.00015613,-0.00017668,0.00004362,0.00000490,-0.00005873,0.0
 0004084,0.00001509,0.00000468,0.00024715,0.00021636,-0.00010932,0.0000
 0205,-0.00000083,0.00018437,0.00124294,-0.00399929,0.00051916,-0.00120
 960,0.00021037,0.00000076,0.00007288,-0.00004663,-0.00006048,-0.000004
 30,-0.00000833,-0.00000641,0.00001183,-0.00012298,-0.00021714,0.000062
 77,-0.00003538,-0.00005502,-0.00000613,-0.00011995,0.00003288,-0.00005
 254,0.00022414,-0.00007972,-0.00023868,0.00083344,0.00010317,0.0021518
 3,-0.00020147,-0.00004852,-0.00001915,-0.00033307,0.00004875,-0.000097
 59,-0.00116224,0.00004471,0.00163985,-0.00061675,-0.00103729,0.0002941
 1,0.00016616,-0.00031031,-0.00045620,-0.00085713,-0.00038351,0.0000589
 1,0.00024250,0.00137813,0.00023370,0.00067759,0.00015711,0.00005136,0.
 00033779,-0.00097197,-0.00119908,0.00041597,-0.00005716,0.00024152,-0.
 00023598,0.00001178,0.00008717,0.00154489,-0.01133892,-0.02542511,-0.0
 0346076,0.00308183,-0.00284764,0.00049998,0.00003619,0.00075157,-0.061
 68987,0.00830936,0.02023055,-0.00028783,-0.00212556,-0.00654963,0.0035
 2523,0.01541538,0.03285409,0.06716325,0.00003531,-0.00013201,-0.000023
 09,-0.00001823,0.00009703,-0.00002875,0.00001910,0.00000423,0.00000344
 ,0.00000604,0.00001653,0.00000084,-0.00002052,0.00003235,0.00002061,-0
 .00009152,-0.00000379,0.00001268,0.00000813,0.00001122,-0.00000096,0.0
 0000053,0.00000040,-0.00000048,0.00000132,-0.00000125,-0.00000019,-0.0
 0000655,-0.00001306,0.00000534,0.00000440,0.00000182,0.00000328,0.0000
 1277,-0.00004887,-0.00001370,-0.00001765,-0.00002852,0.00000028,-0.000
 01962,-0.00001902,0.00000633,-0.00006312,-0.00010950,0.00003980,0.0000
 4342,0.00042042,0.00008993,-0.00004485,-0.00009980,0.00002760,-0.00003
 083,-0.00001827,-0.00002174,-0.00067203,-0.00044206,-0.00001067,0.0000
 2624,0.00004724,-0.00009976,-0.00000929,0.00001832,0.00000532,0.000001
 67,0.00000703,-0.00000353,0.00001706,0.00000605,-0.00000583,-0.0000605
 0,0.00005727,0.00016921,0.00014554,-0.00012675,-0.00029026,0.00002945,
 0.00000728,0.00007783,0.00005665,0.00003482,-0.00006605,-0.00001095,0.
 00001457,-0.00000730,0.00004787,-0.00003677,-0.00012713,-0.00002250,0.
 00002115,0.00003265,0.00001034,0.00002729,-0.00001642,-0.00000280,-0.0
 0000302,0.00000736,-0.00000229,-0.00000397,0.00001191,-0.00001427,0.00
 001231,0.00000999,-0.00003115,-0.00004947,0.00003714,-0.00007865,-0.00
 002962,-0.00000999,-0.00045758,0.00023743,0.00010710,0.00000791,-0.000
 02266,-0.00001019,-0.00000222,-0.00000917,-0.00000949,-0.00000297,0.00
 000314,0.00001341,-0.00003812,-0.00000211,0.00012747,-0.00000594,0.000
 03397,-0.00000567,0.00003596,0.00004706,-0.00000457,0.00004099,0.00002
 564,0.00000345,-0.00072052,0.00067495,-0.00218558,-0.00080692,0.005251
 81,0.00465806,0.00031532,-0.00004084,-0.00023754,0.00019922,0.00017297
 ,0.00025713,0.00038869,0.00002457,0.00022230,0.00094041,-0.00211040,-0
 .00090001,0.00005767,-0.00083376,-0.00034518,-0.00030153,0.00026895,0.
 00004038,0.00001580,-0.00005219,-0.00002273,-0.00032273,0.00056947,-0.
 00011454,0.00005422,-0.00000612,-0.00017863,-0.00013881,-0.00019399,-0
 .00004662,-0.00024303,-0.00043764,-0.00020183,0.00078108,-0.00289149,0
 .00204005,-0.00006152,-0.00066629,-0.00046148,-0.00002162,-0.00004964,
 0.00002994,0.00002128,-0.00000516,0.00018147,-0.00010925,-0.00105462,0
 .00222668,0.00017724,0.00018904,-0.00040212,-0.00003474,0.00006481,-0.
 00000203,-0.00013367,0.00009073,-0.00016868,0.00118298,-0.00014111,0.0
 0016102,-0.00008117,-0.00008524,-0.00014478,-0.00030987,-0.00008062,0.
 00024113,0.00032675,0.00133125,-0.00035657,-0.00069947,-0.00092988,0.0
 0022450,0.00003820,-0.00048237,-0.00005880,0.00102777,0.00268093,0.000
 32269,-0.00028679,-0.00207565,-0.00051228,-0.00070029,-0.00065070,-0.0
 0000396,-0.00025261,0.00059470,-0.00040089,-0.00014849,-0.00014542,-0.
 00005323,-0.00018572,-0.00019171,-0.00023398,-0.00291719,0.00861500,0.
 01694850,0.00262987,-0.00147628,0.00201666,-0.00032582,-0.00024040,0.0
 0068085,0.00856731,-0.10192184,-0.11641430,0.00359466,-0.00938608,-0.0
 3566153,0.00104090,0.00166637,0.00765712,-0.01138412,0.10396901,-0.000
 33639,0.00017455,-0.00006840,0.00024910,-0.00023170,0.00018748,0.00000
 823,-0.00001708,-0.00001974,0.00007491,-0.00001621,-0.00005482,0.00004
 164,0.00010102,0.00023841,-0.00004962,-0.00019785,-0.00021112,-0.00001
 265,-0.00001581,0.00000784,-0.00002683,-0.00000331,-0.00000198,0.00000
 783,-0.00000189,-0.00001804,-0.00000111,0.00001277,-0.00001362,0.00004
 066,0.00002552,-0.00004774,-0.00011602,-0.00002162,-0.00018371,-0.0001
 2366,-0.00001887,-0.00000982,-0.00004725,0.00002887,0.00000473,-0.0000
 0873,0.00015373,-0.00009401,0.00078293,0.00065303,0.00055823,0.0000499
 5,-0.00000592,0.00004654,-0.00019665,-0.00003820,0.00000622,-0.0020947
 1,0.00002626,0.00004601,0.00008628,-0.00043375,-0.00006099,0.00000764,
 0.00000277,0.00004861,0.00001116,-0.00000202,0.00000116,0.00002059,-0.
 00000801,0.00000694,-0.00013004,-0.00004991,-0.00044447,-0.00008600,0.
 00017822,0.00075646,0.00013650,-0.00005765,0.00004628,-0.00002936,-0.0
 0001100,0.00010569,0.00016325,-0.00025434,0.00010635,-0.00007534,0.000
 04400,0.00017212,0.00001756,-0.00001623,-0.00006856,-0.00001787,0.0000
 0390,0.00005997,-0.00001122,0.00000775,-0.00001484,-0.00003019,0.00005
 202,-0.00002372,-0.00000476,0.00000729,-0.00003164,-0.00023770,0.00039
 322,-0.00003580,-0.00001185,-0.00004684,-0.00027421,0.00058284,-0.0004
 6375,-0.00061645,0.00019652,-0.00025945,0.00005052,-0.00000298,0.00002
 867,-0.00000606,-0.00004881,0.00003179,-0.00000361,-0.00022900,0.00036
 572,0.00004024,0.00012076,-0.00015796,-0.00005419,0.00008334,-0.000059
 18,-0.00003295,-0.00016107,0.00012868,0.00016415,0.00072888,-0.0016713
 7,-0.00446219,-0.00485743,0.00668895,-0.00487192,-0.00057145,-0.000495
 97,0.00005748,-0.00046346,0.00038215,0.00018968,-0.00033013,0.00005375
 ,0.00054015,-0.00121049,0.00161323,0.00078103,0.00023036,-0.00093739,0
 .00028688,-0.00038448,-0.00002351,0.00006131,0.00001786,-0.00003591,-0
 .00009292,0.00023181,-0.00035489,-0.00008007,0.00017549,-0.00006759,-0
 .00000102,0.00078765,-0.00015485,-0.00032395,0.00081004,0.00009780,0.0
 0000349,-0.00067257,0.00032381,0.00719855,0.00025068,-0.00030929,0.001
 85114,0.00006701,0.00010888,-0.00015560,-0.00008692,0.00005962,-0.0004
 2262,-0.00035589,0.00281171,-0.00178898,0.00005763,-0.00013396,-0.0001
 7224,-0.00019784,0.00002574,0.00004837,-0.00049673,-0.00031272,-0.0000
 6606,0.00608513,-0.00065377,-0.00136109,-0.00047770,0.00010860,0.00008
 728,-0.00088191,-0.00014506,0.00024223,0.00046951,-0.00003925,-0.00026
 069,0.00042791,0.00021638,0.00006630,-0.00032109,0.00010452,-0.0002894
 7,-0.00032166,0.00018953,0.00125606,0.00020708,-0.00058343,0.00024460,
 0.00006920,0.00002699,-0.00022442,0.00048300,-0.00099853,0.00150563,0.
 00075976,-0.00002089,-0.00045775,0.00000252,0.00006147,-0.00011490,-0.
 00450206,-0.00318631,-0.01857429,-0.00084348,0.00187919,0.00031695,0.0
 0068253,-0.00003765,0.00022113,0.02048993,-0.11784196,-0.34829267,0.00
 041110,-0.00392291,0.00449896,0.00293074,-0.00399804,-0.00865916,-0.01
 799237,0.12114168,0.37095134\\0.00001024,0.00000168,0.00000391,-0.0000
 1968,-0.00003086,-0.00001891,-0.00000498,-0.00000226,-0.00000366,-0.00
 001647,-0.00001036,-0.00001900,0.00000104,-0.00000103,0.00000809,-0.00
 000084,-0.00001112,0.00000016,0.00000085,-0.00000175,0.00001080,0.0000
 0342,0.00000107,-0.00000049,0.00000130,-0.00000176,-0.00000663,-0.0000
 0430,0.00000091,-0.00000654,-0.00000570,-0.00000475,-0.00000537,0.0000
 0044,0.00000543,-0.00001559,0.00000632,0.00001647,-0.00000306,-0.00000
 763,-0.00000556,0.00000079,-0.00001191,0.00002461,0.00001781,0.0000022
 3,-0.00000684,-0.00000147,0.00000053,0.00000264,-0.00000465,-0.0000057
 1,0.00000384,0.00000004,0.00002718,-0.00001617,-0.00002111,-0.00000287
 ,0.00001374,0.00000636,-0.00000569,-0.00000200,-0.00000729,0.00000106,
 -0.00001057,-0.00000582,0.00000393,0.00000113,-0.00000827,0.00001588,-
 0.00000212,0.00001516,-0.00004056,0.00000823,0.00000473,0.00001374,0.0
 0000996,0.00001344,0.00001110,0.00000178,-0.00000842,-0.00001304,0.000
 01623,-0.00000721,-0.00000673,0.00000349,0.00001912,0.00001067,-0.0000
 0196,0.00001116,0.00000036,0.00000840,-0.00000440,0.00000940,0.0000019
 0,0.00000030,-0.00000147,-0.00001083,0.00000290,0.00000385,-0.00000819
 ,0.00000701,0.00002280,0.00000232,-0.00000260,-0.00001420,0.00000756,0
 .00000236,0.00000414,-0.00000179,-0.00002113,-0.00001132,0.00000189,-0
 .00001461,0.00000329,-0.00000392,0.00001282,-0.00000525,-0.00000256,0.
 00000726,0.00002771,0.00000970,0.00001070,-0.00001122,-0.00001521,0.00
 000701,-0.00002334,-0.00001355,0.00000111,0.00000842,-0.00000250,-0.00
 001159,0.00000858,0.00002768,0.00000520,-0.00002041,0.00001361,-0.0000
 2473,-0.00000629,-0.00000474,0.00001248,0.00000181,0.00001341,0.000006
 64,0.00000861,0.00000282,0.00000591,-0.00000379,-0.00000639,-0.0000018
 3,0.00000623,0.00000071,0.00000995,0.00000826,0.00000104,-0.00000940,0
 .00000362,-0.00000355,0.00000228,0.00000266,0.00000221,0.00000969,0.00
 000294,0.00000312,-0.00000771,-0.00000516,0.00000680,-0.00000286,0.000
 01560,0.00000753,-0.00001611,-0.00000485,-0.00000626,0.00003208,0.0000
 0654,0.00000772,0.00001343,0.00000214,0.00000435,0.00000385,0.00000170
 ,-0.00000553,0.00000253,0.00001038,-0.00001990,-0.00001427,-0.00000593
 ,0.00000659,0.00001201,0.00000342,0.00000309,-0.00000771,-0.00000746,-
 0.00000278,0.00000238,-0.00000094,0.00000445,-0.00000367,0.00000465,0.
 00000338,0.00000055,0.00000003,-0.00000372,-0.00000114,0.00001893,0.00
 000929,0.00000842,0.00000229,-0.00000320,-0.00000160,0.00000051,0.0000
 0149,0.00001015,-0.00000864,-0.00000428,0.00000259,0.00000097,-0.00000
 166,-0.00000128,0.00000045,-0.00000239,-0.00000325,0.00000425,0.000003
 62,-0.00000651,-0.00000297,-0.00000416,0.00000170,-0.00000216,-0.00000
 642,0.00000135,0.00001148,-0.00001291,0.00000815,-0.00000451,-0.000001
 81,-0.00000094,-0.00000207,0.00000082,-0.00000268,-0.00002471,0.000017
 40,0.00000960,-0.00000059,-0.00000207,-0.00000257,-0.00003734,-0.00000
 400,-0.00000559,0.00003475,-0.00002066,-0.00001234\\\@


 SCIENCE IS A VERY HUMAN FORM OF KNOWLEDGE.
 WE ARE ALWAYS AT THE BRINK OF THE KNOWN,
 WE ALWAYS FEEL FORWARD FOR WHAT IS HOPED.
 EVERY JUDGEMENT IN SCIENCE STANDS ON THE EDGE OF ERROR, AND IS PERSONAL.
 SCIENCE IS A TRIBUTE TO WHAT WE CAN KNOW ALTHOUGH WE ARE FALLIBLE.

                     -- J. BRONOWSKI
 Job cpu time:      20 days  2 hours 50 minutes 47.1 seconds.
 File lengths (MBytes):  RWF=  17352 Int=      0 D2E=      0 Chk=     99 Scr=      1
 Normal termination of Gaussian 09 at Fri Apr 29 05:45:25 2016.
