 Entering Gaussian System, Link 0=g16
 Input=input.com
 Output=input.log
 Initial command:
 /home/matma/Programs/gaussian/G16_x86_SSE4/tar/g16/l1.exe "/scratch-data/gaussian/Gau-16722.inp" -scrdir="/scratch-data/gaussian/"
 Entering Link 1 = /home/matma/Programs/gaussian/G16_x86_SSE4/tar/g16/l1.exe PID=     16724.
  
 Copyright (c) 1988-2017, Gaussian, Inc.  All Rights Reserved.
  
 This is part of the Gaussian(R) 16 program.  It is based on
 the Gaussian(R) 09 system (copyright 2009, Gaussian, Inc.),
 the Gaussian(R) 03 system (copyright 2003, Gaussian, Inc.),
 the Gaussian(R) 98 system (copyright 1998, Gaussian, Inc.),
 the Gaussian(R) 94 system (copyright 1995, Gaussian, Inc.),
 the Gaussian 92(TM) system (copyright 1992, Gaussian, Inc.),
 the Gaussian 90(TM) system (copyright 1990, Gaussian, Inc.),
 the Gaussian 88(TM) system (copyright 1988, Gaussian, Inc.),
 the Gaussian 86(TM) system (copyright 1986, Carnegie Mellon
 University), and the Gaussian 82(TM) system (copyright 1983,
 Carnegie Mellon University). Gaussian is a federally registered
 trademark of Gaussian, Inc.
  
 This software contains proprietary and confidential information,
 including trade secrets, belonging to Gaussian, Inc.
  
 This software is provided under written license and may be
 used, copied, transmitted, or stored only in accord with that
 written license.
  
 The following legend is applicable only to US Government
 contracts under FAR:
  
                    RESTRICTED RIGHTS LEGEND
  
 Use, reproduction and disclosure by the US Government is
 subject to restrictions as set forth in subparagraphs (a)
 and (c) of the Commercial Computer Software - Restricted
 Rights clause in FAR 52.227-19.
  
 Gaussian, Inc.
 340 Quinnipiac St., Bldg. 40, Wallingford CT 06492
  
  
 ---------------------------------------------------------------
 Warning -- This program may not be used in any manner that
 competes with the business of Gaussian, Inc. or will provide
 assistance to any competitor of Gaussian, Inc.  The licensee
 of this program is prohibited from giving any competitor of
 Gaussian, Inc. access to this program.  By using this program,
 the user acknowledges that Gaussian, Inc. is engaged in the
 business of creating and licensing software in the field of
 computational chemistry and represents and warrants to the
 licensee that it is not a competitor of Gaussian, Inc. and that
 it will not use this program in any manner prohibited above.
 ---------------------------------------------------------------
  

 Cite this work as:
 Gaussian 16, Revision B.01,
 M. J. Frisch, G. W. Trucks, H. B. Schlegel, G. E. Scuseria, 
 M. A. Robb, J. R. Cheeseman, G. Scalmani, V. Barone, 
 G. A. Petersson, H. Nakatsuji, X. Li, M. Caricato, A. V. Marenich, 
 J. Bloino, B. G. Janesko, R. Gomperts, B. Mennucci, H. P. Hratchian, 
 J. V. Ortiz, A. F. Izmaylov, J. L. Sonnenberg, D. Williams-Young, 
 F. Ding, F. Lipparini, F. Egidi, J. Goings, B. Peng, A. Petrone, 
 T. Henderson, D. Ranasinghe, V. G. Zakrzewski, J. Gao, N. Rega, 
 G. Zheng, W. Liang, M. Hada, M. Ehara, K. Toyota, R. Fukuda, 
 J. Hasegawa, M. Ishida, T. Nakajima, Y. Honda, O. Kitao, H. Nakai, 
 T. Vreven, K. Throssell, J. A. Montgomery, Jr., J. E. Peralta, 
 F. Ogliaro, M. J. Bearpark, J. J. Heyd, E. N. Brothers, K. N. Kudin, 
 V. N. Staroverov, T. A. Keith, R. Kobayashi, J. Normand, 
 K. Raghavachari, A. P. Rendell, J. C. Burant, S. S. Iyengar, 
 J. Tomasi, M. Cossi, J. M. Millam, M. Klene, C. Adamo, R. Cammi, 
 J. W. Ochterski, R. L. Martin, K. Morokuma, O. Farkas, 
 J. B. Foresman, and D. J. Fox, Gaussian, Inc., Wallingford CT, 2016.
 
 ******************************************
 Gaussian 16:  ES64L-G16RevB.01 20-Dec-2017
                22-Jun-2021 
 ******************************************
 %nproc=12
 Will use up to   12 processors via shared memory.
 %mem=16GB
 --------------------------------------
 #P pm6 opt=loose freq int=(grid=99590)
 --------------------------------------
 1/7=-1,18=20,19=15,26=1,38=1/1,3;
 2/9=110,12=2,17=6,18=5,40=1/2;
 3/5=2,25=1,41=3900000,71=1,75=99590/1,2,3;
 4/35=1/1;
 5/5=2,35=1,38=5/2;
 6/7=2,8=2,9=2,10=2,28=1/1;
 7//1,2,3,16;
 1/7=-1,18=20,19=15,26=1/3(2);
 2/9=110/2;
 99//99;
 2/9=110/2;
 3/5=2,25=1,41=3900000,71=1,75=99590,135=20/1,2,3;
 4/5=5,16=3,35=1/1;
 5/5=2,35=1,38=5/2;
 7//1,2,3,16;
 1/7=-1,18=20,19=15,26=1/3(-5);
 2/9=110/2;
 6/7=2,8=2,9=2,10=2,19=2,28=1/1;
 99/9=1/99;
 Leave Link    1 at Tue Jun 22 14:22:11 2021, MaxMem=  2147483648 cpu:               0.2 elap:               0.0
 (Enter /home/matma/Programs/gaussian/G16_x86_SSE4/tar/g16/l101.exe)
 ------------
 offspring-12
 ------------
 Symbolic Z-matrix:
 Charge =  0 Multiplicity = 1
 O                     1.964     0.956     0.206 
 C                     2.445     2.126     0.881 
 C                     3.127     1.707     2.203 
 O                     3.988     0.63      1.811 
 C                     2.07      1.193     3.204 
 C                     1.086     2.332     3.534 
 O                     1.056     3.347     2.536 
 C                     1.213     3.022     1.138 
 C                    -0.098     2.419     0.616 
 O                    -1.207     3.117     1.212 
 O                     1.815    -1.437     6.079 
 C                     0.608    -1.218     5.329 
 C                     0.334     0.301     5.267 
 C                    -0.697     0.672     4.177 
 C                    -0.623    -0.193     2.89 
 O                    -0.232    -1.554     3.085 
 C                     0.912    -1.798     3.937 
 C                     1.029    -3.337     3.929 
 O                     1.036    -3.888     5.241 
 O                    -1.944    -0.345     2.375 
 O                    -0.288     1.994     3.765 
 O                    -0.215     0.567     6.553 
 O                     2.802     0.88      4.391 
 H                     3.178     2.625     0.206 
 H                     3.745     2.518     2.648 
 H                     4.348     0.189     2.621 
 H                     1.565     0.279     2.809 
 H                     1.352     2.916     4.452 
 H                     1.373     4.052     0.73 
 H                    -0.227     2.567    -0.472 
 H                    -0.195     1.34      0.851 
 H                    -0.975     3.338     2.17 
 H                    -0.233    -1.754     5.832 
 H                     1.274     0.884     5.122 
 H                    -1.728     0.682     4.601 
 H                    -0.018     0.274     2.084 
 H                     1.801    -1.309     3.482 
 H                     0.133    -3.796     3.459 
 H                     1.939    -3.661     3.392 
 H                     1.748    -3.463     5.792 
 H                    -0.159     1.563     6.775 
 H                     1.689    -1.087     6.998 
 H                     2.369     0.113     4.859 
 H                    -2.282    -1.261     2.554 
 H                     2.678     0.262     0.202 
 
 ITRead=  0  0  0  0  0  0  0  0  0  0  0  0  0  0  0  0  0  0  0  0
 ITRead=  0  0  0  0  0  0  0  0  0  0  0  0  0  0  0  0  0  0  0  0
 ITRead=  0  0  0  0  0
 MicOpt= -1 -1 -1 -1 -1 -1 -1 -1 -1 -1 -1 -1 -1 -1 -1 -1 -1 -1 -1 -1
 MicOpt= -1 -1 -1 -1 -1 -1 -1 -1 -1 -1 -1 -1 -1 -1 -1 -1 -1 -1 -1 -1
 MicOpt= -1 -1 -1 -1 -1
 NAtoms=     45 NQM=       45 NQMF=       0 NMMI=      0 NMMIF=      0
                NMic=       0 NMicF=      0.
                    Isotopes and Nuclear Properties:
 (Nuclear quadrupole moments (NQMom) in fm**2, nuclear magnetic moments (NMagM)
  in nuclear magnetons)

  Atom         1           2           3           4           5           6           7           8           9          10
 IAtWgt=          16          12          12          16          12          12          16          12          12          16
 AtmWgt=  15.9949146  12.0000000  12.0000000  15.9949146  12.0000000  12.0000000  15.9949146  12.0000000  12.0000000  15.9949146
 NucSpn=           0           0           0           0           0           0           0           0           0           0
 AtZEff=  -0.0000000  -0.0000000  -0.0000000  -0.0000000  -0.0000000  -0.0000000  -0.0000000  -0.0000000  -0.0000000  -0.0000000
 NQMom=    0.0000000   0.0000000   0.0000000   0.0000000   0.0000000   0.0000000   0.0000000   0.0000000   0.0000000   0.0000000
 NMagM=    0.0000000   0.0000000   0.0000000   0.0000000   0.0000000   0.0000000   0.0000000   0.0000000   0.0000000   0.0000000
 AtZNuc=   8.0000000   6.0000000   6.0000000   8.0000000   6.0000000   6.0000000   8.0000000   6.0000000   6.0000000   8.0000000

  Atom        11          12          13          14          15          16          17          18          19          20
 IAtWgt=          16          12          12          12          12          16          12          12          16          16
 AtmWgt=  15.9949146  12.0000000  12.0000000  12.0000000  12.0000000  15.9949146  12.0000000  12.0000000  15.9949146  15.9949146
 NucSpn=           0           0           0           0           0           0           0           0           0           0
 AtZEff=  -0.0000000  -0.0000000  -0.0000000  -0.0000000  -0.0000000  -0.0000000  -0.0000000  -0.0000000  -0.0000000  -0.0000000
 NQMom=    0.0000000   0.0000000   0.0000000   0.0000000   0.0000000   0.0000000   0.0000000   0.0000000   0.0000000   0.0000000
 NMagM=    0.0000000   0.0000000   0.0000000   0.0000000   0.0000000   0.0000000   0.0000000   0.0000000   0.0000000   0.0000000
 AtZNuc=   8.0000000   6.0000000   6.0000000   6.0000000   6.0000000   8.0000000   6.0000000   6.0000000   8.0000000   8.0000000

  Atom        21          22          23          24          25          26          27          28          29          30
 IAtWgt=          16          16          16           1           1           1           1           1           1           1
 AtmWgt=  15.9949146  15.9949146  15.9949146   1.0078250   1.0078250   1.0078250   1.0078250   1.0078250   1.0078250   1.0078250
 NucSpn=           0           0           0           1           1           1           1           1           1           1
 AtZEff=  -0.0000000  -0.0000000  -0.0000000  -0.0000000  -0.0000000  -0.0000000  -0.0000000  -0.0000000  -0.0000000  -0.0000000
 NQMom=    0.0000000   0.0000000   0.0000000   0.0000000   0.0000000   0.0000000   0.0000000   0.0000000   0.0000000   0.0000000
 NMagM=    0.0000000   0.0000000   0.0000000   2.7928460   2.7928460   2.7928460   2.7928460   2.7928460   2.7928460   2.7928460
 AtZNuc=   8.0000000   8.0000000   8.0000000   1.0000000   1.0000000   1.0000000   1.0000000   1.0000000   1.0000000   1.0000000

  Atom        31          32          33          34          35          36          37          38          39          40
 IAtWgt=           1           1           1           1           1           1           1           1           1           1
 AtmWgt=   1.0078250   1.0078250   1.0078250   1.0078250   1.0078250   1.0078250   1.0078250   1.0078250   1.0078250   1.0078250
 NucSpn=           1           1           1           1           1           1           1           1           1           1
 AtZEff=  -0.0000000  -0.0000000  -0.0000000  -0.0000000  -0.0000000  -0.0000000  -0.0000000  -0.0000000  -0.0000000  -0.0000000
 NQMom=    0.0000000   0.0000000   0.0000000   0.0000000   0.0000000   0.0000000   0.0000000   0.0000000   0.0000000   0.0000000
 NMagM=    2.7928460   2.7928460   2.7928460   2.7928460   2.7928460   2.7928460   2.7928460   2.7928460   2.7928460   2.7928460
 AtZNuc=   1.0000000   1.0000000   1.0000000   1.0000000   1.0000000   1.0000000   1.0000000   1.0000000   1.0000000   1.0000000

  Atom        41          42          43          44          45
 IAtWgt=           1           1           1           1           1
 AtmWgt=   1.0078250   1.0078250   1.0078250   1.0078250   1.0078250
 NucSpn=           1           1           1           1           1
 AtZEff=  -0.0000000  -0.0000000  -0.0000000  -0.0000000  -0.0000000
 NQMom=    0.0000000   0.0000000   0.0000000   0.0000000   0.0000000
 NMagM=    2.7928460   2.7928460   2.7928460   2.7928460   2.7928460
 AtZNuc=   1.0000000   1.0000000   1.0000000   1.0000000   1.0000000
 Leave Link  101 at Tue Jun 22 14:22:12 2021, MaxMem=  2147483648 cpu:               3.1 elap:               0.3
 (Enter /home/matma/Programs/gaussian/G16_x86_SSE4/tar/g16/l103.exe)

 GradGradGradGradGradGradGradGradGradGradGradGradGradGradGradGradGradGrad
 Berny optimization.
 Initialization pass.
                           ----------------------------
                           !    Initial Parameters    !
                           ! (Angstroms and Degrees)  !
 --------------------------                            --------------------------
 ! Name  Definition              Value          Derivative Info.                !
 --------------------------------------------------------------------------------
 ! R1    R(1,2)                  1.4338         estimate D2E/DX2                !
 ! R2    R(1,45)                 0.9957         estimate D2E/DX2                !
 ! R3    R(2,3)                  1.5454         estimate D2E/DX2                !
 ! R4    R(2,8)                  1.5449         estimate D2E/DX2                !
 ! R5    R(2,24)                 1.1144         estimate D2E/DX2                !
 ! R6    R(3,4)                  1.4335         estimate D2E/DX2                !
 ! R7    R(3,5)                  1.5438         estimate D2E/DX2                !
 ! R8    R(3,25)                 1.1125         estimate D2E/DX2                !
 ! R9    R(4,26)                 0.99           estimate D2E/DX2                !
 ! R10   R(5,6)                  1.5409         estimate D2E/DX2                !
 ! R11   R(5,23)                 1.4293         estimate D2E/DX2                !
 ! R12   R(5,27)                 1.1164         estimate D2E/DX2                !
 ! R13   R(6,7)                  1.4238         estimate D2E/DX2                !
 ! R14   R(6,21)                 1.4337         estimate D2E/DX2                !
 ! R15   R(6,28)                 1.1201         estimate D2E/DX2                !
 ! R16   R(7,8)                  1.4438         estimate D2E/DX2                !
 ! R17   R(8,9)                  1.5345         estimate D2E/DX2                !
 ! R18   R(8,29)                 1.1194         estimate D2E/DX2                !
 ! R19   R(9,10)                 1.4395         estimate D2E/DX2                !
 ! R20   R(9,30)                 1.1056         estimate D2E/DX2                !
 ! R21   R(9,31)                 1.1085         estimate D2E/DX2                !
 ! R22   R(10,32)                1.0102         estimate D2E/DX2                !
 ! R23   R(11,12)                1.4378         estimate D2E/DX2                !
 ! R24   R(11,42)                0.9914         estimate D2E/DX2                !
 ! R25   R(12,13)                1.5448         estimate D2E/DX2                !
 ! R26   R(12,17)                1.5383         estimate D2E/DX2                !
 ! R27   R(12,33)                1.117          estimate D2E/DX2                !
 ! R28   R(13,14)                1.5455         estimate D2E/DX2                !
 ! R29   R(13,22)                1.4234         estimate D2E/DX2                !
 ! R30   R(13,34)                1.1156         estimate D2E/DX2                !
 ! R31   R(14,15)                1.5524         estimate D2E/DX2                !
 ! R32   R(14,21)                1.4439         estimate D2E/DX2                !
 ! R33   R(14,35)                1.1148         estimate D2E/DX2                !
 ! R34   R(15,16)                1.4294         estimate D2E/DX2                !
 ! R35   R(15,20)                1.426          estimate D2E/DX2                !
 ! R36   R(15,36)                1.1107         estimate D2E/DX2                !
 ! R37   R(16,17)                1.4471         estimate D2E/DX2                !
 ! R38   R(17,18)                1.5435         estimate D2E/DX2                !
 ! R39   R(17,37)                1.112          estimate D2E/DX2                !
 ! R40   R(18,19)                1.423          estimate D2E/DX2                !
 ! R41   R(18,38)                1.111          estimate D2E/DX2                !
 ! R42   R(18,39)                1.1052         estimate D2E/DX2                !
 ! R43   R(19,40)                0.9956         estimate D2E/DX2                !
 ! R44   R(20,44)                0.9926         estimate D2E/DX2                !
 ! R45   R(22,41)                1.022          estimate D2E/DX2                !
 ! R46   R(23,43)                0.9974         estimate D2E/DX2                !
 ! A1    A(2,1,45)             109.2734         estimate D2E/DX2                !
 ! A2    A(1,2,3)              109.2391         estimate D2E/DX2                !
 ! A3    A(1,2,8)              106.502          estimate D2E/DX2                !
 ! A4    A(1,2,24)             107.5107         estimate D2E/DX2                !
 ! A5    A(3,2,8)              111.5222         estimate D2E/DX2                !
 ! A6    A(3,2,24)             110.4425         estimate D2E/DX2                !
 ! A7    A(8,2,24)             111.4443         estimate D2E/DX2                !
 ! A8    A(2,3,4)              103.5817         estimate D2E/DX2                !
 ! A9    A(2,3,5)              110.0456         estimate D2E/DX2                !
 ! A10   A(2,3,25)             112.9338         estimate D2E/DX2                !
 ! A11   A(4,3,5)              109.7789         estimate D2E/DX2                !
 ! A12   A(4,3,25)             108.8701         estimate D2E/DX2                !
 ! A13   A(5,3,25)             111.3265         estimate D2E/DX2                !
 ! A14   A(3,4,26)             109.2283         estimate D2E/DX2                !
 ! A15   A(3,5,6)              109.2666         estimate D2E/DX2                !
 ! A16   A(3,5,23)             105.1143         estimate D2E/DX2                !
 ! A17   A(3,5,27)             110.6621         estimate D2E/DX2                !
 ! A18   A(6,5,23)             108.1234         estimate D2E/DX2                !
 ! A19   A(6,5,27)             113.0824         estimate D2E/DX2                !
 ! A20   A(23,5,27)            110.2558         estimate D2E/DX2                !
 ! A21   A(5,6,7)              112.9723         estimate D2E/DX2                !
 ! A22   A(5,6,21)             118.1791         estimate D2E/DX2                !
 ! A23   A(5,6,28)             114.1589         estimate D2E/DX2                !
 ! A24   A(7,6,21)             105.1184         estimate D2E/DX2                !
 ! A25   A(7,6,28)             101.9936         estimate D2E/DX2                !
 ! A26   A(21,6,28)            102.6189         estimate D2E/DX2                !
 ! A27   A(6,7,8)              121.0603         estimate D2E/DX2                !
 ! A28   A(2,8,7)              112.2307         estimate D2E/DX2                !
 ! A29   A(2,8,9)              113.3787         estimate D2E/DX2                !
 ! A30   A(2,8,29)             111.042          estimate D2E/DX2                !
 ! A31   A(7,8,9)              108.9607         estimate D2E/DX2                !
 ! A32   A(7,8,29)              99.2847         estimate D2E/DX2                !
 ! A33   A(9,8,29)             111.0824         estimate D2E/DX2                !
 ! A34   A(8,9,10)             109.074          estimate D2E/DX2                !
 ! A35   A(8,9,30)             112.4478         estimate D2E/DX2                !
 ! A36   A(8,9,31)             112.6513         estimate D2E/DX2                !
 ! A37   A(10,9,30)            104.6338         estimate D2E/DX2                !
 ! A38   A(10,9,31)            108.4679         estimate D2E/DX2                !
 ! A39   A(30,9,31)            109.1905         estimate D2E/DX2                !
 ! A40   A(9,10,32)            108.7711         estimate D2E/DX2                !
 ! A41   A(12,11,42)           108.848          estimate D2E/DX2                !
 ! A42   A(11,12,13)           108.6394         estimate D2E/DX2                !
 ! A43   A(11,12,17)           104.3997         estimate D2E/DX2                !
 ! A44   A(11,12,33)           108.9095         estimate D2E/DX2                !
 ! A45   A(13,12,17)           111.6834         estimate D2E/DX2                !
 ! A46   A(13,12,33)           110.8791         estimate D2E/DX2                !
 ! A47   A(17,12,33)           112.0465         estimate D2E/DX2                !
 ! A48   A(12,13,14)           112.4992         estimate D2E/DX2                !
 ! A49   A(12,13,22)           102.4694         estimate D2E/DX2                !
 ! A50   A(12,13,34)           111.6937         estimate D2E/DX2                !
 ! A51   A(14,13,22)           109.5748         estimate D2E/DX2                !
 ! A52   A(14,13,34)           110.1803         estimate D2E/DX2                !
 ! A53   A(22,13,34)           110.1679         estimate D2E/DX2                !
 ! A54   A(13,14,15)           114.7791         estimate D2E/DX2                !
 ! A55   A(13,14,21)           103.4187         estimate D2E/DX2                !
 ! A56   A(13,14,35)           110.539          estimate D2E/DX2                !
 ! A57   A(15,14,21)           105.0762         estimate D2E/DX2                !
 ! A58   A(15,14,35)           111.3694         estimate D2E/DX2                !
 ! A59   A(21,14,35)           111.2405         estimate D2E/DX2                !
 ! A60   A(14,15,16)           115.497          estimate D2E/DX2                !
 ! A61   A(14,15,20)           108.3392         estimate D2E/DX2                !
 ! A62   A(14,15,36)           113.158          estimate D2E/DX2                !
 ! A63   A(16,15,20)           101.606          estimate D2E/DX2                !
 ! A64   A(16,15,36)           110.5067         estimate D2E/DX2                !
 ! A65   A(20,15,36)           106.6983         estimate D2E/DX2                !
 ! A66   A(15,16,17)           117.2            estimate D2E/DX2                !
 ! A67   A(12,17,16)           108.2373         estimate D2E/DX2                !
 ! A68   A(12,17,18)           113.3041         estimate D2E/DX2                !
 ! A69   A(12,17,37)           111.2506         estimate D2E/DX2                !
 ! A70   A(16,17,18)           103.0027         estimate D2E/DX2                !
 ! A71   A(16,17,37)           108.4793         estimate D2E/DX2                !
 ! A72   A(18,17,37)           112.0717         estimate D2E/DX2                !
 ! A73   A(17,18,19)           112.4377         estimate D2E/DX2                !
 ! A74   A(17,18,38)           110.6706         estimate D2E/DX2                !
 ! A75   A(17,18,39)           110.9313         estimate D2E/DX2                !
 ! A76   A(19,18,38)           103.5343         estimate D2E/DX2                !
 ! A77   A(19,18,39)           109.2941         estimate D2E/DX2                !
 ! A78   A(38,18,39)           109.7165         estimate D2E/DX2                !
 ! A79   A(18,19,40)           110.3952         estimate D2E/DX2                !
 ! A80   A(15,20,44)           110.4065         estimate D2E/DX2                !
 ! A81   A(6,21,14)            122.2293         estimate D2E/DX2                !
 ! A82   A(13,22,41)           110.932          estimate D2E/DX2                !
 ! A83   A(5,23,43)            109.6185         estimate D2E/DX2                !
 ! D1    D(45,1,2,3)           -46.7431         estimate D2E/DX2                !
 ! D2    D(45,1,2,8)          -167.3168         estimate D2E/DX2                !
 ! D3    D(45,1,2,24)           73.1255         estimate D2E/DX2                !
 ! D4    D(1,2,3,4)             47.6974         estimate D2E/DX2                !
 ! D5    D(1,2,3,5)            -69.6074         estimate D2E/DX2                !
 ! D6    D(1,2,3,25)           165.3109         estimate D2E/DX2                !
 ! D7    D(8,2,3,4)            165.1511         estimate D2E/DX2                !
 ! D8    D(8,2,3,5)             47.8463         estimate D2E/DX2                !
 ! D9    D(8,2,3,25)           -77.2354         estimate D2E/DX2                !
 ! D10   D(24,2,3,4)           -70.349          estimate D2E/DX2                !
 ! D11   D(24,2,3,5)           172.3462         estimate D2E/DX2                !
 ! D12   D(24,2,3,25)           47.2645         estimate D2E/DX2                !
 ! D13   D(1,2,8,7)            123.9412         estimate D2E/DX2                !
 ! D14   D(1,2,8,9)             -0.052          estimate D2E/DX2                !
 ! D15   D(1,2,8,29)          -125.939          estimate D2E/DX2                !
 ! D16   D(3,2,8,7)              4.8465         estimate D2E/DX2                !
 ! D17   D(3,2,8,9)           -119.1467         estimate D2E/DX2                !
 ! D18   D(3,2,8,29)           114.9663         estimate D2E/DX2                !
 ! D19   D(24,2,8,7)          -119.0895         estimate D2E/DX2                !
 ! D20   D(24,2,8,9)           116.9173         estimate D2E/DX2                !
 ! D21   D(24,2,8,29)           -8.9697         estimate D2E/DX2                !
 ! D22   D(2,3,4,26)          -169.961          estimate D2E/DX2                !
 ! D23   D(5,3,4,26)           -52.4698         estimate D2E/DX2                !
 ! D24   D(25,3,4,26)           69.6266         estimate D2E/DX2                !
 ! D25   D(2,3,5,6)            -62.3082         estimate D2E/DX2                !
 ! D26   D(2,3,5,23)          -178.1403         estimate D2E/DX2                !
 ! D27   D(2,3,5,27)            62.8392         estimate D2E/DX2                !
 ! D28   D(4,3,5,6)           -175.69           estimate D2E/DX2                !
 ! D29   D(4,3,5,23)            68.4779         estimate D2E/DX2                !
 ! D30   D(4,3,5,27)           -50.5427         estimate D2E/DX2                !
 ! D31   D(25,3,5,6)            63.6886         estimate D2E/DX2                !
 ! D32   D(25,3,5,23)          -52.1435         estimate D2E/DX2                !
 ! D33   D(25,3,5,27)         -171.1641         estimate D2E/DX2                !
 ! D34   D(3,5,6,7)             21.9387         estimate D2E/DX2                !
 ! D35   D(3,5,6,21)           145.2007         estimate D2E/DX2                !
 ! D36   D(3,5,6,28)           -94.0065         estimate D2E/DX2                !
 ! D37   D(23,5,6,7)           135.8324         estimate D2E/DX2                !
 ! D38   D(23,5,6,21)         -100.9057         estimate D2E/DX2                !
 ! D39   D(23,5,6,28)           19.8871         estimate D2E/DX2                !
 ! D40   D(27,5,6,7)          -101.7916         estimate D2E/DX2                !
 ! D41   D(27,5,6,21)           21.4704         estimate D2E/DX2                !
 ! D42   D(27,5,6,28)          142.2632         estimate D2E/DX2                !
 ! D43   D(3,5,23,43)         -147.8529         estimate D2E/DX2                !
 ! D44   D(6,5,23,43)           95.5297         estimate D2E/DX2                !
 ! D45   D(27,5,23,43)         -28.5607         estimate D2E/DX2                !
 ! D46   D(5,6,7,8)             35.1917         estimate D2E/DX2                !
 ! D47   D(21,6,7,8)           -95.0355         estimate D2E/DX2                !
 ! D48   D(28,6,7,8)           158.1819         estimate D2E/DX2                !
 ! D49   D(5,6,21,14)           22.9514         estimate D2E/DX2                !
 ! D50   D(7,6,21,14)          150.0633         estimate D2E/DX2                !
 ! D51   D(28,6,21,14)        -103.6131         estimate D2E/DX2                !
 ! D52   D(6,7,8,2)            -50.0793         estimate D2E/DX2                !
 ! D53   D(6,7,8,9)             76.3396         estimate D2E/DX2                !
 ! D54   D(6,7,8,29)          -167.4568         estimate D2E/DX2                !
 ! D55   D(2,8,9,10)           164.2096         estimate D2E/DX2                !
 ! D56   D(2,8,9,30)           -80.1903         estimate D2E/DX2                !
 ! D57   D(2,8,9,31)            43.7131         estimate D2E/DX2                !
 ! D58   D(7,8,9,10)            38.4529         estimate D2E/DX2                !
 ! D59   D(7,8,9,30)           154.053          estimate D2E/DX2                !
 ! D60   D(7,8,9,31)           -82.0435         estimate D2E/DX2                !
 ! D61   D(29,8,9,10)          -69.9249         estimate D2E/DX2                !
 ! D62   D(29,8,9,30)           45.6752         estimate D2E/DX2                !
 ! D63   D(29,8,9,31)          169.5786         estimate D2E/DX2                !
 ! D64   D(8,9,10,32)          -37.4977         estimate D2E/DX2                !
 ! D65   D(30,9,10,32)        -158.0187         estimate D2E/DX2                !
 ! D66   D(31,9,10,32)          85.5336         estimate D2E/DX2                !
 ! D67   D(42,11,12,13)         60.9283         estimate D2E/DX2                !
 ! D68   D(42,11,12,17)       -179.785          estimate D2E/DX2                !
 ! D69   D(42,11,12,33)        -59.9441         estimate D2E/DX2                !
 ! D70   D(11,12,13,14)        164.1464         estimate D2E/DX2                !
 ! D71   D(11,12,13,22)        -78.2732         estimate D2E/DX2                !
 ! D72   D(11,12,13,34)         39.6305         estimate D2E/DX2                !
 ! D73   D(17,12,13,14)         49.5293         estimate D2E/DX2                !
 ! D74   D(17,12,13,22)        167.1097         estimate D2E/DX2                !
 ! D75   D(17,12,13,34)        -74.9866         estimate D2E/DX2                !
 ! D76   D(33,12,13,14)        -76.2029         estimate D2E/DX2                !
 ! D77   D(33,12,13,22)         41.3775         estimate D2E/DX2                !
 ! D78   D(33,12,13,34)        159.2812         estimate D2E/DX2                !
 ! D79   D(11,12,17,16)       -176.906          estimate D2E/DX2                !
 ! D80   D(11,12,17,18)         69.5237         estimate D2E/DX2                !
 ! D81   D(11,12,17,37)        -57.8139         estimate D2E/DX2                !
 ! D82   D(13,12,17,16)        -59.7            estimate D2E/DX2                !
 ! D83   D(13,12,17,18)       -173.2703         estimate D2E/DX2                !
 ! D84   D(13,12,17,37)         59.3921         estimate D2E/DX2                !
 ! D85   D(33,12,17,16)         65.3866         estimate D2E/DX2                !
 ! D86   D(33,12,17,18)        -48.1837         estimate D2E/DX2                !
 ! D87   D(33,12,17,37)       -175.5213         estimate D2E/DX2                !
 ! D88   D(12,13,14,15)        -35.4336         estimate D2E/DX2                !
 ! D89   D(12,13,14,21)       -149.303          estimate D2E/DX2                !
 ! D90   D(12,13,14,35)         91.5455         estimate D2E/DX2                !
 ! D91   D(22,13,14,15)       -148.7199         estimate D2E/DX2                !
 ! D92   D(22,13,14,21)         97.4107         estimate D2E/DX2                !
 ! D93   D(22,13,14,35)        -21.7407         estimate D2E/DX2                !
 ! D94   D(34,13,14,15)         89.9113         estimate D2E/DX2                !
 ! D95   D(34,13,14,21)        -23.958          estimate D2E/DX2                !
 ! D96   D(34,13,14,35)       -143.1095         estimate D2E/DX2                !
 ! D97   D(12,13,22,41)        161.0902         estimate D2E/DX2                !
 ! D98   D(14,13,22,41)        -79.2672         estimate D2E/DX2                !
 ! D99   D(34,13,22,41)         42.109          estimate D2E/DX2                !
 ! D100  D(13,14,15,16)         32.9538         estimate D2E/DX2                !
 ! D101  D(13,14,15,20)        146.0889         estimate D2E/DX2                !
 ! D102  D(13,14,15,36)        -95.8106         estimate D2E/DX2                !
 ! D103  D(21,14,15,16)        145.8498         estimate D2E/DX2                !
 ! D104  D(21,14,15,20)       -101.0152         estimate D2E/DX2                !
 ! D105  D(21,14,15,36)         17.0853         estimate D2E/DX2                !
 ! D106  D(35,14,15,16)        -93.5997         estimate D2E/DX2                !
 ! D107  D(35,14,15,20)         19.5353         estimate D2E/DX2                !
 ! D108  D(35,14,15,36)        137.6358         estimate D2E/DX2                !
 ! D109  D(13,14,21,6)          43.9045         estimate D2E/DX2                !
 ! D110  D(15,14,21,6)         -76.7933         estimate D2E/DX2                !
 ! D111  D(35,14,21,6)         162.5712         estimate D2E/DX2                !
 ! D112  D(14,15,16,17)        -46.4395         estimate D2E/DX2                !
 ! D113  D(20,15,16,17)       -163.4284         estimate D2E/DX2                !
 ! D114  D(36,15,16,17)         83.6178         estimate D2E/DX2                !
 ! D115  D(14,15,20,44)       -105.5659         estimate D2E/DX2                !
 ! D116  D(16,15,20,44)         16.5099         estimate D2E/DX2                !
 ! D117  D(36,15,20,44)        132.2941         estimate D2E/DX2                !
 ! D118  D(15,16,17,12)         59.1916         estimate D2E/DX2                !
 ! D119  D(15,16,17,18)        179.429          estimate D2E/DX2                !
 ! D120  D(15,16,17,37)        -61.6377         estimate D2E/DX2                !
 ! D121  D(12,17,18,19)         -9.0541         estimate D2E/DX2                !
 ! D122  D(12,17,18,38)        106.1859         estimate D2E/DX2                !
 ! D123  D(12,17,18,39)       -131.7842         estimate D2E/DX2                !
 ! D124  D(16,17,18,19)       -125.7457         estimate D2E/DX2                !
 ! D125  D(16,17,18,38)        -10.5057         estimate D2E/DX2                !
 ! D126  D(16,17,18,39)        111.5242         estimate D2E/DX2                !
 ! D127  D(37,17,18,19)        117.8527         estimate D2E/DX2                !
 ! D128  D(37,17,18,38)       -126.9073         estimate D2E/DX2                !
 ! D129  D(37,17,18,39)         -4.8774         estimate D2E/DX2                !
 ! D130  D(17,18,19,40)        -54.1555         estimate D2E/DX2                !
 ! D131  D(38,18,19,40)       -173.6418         estimate D2E/DX2                !
 ! D132  D(39,18,19,40)         69.4912         estimate D2E/DX2                !
 --------------------------------------------------------------------------------
 Trust Radius=3.00D-01 FncErr=1.00D-07 GrdErr=1.00D-07 EigMax=2.50D+02 EigMin=1.00D-04
 Number of steps in this run=    270 maximum allowed number of steps=    270.
 GradGradGradGradGradGradGradGradGradGradGradGradGradGradGradGradGradGrad

 Leave Link  103 at Tue Jun 22 14:22:12 2021, MaxMem=  2147483648 cpu:               0.1 elap:               0.0
 (Enter /home/matma/Programs/gaussian/G16_x86_SSE4/tar/g16/l202.exe)
                          Input orientation:                          
 ---------------------------------------------------------------------
 Center     Atomic      Atomic             Coordinates (Angstroms)
 Number     Number       Type             X           Y           Z
 ---------------------------------------------------------------------
      1          8           0        1.964000    0.956000    0.206000
      2          6           0        2.445000    2.126000    0.881000
      3          6           0        3.127000    1.707000    2.203000
      4          8           0        3.988000    0.630000    1.811000
      5          6           0        2.070000    1.193000    3.204000
      6          6           0        1.086000    2.332000    3.534000
      7          8           0        1.056000    3.347000    2.536000
      8          6           0        1.213000    3.022000    1.138000
      9          6           0       -0.098000    2.419000    0.616000
     10          8           0       -1.207000    3.117000    1.212000
     11          8           0        1.815000   -1.437000    6.079000
     12          6           0        0.608000   -1.218000    5.329000
     13          6           0        0.334000    0.301000    5.267000
     14          6           0       -0.697000    0.672000    4.177000
     15          6           0       -0.623000   -0.193000    2.890000
     16          8           0       -0.232000   -1.554000    3.085000
     17          6           0        0.912000   -1.798000    3.937000
     18          6           0        1.029000   -3.337000    3.929000
     19          8           0        1.036000   -3.888000    5.241000
     20          8           0       -1.944000   -0.345000    2.375000
     21          8           0       -0.288000    1.994000    3.765000
     22          8           0       -0.215000    0.567000    6.553000
     23          8           0        2.802000    0.880000    4.391000
     24          1           0        3.178000    2.625000    0.206000
     25          1           0        3.745000    2.518000    2.648000
     26          1           0        4.348000    0.189000    2.621000
     27          1           0        1.565000    0.279000    2.809000
     28          1           0        1.352000    2.916000    4.452000
     29          1           0        1.373000    4.052000    0.730000
     30          1           0       -0.227000    2.567000   -0.472000
     31          1           0       -0.195000    1.340000    0.851000
     32          1           0       -0.975000    3.338000    2.170000
     33          1           0       -0.233000   -1.754000    5.832000
     34          1           0        1.274000    0.884000    5.122000
     35          1           0       -1.728000    0.682000    4.601000
     36          1           0       -0.018000    0.274000    2.084000
     37          1           0        1.801000   -1.309000    3.482000
     38          1           0        0.133000   -3.796000    3.459000
     39          1           0        1.939000   -3.661000    3.392000
     40          1           0        1.748000   -3.463000    5.792000
     41          1           0       -0.159000    1.563000    6.775000
     42          1           0        1.689000   -1.087000    6.998000
     43          1           0        2.369000    0.113000    4.859000
     44          1           0       -2.282000   -1.261000    2.554000
     45          1           0        2.678000    0.262000    0.202000
 ---------------------------------------------------------------------
                    Distance matrix (angstroms):
                    1          2          3          4          5
     1  O    0.000000
     2  C    1.433836   0.000000
     3  C    2.429934   1.545435   0.000000
     4  O    2.603628   2.341744   1.433497   0.000000
     5  C    3.009221   2.531293   1.543841   2.436420   0.000000
     6  C    3.706730   2.987930   2.515525   3.779833   1.540934
     7  O    3.459804   2.481771   2.662617   4.062553   2.472678
     8  C    2.387673   1.544891   2.554769   3.724945   2.889299
     9  C    2.561311   2.573504   3.664169   4.617785   3.591802
    10  O    3.967014   3.798519   4.664090   5.790682   4.290521
    11  O    6.343562   6.333330   5.160374   5.216344   3.904811
    12  C    5.728014   5.860171   4.967178   5.216879   3.530721
    13  C    5.357205   5.198456   4.377874   5.040227   2.839952
    14  C    4.788572   4.780156   4.426158   5.248709   2.979003
    15  C    3.900849   4.338948   4.259632   4.806547   3.044970
    16  O    4.405809   5.056317   4.763919   4.919485   3.585997
    17  C    4.755164   5.204517   4.494219   4.458345   3.290036
    18  C    5.758889   6.414026   5.729103   5.383186   4.704275
    19  O    7.048173   7.560627   6.701175   6.394648   5.570914
    20  O    4.655065   5.253684   5.473146   6.037992   4.377771
    21  O    4.337676   3.975446   3.766223   4.895180   2.552741
    22  O    6.721887   6.455824   5.602773   6.336856   4.102304
    23  O    4.268752   3.741666   2.361546   2.850526   1.429252
    24  H    2.063821   1.114412   2.198484   2.685545   3.502327
    25  H    3.402230   2.228442   1.112506   2.079462   2.206895
    26  H    3.479076   3.225055   1.992458   0.990041   2.556793
    27  H    2.719033   2.811226   2.201423   2.643886   1.116443
    28  H    4.716424   3.817170   3.109712   4.375977   2.245386
    29  H    3.195164   2.209403   3.277998   4.440368   3.844524
    30  H    2.802764   3.027321   4.375448   5.170134   4.547204
    31  H    2.285774   2.754686   3.605312   4.350079   3.269318
    32  H    4.262504   3.850567   4.414482   5.665114   3.865515
    33  H    6.619878   6.836555   6.036370   6.298312   4.571105
    34  H    4.964709   4.571639   3.554082   4.288710   2.099481
    35  H    5.746474   5.773860   5.511085   6.360775   4.078913
    36  H    2.814308   3.308093   3.458132   4.031042   2.541398
    37  H    3.986097   4.356508   3.534172   3.366739   2.531728
    38  H    6.042853   6.860139   6.389412   6.096426   5.357902
    39  H    5.609627   6.328548   5.624988   5.011052   4.859405
    40  H    7.125841   7.472660   6.442939   6.133401   5.336644
    41  H    6.930176   6.468154   5.632203   6.535242   4.225800
    42  H    7.097939   6.950726   5.732914   5.927770   4.442747
    43  H    4.746060   4.458972   3.189002   3.489807   1.998706
    44  H    5.334483   6.051052   6.179766   6.590966   5.038305
    45  H    0.995715   1.997455   2.508710   2.107227   3.201317
                    6          7          8          9         10
     6  C    0.000000
     7  O    1.423773   0.000000
     8  C    2.496607   1.443841   0.000000
     9  C    3.150262   2.424727   1.534540   0.000000
    10  O    3.356450   2.631928   2.422994   1.439549   0.000000
    11  O    4.605847   6.001299   6.682706   6.955047   7.318408
    12  C    4.006621   5.370361   5.992337   5.994879   6.247891
    13  C    2.773762   4.154246   5.022462   5.128777   5.171805
    14  C    2.519551   3.594651   4.290236   4.011425   3.876771
    15  C    3.116254   3.933949   4.095928   3.502748   3.756706
    16  O    4.127920   5.097072   5.178669   4.679599   5.126109
    17  C    4.153262   5.334282   5.581882   5.461889   6.006081
    18  C    5.683030   6.827667   6.946972   6.736292   7.350912
    19  O    6.450174   7.724160   8.038286   7.902837   8.386532
    20  O    4.206009   4.759914   4.778442   3.760518   3.725746
    21  O    1.433695   2.268785   3.195452   3.183226   2.936579
    22  O    3.731245   5.047785   6.114608   6.220254   6.001070
    23  O    2.405703   3.546213   4.206554   5.002914   5.584111
    24  H    3.941814   3.233120   2.210760   3.307977   4.525740
    25  H    2.808892   2.816115   2.990843   4.348273   5.190684
    26  H    4.008324   4.562615   4.478103   5.362820   6.435564
    27  H    2.229322   3.121896   3.231129   3.486319   4.276522
    28  H    1.120061   1.986060   3.318607   4.130908   4.133580
    29  H    3.301997   1.964472   1.119359   2.200801   2.786207
    30  H    4.222230   3.361927   2.207425   1.105572   2.024538
    31  H    3.134249   2.903838   2.212229   1.108546   2.076582
    32  H    2.668380   2.063734   2.439718   2.007139   1.010163
    33  H    4.869904   6.208489   6.850892   6.681228   6.783783
    34  H    2.157265   3.577889   4.521838   4.954053   5.140987
    35  H    3.432140   4.372311   5.110523   4.642660   4.205471
    36  H    2.748942   3.286504   3.156229   2.600471   3.202617
    37  H    3.710904   4.809187   4.959601   5.071306   5.812954
    38  H    6.202114   7.261288   7.282758   6.838292   7.391494
    39  H    6.055066   7.115089   7.090140   6.987270   7.784022
    40  H    6.254505   7.580007   8.000073   8.049635   8.544286
    41  H    3.556047   4.756890   5.982210   6.218500   5.870280
    42  H    4.904331   6.322222   7.172870   7.497688   7.716102
    43  H    2.885425   4.192738   4.862557   5.422801   5.925572
    44  H    5.021302   5.690012   5.706502   4.697670   4.703560
    45  H    4.233390   4.194719   3.261889   3.539805   4.925886
                   11         12         13         14         15
    11  O    0.000000
    12  C    1.437814   0.000000
    13  C    2.423499   1.544759   0.000000
    14  C    3.791521   2.569480   1.545543   0.000000
    15  C    4.202511   2.917997   2.609600   1.552440   0.000000
    16  O    3.628765   2.419511   2.919333   2.522650   1.429415
    17  C    2.352423   1.538337   2.551232   2.957597   2.455292
    18  C    2.974945   2.574374   3.938060   4.371803   3.700454
    19  O    2.704900   2.705518   4.247493   4.992893   4.683215
    20  O    5.389078   4.000119   3.737682   2.415885   1.425963
    21  O    4.642086   3.683186   2.347155   1.443852   2.379248
    22  O    2.891642   2.315541   1.423360   2.426670   3.763195
    23  O    3.031831   3.177276   2.682096   3.511703   3.890367
    24  H    7.269783   6.900629   6.253242   5.882064   5.439906
    25  H    5.580205   5.566527   4.838302   5.047467   5.146602
    26  H    4.584510   4.827060   4.808956   5.301552   4.992908
    27  H    3.701359   3.083384   2.749111   2.672549   2.239797
    28  H    4.670129   4.290993   2.922118   3.051157   4.000794
    29  H    7.676997   7.036258   5.977783   5.252724   5.164266
    30  H    7.944645   6.976751   6.195611   5.042333   4.367775
    31  H    6.251705   5.219258   4.567321   3.429359   2.586657
    32  H    6.772371   5.765614   4.530812   3.348565   3.620810
    33  H    2.087056   1.116954   2.205389   2.973180   3.353235
    34  H    2.568184   2.214680   1.115578   2.196090   3.120955
    35  H    4.384917   3.097883   2.200127   1.114826   2.216793
    36  H    4.716719   3.626012   3.202518   2.236089   1.110743
    37  H    2.600190   2.200668   2.816099   3.263034   2.733440
    38  H    3.906201   3.220032   4.482708   4.600809   3.725172
    39  H    3.490204   3.389953   4.667879   5.132213   4.340838
    40  H    2.047324   2.560077   4.054962   5.067985   4.973545
    41  H    3.658017   3.226944   2.027254   2.798737   4.288596
    42  H    0.991432   1.992808   2.599794   4.092080   4.797942
    43  H    2.048857   2.256897   2.083994   3.190292   3.594810
    44  H    5.407588   4.006816   4.079665   2.980410   2.001450
    45  H    6.178228   5.723760   5.581226   5.230617   4.281235
                   16         17         18         19         20
    16  O    0.000000
    17  C    1.447127   0.000000
    18  C    2.341270   1.543462   0.000000
    19  O    3.421069   2.466555   1.423023   0.000000
    20  O    2.212854   3.564799   4.495076   5.444925   0.000000
    21  O    3.613010   3.981061   5.493719   6.207212   3.185178
    22  O    4.065213   3.702271   4.865607   4.809716   4.612686
    23  O    4.103066   3.309063   4.597832   5.155102   5.299943
    24  H    6.113982   6.214342   7.350127   8.506383   6.305580
    25  H    5.708650   5.321209   6.580170   7.422881   6.374639
    26  H    4.922372   4.181641   5.015905   5.869895   6.319409
    27  H    2.581719   2.452085   3.823238   4.853695   3.590378
    28  H    4.935448   4.762418   6.283141   6.856879   5.080518
    29  H    6.288822   6.687292   8.059110   9.138178   5.748228
    30  H    5.443796   6.307918   7.470178   8.712093   4.419643
    31  H    3.656140   4.538269   5.731194   6.936818   2.867194
    32  H    5.031991   5.749918   7.187887   8.104951   3.813853
    33  H    2.754271   2.214495   2.778478   2.552175   4.106538
    34  H    3.515857   2.954385   4.393190   4.779413   4.405902
    35  H    3.088036   3.682512   4.919857   5.379052   2.460988
    36  H    2.095085   2.931159   4.188025   5.329147   2.043849
    37  H    2.085839   1.111965   2.215531   3.214117   4.022408
    38  H    2.302100   2.197118   1.111034   1.999849   4.171137
    39  H    3.040878   2.196024   1.105190   2.070203   5.206518
    40  H    3.859084   2.629096   2.000901   0.995575   5.918503
    41  H    4.830851   4.527428   5.789737   5.787450   5.117293
    42  H    4.384051   3.237124   3.862235   3.370320   5.926330
    43  H    3.562466   2.573879   3.816150   4.234479   4.998199
    44  H    2.137828   3.521746   4.142840   5.013005   0.992643
    45  H    4.480809   4.616555   5.437144   6.731284   5.143273
                   21         22         23         24         25
    21  O    0.000000
    22  O    3.132827   0.000000
    23  O    3.343796   3.724849   0.000000
    24  H    5.007774   7.485467   4.549794   0.000000
    25  H    4.217506   5.893813   2.571059   2.509243   0.000000
    26  H    5.104827   6.035269   2.449591   3.624255   2.405947
    27  H    2.699772   4.155584   2.096209   3.857602   3.129128
    28  H    2.002911   3.519587   2.500303   4.631142   3.023122
    29  H    4.025607   6.969526   5.050401   2.359858   3.414420
    30  H    4.276005   7.304161   5.972401   3.472330   5.051097
    31  H    2.987936   5.754193   4.661031   3.666658   4.487816
    32  H    2.195980   5.240871   5.023976   4.648986   4.814487
    33  H    4.280539   2.430474   4.269152   7.903318   6.649235
    34  H    2.348062   2.089347   1.693860   5.551878   3.859595
    35  H    2.119868   2.472387   4.539185   6.867322   6.094164
    36  H    2.420137   4.482925   3.693492   4.389590   4.417443
    37  H    3.918395   4.124885   2.572937   5.301383   4.372713
    38  H    5.813345   5.360010   5.464171   7.815579   7.319212
    39  H    6.089145   5.701545   4.729001   7.155383   6.480371
    40  H    6.167080   4.546800   4.683521   8.385227   7.045928
    41  H    3.043436   1.021977   3.862314   7.444137   5.760674
    42  H    4.883992   2.561046   3.450262   7.882089   6.012126
    43  H    3.434333   3.122949   0.997398   5.349302   3.544844
    44  H    4.004695   4.858608   5.814250   7.101106   7.114380
    45  H    4.948934   6.985533   4.236156   2.415323   3.494416
                   26         27         28         29         30
    26  H    0.000000
    27  H    2.790794   0.000000
    28  H    4.445796   3.114255   0.000000
    29  H    5.229653   4.312150   3.891558   0.000000
    30  H    6.012666   4.383055   5.182742   2.491993   0.000000
    31  H    5.009646   2.838500   4.224238   3.134997   1.804683
    32  H    6.201123   4.027084   3.286417   2.845435   2.852036
    33  H    5.922105   4.062563   5.121086   7.894256   7.642741
    34  H    4.023369   2.408459   2.141030   5.416243   6.031445
    35  H    6.409464   3.770613   3.807802   5.996477   5.616187
    36  H    4.399722   1.741132   3.803221   4.247526   3.440155
    37  H    3.077748   1.740796   4.358110   6.041275   5.896633
    38  H    5.860776   4.367923   6.893689   8.400961   7.487999
    39  H    4.606541   4.000421   6.687683   8.179057   7.642646
    40  H    5.491115   4.788981   6.530242   9.068610   8.916234
    41  H    6.281452   4.511096   3.083838   6.714475   7.316533
    42  H    5.277934   4.407840   4.756017   8.111535   8.533679
    43  H    2.988455   2.208274   3.009443   5.792787   6.417234
    44  H    6.787038   4.151630   5.852836   6.701789   5.294647
    45  H    2.940372   2.834697   5.183097   4.043007   3.769128
                   31         32         33         34         35
    31  H    0.000000
    32  H    2.517968   0.000000
    33  H    5.863842   6.315795   0.000000
    34  H    4.539531   4.449092   3.119967   0.000000
    35  H    4.104333   3.678465   3.111990   3.053563   0.000000
    36  H    1.639504   3.211128   4.266909   3.357202   3.070155
    37  H    4.233601   5.569751   3.139694   2.788652   4.203580
    38  H    5.769553   7.333699   3.151960   5.096062   4.981964
    39  H    6.001720   7.679237   3.782570   4.908375   5.811215
    40  H    7.159437   8.172344   2.616609   4.423798   5.539141
    41  H    5.928305   5.002250   3.449234   2.290620   2.822091
    42  H    6.872073   7.070156   2.344894   2.752534   4.533306
    43  H    4.913623   5.367838   3.347062   1.364784   4.144362
    44  H    3.744460   4.796510   3.897016   4.882703   2.876173
    45  H    3.136465   5.165192   6.650946   5.154076   6.240227
                   36         37         38         39         40
    36  H    0.000000
    37  H    2.787302   0.000000
    38  H    4.298642   2.994649   0.000000
    39  H    4.585296   2.357763   1.812278   0.000000
    40  H    5.552764   3.158896   2.856922   2.415716   0.000000
    41  H    4.866917   4.788928   6.308724   6.567836   5.464761
    42  H    5.377134   3.524781   4.720629   4.437478   2.665200
    43  H    3.663921   2.059329   4.715928   4.071863   3.747520
    44  H    2.775396   4.187407   3.616279   4.927381   5.619106
    45  H    3.287930   3.741065   5.792447   5.110005   6.781491
                   41         42         43         44         45
    41  H    0.000000
    42  H    3.238415   0.000000
    43  H    3.487741   2.545137   0.000000
    44  H    5.504448   5.962236   5.369609   0.000000
    45  H    7.276366   6.998824   4.669618   5.696756   0.000000
 Stoichiometry    C12H22O11
 Framework group  C1[X(C12H22O11)]
 Deg. of freedom   129
 Full point group                 C1      NOp   1
 Largest Abelian subgroup         C1      NOp   1
 Largest concise Abelian subgroup C1      NOp   1
                         Standard orientation:                         
 ---------------------------------------------------------------------
 Center     Atomic      Atomic             Coordinates (Angstroms)
 Number     Number       Type             X           Y           Z
 ---------------------------------------------------------------------
      1          8           0       -2.407688    1.389367   -1.715551
      2          6           0       -2.898571    1.501287   -0.373019
      3          6           0       -1.775606    2.050473    0.535669
      4          8           0       -1.266194    3.171235   -0.198706
      5          6           0       -0.666682    0.989972    0.706182
      6          6           0       -1.254762   -0.253462    1.400811
      7          8           0       -2.668654   -0.349873    1.263909
      8          6           0       -3.331238    0.081569    0.055804
      9          6           0       -3.116872   -0.975935   -1.035318
     10          8           0       -3.188956   -2.285490   -0.441880
     11          8           0        3.205859    0.875187    1.193829
     12          6           0        2.639663   -0.223842    0.459753
     13          6           0        1.460629   -0.804541    1.271510
     14          6           0        0.547632   -1.715155    0.419500
     15          6           0        0.373886   -1.264768   -1.055977
     16          8           0        1.509961   -0.625019   -1.641880
     17          6           0        2.165197    0.403226   -0.862422
     18          6           0        3.325278    0.847218   -1.778586
     19          8           0        4.589051    0.774751   -1.128493
     20          8           0        0.249612   -2.429643   -1.868991
     21          8           0       -0.753573   -1.541819    1.020775
     22          8           0        2.123196   -1.584815    2.260515
     23          8           0        0.285155    1.584998    1.590893
     24          1           0       -3.763928    2.203276   -0.389836
     25          1           0       -2.150242    2.406152    1.520965
     26          1           0       -0.433660    3.491375    0.230920
     27          1           0       -0.189151    0.757907   -0.275936
     28          1           0       -1.127689   -0.259985    2.513621
     29          1           0       -4.390060    0.076578    0.418894
     30          1           0       -3.920852   -0.968522   -1.794167
     31          1           0       -2.136357   -0.873620   -1.542267
     32          1           0       -2.757054   -2.253037    0.470719
     33          1           0        3.430015   -0.996264    0.297600
     34          1           0        0.857958   -0.000490    1.756076
     35          1           0        0.884011   -2.776096    0.483448
     36          1           0       -0.542526   -0.659751   -1.222989
     37          1           0        1.438247    1.224828   -0.680815
     38          1           0        3.434665    0.151549   -2.637933
     39          1           0        3.163935    1.875679   -2.149639
     40          1           0        4.570408    1.287945   -0.275583
     41          1           0        1.502838   -1.777641    3.049445
     42          1           0        3.539039    0.540347    2.065500
     43          1           0        1.200926    1.261117    1.364472
     44          1           0        1.086467   -2.586435   -2.379315
     45          1           0       -1.930467    2.227810   -1.961969
 ---------------------------------------------------------------------
 Rotational constants (GHZ):           0.3878831           0.2082790           0.1917028
 Leave Link  202 at Tue Jun 22 14:22:12 2021, MaxMem=  2147483648 cpu:               0.0 elap:               0.0
 (Enter /home/matma/Programs/gaussian/G16_x86_SSE4/tar/g16/l301.exe)
 Standard basis: VSTO-6G (5D, 7F)
 Ernie: Thresh=  0.10000D-02 Tol=  0.10000D-05 Strict=F.
  NNHCO=     0 NNPyr=     0 NCTC=     0               EPep=         0.000000000
    EC=      1252.520072245  ECS=         9.060520909   EG=         0.750819136
   EHC=         0.002708657  EAt=      -175.965002454  AtH=         6.138669069
 EPDDG=         0.000000000  ECC=      1262.334120949 EAtT=       182.103671523
 There are   114 symmetry adapted cartesian basis functions of A   symmetry.
 There are   114 symmetry adapted basis functions of A   symmetry.
   114 basis functions,   684 primitive gaussians,   114 cartesian basis functions
    68 alpha electrons       68 beta electrons
       nuclear repulsion energy      1444.4377924714 Hartrees.
 IExCor=    0 DFT=F Ex=HF Corr=None ExCW=0 ScaHFX=  1.000000
 ScaDFX=  1.000000  1.000000  1.000000  1.000000 ScalE2=  1.000000  1.000000
 IRadAn=  99590 IRanWt=     -1 IRanGd=            0 ICorTp=0 IEmpDi=  4
 Integral buffers will be    131072 words long.
 Regular integral format.
 Two-electron integral symmetry is turned off.
 Leave Link  301 at Tue Jun 22 14:22:12 2021, MaxMem=  2147483648 cpu:               0.2 elap:               0.0
 (Enter /home/matma/Programs/gaussian/G16_x86_SSE4/tar/g16/l302.exe)
 Do NDO integrals.
 NPDir=0 NMtPBC=     1 NCelOv=     1 NCel=       1 NClECP=     1 NCelD=      1
         NCelK=      1 NCelE2=     1 NClLst=     1 CellRange=     0.0.
 One-electron integrals computed using PRISM.
 NBasis=   114 RedAO= F EigKep=  0.00D+00  NBF=   114
 NBsUse=   114 1.00D-04 EigRej=  0.00D+00 NBFU=   114
 Leave Link  302 at Tue Jun 22 14:22:12 2021, MaxMem=  2147483648 cpu:               0.6 elap:               0.1
 (Enter /home/matma/Programs/gaussian/G16_x86_SSE4/tar/g16/l303.exe)
 DipDrv:  MaxL=1.
 Leave Link  303 at Tue Jun 22 14:22:12 2021, MaxMem=  2147483648 cpu:               0.1 elap:               0.0
 (Enter /home/matma/Programs/gaussian/G16_x86_SSE4/tar/g16/l401.exe)
 Simple Huckel Guess.
 JPrj=0 DoOrth=F DoCkMO=F.
 Leave Link  401 at Tue Jun 22 14:22:12 2021, MaxMem=  2147483648 cpu:               0.3 elap:               0.0
 (Enter /home/matma/Programs/gaussian/G16_x86_SSE4/tar/g16/l502.exe)
 Keep J ints in memory in canonical form, NReq=892272.
 FoFCou: FMM=F IPFlag=           0 FMFlag=           0 FMFlg1=           0
         NFxFlg=           0 DoJE=F BraDBF=F KetDBF=F FulRan=T
         wScrn=  0.000000 ICntrl=       600 IOpCl=  2 I1Cent=           0 NGrid=           0
         NMat0=    1 NMatS0=    252 NMatT0=    0 NMatD0=    1 NMtDS0=    0 NMtDT0=    0
 Symmetry not used in FoFCou.
 Two-electron integral symmetry not used.
 Closed shell SCF:
 Using DIIS extrapolation, IDIIS=  1040.
 Overlap will be assumed to be unity.
 NGot=  2147483648 LenX=  2147363403 LenY=  2147349966
 Requested convergence on RMS density matrix=1.00D-08 within 128 cycles.
 Requested convergence on MAX density matrix=1.00D-06.
 Requested convergence on             energy=1.00D-06.
 No special actions if energy rises.

 Cycle   1  Pass 1  IDiag  1:
 E= 0.515963239447046    
 DIIS: error= 5.72D-02 at cycle   1 NSaved=   1.
 NSaved= 1 IEnMin= 1 EnMin= 0.515963239447046     IErMin= 1 ErrMin= 5.72D-02
 ErrMax= 5.72D-02  0.00D+00 EMaxC= 1.00D-01 BMatC= 3.16D-01 BMatP= 3.16D-01
 IDIUse=3 WtCom= 4.28D-01 WtEn= 5.72D-01
 Coeff-Com:  0.100D+01
 Coeff-En:   0.100D+01
 Coeff:      0.100D+01
 GapD=    2.000 DampG=2.000 DampE=0.500 DampFc=1.0000 IDamp=-1.
 RMSDP=8.28D-03 MaxDP=1.25D-01              OVMax= 0.00D+00

 Cycle   2  Pass 1  IDiag  1:
 E=-0.492069480355895     Delta-E=       -1.008032719803 Rises=F Damp=F
 DIIS: error= 1.69D-02 at cycle   2 NSaved=   2.
 NSaved= 2 IEnMin= 2 EnMin=-0.492069480355895     IErMin= 2 ErrMin= 1.69D-02
 ErrMax= 1.69D-02  0.00D+00 EMaxC= 1.00D-01 BMatC= 4.64D-02 BMatP= 3.16D-01
 IDIUse=3 WtCom= 8.31D-01 WtEn= 1.69D-01
 Coeff-Com: -0.439D+00 0.144D+01
 Coeff-En:   0.000D+00 0.100D+01
 Coeff:     -0.365D+00 0.136D+01
 RMSDP=4.86D-03 MaxDP=5.77D-02 DE=-1.01D+00 OVMax= 0.00D+00

 Cycle   3  Pass 1  IDiag  3:
 E=-0.703443131410268     Delta-E=       -0.211373651054 Rises=F Damp=F
 DIIS: error= 5.50D-03 at cycle   3 NSaved=   3.
 NSaved= 3 IEnMin= 3 EnMin=-0.703443131410268     IErMin= 3 ErrMin= 5.50D-03
 ErrMax= 5.50D-03  0.00D+00 EMaxC= 1.00D-01 BMatC= 4.80D-03 BMatP= 4.64D-02
 IDIUse=3 WtCom= 9.45D-01 WtEn= 5.50D-02
 Coeff-Com:  0.263D+00-0.105D+01 0.179D+01
 Coeff-En:   0.000D+00 0.000D+00 0.100D+01
 Coeff:      0.249D+00-0.995D+00 0.175D+01
 Gap=     0.372 Goal=   None    Shift=    0.000
 RMSDP=2.45D-03 MaxDP=3.69D-02 DE=-2.11D-01 OVMax= 2.61D-02

 Cycle   4  Pass 1  IDiag  3:
 E=-0.735256811872887     Delta-E=       -0.031813680463 Rises=F Damp=F
 DIIS: error= 1.18D-03 at cycle   4 NSaved=   4.
 NSaved= 4 IEnMin= 4 EnMin=-0.735256811872887     IErMin= 4 ErrMin= 1.18D-03
 ErrMax= 1.18D-03  0.00D+00 EMaxC= 1.00D-01 BMatC= 2.17D-04 BMatP= 4.80D-03
 IDIUse=3 WtCom= 9.88D-01 WtEn= 1.18D-02
 Coeff-Com: -0.483D-01 0.216D+00-0.558D+00 0.139D+01
 Coeff-En:   0.000D+00 0.000D+00 0.000D+00 0.100D+01
 Coeff:     -0.477D-01 0.214D+00-0.551D+00 0.139D+01
 Gap=     0.370 Goal=   None    Shift=    0.000
 RMSDP=5.77D-04 MaxDP=8.72D-03 DE=-3.18D-02 OVMax= 7.18D-03

 Cycle   5  Pass 1  IDiag  3:
 E=-0.736785767494894     Delta-E=       -0.001528955622 Rises=F Damp=F
 DIIS: error= 3.32D-04 at cycle   5 NSaved=   5.
 NSaved= 5 IEnMin= 5 EnMin=-0.736785767494894     IErMin= 5 ErrMin= 3.32D-04
 ErrMax= 3.32D-04  0.00D+00 EMaxC= 1.00D-01 BMatC= 1.21D-05 BMatP= 2.17D-04
 IDIUse=3 WtCom= 9.97D-01 WtEn= 3.32D-03
 Coeff-Com: -0.925D-03 0.354D-02 0.377D-01-0.357D+00 0.132D+01
 Coeff-En:   0.000D+00 0.000D+00 0.000D+00 0.000D+00 0.100D+01
 Coeff:     -0.922D-03 0.353D-02 0.376D-01-0.356D+00 0.132D+01
 Gap=     0.371 Goal=   None    Shift=    0.000
 RMSDP=1.20D-04 MaxDP=1.96D-03 DE=-1.53D-03 OVMax= 1.66D-03

 Cycle   6  Pass 1  IDiag  3:
 E=-0.736864008232260     Delta-E=       -0.000078240737 Rises=F Damp=F
 DIIS: error= 1.08D-04 at cycle   6 NSaved=   6.
 NSaved= 6 IEnMin= 6 EnMin=-0.736864008232260     IErMin= 6 ErrMin= 1.08D-04
 ErrMax= 1.08D-04  0.00D+00 EMaxC= 1.00D-01 BMatC= 1.08D-06 BMatP= 1.21D-05
 IDIUse=3 WtCom= 9.99D-01 WtEn= 1.08D-03
 Coeff-Com:  0.375D-02-0.163D-01 0.195D-01 0.749D-01-0.623D+00 0.154D+01
 Coeff-En:   0.000D+00 0.000D+00 0.000D+00 0.000D+00 0.000D+00 0.100D+01
 Coeff:      0.374D-02-0.163D-01 0.195D-01 0.748D-01-0.622D+00 0.154D+01
 Gap=     0.371 Goal=   None    Shift=    0.000
 RMSDP=4.00D-05 MaxDP=7.33D-04 DE=-7.82D-05 OVMax= 5.92D-04

 Cycle   7  Pass 1  IDiag  3:
 E=-0.736871544084806     Delta-E=       -0.000007535853 Rises=F Damp=F
 DIIS: error= 3.59D-05 at cycle   7 NSaved=   7.
 NSaved= 7 IEnMin= 7 EnMin=-0.736871544084806     IErMin= 7 ErrMin= 3.59D-05
 ErrMax= 3.59D-05  0.00D+00 EMaxC= 1.00D-01 BMatC= 7.01D-08 BMatP= 1.08D-06
 IDIUse=1 WtCom= 1.00D+00 WtEn= 0.00D+00
 Coeff-Com: -0.142D-02 0.653D-02-0.880D-02-0.243D-01 0.250D+00-0.801D+00
 Coeff-Com:  0.158D+01
 Coeff:     -0.142D-02 0.653D-02-0.880D-02-0.243D-01 0.250D+00-0.801D+00
 Coeff:      0.158D+01
 Gap=     0.371 Goal=   None    Shift=    0.000
 RMSDP=1.06D-05 MaxDP=2.32D-04 DE=-7.54D-06 OVMax= 1.53D-04

 Cycle   8  Pass 1  IDiag  3:
 E=-0.736872053497564     Delta-E=       -0.000000509413 Rises=F Damp=F
 DIIS: error= 8.52D-06 at cycle   8 NSaved=   8.
 NSaved= 8 IEnMin= 8 EnMin=-0.736872053497564     IErMin= 8 ErrMin= 8.52D-06
 ErrMax= 8.52D-06  0.00D+00 EMaxC= 1.00D-01 BMatC= 5.05D-09 BMatP= 7.01D-08
 IDIUse=1 WtCom= 1.00D+00 WtEn= 0.00D+00
 Coeff-Com:  0.343D-03-0.178D-02 0.252D-02 0.667D-02-0.766D-01 0.273D+00
 Coeff-Com: -0.747D+00 0.154D+01
 Coeff:      0.343D-03-0.178D-02 0.252D-02 0.667D-02-0.766D-01 0.273D+00
 Coeff:     -0.747D+00 0.154D+01
 Gap=     0.371 Goal=   None    Shift=    0.000
 RMSDP=2.87D-06 MaxDP=6.77D-05 DE=-5.09D-07 OVMax= 3.94D-05

 Cycle   9  Pass 1  IDiag  3:
 E=-0.736872090635416     Delta-E=       -0.000000037138 Rises=F Damp=F
 DIIS: error= 2.81D-06 at cycle   9 NSaved=   9.
 NSaved= 9 IEnMin= 9 EnMin=-0.736872090635416     IErMin= 9 ErrMin= 2.81D-06
 ErrMax= 2.81D-06  0.00D+00 EMaxC= 1.00D-01 BMatC= 4.67D-10 BMatP= 5.05D-09
 IDIUse=1 WtCom= 1.00D+00 WtEn= 0.00D+00
 Coeff-Com: -0.659D-04 0.445D-03-0.676D-03-0.124D-02 0.202D-01-0.818D-01
 Coeff-Com:  0.270D+00-0.799D+00 0.159D+01
 Coeff:     -0.659D-04 0.445D-03-0.676D-03-0.124D-02 0.202D-01-0.818D-01
 Coeff:      0.270D+00-0.799D+00 0.159D+01
 Gap=     0.371 Goal=   None    Shift=    0.000
 RMSDP=8.63D-07 MaxDP=2.69D-05 DE=-3.71D-08 OVMax= 1.01D-05

 Cycle  10  Pass 1  IDiag  3:
 E=-0.736872094040336     Delta-E=       -0.000000003405 Rises=F Damp=F
 DIIS: error= 8.01D-07 at cycle  10 NSaved=  10.
 NSaved=10 IEnMin=10 EnMin=-0.736872094040336     IErMin=10 ErrMin= 8.01D-07
 ErrMax= 8.01D-07  0.00D+00 EMaxC= 1.00D-01 BMatC= 4.77D-11 BMatP= 4.67D-10
 IDIUse=1 WtCom= 1.00D+00 WtEn= 0.00D+00
 Coeff-Com:  0.160D-04-0.122D-03 0.216D-03-0.298D-03-0.218D-02 0.131D-01
 Coeff-Com: -0.555D-01 0.218D+00-0.724D+00 0.155D+01
 Coeff:      0.160D-04-0.122D-03 0.216D-03-0.298D-03-0.218D-02 0.131D-01
 Coeff:     -0.555D-01 0.218D+00-0.724D+00 0.155D+01
 Gap=     0.371 Goal=   None    Shift=    0.000
 RMSDP=2.90D-07 MaxDP=8.57D-06 DE=-3.40D-09 OVMax= 3.37D-06

 Cycle  11  Pass 1  IDiag  3:
 E=-0.736872094408909     Delta-E=       -0.000000000369 Rises=F Damp=F
 DIIS: error= 2.17D-07 at cycle  11 NSaved=  11.
 NSaved=11 IEnMin=11 EnMin=-0.736872094408909     IErMin=11 ErrMin= 2.17D-07
 ErrMax= 2.17D-07  0.00D+00 EMaxC= 1.00D-01 BMatC= 4.56D-12 BMatP= 4.77D-11
 IDIUse=1 WtCom= 1.00D+00 WtEn= 0.00D+00
 Coeff-Com: -0.615D-05 0.435D-04-0.848D-04 0.351D-03-0.787D-03 0.319D-03
 Coeff-Com:  0.658D-02-0.479D-01 0.233D+00-0.767D+00 0.158D+01
 Coeff:     -0.615D-05 0.435D-04-0.848D-04 0.351D-03-0.787D-03 0.319D-03
 Coeff:      0.658D-02-0.479D-01 0.233D+00-0.767D+00 0.158D+01
 Gap=     0.371 Goal=   None    Shift=    0.000
 RMSDP=8.83D-08 MaxDP=2.28D-06 DE=-3.69D-10 OVMax= 9.99D-07

 Cycle  12  Pass 1  IDiag  3:
 E=-0.736872094425735     Delta-E=       -0.000000000017 Rises=F Damp=F
 DIIS: error= 7.83D-08 at cycle  12 NSaved=  12.
 NSaved=12 IEnMin=12 EnMin=-0.736872094425735     IErMin=12 ErrMin= 7.83D-08
 ErrMax= 7.83D-08  0.00D+00 EMaxC= 1.00D-01 BMatC= 4.33D-13 BMatP= 4.56D-12
 IDIUse=1 WtCom= 1.00D+00 WtEn= 0.00D+00
 Coeff-Com:  0.229D-05-0.149D-04 0.307D-04-0.180D-03 0.681D-03-0.143D-02
 Coeff-Com:  0.135D-02 0.617D-02-0.536D-01 0.235D+00-0.774D+00 0.159D+01
 Coeff:      0.229D-05-0.149D-04 0.307D-04-0.180D-03 0.681D-03-0.143D-02
 Coeff:      0.135D-02 0.617D-02-0.536D-01 0.235D+00-0.774D+00 0.159D+01
 Gap=     0.371 Goal=   None    Shift=    0.000
 RMSDP=2.80D-08 MaxDP=7.38D-07 DE=-1.68D-11 OVMax= 3.12D-07

 Cycle  13  Pass 1  IDiag  3:
 E=-0.736872094435739     Delta-E=       -0.000000000010 Rises=F Damp=F
 DIIS: error= 1.96D-08 at cycle  13 NSaved=  13.
 NSaved=13 IEnMin=13 EnMin=-0.736872094435739     IErMin=13 ErrMin= 1.96D-08
 ErrMax= 1.96D-08  0.00D+00 EMaxC= 1.00D-01 BMatC= 3.17D-14 BMatP= 4.33D-13
 IDIUse=1 WtCom= 1.00D+00 WtEn= 0.00D+00
 Coeff-Com: -0.598D-06 0.390D-05-0.881D-05 0.704D-04-0.323D-03 0.817D-03
 Coeff-Com: -0.146D-02 0.119D-02 0.730D-02-0.540D-01 0.248D+00-0.744D+00
 Coeff-Com:  0.154D+01
 Coeff:     -0.598D-06 0.390D-05-0.881D-05 0.704D-04-0.323D-03 0.817D-03
 Coeff:     -0.146D-02 0.119D-02 0.730D-02-0.540D-01 0.248D+00-0.744D+00
 Coeff:      0.154D+01
 Gap=     0.371 Goal=   None    Shift=    0.000
 RMSDP=7.07D-09 MaxDP=1.61D-07 DE=-1.00D-11 OVMax= 8.76D-08

 Cycle  14  Pass 2  IDiag  1:
 SCF Done:  E(RPM6) = -0.736872094436     A.U. after   14 cycles
            NFock= 13  Conv=0.71D-08     -V/T= 0.9976
 KE=-3.044057269660D+02 PE=-2.489923320875D+03 EE= 1.349154383275D+03
 Leave Link  502 at Tue Jun 22 14:22:12 2021, MaxMem=  2147483648 cpu:               0.5 elap:               0.0
 (Enter /home/matma/Programs/gaussian/G16_x86_SSE4/tar/g16/l601.exe)
 Copying SCF densities to generalized density rwf, IOpCl= 0 IROHF=0.

 **********************************************************************

            Population analysis using the SCF Density.

 **********************************************************************

 Orbital symmetries:
       Occupied  (A) (A) (A) (A) (A) (A) (A) (A) (A) (A) (A) (A)
                 (A) (A) (A) (A) (A) (A) (A) (A) (A) (A) (A) (A)
                 (A) (A) (A) (A) (A) (A) (A) (A) (A) (A) (A) (A)
                 (A) (A) (A) (A) (A) (A) (A) (A) (A) (A) (A) (A)
                 (A) (A) (A) (A) (A) (A) (A) (A) (A) (A) (A) (A)
                 (A) (A) (A) (A) (A) (A) (A) (A)
       Virtual   (A) (A) (A) (A) (A) (A) (A) (A) (A) (A) (A) (A)
                 (A) (A) (A) (A) (A) (A) (A) (A) (A) (A) (A) (A)
                 (A) (A) (A) (A) (A) (A) (A) (A) (A) (A) (A) (A)
                 (A) (A) (A) (A) (A) (A) (A) (A) (A) (A)
 The electronic state is 1-A.
 Alpha  occ. eigenvalues --   -1.22685  -1.17341  -1.15442  -1.14654  -1.14435
 Alpha  occ. eigenvalues --   -1.12753  -1.11539  -1.10621  -1.10321  -1.09669
 Alpha  occ. eigenvalues --   -1.07589  -1.02774  -1.01954  -1.00413  -0.99135
 Alpha  occ. eigenvalues --   -0.93940  -0.92594  -0.88404  -0.87636  -0.83770
 Alpha  occ. eigenvalues --   -0.82936  -0.80979  -0.76298  -0.75008  -0.72497
 Alpha  occ. eigenvalues --   -0.71704  -0.70782  -0.69479  -0.68921  -0.66834
 Alpha  occ. eigenvalues --   -0.65859  -0.65593  -0.64750  -0.64006  -0.63611
 Alpha  occ. eigenvalues --   -0.62395  -0.61585  -0.60150  -0.59526  -0.58988
 Alpha  occ. eigenvalues --   -0.57082  -0.56979  -0.56123  -0.56109  -0.55448
 Alpha  occ. eigenvalues --   -0.53122  -0.52455  -0.52059  -0.51016  -0.50913
 Alpha  occ. eigenvalues --   -0.50713  -0.50448  -0.49421  -0.48822  -0.47915
 Alpha  occ. eigenvalues --   -0.47036  -0.45970  -0.44618  -0.44050  -0.43733
 Alpha  occ. eigenvalues --   -0.43331  -0.42598  -0.42207  -0.41748  -0.41075
 Alpha  occ. eigenvalues --   -0.40582  -0.38850  -0.37018
 Alpha virt. eigenvalues --   -0.00057   0.01168   0.02181   0.03351   0.03988
 Alpha virt. eigenvalues --    0.04352   0.04654   0.05939   0.06119   0.06476
 Alpha virt. eigenvalues --    0.06825   0.07044   0.07306   0.07925   0.08586
 Alpha virt. eigenvalues --    0.09004   0.09093   0.09257   0.09677   0.10178
 Alpha virt. eigenvalues --    0.11026   0.11967   0.12100   0.12159   0.12849
 Alpha virt. eigenvalues --    0.13374   0.14356   0.15258   0.15327   0.15501
 Alpha virt. eigenvalues --    0.15945   0.16053   0.16446   0.16525   0.16765
 Alpha virt. eigenvalues --    0.17039   0.17274   0.17440   0.17811   0.18057
 Alpha virt. eigenvalues --    0.18746   0.18883   0.19680   0.20196   0.21187
 Alpha virt. eigenvalues --    0.22754
          Condensed to atoms (all electrons):
               1          2          3          4          5          6
     1  O    6.554279   0.000000   0.000000   0.000000   0.000000   0.000000
     2  C    0.000000   3.931249   0.000000   0.000000   0.000000   0.000000
     3  C    0.000000   0.000000   3.906244   0.000000   0.000000   0.000000
     4  O    0.000000   0.000000   0.000000   6.556179   0.000000   0.000000
     5  C    0.000000   0.000000   0.000000   0.000000   4.057963   0.000000
     6  C    0.000000   0.000000   0.000000   0.000000   0.000000   3.678119
     7  O    0.000000   0.000000   0.000000   0.000000   0.000000   0.000000
     8  C    0.000000   0.000000   0.000000   0.000000   0.000000   0.000000
     9  C    0.000000   0.000000   0.000000   0.000000   0.000000   0.000000
    10  O    0.000000   0.000000   0.000000   0.000000   0.000000   0.000000
    11  O    0.000000   0.000000   0.000000   0.000000   0.000000   0.000000
    12  C    0.000000   0.000000   0.000000   0.000000   0.000000   0.000000
    13  C    0.000000   0.000000   0.000000   0.000000   0.000000   0.000000
    14  C    0.000000   0.000000   0.000000   0.000000   0.000000   0.000000
    15  C    0.000000   0.000000   0.000000   0.000000   0.000000   0.000000
    16  O    0.000000   0.000000   0.000000   0.000000   0.000000   0.000000
    17  C    0.000000   0.000000   0.000000   0.000000   0.000000   0.000000
    18  C    0.000000   0.000000   0.000000   0.000000   0.000000   0.000000
    19  O    0.000000   0.000000   0.000000   0.000000   0.000000   0.000000
    20  O    0.000000   0.000000   0.000000   0.000000   0.000000   0.000000
    21  O    0.000000   0.000000   0.000000   0.000000   0.000000   0.000000
    22  O    0.000000   0.000000   0.000000   0.000000   0.000000   0.000000
    23  O    0.000000   0.000000   0.000000   0.000000   0.000000   0.000000
    24  H    0.000000   0.000000   0.000000   0.000000   0.000000   0.000000
    25  H    0.000000   0.000000   0.000000   0.000000   0.000000   0.000000
    26  H    0.000000   0.000000   0.000000   0.000000   0.000000   0.000000
    27  H    0.000000   0.000000   0.000000   0.000000   0.000000   0.000000
    28  H    0.000000   0.000000   0.000000   0.000000   0.000000   0.000000
    29  H    0.000000   0.000000   0.000000   0.000000   0.000000   0.000000
    30  H    0.000000   0.000000   0.000000   0.000000   0.000000   0.000000
    31  H    0.000000   0.000000   0.000000   0.000000   0.000000   0.000000
    32  H    0.000000   0.000000   0.000000   0.000000   0.000000   0.000000
    33  H    0.000000   0.000000   0.000000   0.000000   0.000000   0.000000
    34  H    0.000000   0.000000   0.000000   0.000000   0.000000   0.000000
    35  H    0.000000   0.000000   0.000000   0.000000   0.000000   0.000000
    36  H    0.000000   0.000000   0.000000   0.000000   0.000000   0.000000
    37  H    0.000000   0.000000   0.000000   0.000000   0.000000   0.000000
    38  H    0.000000   0.000000   0.000000   0.000000   0.000000   0.000000
    39  H    0.000000   0.000000   0.000000   0.000000   0.000000   0.000000
    40  H    0.000000   0.000000   0.000000   0.000000   0.000000   0.000000
    41  H    0.000000   0.000000   0.000000   0.000000   0.000000   0.000000
    42  H    0.000000   0.000000   0.000000   0.000000   0.000000   0.000000
    43  H    0.000000   0.000000   0.000000   0.000000   0.000000   0.000000
    44  H    0.000000   0.000000   0.000000   0.000000   0.000000   0.000000
    45  H    0.000000   0.000000   0.000000   0.000000   0.000000   0.000000
               7          8          9         10         11         12
     1  O    0.000000   0.000000   0.000000   0.000000   0.000000   0.000000
     2  C    0.000000   0.000000   0.000000   0.000000   0.000000   0.000000
     3  C    0.000000   0.000000   0.000000   0.000000   0.000000   0.000000
     4  O    0.000000   0.000000   0.000000   0.000000   0.000000   0.000000
     5  C    0.000000   0.000000   0.000000   0.000000   0.000000   0.000000
     6  C    0.000000   0.000000   0.000000   0.000000   0.000000   0.000000
     7  O    6.440203   0.000000   0.000000   0.000000   0.000000   0.000000
     8  C    0.000000   3.946213   0.000000   0.000000   0.000000   0.000000
     9  C    0.000000   0.000000   4.028289   0.000000   0.000000   0.000000
    10  O    0.000000   0.000000   0.000000   6.543794   0.000000   0.000000
    11  O    0.000000   0.000000   0.000000   0.000000   6.568574   0.000000
    12  C    0.000000   0.000000   0.000000   0.000000   0.000000   3.940763
    13  C    0.000000   0.000000   0.000000   0.000000   0.000000   0.000000
    14  C    0.000000   0.000000   0.000000   0.000000   0.000000   0.000000
    15  C    0.000000   0.000000   0.000000   0.000000   0.000000   0.000000
    16  O    0.000000   0.000000   0.000000   0.000000   0.000000   0.000000
    17  C    0.000000   0.000000   0.000000   0.000000   0.000000   0.000000
    18  C    0.000000   0.000000   0.000000   0.000000   0.000000   0.000000
    19  O    0.000000   0.000000   0.000000   0.000000   0.000000   0.000000
    20  O    0.000000   0.000000   0.000000   0.000000   0.000000   0.000000
    21  O    0.000000   0.000000   0.000000   0.000000   0.000000   0.000000
    22  O    0.000000   0.000000   0.000000   0.000000   0.000000   0.000000
    23  O    0.000000   0.000000   0.000000   0.000000   0.000000   0.000000
    24  H    0.000000   0.000000   0.000000   0.000000   0.000000   0.000000
    25  H    0.000000   0.000000   0.000000   0.000000   0.000000   0.000000
    26  H    0.000000   0.000000   0.000000   0.000000   0.000000   0.000000
    27  H    0.000000   0.000000   0.000000   0.000000   0.000000   0.000000
    28  H    0.000000   0.000000   0.000000   0.000000   0.000000   0.000000
    29  H    0.000000   0.000000   0.000000   0.000000   0.000000   0.000000
    30  H    0.000000   0.000000   0.000000   0.000000   0.000000   0.000000
    31  H    0.000000   0.000000   0.000000   0.000000   0.000000   0.000000
    32  H    0.000000   0.000000   0.000000   0.000000   0.000000   0.000000
    33  H    0.000000   0.000000   0.000000   0.000000   0.000000   0.000000
    34  H    0.000000   0.000000   0.000000   0.000000   0.000000   0.000000
    35  H    0.000000   0.000000   0.000000   0.000000   0.000000   0.000000
    36  H    0.000000   0.000000   0.000000   0.000000   0.000000   0.000000
    37  H    0.000000   0.000000   0.000000   0.000000   0.000000   0.000000
    38  H    0.000000   0.000000   0.000000   0.000000   0.000000   0.000000
    39  H    0.000000   0.000000   0.000000   0.000000   0.000000   0.000000
    40  H    0.000000   0.000000   0.000000   0.000000   0.000000   0.000000
    41  H    0.000000   0.000000   0.000000   0.000000   0.000000   0.000000
    42  H    0.000000   0.000000   0.000000   0.000000   0.000000   0.000000
    43  H    0.000000   0.000000   0.000000   0.000000   0.000000   0.000000
    44  H    0.000000   0.000000   0.000000   0.000000   0.000000   0.000000
    45  H    0.000000   0.000000   0.000000   0.000000   0.000000   0.000000
              13         14         15         16         17         18
     1  O    0.000000   0.000000   0.000000   0.000000   0.000000   0.000000
     2  C    0.000000   0.000000   0.000000   0.000000   0.000000   0.000000
     3  C    0.000000   0.000000   0.000000   0.000000   0.000000   0.000000
     4  O    0.000000   0.000000   0.000000   0.000000   0.000000   0.000000
     5  C    0.000000   0.000000   0.000000   0.000000   0.000000   0.000000
     6  C    0.000000   0.000000   0.000000   0.000000   0.000000   0.000000
     7  O    0.000000   0.000000   0.000000   0.000000   0.000000   0.000000
     8  C    0.000000   0.000000   0.000000   0.000000   0.000000   0.000000
     9  C    0.000000   0.000000   0.000000   0.000000   0.000000   0.000000
    10  O    0.000000   0.000000   0.000000   0.000000   0.000000   0.000000
    11  O    0.000000   0.000000   0.000000   0.000000   0.000000   0.000000
    12  C    0.000000   0.000000   0.000000   0.000000   0.000000   0.000000
    13  C    4.039874   0.000000   0.000000   0.000000   0.000000   0.000000
[...]
 .00026963,0.00011526,0.00004696,0.00011591,0.00008094,-0.00008879,-0.0
 0012512,0.00017286,0.00055922,0.00001460,0.00052941,-0.00032166,-0.000
 13882,-0.00007521,0.00001076,0.00000426,-0.00000965,0.00001203,0.00001
 765,0.00002924,0.00011223,-0.00000840,0.00004758,-0.00000572,0.0000779
 9,-0.00009804,0.00001522,0.00001179,0.00001532,0.00000523,0.00001891,0
 .00000372,0.00000272,-0.00000512,-0.00001056,0.00000273,0.00000262,-0.
 00001802,-0.00000165,0.00001068,-0.00000434,-0.00037119,-0.00081450,-0
 .00069736,-0.00015606,0.00037425,-0.00015169,-0.00003100,-0.00002746,-
 0.00001725,0.00000402,0.00003394,0.00002163,-0.00026410,0.00016743,0.0
 0025886,-0.00000981,-0.00001037,-0.00005869,-0.00001753,-0.00005216,-0
 .00003113,0.00052658,-0.00006624,0.00027646,-0.00028434,0.00004973,0.0
 0000230,0.05548664,0.00001376,-0.00009622,-0.00008607,0.00006865,0.000
 04445,0.00000468,-0.00015648,0.00013170,0.00005171,0.00015141,-0.00016
 740,-0.00002140,0.00008618,-0.00013900,0.00026362,-0.00004004,-0.00019
 540,0.00020713,-0.00001246,0.00006337,-0.00026128,-0.00000369,0.000091
 98,0.00011934,0.00004482,-0.00006607,-0.00001546,-0.00004072,0.0000512
 2,-0.00002733,-0.00466103,-0.00526046,0.02133020,-0.00023849,-0.001368
 83,-0.00324875,0.00230557,-0.00087954,0.00084335,-0.00009964,-0.000462
 91,-0.00015092,0.00015278,0.00024774,0.00011120,-0.00033885,-0.0004709
 1,-0.00079182,-0.00186618,0.00022814,-0.00086918,-0.00057364,0.0008235
 6,-0.00120312,0.00109974,0.00081519,0.00205258,-0.00015773,-0.00016399
 ,-0.00005872,-0.00001060,0.00003207,-0.00011325,-0.00071266,-0.0003315
 3,-0.00018247,0.00009597,-0.00048050,-0.00043459,-0.00002113,-0.000006
 32,0.00001402,-0.00000109,-0.00000979,-0.00000299,-0.00005477,0.000066
 30,-0.00001507,-0.00004056,0.00009128,-0.00001360,0.00003153,-0.000000
 47,0.00007550,-0.00000333,-0.00002931,-0.00000936,-0.00000256,0.000015
 03,0.00002139,0.00000063,0.00000086,0.00002240,0.00001601,-0.00001202,
 0.00000592,-0.00117702,0.00083500,-0.00120694,0.00080973,-0.00056992,0
 .00055274,0.00005547,0.00001908,-0.00001639,-0.00001820,-0.00004131,0.
 00002994,-0.00010187,0.00001045,0.00004734,-0.00001910,-0.00007344,0.0
 0001493,0.00000670,-0.00014822,0.00004842,0.00014361,-0.00113570,-0.00
 149818,0.00032397,-0.00005876,0.00012007,0.00456606,0.00679663,-0.0000
 7149,-0.00012995,0.00017175,-0.00001824,0.00009026,0.00002526,0.000107
 82,-0.00010550,-0.00015214,-0.00026927,0.00000794,0.00010345,-0.000048
 98,-0.00021469,0.00007324,0.00049839,0.00048646,-0.00044749,-0.0001003
 8,-0.00028077,0.00035545,0.00002261,-0.00013164,-0.00007422,-0.0001110
 2,0.00012868,0.00000029,0.00007493,-0.00018969,0.00003298,-0.01757525,
 0.01693748,-0.20117071,-0.01576058,0.00071775,-0.02568084,-0.00009997,
 0.00094560,0.00120823,0.00029907,0.00032506,-0.00052151,-0.00064613,0.
 00047663,-0.00053191,0.00067163,-0.00060108,0.00099644,-0.00153042,-0.
 00049060,-0.00219619,0.00042946,-0.00042304,0.00035594,-0.00043579,0.0
 0094743,-0.00031203,0.00066031,-0.00001430,0.00020247,-0.00047373,-0.0
 0082039,0.00031682,0.00039717,-0.00099012,-0.00135533,-0.00030608,-0.0
 0033776,0.00005597,0.00002980,0.00000709,-0.00003772,0.00002993,0.0000
 6024,0.00004799,0.00017462,0.00003369,0.00000356,0.00010902,0.00019453
 ,-0.00009870,0.00001382,0.00006312,0.00012963,0.00001234,0.00006548,-0
 .00000536,0.00000818,0.00000345,-0.00003804,0.00001107,0.00003907,-0.0
 0005258,-0.00002375,0.00006366,0.00002123,0.00082011,-0.00110675,0.002
 79361,0.00018274,0.00055780,0.00017786,-0.00015371,0.00003464,0.000090
 23,0.00011412,0.00009638,-0.00014736,0.00017615,0.00015257,-0.00000398
 ,-0.00013095,-0.00012018,-0.00003753,-0.00002695,0.00002684,-0.0001813
 2,0.00049655,-0.00110242,-0.00013601,0.00015686,0.00044296,0.00030079,
 0.03137489,-0.01682052,0.22660578,-0.00022237,-0.00022734,-0.00011840,
 0.00028918,0.00018645,-0.00020562,-0.00145243,-0.00079010,-0.00104519,
 -0.00043968,0.00065670,-0.00033509,0.00085808,0.02224140,-0.01780642,-
 0.00113969,0.00081919,-0.00410720,-0.00059502,0.00057544,0.00041806,0.
 00009556,-0.00013675,0.00000698,0.00006820,-0.00005822,0.00009360,-0.0
 0011331,0.00005661,0.00000197,-0.00102435,0.00007724,-0.00077917,-0.00
 195186,-0.00057454,-0.00055899,-0.00121629,-0.00015683,0.00046578,0.00
 015257,0.00103025,-0.00051252,-0.00039008,0.00003749,-0.00037196,0.000
 37015,-0.00019207,0.00062946,-0.00041523,-0.00014840,-0.00056376,0.000
 08270,-0.00019242,0.00024408,-0.00028595,0.00034149,0.00001800,0.00034
 402,0.00000243,0.00021476,-0.00148532,-0.00073741,0.00087254,0.0008615
 9,-0.00022727,-0.00023937,-0.02677144,-0.04932900,0.01341003,-0.000114
 28,0.00000392,-0.00005542,-0.00015378,-0.00013890,0.00014711,0.0000023
 5,-0.00032280,0.00081150,0.00066239,0.00039746,-0.00096234,-0.00018999
 ,0.00003850,-0.00033955,0.00000434,-0.00002413,0.00003136,0.00002113,0
 .00001713,0.00000008,0.00003532,0.00003660,-0.00005558,0.00004282,-0.0
 0000654,-0.00003123,-0.00010595,-0.00023432,0.00011106,-0.00055079,0.0
 0030903,0.00033256,-0.00010350,-0.00011246,0.00004702,0.00020521,0.000
 17931,-0.00017473,0.00022220,-0.00004730,-0.00020049,-0.00003554,-0.00
 002932,-0.00002926,0.00004778,0.00003291,-0.00009217,0.00033654,-0.000
 17302,-0.00009761,-0.00022841,0.00029870,-0.00000093,0.00088489,0.0003
 6050,0.00107857,0.03339969,-0.00034956,-0.00104213,-0.00047452,0.00121
 891,0.00076673,-0.00024236,-0.00317277,0.00177940,-0.00166126,0.001219
 88,-0.00162488,0.00033300,0.00667870,-0.00505826,0.01055613,0.00382664
 ,-0.00118991,-0.00020832,-0.00083784,0.00031787,-0.00053293,0.00031757
 ,0.00014440,0.00029412,0.00027121,-0.00031043,0.00014603,-0.00035743,0
 .00027181,-0.00007920,0.00520738,-0.00178336,0.00001101,-0.00483508,0.
 00217073,-0.00297072,-0.00018166,-0.00021273,-0.00024983,0.00019052,0.
 00137658,-0.00051065,-0.00038901,0.00145542,-0.00027395,0.00123175,-0.
 00131303,0.00129313,-0.00083856,-0.00025412,-0.00098906,0.00009857,0.0
 0001260,-0.00010808,0.00033375,0.00056034,0.00042725,0.00026399,-0.000
 47451,0.00019293,-0.00216018,-0.00157628,0.00067347,0.00017509,-0.0006
 1269,0.00024631,-0.03470290,-0.13231008,0.08886031,-0.00033472,-0.0000
 4378,-0.00006017,-0.00022504,-0.00033044,-0.00012103,-0.00041071,0.000
 73861,-0.00059154,-0.00053523,0.00287296,-0.00185207,-0.00001703,-0.00
 033379,-0.00004998,-0.00000909,-0.00016785,-0.00002146,0.00002815,0.00
 008391,0.00006224,0.00006335,0.00008264,-0.00005571,0.00013784,-0.0000
 5867,-0.00004668,0.00062000,-0.00028641,0.00054617,0.00089617,0.000694
 81,-0.00012169,-0.00000579,-0.00013809,0.00006011,0.00029751,0.0001871
 6,-0.00028811,-0.00004645,0.00010444,-0.00035912,-0.00011015,-0.000083
 93,-0.00002995,-0.00003703,-0.00004692,-0.00012568,-0.00016070,-0.0007
 4492,-0.00021292,-0.00003136,0.00025782,-0.00004939,0.00078372,0.00165
 613,0.00101694,0.02610785,0.13383245,0.00028207,0.00021379,0.00045184,
 0.00023306,-0.00002645,-0.00067341,-0.00214629,0.00024646,-0.00477029,
 -0.00041064,0.00007657,0.00108355,-0.00354877,0.03087592,-0.03730910,-
 0.00264145,0.00072775,-0.00017923,0.00061168,-0.00072816,0.00044142,-0
 .00011865,-0.00005827,-0.00026955,-0.00018123,0.00021589,-0.00008039,0
 .00024096,-0.00021606,0.00004465,-0.00530745,-0.00327822,-0.00208032,0
 .00314616,-0.00115408,0.00206171,0.00001216,0.00009548,0.00027246,-0.0
 0013672,-0.00114207,0.00043200,-0.00009696,-0.00030851,0.00021431,-0.0
 0019088,0.00042112,-0.00074766,0.00007312,0.00033626,0.00052726,0.0002
 6462,-0.00008183,0.00009831,-0.00020375,-0.00026525,-0.00047104,0.0000
 4478,0.00020279,-0.00019197,0.00208926,0.00082950,-0.00085473,-0.00044
 079,0.00010903,-0.00043163,-0.00130998,0.06584573,-0.06719254,-0.00002
 365,0.00007366,-0.00013669,-0.00014156,0.00008354,0.00014262,0.0007025
 8,-0.00004367,-0.00070088,-0.00023862,-0.00106146,0.00025313,0.0002185
 5,-0.00006437,0.00037605,0.00001218,0.00009880,-0.00001260,-0.00001380
 ,-0.00004285,-0.00003891,-0.00004636,-0.00004447,0.00002334,-0.0000963
 9,0.00005627,0.00004149,-0.00038174,0.00018703,-0.00027377,0.00015700,
 -0.00013904,0.00041220,-0.00000406,0.00010898,-0.00002817,-0.00021125,
 -0.00013022,0.00012021,-0.00050833,-0.00059178,-0.00002449,-0.00001195
 ,0.00005739,0.00002678,-0.00002937,-0.00001908,0.00005385,0.00000570,0
 .00032686,0.00029579,0.00025707,-0.00010239,0.00012964,0.00048692,0.00
 109593,-0.00081121,0.00966678,-0.09260457,0.10996951,0.00013765,0.0002
 0810,-0.00008397,-0.00002770,-0.00014031,-0.00005544,-0.00004571,0.000
 05156,0.00007322,0.00015639,0.00000840,-0.00005104,-0.00000883,0.00009
 046,-0.00007810,-0.00058406,-0.00028583,0.00030024,0.00009320,0.000182
 46,-0.00020717,-0.00005126,0.00009833,-0.00000468,0.00018792,-0.000167
 65,0.00000932,-0.00018273,0.00028723,-0.00002292,0.00026275,0.00006449
 ,0.00046537,-0.00022043,-0.00014117,-0.00016818,0.00024170,0.00039316,
 -0.00020910,0.00036479,-0.00186249,0.00017112,-0.05077509,-0.03320461,
 0.01343490,-0.00016069,0.00154622,0.00141494,-0.00126250,-0.00046781,-
 0.00110483,-0.00002463,0.00032664,-0.00009160,0.00039880,-0.00036176,0
 .00034123,-0.07489193,-0.05763128,0.02309192,0.00058750,0.00113659,0.0
 0002968,-0.00065028,0.00016214,0.00058576,0.00008326,0.00004450,0.0000
 3137,-0.00001498,0.00000553,0.00004262,-0.00001884,-0.00003855,-0.0000
 0903,-0.00008620,-0.00001996,0.00000366,-0.00004099,-0.00010162,0.0000
 0290,0.00002610,-0.00003109,-0.00006747,-0.00000363,-0.00005781,0.0000
 1653,-0.00001241,-0.00004176,0.00006453,-0.00004380,-0.00015406,0.0000
 7631,0.00007945,-0.00006787,-0.00005804,0.00013477,0.00011048,-0.00013
 163,-0.00004729,-0.00009037,0.00004192,0.00067354,-0.00033505,-0.00034
 183,-0.00581973,-0.00082570,-0.00175960,0.00001806,-0.00011599,0.00018
 752,0.00016816,0.00015725,-0.00001835,-0.00004098,0.00002730,0.0000684
 2,-0.00018301,0.00002356,-0.00000366,0.00021716,-0.00017205,-0.0000713
 5,0.00002166,0.00005060,-0.00019788,-0.00007355,-0.00008297,0.00000302
 ,0.13146846,0.00025406,-0.00010076,-0.00030036,0.00002346,-0.00003695,
 -0.00004949,-0.00018636,0.00014906,0.00012785,0.00027637,-0.00020845,-
 0.00001588,-0.00004923,0.00009179,-0.00024668,-0.00110094,-0.00041858,
 0.00026247,0.00031624,0.00029084,-0.00039717,-0.00009675,0.00016536,0.
 00010790,0.00013123,-0.00020743,-0.00009211,-0.00002433,0.00024633,-0.
 00009034,0.00018030,-0.00033509,0.00003976,-0.00037283,0.00024870,0.00
 005611,0.00026136,0.00027693,-0.00058370,-0.00035559,-0.00131167,-0.00
 066804,-0.00861330,-0.00342574,-0.00116139,-0.00092297,0.00077631,-0.0
 0016582,0.00028969,-0.00135413,0.00046478,0.00000476,0.00000994,0.0001
 4551,-0.00016230,-0.00025065,-0.00007505,-0.08345561,-0.09882096,0.064
 46436,0.00102569,0.00057790,0.00030970,-0.00023649,-0.00022687,0.00061
 643,0.00022863,-0.00016337,0.00026316,-0.00002348,-0.00000121,0.000055
 10,-0.00001980,-0.00003991,-0.00001993,-0.00009673,0.00004536,-0.00004
 961,-0.00010481,0.00007309,-0.00002517,0.00004942,-0.00003310,-0.00010
 192,-0.00000798,-0.00006732,0.00002082,-0.00001542,0.00003152,0.000113
 32,-0.00007270,-0.00010284,0.00016766,-0.00001228,-0.00008984,0.000001
 37,0.00015204,0.00011434,-0.00002832,-0.00000230,-0.00011834,0.0000805
 9,-0.00037491,-0.00046336,-0.00099704,0.00145850,0.00077102,0.00178075
 ,-0.00017395,0.00008770,-0.00012815,0.00038672,-0.00000531,0.00008456,
 0.00005691,-0.00003789,0.00000872,0.00005349,0.00012100,0.00001881,-0.
 00001127,-0.00006159,-0.00021265,-0.00004038,0.00008817,-0.00006631,-0
 .00002169,0.00017231,-0.00009054,0.09146334,0.10337797,-0.00010510,-0.
 00032720,0.00010713,0.00007093,0.00019251,0.00005899,0.00000065,-0.000
 03647,-0.00005621,-0.00007497,-0.00003979,0.00000513,0.00001178,-0.000
 08177,0.00008437,-0.00024532,0.00007879,0.00004492,0.00010069,-0.00001
 105,-0.00009118,-0.00002144,0.00001731,0.00007677,-0.00004099,0.000026
 89,-0.00007529,0.00008208,-0.00007577,-0.00003641,0.00015313,0.0000460
 2,-0.00013151,-0.00016862,-0.00000073,-0.00007061,-0.00059949,-0.00019
 249,0.00002210,-0.00252976,0.00003103,-0.00106388,-0.00728403,-0.01459
 765,0.00922525,0.00098819,0.00121935,-0.00200291,0.00031122,0.00012851
 ,0.00058486,0.00013138,-0.00014277,0.00003230,-0.00008833,0.00008598,-
 0.00021546,0.04673215,0.07725452,-0.06058725,0.00040867,-0.00018261,-0
 .00035083,0.00086525,0.00000076,0.00004900,-0.00003766,-0.00003718,-0.
 00014891,-0.00000088,-0.00001396,-0.00001559,0.00000231,0.00002606,0.0
 0001017,0.00004688,0.00000636,0.00000879,0.00013917,0.00011906,0.00005
 942,0.00003403,0.00001921,0.00001413,0.00000357,0.00001223,-0.00000652
 ,-0.00001444,0.00003860,0.00003053,-0.00007473,-0.00000395,0.00002978,
 -0.00004283,0.00001024,0.00004405,-0.00017506,-0.00008443,0.00001332,-
 0.00004247,0.00007383,-0.00005508,-0.00089995,-0.00053077,-0.00034622,
 -0.00161924,0.00060825,-0.00104815,0.00007604,-0.00000305,-0.00005076,
 -0.00018056,0.00001983,0.00007937,0.00002625,0.00000242,0.00002392,0.0
 0003291,0.00001303,0.00002332,-0.00019913,0.00001048,-0.00018790,-0.00
 002191,-0.00002219,0.00003692,-0.00000839,-0.00001487,0.00007413,-0.03
 579582,-0.06371994,0.05585415,-0.11260824,0.09741309,0.02472510,0.0137
 7673,-0.01352179,-0.00301005,0.00118568,-0.00463478,-0.00169372,-0.001
 00511,0.00131781,0.00092824,-0.00013182,0.00010685,0.00044824,-0.00021
 742,-0.00073467,0.00061074,0.00038000,0.00002686,-0.00100890,-0.002689
 08,-0.00338195,0.00031107,-0.00065010,0.00040206,-0.00041971,0.0002418
 7,-0.00016719,0.00014742,-0.00018387,0.00005324,-0.00006369,0.00013890
 ,-0.00005168,0.00003447,-0.00003997,-0.00001928,0.00007387,0.00005270,
 -0.00008076,-0.00004112,-0.00001095,-0.00017908,0.00028834,-0.00013780
 ,0.00028232,-0.00036351,0.00021480,-0.00004292,0.00023251,-0.00001674,
 -0.00007761,0.00006273,-0.00013742,0.00006952,-0.00002732,0.00007374,0
 .00007859,-0.00017315,0.00007442,0.00022367,-0.00009720,0.00002601,0.0
 0001491,-0.00011109,-0.00033486,0.00032637,-0.00019139,-0.00004741,-0.
 00191430,-0.00096549,-0.00025685,0.00040615,-0.00005866,0.00027796,0.0
 0070409,0.00034942,0.00017867,-0.00000946,0.00010541,0.00000041,0.0001
 5821,-0.00001309,0.00052267,-0.00020151,-0.00027672,-0.00000453,0.0000
 0025,0.00003415,0.00005124,-0.00004106,0.00007572,-0.00011337,0.000102
 92,0.00001637,-0.00001211,-0.00001270,0.00000981,0.00000782,0.00000551
 ,-0.00000105,-0.00002420,0.00001485,0.00000154,-0.00068729,0.00022935,
 0.00043753,0.00012250,-0.00000658,-0.00003768,0.00001351,-0.00000474,0
 .00000764,0.00005996,0.00000503,-0.00003591,0.00009065,-0.00000552,-0.
 00004007,-0.00000181,0.00001059,0.00003656,0.00001353,-0.00003183,0.00
 003073,0.00007222,-0.00013762,-0.00006752,-0.00005025,-0.00005847,0.00
 005378,0.10178651,0.06238980,-0.12036001,-0.02774180,0.01710723,-0.049
 33298,-0.01248887,-0.00130956,0.00100267,-0.00203604,-0.00094707,-0.00
 247052,-0.00085461,-0.00001251,-0.00020289,-0.00070423,0.00072127,0.00
 054163,-0.00057788,-0.00011399,-0.00027335,0.00099412,-0.00190919,-0.0
 0471120,-0.00172029,0.00036206,-0.00039507,0.00047109,-0.00058175,0.00
 058024,-0.00004115,0.00000371,-0.00026325,-0.00005820,0.00002273,0.000
 07968,0.00000413,0.00002955,-0.00003633,-0.00012305,0.00005454,0.00044
 033,-0.00023247,-0.00052764,0.00093811,0.00039731,0.00055169,-0.000658
 80,-0.00028389,-0.00019047,0.00000830,0.00017523,0.00021317,-0.0000230
 4,0.00009029,-0.00006153,-0.00008254,-0.00024439,0.00012763,-0.0004265
 6,-0.00007308,-0.00061608,-0.00057184,0.00032968,-0.00003320,-0.000092
 23,0.00006603,0.00015607,-0.00057697,0.00069726,-0.00043964,-0.0005298
 3,0.00131656,0.00025287,-0.00051720,0.00036739,-0.00023389,0.00042004,
 -0.00020292,0.00007162,0.00052740,0.00001261,-0.00005197,-0.00012353,-
 0.00001972,0.00032221,-0.00047519,-0.00003252,0.00037728,-0.00010975,0
 .00005316,0.00009975,0.00007319,-0.00017653,0.00013321,-0.00011394,-0.
 00018233,-0.00000878,-0.00000105,-0.00001272,0.00004040,0.00002576,-0.
 00000031,0.00000717,-0.00004283,-0.00001614,0.00083524,0.00074261,-0.0
 0081065,-0.00012659,0.00007959,0.00021327,-0.00005514,-0.00001112,0.00
 003728,-0.00007513,-0.00004393,0.00014874,0.00001009,0.00007547,0.0000
 9237,0.00001186,0.00002529,-0.00002240,-0.00000331,0.00005992,0.000023
 80,0.00007406,0.00045854,-0.00009141,-0.00004074,0.00016628,0.00007699
 ,-0.07663690,0.17620078,0.01643405,-0.02859437,-0.00973565,0.00401362,
 -0.01183264,-0.00578707,-0.00120396,-0.00315733,-0.00134655,0.00073467
 ,0.00019380,-0.00082954,-0.00033586,0.00023587,-0.00069050,0.00068270,
 -0.00079791,0.00030178,-0.00018659,0.00036437,-0.00068959,-0.00045114,
 -0.00119417,0.00072266,-0.00000525,-0.00006285,-0.00001979,-0.00011036
 ,0.00019096,-0.00011690,-0.00001735,-0.00013045,0.00022346,-0.00010210
 ,-0.00007457,0.00004031,0.00016596,-0.00002913,-0.00017437,-0.00013768
 ,0.00002481,-0.00004505,0.00100665,0.00000456,-0.00011760,-0.00050213,
 0.00001007,0.00002773,0.00017394,-0.00004327,-0.00001432,-0.00023671,0
 .00011901,-0.00013015,0.00011785,-0.00016220,0.00011134,-0.00054001,-0
 .00015592,-0.00010732,-0.00036950,0.00014174,0.00008667,-0.00019542,0.
 00008748,0.00017832,0.00015622,0.00001575,0.00068875,0.00055919,0.0015
 7519,0.00149266,-0.00010207,-0.00022369,-0.00001634,-0.00035340,0.0003
 5522,-0.00016426,0.00015318,-0.00016305,-0.00086827,-0.00010948,0.0000
 5941,-0.00009669,0.00010382,-0.00019154,0.00002108,0.00003713,0.000063
 05,0.00029540,0.00000217,-0.00002621,0.00006704,0.00000759,-0.00000328
 ,-0.00000375,0.00005092,0.00006647,-0.00002343,0.00001208,-0.00001014,
 -0.00002818,0.00007918,-0.00002277,0.00000953,0.00037887,-0.00042783,0
 .00020567,0.00018849,0.00020456,-0.00027067,0.00007146,0.00002974,0.00
 001262,0.00001728,0.00005354,0.00004670,-0.00004254,0.00008310,-0.0000
 1700,0.00004398,-0.00007406,-0.00004202,-0.00003029,0.00003680,-0.0001
 1223,0.00009046,0.00018666,-0.00026721,0.00007481,0.00009537,-0.000051
 40,-0.02032442,0.04318005,0.01723389\\-0.00000103,0.00010857,-0.000089
 29,-0.00004980,-0.00001079,0.00006543,0.00003521,0.00000925,0.00002560
 ,0.00002771,0.00005532,-0.00005614,-0.00004405,0.00000495,0.00008211,0
 .00008180,0.00000345,0.00009103,0.00008759,-0.00003152,-0.00003943,-0.
 00004576,-0.00012805,-0.00010855,-0.00000583,-0.00013029,0.00010105,0.
 00000749,0.00010334,0.00001157,0.00000420,0.00001114,-0.00001492,0.000
 00582,0.00000390,-0.00001949,0.00000059,-0.00002873,-0.00001524,-0.000
 14583,-0.00001283,0.00002496,-0.00003921,-0.00002411,-0.00002476,0.000
 01820,0.00000067,-0.00000203,-0.00005192,0.00000653,0.00000060,0.00000
 560,-0.00001574,-0.00001240,-0.00004895,0.00002591,0.00000715,0.000103
 64,-0.00005758,0.00001817,0.00002987,-0.00000787,0.00001001,0.00000641
 ,0.00002509,-0.00001792,0.00000594,0.00002328,-0.00005539,-0.00001942,
 0.00000931,-0.00000546,0.00000591,-0.00000311,-0.00003291,-0.00002076,
 -0.00003173,0.00004573,0.00000079,0.00001814,0.00001337,-0.00002632,-0
 .00001650,-0.00002331,-0.00002165,0.00002737,-0.00004114,0.00003751,0.
 00002249,0.00004140,0.00002377,0.00002316,-0.00004794,-0.00002777,-0.0
 0000682,-0.00001593,0.00001018,0.00001356,0.00000504,0.00001169,0.0000
 1746,-0.00000484,0.00001145,-0.00001012,0.00001616,-0.00002247,0.00001
 172,-0.00000874,0.00000458,-0.00001299,0.00000949,0.00000601,-0.000002
 18,-0.00000732,-0.00001530,0.00002317,0.00001815,0.00003454,-0.0000058
 8,-0.00001983,0.00000773,-0.00001696,-0.00000542,-0.00000335,-0.000010
 31,0.00002479,-0.00001287,-0.00001390,0.00001881,0.00001851,0.00004155
 ,-0.00000546,0.00000956,-0.00001133,0.00004323\\\@


 THE TEST OF A FIRST RATE INTELLIGENCE IS THE ABILITY TO HOLD TWO OPPOSED
 IDEAS IN THE MIND AT THE SAME TIME, AND STILL RETAIN THE ABILITY TO FUNCTION.
 ONE SHOULD, FOR EXAMPLE, BE ABLE TO SEE THAT THINGS ARE HOPELESS AND YET BE
 DETERMINED TO MAKE THEM OTHERWISE.

                                                       -- F. SCOTT FITZGERALD
 Job cpu time:       0 days  0 hours  0 minutes 11.1 seconds.
 Elapsed time:       0 days  0 hours  0 minutes  0.9 seconds.
 File lengths (MBytes):  RWF=    217 Int=      0 D2E=      0 Chk=      4 Scr=      1
 Normal termination of Gaussian 16 at Tue Jun 22 14:22:25 2021.
