 Entering Gaussian System, Link 0=g09
 Initial command:
 /share/apps//g09/l1.exe "/scratch/Gau-3478.inp" -scrdir="/scratch/"
 Entering Link 1 = /share/apps//g09/l1.exe PID=      3479.
  
 Copyright (c) 1988,1990,1992,1993,1995,1998,2003,2009,2013,
            Gaussian, Inc.  All Rights Reserved.
  
 This is part of the Gaussian(R) 09 program.  It is based on
 the Gaussian(R) 03 system (copyright 2003, Gaussian, Inc.),
 the Gaussian(R) 98 system (copyright 1998, Gaussian, Inc.),
 the Gaussian(R) 94 system (copyright 1995, Gaussian, Inc.),
 the Gaussian 92(TM) system (copyright 1992, Gaussian, Inc.),
 the Gaussian 90(TM) system (copyright 1990, Gaussian, Inc.),
 the Gaussian 88(TM) system (copyright 1988, Gaussian, Inc.),
 the Gaussian 86(TM) system (copyright 1986, Carnegie Mellon
 University), and the Gaussian 82(TM) system (copyright 1983,
 Carnegie Mellon University). Gaussian is a federally registered
 trademark of Gaussian, Inc.
  
 This software contains proprietary and confidential information,
 including trade secrets, belonging to Gaussian, Inc.
  
 This software is provided under written license and may be
 used, copied, transmitted, or stored only in accord with that
 written license.
  
 The following legend is applicable only to US Government
 contracts under FAR:
  
                    RESTRICTED RIGHTS LEGEND
  
 Use, reproduction and disclosure by the US Government is
 subject to restrictions as set forth in subparagraphs (a)
 and (c) of the Commercial Computer Software - Restricted
 Rights clause in FAR 52.227-19.
  
 Gaussian, Inc.
 340 Quinnipiac St., Bldg. 40, Wallingford CT 06492
  
  
 ---------------------------------------------------------------
 Warning -- This program may not be used in any manner that
 competes with the business of Gaussian, Inc. or will provide
 assistance to any competitor of Gaussian, Inc.  The licensee
 of this program is prohibited from giving any competitor of
 Gaussian, Inc. access to this program.  By using this program,
 the user acknowledges that Gaussian, Inc. is engaged in the
 business of creating and licensing software in the field of
 computational chemistry and represents and warrants to the
 licensee that it is not a competitor of Gaussian, Inc. and that
 it will not use this program in any manner prohibited above.
 ---------------------------------------------------------------
  

 Cite this work as:
 Gaussian 09, Revision D.01,
 M. J. Frisch, G. W. Trucks, H. B. Schlegel, G. E. Scuseria, 
 M. A. Robb, J. R. Cheeseman, G. Scalmani, V. Barone, B. Mennucci, 
 G. A. Petersson, H. Nakatsuji, M. Caricato, X. Li, H. P. Hratchian, 
 A. F. Izmaylov, J. Bloino, G. Zheng, J. L. Sonnenberg, M. Hada, 
 M. Ehara, K. Toyota, R. Fukuda, J. Hasegawa, M. Ishida, T. Nakajima, 
 Y. Honda, O. Kitao, H. Nakai, T. Vreven, J. A. Montgomery, Jr., 
 J. E. Peralta, F. Ogliaro, M. Bearpark, J. J. Heyd, E. Brothers, 
 K. N. Kudin, V. N. Staroverov, T. Keith, R. Kobayashi, J. Normand, 
 K. Raghavachari, A. Rendell, J. C. Burant, S. S. Iyengar, J. Tomasi, 
 M. Cossi, N. Rega, J. M. Millam, M. Klene, J. E. Knox, J. B. Cross, 
 V. Bakken, C. Adamo, J. Jaramillo, R. Gomperts, R. E. Stratmann, 
 O. Yazyev, A. J. Austin, R. Cammi, C. Pomelli, J. W. Ochterski, 
 R. L. Martin, K. Morokuma, V. G. Zakrzewski, G. A. Voth, 
 P. Salvador, J. J. Dannenberg, S. Dapprich, A. D. Daniels, 
 O. Farkas, J. B. Foresman, J. V. Ortiz, J. Cioslowski, 
 and D. J. Fox, Gaussian, Inc., Wallingford CT, 2013.
 
 ******************************************
 Gaussian 09:  EM64L-G09RevD.01 24-Apr-2013
                 6-Apr-2016 
 ******************************************
 %nproc=20
 Will use up to   20 processors via shared memory.
 %mem=80GB
 %chk=Tri_A131_of.chk
 ----------------------------------------------------------------------
 #P PBE1PBE/6-311+G(d,p) opt=ModRedundant freq optcyc=999 EmpiricalDisp
 ersion=GD3
 ----------------------------------------------------------------------
 1/6=999,14=-1,18=120,19=15,26=3,38=1/1,3;
 2/9=110,12=2,17=6,18=5,40=1/2;
 3/5=4,6=6,7=111,11=2,16=1,25=1,30=1,71=1,74=-13,124=31/1,2,3;
 4//1;
 5/5=2,38=5/2;
 6/7=2,8=2,9=2,10=2,28=1/1;
 7//1,2,3,16;
 1/6=999,14=-1,18=20,19=15,26=3/3(2);
 2/9=110/2;
 99//99;
 2/9=110/2;
 3/5=4,6=6,7=111,11=2,16=1,25=1,30=1,71=1,74=-13,124=31/1,2,3;
 4/5=5,16=3,69=1/1;
 5/5=2,38=5/2;
 7//1,2,3,16;
 1/6=999,14=-1,18=20,19=15,26=3/3(-5);
 2/9=110/2;
 6/7=2,8=2,9=2,10=2,19=2,28=1/1;
 99/9=1/99;
 Leave Link    1 at Wed Apr  6 15:55:04 2016, MaxMem= 10737418240 cpu:         2.1
 (Enter /share/apps//g09/l101.exe)
 -------
 disacch
 -------
 Symbolic Z-matrix:
 Charge =  1 Multiplicity = 1
 O                     1.74295  -2.72261   5.24794 
 C                     2.46581  -2.52298   6.48312 
 C                     3.97679  -2.4566    6.23773 
 C                     4.32823  -1.4145    5.1712 
 C                     3.55982  -1.70518   3.87501 
 C                     2.06283  -1.78222   4.17491 
 H                     2.23492  -3.41464   7.08142 
 H                     4.28573  -3.44494   5.86451 
 H                     4.05117  -0.40425   5.5309 
 H                     3.71452  -0.85384   3.18178 
 H                     1.74228  -0.77061   4.49079 
 O                     3.98645  -2.92248   3.27494 
 O                     5.7146   -1.46978   4.84717 
 O                     4.69981  -2.24211   7.44369 
 O                     2.0925   -1.33608   7.15582 
 C                     1.26241  -2.2147    2.95246 
 H                     1.50273  -1.53537   2.11855 
 H                     1.54974  -3.2328    2.66218 
 O                    -0.16494  -2.2315    3.17209 
 H                    -0.41067  -1.47247   3.7437 
 H                     4.96328  -2.9012    3.30108 
 H                     6.20194  -1.54299   5.69009 
 H                     4.22292  -1.54968   7.94279 
 O                    -2.02528  -1.8191    8.13158 
 C                    -1.11377  -2.59505   8.94537 
 C                     0.34753  -2.61774   8.41089 
 C                     0.81339  -1.27267   7.85308 
 C                    -0.26509  -0.6296    6.97521 
 C                    -1.53459  -0.49981   7.82248 
 H                    -1.10967  -2.17933   9.96725 
 H                     0.37399  -3.34352   7.58284 
 H                     1.01581  -0.59341   8.69671 
 H                     0.0665    0.37566   6.66702 
 H                    -1.29497   0.04094   8.75699 
 O                    -0.58508  -1.42332   5.8183 
 O                     1.22838  -3.01879   9.43994 
 O                    -1.66748  -3.88472   9.08754 
 C                    -2.6681    0.24912   7.12422 
 H                    -2.946    -0.27153   6.19025 
 H                    -3.54336   0.25537   7.7953 
 O                    -2.17559   1.56283   6.86687 
 H                    -2.91453   2.1193    6.57095 
 H                     0.18853  -2.01785   5.64428 
 H                     1.11082  -3.98969   9.53396 
 O                    -2.67982  -6.02082   6.2503 
 C                    -2.03935  -7.28404   6.5531 
 C                    -0.69089  -7.02973   7.23966 
 C                    -0.78645  -6.0386    8.40042 
 C                    -1.55762  -4.78799   7.9741 
 C                    -2.93315  -5.22967   7.43123 
 H                    -2.72151  -7.88343   7.19206 
 H                    -0.02827  -6.5852    6.47071 
 H                    -1.32081  -6.50888   9.24732 
 H                    -3.46237  -5.84177   8.18813 
 H                    -1.03752  -4.3069    7.13123 
 O                     0.53733  -5.67389   8.81344 
 O                    -0.1192   -8.21772   7.77611 
 O                    -1.7393   -7.93954   5.36507 
 C                    -3.86563  -4.08836   7.04199 
 H                    -4.74695  -4.51298   6.5416 
 H                    -4.1978   -3.57152   7.95424 
 O                    -3.27501  -3.1416    6.13949 
 H                    -2.70658  -2.55023   6.70088 
 H                     1.00456  -6.50641   9.01552 
 H                     0.10097  -8.81048   7.03509 
 C                    -2.84916  -8.48597   4.6064 
 H                    -2.4274   -9.36316   4.09466 
 H                    -3.63302  -8.83374   5.29884 
 C                    -3.40978  -7.47936   3.59909 
 H                    -3.92321  -6.68711   4.16246 
 H                    -4.18324  -7.98699   3.00036 
 C                    -2.3219   -6.89386   2.68272 
 H                    -1.39608  -6.76675   3.26929 
 H                    -2.0575   -7.62758   1.90581 
 C                    -2.68203  -5.56932   1.98883 
 H                    -1.84001  -5.25718   1.3506 
 H                    -3.53841  -5.71399   1.31131 
 C                    -3.05763  -4.42454   2.93034 
 H                    -3.98804  -4.63798   3.47254 
 H                    -3.20574  -3.48953   2.37541 
 N                    -2.01287  -4.15326   3.97515 
 H                    -1.66234  -5.0386    4.36676 
 H                    -2.46076  -3.65931   4.80816 
 H                    -1.21575  -3.56752   3.61667 
 
 The following ModRedundant input section has been read:
 B      62      83 B                                                           
 B      19      84 B                                                           
 B       1      43 B                                                           
 B      44      56 B                                                           
 
 NAtoms=     84 NQM=       84 NQMF=       0 NMMI=      0 NMMIF=      0
                NMic=       0 NMicF=      0.
                    Isotopes and Nuclear Properties:
 (Nuclear quadrupole moments (NQMom) in fm**2, nuclear magnetic moments (NMagM)
  in nuclear magnetons)

  Atom         1           2           3           4           5           6           7           8           9          10
 IAtWgt=          16          12          12          12          12          12           1           1           1           1
 AtmWgt=  15.9949146  12.0000000  12.0000000  12.0000000  12.0000000  12.0000000   1.0078250   1.0078250   1.0078250   1.0078250
 NucSpn=           0           0           0           0           0           0           1           1           1           1
 AtZEff=   0.0000000   0.0000000   0.0000000   0.0000000   0.0000000   0.0000000   0.0000000   0.0000000   0.0000000   0.0000000
 NQMom=    0.0000000   0.0000000   0.0000000   0.0000000   0.0000000   0.0000000   0.0000000   0.0000000   0.0000000   0.0000000
 NMagM=    0.0000000   0.0000000   0.0000000   0.0000000   0.0000000   0.0000000   2.7928460   2.7928460   2.7928460   2.7928460
 AtZNuc=   8.0000000   6.0000000   6.0000000   6.0000000   6.0000000   6.0000000   1.0000000   1.0000000   1.0000000   1.0000000

  Atom        11          12          13          14          15          16          17          18          19          20
 IAtWgt=           1          16          16          16          16          12           1           1          16           1
 AtmWgt=   1.0078250  15.9949146  15.9949146  15.9949146  15.9949146  12.0000000   1.0078250   1.0078250  15.9949146   1.0078250
 NucSpn=           1           0           0           0           0           0           1           1           0           1
 AtZEff=   0.0000000   0.0000000   0.0000000   0.0000000   0.0000000   0.0000000   0.0000000   0.0000000   0.0000000   0.0000000
 NQMom=    0.0000000   0.0000000   0.0000000   0.0000000   0.0000000   0.0000000   0.0000000   0.0000000   0.0000000   0.0000000
 NMagM=    2.7928460   0.0000000   0.0000000   0.0000000   0.0000000   0.0000000   2.7928460   2.7928460   0.0000000   2.7928460
 AtZNuc=   1.0000000   8.0000000   8.0000000   8.0000000   8.0000000   6.0000000   1.0000000   1.0000000   8.0000000   1.0000000

  Atom        21          22          23          24          25          26          27          28          29          30
 IAtWgt=           1           1           1          16          12          12          12          12          12           1
 AtmWgt=   1.0078250   1.0078250   1.0078250  15.9949146  12.0000000  12.0000000  12.0000000  12.0000000  12.0000000   1.0078250
 NucSpn=           1           1           1           0           0           0           0           0           0           1
 AtZEff=   0.0000000   0.0000000   0.0000000   0.0000000   0.0000000   0.0000000   0.0000000   0.0000000   0.0000000   0.0000000
 NQMom=    0.0000000   0.0000000   0.0000000   0.0000000   0.0000000   0.0000000   0.0000000   0.0000000   0.0000000   0.0000000
 NMagM=    2.7928460   2.7928460   2.7928460   0.0000000   0.0000000   0.0000000   0.0000000   0.0000000   0.0000000   2.7928460
 AtZNuc=   1.0000000   1.0000000   1.0000000   8.0000000   6.0000000   6.0000000   6.0000000   6.0000000   6.0000000   1.0000000

  Atom        31          32          33          34          35          36          37          38          39          40
 IAtWgt=           1           1           1           1          16          16          16          12           1           1
 AtmWgt=   1.0078250   1.0078250   1.0078250   1.0078250  15.9949146  15.9949146  15.9949146  12.0000000   1.0078250   1.0078250
 NucSpn=           1           1           1           1           0           0           0           0           1           1
 AtZEff=   0.0000000   0.0000000   0.0000000   0.0000000   0.0000000   0.0000000   0.0000000   0.0000000   0.0000000   0.0000000
 NQMom=    0.0000000   0.0000000   0.0000000   0.0000000   0.0000000   0.0000000   0.0000000   0.0000000   0.0000000   0.0000000
 NMagM=    2.7928460   2.7928460   2.7928460   2.7928460   0.0000000   0.0000000   0.0000000   0.0000000   2.7928460   2.7928460
 AtZNuc=   1.0000000   1.0000000   1.0000000   1.0000000   8.0000000   8.0000000   8.0000000   6.0000000   1.0000000   1.0000000

  Atom        41          42          43          44          45          46          47          48          49          50
 IAtWgt=          16           1           1           1          16          12          12          12          12          12
 AtmWgt=  15.9949146   1.0078250   1.0078250   1.0078250  15.9949146  12.0000000  12.0000000  12.0000000  12.0000000  12.0000000
 NucSpn=           0           1           1           1           0           0           0           0           0           0
 AtZEff=   0.0000000   0.0000000   0.0000000   0.0000000   0.0000000   0.0000000   0.0000000   0.0000000   0.0000000   0.0000000
 NQMom=    0.0000000   0.0000000   0.0000000   0.0000000   0.0000000   0.0000000   0.0000000   0.0000000   0.0000000   0.0000000
 NMagM=    0.0000000   2.7928460   2.7928460   2.7928460   0.0000000   0.0000000   0.0000000   0.0000000   0.0000000   0.0000000
 AtZNuc=   8.0000000   1.0000000   1.0000000   1.0000000   8.0000000   6.0000000   6.0000000   6.0000000   6.0000000   6.0000000

  Atom        51          52          53          54          55          56          57          58          59          60
 IAtWgt=           1           1           1           1           1          16          16          16          12           1
 AtmWgt=   1.0078250   1.0078250   1.0078250   1.0078250   1.0078250  15.9949146  15.9949146  15.9949146  12.0000000   1.0078250
 NucSpn=           1           1           1           1           1           0           0           0           0           1
 AtZEff=   0.0000000   0.0000000   0.0000000   0.0000000   0.0000000   0.0000000   0.0000000   0.0000000   0.0000000   0.0000000
 NQMom=    0.0000000   0.0000000   0.0000000   0.0000000   0.0000000   0.0000000   0.0000000   0.0000000   0.0000000   0.0000000
 NMagM=    2.7928460   2.7928460   2.7928460   2.7928460   2.7928460   0.0000000   0.0000000   0.0000000   0.0000000   2.7928460
 AtZNuc=   1.0000000   1.0000000   1.0000000   1.0000000   1.0000000   8.0000000   8.0000000   8.0000000   6.0000000   1.0000000

  Atom        61          62          63          64          65          66          67          68          69          70
 IAtWgt=           1          16           1           1           1          12           1           1          12           1
 AtmWgt=   1.0078250  15.9949146   1.0078250   1.0078250   1.0078250  12.0000000   1.0078250   1.0078250  12.0000000   1.0078250
 NucSpn=           1           0           1           1           1           0           1           1           0           1
 AtZEff=   0.0000000   0.0000000   0.0000000   0.0000000   0.0000000   0.0000000   0.0000000   0.0000000   0.0000000   0.0000000
 NQMom=    0.0000000   0.0000000   0.0000000   0.0000000   0.0000000   0.0000000   0.0000000   0.0000000   0.0000000   0.0000000
 NMagM=    2.7928460   0.0000000   2.7928460   2.7928460   2.7928460   0.0000000   2.7928460   2.7928460   0.0000000   2.7928460
 AtZNuc=   1.0000000   8.0000000   1.0000000   1.0000000   1.0000000   6.0000000   1.0000000   1.0000000   6.0000000   1.0000000

  Atom        71          72          73          74          75          76          77          78          79          80
 IAtWgt=           1          12           1           1          12           1           1          12           1           1
 AtmWgt=   1.0078250  12.0000000   1.0078250   1.0078250  12.0000000   1.0078250   1.0078250  12.0000000   1.0078250   1.0078250
 NucSpn=           1           0           1           1           0           1           1           0           1           1
 AtZEff=   0.0000000   0.0000000   0.0000000   0.0000000   0.0000000   0.0000000   0.0000000   0.0000000   0.0000000   0.0000000
 NQMom=    0.0000000   0.0000000   0.0000000   0.0000000   0.0000000   0.0000000   0.0000000   0.0000000   0.0000000   0.0000000
 NMagM=    2.7928460   0.0000000   2.7928460   2.7928460   0.0000000   2.7928460   2.7928460   0.0000000   2.7928460   2.7928460
 AtZNuc=   1.0000000   6.0000000   1.0000000   1.0000000   6.0000000   1.0000000   1.0000000   6.0000000   1.0000000   1.0000000

  Atom        81          82          83          84
 IAtWgt=          14           1           1           1
 AtmWgt=  14.0030740   1.0078250   1.0078250   1.0078250
 NucSpn=           2           1           1           1
 AtZEff=   0.0000000   0.0000000   0.0000000   0.0000000
 NQMom=    2.0440000   0.0000000   0.0000000   0.0000000
 NMagM=    0.4037610   2.7928460   2.7928460   2.7928460
 AtZNuc=   7.0000000   1.0000000   1.0000000   1.0000000
 Leave Link  101 at Wed Apr  6 15:55:05 2016, MaxMem= 10737418240 cpu:         5.0
 (Enter /share/apps//g09/l103.exe)

 GradGradGradGradGradGradGradGradGradGradGradGradGradGradGradGradGradGrad
 Berny optimization.
 Initialization pass.
                           ----------------------------
                           !    Initial Parameters    !
                           ! (Angstroms and Degrees)  !
 --------------------------                            --------------------------
 ! Name  Definition              Value          Derivative Info.                !
 --------------------------------------------------------------------------------
 ! R1    R(1,2)                  1.445          estimate D2E/DX2                !
 ! R2    R(1,6)                  1.4622         estimate D2E/DX2                !
 ! R3    R(1,43)                 1.7521         estimate D2E/DX2                !
 ! R4    R(2,3)                  1.5322         estimate D2E/DX2                !
 ! R5    R(2,7)                  1.0983         estimate D2E/DX2                !
 ! R6    R(2,15)                 1.4144         estimate D2E/DX2                !
 ! R7    R(3,4)                  1.532          estimate D2E/DX2                !
 ! R8    R(3,8)                  1.1007         estimate D2E/DX2                !
 ! R9    R(3,14)                 1.4224         estimate D2E/DX2                !
 ! R10   R(4,5)                  1.5346         estimate D2E/DX2                !
 ! R11   R(4,9)                  1.1076         estimate D2E/DX2                !
 ! R12   R(4,13)                 1.4248         estimate D2E/DX2                !
 ! R13   R(5,6)                  1.5287         estimate D2E/DX2                !
 ! R14   R(5,10)                 1.1087         estimate D2E/DX2                !
 ! R15   R(5,12)                 1.4226         estimate D2E/DX2                !
 ! R16   R(6,11)                 1.1072         estimate D2E/DX2                !
 ! R17   R(6,16)                 1.5238         estimate D2E/DX2                !
 ! R18   R(12,21)                0.9774         estimate D2E/DX2                !
 ! R19   R(13,22)                0.9764         estimate D2E/DX2                !
 ! R20   R(14,23)                0.9777         estimate D2E/DX2                !
 ! R21   R(15,27)                1.4582         estimate D2E/DX2                !
 ! R22   R(16,17)                1.1021         estimate D2E/DX2                !
 ! R23   R(16,18)                1.097          estimate D2E/DX2                !
 ! R24   R(16,19)                1.4442         estimate D2E/DX2                !
 ! R25   R(19,20)                0.9815         estimate D2E/DX2                !
 ! R26   R(19,84)                1.7569         estimate D2E/DX2                !
 ! R27   R(24,25)                1.4475         estimate D2E/DX2                !
 ! R28   R(24,29)                1.4411         estimate D2E/DX2                !
 ! R29   R(25,26)                1.5561         estimate D2E/DX2                !
 ! R30   R(25,30)                1.1032         estimate D2E/DX2                !
 ! R31   R(25,37)                1.4107         estimate D2E/DX2                !
 ! R32   R(26,27)                1.5289         estimate D2E/DX2                !
 ! R33   R(26,31)                1.1014         estimate D2E/DX2                !
 ! R34   R(26,36)                1.4127         estimate D2E/DX2                !
 ! R35   R(27,28)                1.5321         estimate D2E/DX2                !
 ! R36   R(27,32)                1.1019         estimate D2E/DX2                !
 ! R37   R(28,29)                1.5318         estimate D2E/DX2                !
 ! R38   R(28,33)                1.1025         estimate D2E/DX2                !
 ! R39   R(28,35)                1.439          estimate D2E/DX2                !
 ! R40   R(29,34)                1.106          estimate D2E/DX2                !
 ! R41   R(29,38)                1.5275         estimate D2E/DX2                !
 ! R42   R(35,43)                0.9911         estimate D2E/DX2                !
 ! R43   R(36,44)                0.9825         estimate D2E/DX2                !
 ! R44   R(37,49)                1.438          estimate D2E/DX2                !
 ! R45   R(38,39)                1.1048         estimate D2E/DX2                !
 ! R46   R(38,40)                1.1029         estimate D2E/DX2                !
 ! R47   R(38,41)                1.4264         estimate D2E/DX2                !
 ! R48   R(41,42)                0.9712         estimate D2E/DX2                !
 ! R49   R(44,56)                1.9195         estimate D2E/DX2                !
 ! R50   R(45,46)                1.4483         estimate D2E/DX2                !
 ! R51   R(45,50)                1.4438         estimate D2E/DX2                !
 ! R52   R(46,47)                1.5344         estimate D2E/DX2                !
 ! R53   R(46,51)                1.1104         estimate D2E/DX2                !
 ! R54   R(46,58)                1.3896         estimate D2E/DX2                !
 ! R55   R(47,48)                1.5293         estimate D2E/DX2                !
 ! R56   R(47,52)                1.1081         estimate D2E/DX2                !
 ! R57   R(47,57)                1.4234         estimate D2E/DX2                !
 ! R58   R(48,49)                1.5299         estimate D2E/DX2                !
 ! R59   R(48,53)                1.1063         estimate D2E/DX2                !
 ! R60   R(48,56)                1.4339         estimate D2E/DX2                !
 ! R61   R(49,50)                1.5433         estimate D2E/DX2                !
 ! R62   R(49,55)                1.1011         estimate D2E/DX2                !
 ! R63   R(50,54)                1.108          estimate D2E/DX2                !
 ! R64   R(50,59)                1.5243         estimate D2E/DX2                !
 ! R65   R(56,64)                0.9758         estimate D2E/DX2                !
 ! R66   R(57,65)                0.9741         estimate D2E/DX2                !
 ! R67   R(58,66)                1.4512         estimate D2E/DX2                !
 ! R68   R(59,60)                1.0988         estimate D2E/DX2                !
 ! R69   R(59,61)                1.0998         estimate D2E/DX2                !
 ! R70   R(59,62)                1.4352         estimate D2E/DX2                !
 ! R71   R(62,63)                0.994          estimate D2E/DX2                !
 ! R72   R(62,83)                1.6442         estimate D2E/DX2                !
 ! R73   R(66,67)                1.0996         estimate D2E/DX2                !
 ! R74   R(66,68)                1.1022         estimate D2E/DX2                !
 ! R75   R(66,69)                1.5304         estimate D2E/DX2                !
 ! R76   R(69,70)                1.0994         estimate D2E/DX2                !
 ! R77   R(69,71)                1.102          estimate D2E/DX2                !
 ! R78   R(69,72)                1.5382         estimate D2E/DX2                !
 ! R79   R(72,73)                1.1033         estimate D2E/DX2                !
 ! R80   R(72,74)                1.1008         estimate D2E/DX2                !
 ! R81   R(72,75)                1.538          estimate D2E/DX2                !
 ! R82   R(75,76)                1.1017         estimate D2E/DX2                !
 ! R83   R(75,77)                1.1015         estimate D2E/DX2                !
 ! R84   R(75,78)                1.5291         estimate D2E/DX2                !
 ! R85   R(78,79)                1.0978         estimate D2E/DX2                !
 ! R86   R(78,80)                1.0973         estimate D2E/DX2                !
 ! R87   R(78,81)                1.5022         estimate D2E/DX2                !
 ! R88   R(81,82)                1.0296         estimate D2E/DX2                !
 ! R89   R(81,83)                1.067          estimate D2E/DX2                !
 ! R90   R(81,84)                1.0521         estimate D2E/DX2                !
 ! A1    A(2,1,6)              115.4039         estimate D2E/DX2                !
 ! A2    A(2,1,43)             101.2372         estimate D2E/DX2                !
 ! A3    A(6,1,43)              95.8193         estimate D2E/DX2                !
 ! A4    A(1,2,3)              111.2477         estimate D2E/DX2                !
 ! A5    A(1,2,7)              104.378          estimate D2E/DX2                !
 ! A6    A(1,2,15)             112.9815         estimate D2E/DX2                !
 ! A7    A(3,2,7)              109.2517         estimate D2E/DX2                !
 ! A8    A(3,2,15)             107.4628         estimate D2E/DX2                !
 ! A9    A(7,2,15)             111.511          estimate D2E/DX2                !
 ! A10   A(2,3,4)              111.5423         estimate D2E/DX2                !
 ! A11   A(2,3,8)              106.989          estimate D2E/DX2                !
 ! A12   A(2,3,14)             111.8406         estimate D2E/DX2                !
 ! A13   A(4,3,8)              108.0801         estimate D2E/DX2                !
 ! A14   A(4,3,14)             111.7817         estimate D2E/DX2                !
 ! A15   A(8,3,14)             106.2732         estimate D2E/DX2                !
 ! A16   A(3,4,5)              110.1392         estimate D2E/DX2                !
 ! A17   A(3,4,9)              109.6927         estimate D2E/DX2                !
 ! A18   A(3,4,13)             110.8024         estimate D2E/DX2                !
 ! A19   A(5,4,9)              108.7729         estimate D2E/DX2                !
 ! A20   A(5,4,13)             106.7247         estimate D2E/DX2                !
 ! A21   A(9,4,13)             110.6492         estimate D2E/DX2                !
 ! A22   A(4,5,6)              109.5228         estimate D2E/DX2                !
 ! A23   A(4,5,10)             108.2279         estimate D2E/DX2                !
 ! A24   A(4,5,12)             111.6036         estimate D2E/DX2                !
 ! A25   A(6,5,10)             107.3373         estimate D2E/DX2                !
 ! A26   A(6,5,12)             109.469          estimate D2E/DX2                !
 ! A27   A(10,5,12)            110.576          estimate D2E/DX2                !
 ! A28   A(1,6,5)              112.9924         estimate D2E/DX2                !
 ! A29   A(1,6,11)             108.3553         estimate D2E/DX2                !
 ! A30   A(1,6,16)             106.9337         estimate D2E/DX2                !
 ! A31   A(5,6,11)             107.0639         estimate D2E/DX2                !
 ! A32   A(5,6,16)             111.7957         estimate D2E/DX2                !
 ! A33   A(11,6,16)            109.6397         estimate D2E/DX2                !
 ! A34   A(5,12,21)            105.6522         estimate D2E/DX2                !
 ! A35   A(4,13,22)            106.9915         estimate D2E/DX2                !
 ! A36   A(3,14,23)            106.9574         estimate D2E/DX2                !
 ! A37   A(2,15,27)            119.6976         estimate D2E/DX2                !
 ! A38   A(6,16,17)            108.5131         estimate D2E/DX2                !
 ! A39   A(6,16,18)            109.7613         estimate D2E/DX2                !
 ! A40   A(6,16,19)            113.6048         estimate D2E/DX2                !
 ! A41   A(17,16,18)           108.3447         estimate D2E/DX2                !
 ! A42   A(17,16,19)           109.7392         estimate D2E/DX2                !
 ! A43   A(18,16,19)           106.7569         estimate D2E/DX2                !
 ! A44   A(16,19,20)           109.0879         estimate D2E/DX2                !
 ! A45   A(16,19,84)           129.6744         estimate D2E/DX2                !
 ! A46   A(20,19,84)           106.9162         estimate D2E/DX2                !
 ! A47   A(25,24,29)           113.3858         estimate D2E/DX2                !
 ! A48   A(24,25,26)           113.9575         estimate D2E/DX2                !
 ! A49   A(24,25,30)           108.7293         estimate D2E/DX2                !
 ! A50   A(24,25,37)           107.4317         estimate D2E/DX2                !
 ! A51   A(26,25,30)           108.6719         estimate D2E/DX2                !
 ! A52   A(26,25,37)           112.9465         estimate D2E/DX2                !
 ! A53   A(30,25,37)           104.6318         estimate D2E/DX2                !
 ! A54   A(25,26,27)           113.4924         estimate D2E/DX2                !
 ! A55   A(25,26,31)           106.881          estimate D2E/DX2                !
 ! A56   A(25,26,36)           109.8448         estimate D2E/DX2                !
 ! A57   A(27,26,31)           107.3446         estimate D2E/DX2                !
 ! A58   A(27,26,36)           108.9984         estimate D2E/DX2                !
 ! A59   A(31,26,36)           110.2178         estimate D2E/DX2                !
 ! A60   A(15,27,26)           113.7968         estimate D2E/DX2                !
 ! A61   A(15,27,28)           111.2074         estimate D2E/DX2                !
 ! A62   A(15,27,32)           103.4012         estimate D2E/DX2                !
 ! A63   A(26,27,28)           111.3362         estimate D2E/DX2                !
 ! A64   A(26,27,32)           108.602          estimate D2E/DX2                !
 ! A65   A(28,27,32)           108.0152         estimate D2E/DX2                !
 ! A66   A(27,28,29)           107.5793         estimate D2E/DX2                !
 ! A67   A(27,28,33)           109.34           estimate D2E/DX2                !
 ! A68   A(27,28,35)           112.6853         estimate D2E/DX2                !
 ! A69   A(29,28,33)           109.0643         estimate D2E/DX2                !
 ! A70   A(29,28,35)           107.8864         estimate D2E/DX2                !
 ! A71   A(33,28,35)           110.1857         estimate D2E/DX2                !
 ! A72   A(24,29,28)           108.8602         estimate D2E/DX2                !
 ! A73   A(24,29,34)           109.8856         estimate D2E/DX2                !
 ! A74   A(24,29,38)           107.1109         estimate D2E/DX2                !
 ! A75   A(28,29,34)           109.223          estimate D2E/DX2                !
 ! A76   A(28,29,38)           113.8096         estimate D2E/DX2                !
 ! A77   A(34,29,38)           107.8972         estimate D2E/DX2                !
 ! A78   A(28,35,43)           107.3655         estimate D2E/DX2                !
 ! A79   A(26,36,44)           106.0001         estimate D2E/DX2                !
 ! A80   A(25,37,49)           117.7911         estimate D2E/DX2                !
 ! A81   A(29,38,39)           110.001          estimate D2E/DX2                !
 ! A82   A(29,38,40)           108.2717         estimate D2E/DX2                !
 ! A83   A(29,38,41)           106.1296         estimate D2E/DX2                !
 ! A84   A(39,38,40)           108.507          estimate D2E/DX2                !
 ! A85   A(39,38,41)           111.6143         estimate D2E/DX2                !
 ! A86   A(40,38,41)           112.2446         estimate D2E/DX2                !
 ! A87   A(38,41,42)           108.6607         estimate D2E/DX2                !
 ! A88   A(36,44,56)           150.0974         estimate D2E/DX2                !
 ! A89   A(46,45,50)           112.6132         estimate D2E/DX2                !
 ! A90   A(45,46,47)           109.7319         estimate D2E/DX2                !
 ! A91   A(45,46,51)           108.6303         estimate D2E/DX2                !
 ! A92   A(45,46,58)           109.1574         estimate D2E/DX2                !
 ! A93   A(47,46,51)           111.8327         estimate D2E/DX2                !
 ! A94   A(47,46,58)           105.721          estimate D2E/DX2                !
 ! A95   A(51,46,58)           111.7147         estimate D2E/DX2                !
 ! A96   A(46,47,48)           113.0859         estimate D2E/DX2                !
 ! A97   A(46,47,52)           106.3496         estimate D2E/DX2                !
 ! A98   A(46,47,57)           112.5373         estimate D2E/DX2                !
 ! A99   A(48,47,52)           107.702          estimate D2E/DX2                !
 ! A100  A(48,47,57)           106.2574         estimate D2E/DX2                !
 ! A101  A(52,47,57)           110.8657         estimate D2E/DX2                !
 ! A102  A(47,48,49)           110.4736         estimate D2E/DX2                !
 ! A103  A(47,48,53)           109.616          estimate D2E/DX2                !
 ! A104  A(47,48,56)           109.0129         estimate D2E/DX2                !
 ! A105  A(49,48,53)           108.5022         estimate D2E/DX2                !
 ! A106  A(49,48,56)           109.7379         estimate D2E/DX2                !
 ! A107  A(53,48,56)           109.4839         estimate D2E/DX2                !
 ! A108  A(37,49,48)           109.6477         estimate D2E/DX2                !
 ! A109  A(37,49,50)           112.5846         estimate D2E/DX2                !
 ! A110  A(37,49,55)           110.7546         estimate D2E/DX2                !
 ! A111  A(48,49,50)           108.2609         estimate D2E/DX2                !
 ! A112  A(48,49,55)           109.4136         estimate D2E/DX2                !
 ! A113  A(50,49,55)           106.0678         estimate D2E/DX2                !
 ! A114  A(45,50,49)           106.7464         estimate D2E/DX2                !
 ! A115  A(45,50,54)           109.8666         estimate D2E/DX2                !
 ! A116  A(45,50,59)           107.9832         estimate D2E/DX2                !
 ! A117  A(49,50,54)           110.0913         estimate D2E/DX2                !
 ! A118  A(49,50,59)           114.8826         estimate D2E/DX2                !
 ! A119  A(54,50,59)           107.2102         estimate D2E/DX2                !
 ! A120  A(44,56,48)           127.3815         estimate D2E/DX2                !
 ! A121  A(44,56,64)           121.855          estimate D2E/DX2                !
 ! A122  A(48,56,64)           106.5405         estimate D2E/DX2                !
 ! A123  A(47,57,65)           108.1772         estimate D2E/DX2                !
 ! A124  A(46,58,66)           117.3499         estimate D2E/DX2                !
 ! A125  A(50,59,60)           108.5174         estimate D2E/DX2                !
 ! A126  A(50,59,61)           108.9532         estimate D2E/DX2                !
 ! A127  A(50,59,62)           113.7504         estimate D2E/DX2                !
 ! A128  A(60,59,61)           108.4859         estimate D2E/DX2                !
 ! A129  A(60,59,62)           107.3753         estimate D2E/DX2                !
 ! A130  A(61,59,62)           109.6259         estimate D2E/DX2                !
 ! A131  A(59,62,63)           105.8227         estimate D2E/DX2                !
 ! A132  A(59,62,83)           120.349          estimate D2E/DX2                !
 ! A133  A(63,62,83)           111.1887         estimate D2E/DX2                !
 ! A134  A(58,66,67)           104.4968         estimate D2E/DX2                !
 ! A135  A(58,66,68)           109.5284         estimate D2E/DX2                !
 ! A136  A(58,66,69)           112.1225         estimate D2E/DX2                !
 ! A137  A(67,66,68)           108.2661         estimate D2E/DX2                !
 ! A138  A(67,66,69)           111.0308         estimate D2E/DX2                !
 ! A139  A(68,66,69)           111.1314         estimate D2E/DX2                !
 ! A140  A(66,69,70)           107.9249         estimate D2E/DX2                !
 ! A141  A(66,69,71)           108.1633         estimate D2E/DX2                !
 ! A142  A(66,69,72)           112.5442         estimate D2E/DX2                !
 ! A143  A(70,69,71)           106.4145         estimate D2E/DX2                !
 ! A144  A(70,69,72)           111.1786         estimate D2E/DX2                !
 ! A145  A(71,69,72)           110.3687         estimate D2E/DX2                !
 ! A146  A(69,72,73)           108.6986         estimate D2E/DX2                !
 ! A147  A(69,72,74)           109.6704         estimate D2E/DX2                !
 ! A148  A(69,72,75)           115.5294         estimate D2E/DX2                !
 ! A149  A(73,72,74)           104.5038         estimate D2E/DX2                !
 ! A150  A(73,72,75)           109.7008         estimate D2E/DX2                !
 ! A151  A(74,72,75)           108.1695         estimate D2E/DX2                !
 ! A152  A(72,75,76)           109.05           estimate D2E/DX2                !
 ! A153  A(72,75,77)           110.2689         estimate D2E/DX2                !
 ! A154  A(72,75,78)           115.1174         estimate D2E/DX2                !
 ! A155  A(76,75,77)           105.9671         estimate D2E/DX2                !
 ! A156  A(76,75,78)           109.41           estimate D2E/DX2                !
 ! A157  A(77,75,78)           106.6237         estimate D2E/DX2                !
 ! A158  A(75,78,79)           111.5142         estimate D2E/DX2                !
 ! A159  A(75,78,80)           111.0819         estimate D2E/DX2                !
 ! A160  A(75,78,81)           113.1172         estimate D2E/DX2                !
 ! A161  A(79,78,80)           107.5199         estimate D2E/DX2                !
 ! A162  A(79,78,81)           106.3213         estimate D2E/DX2                !
 ! A163  A(80,78,81)           106.9609         estimate D2E/DX2                !
 ! A164  A(78,81,82)           110.2446         estimate D2E/DX2                !
 ! A165  A(78,81,83)           109.5508         estimate D2E/DX2                !
 ! A166  A(78,81,84)           112.9833         estimate D2E/DX2                !
 ! A167  A(82,81,83)           104.1251         estimate D2E/DX2                !
 ! A168  A(82,81,84)           110.5101         estimate D2E/DX2                !
 ! A169  A(83,81,84)           109.0442         estimate D2E/DX2                !
 ! A170  A(19,84,81)           164.2981         estimate D2E/DX2                !
 ! A171  L(1,43,35,19,-1)      178.9581         estimate D2E/DX2                !
 ! A172  L(62,83,81,1,-1)      186.1114         estimate D2E/DX2                !
 ! A173  L(1,43,35,19,-2)      193.2792         estimate D2E/DX2                !
 ! A174  L(62,83,81,1,-2)      172.1799         estimate D2E/DX2                !
 ! D1    D(6,1,2,3)            -52.1497         estimate D2E/DX2                !
 ! D2    D(6,1,2,7)           -169.8522         estimate D2E/DX2                !
 ! D3    D(6,1,2,15)            68.8233         estimate D2E/DX2                !
 ! D4    D(43,1,2,3)          -154.2014         estimate D2E/DX2                !
 ! D5    D(43,1,2,7)            88.0961         estimate D2E/DX2                !
 ! D6    D(43,1,2,15)          -33.2285         estimate D2E/DX2                !
 ! D7    D(2,1,6,5)             53.3204         estimate D2E/DX2                !
 ! D8    D(2,1,6,11)           -65.1453         estimate D2E/DX2                !
 ! D9    D(2,1,6,16)           176.7432         estimate D2E/DX2                !
 ! D10   D(43,1,6,5)           158.7023         estimate D2E/DX2                !
 ! D11   D(43,1,6,11)           40.2365         estimate D2E/DX2                !
 ! D12   D(43,1,6,16)          -77.875          estimate D2E/DX2                !
 ! D13   D(2,1,35,28)           15.6851         estimate D2E/DX2                !
 ! D14   D(6,1,35,28)         -100.6012         estimate D2E/DX2                !
 ! D15   D(1,2,3,4)             53.1903         estimate D2E/DX2                !
 ! D16   D(1,2,3,8)            -64.8107         estimate D2E/DX2                !
 ! D17   D(1,2,3,14)           179.2059         estimate D2E/DX2                !
 ! D18   D(7,2,3,4)            167.8993         estimate D2E/DX2                !
 ! D19   D(7,2,3,8)             49.8983         estimate D2E/DX2                !
 ! D20   D(7,2,3,14)           -66.0851         estimate D2E/DX2                !
 ! D21   D(15,2,3,4)           -70.9674         estimate D2E/DX2                !
 ! D22   D(15,2,3,8)           171.0317         estimate D2E/DX2                !
 ! D23   D(15,2,3,14)           55.0482         estimate D2E/DX2                !
 ! D24   D(1,2,15,27)           74.2182         estimate D2E/DX2                !
 ! D25   D(3,2,15,27)         -162.6835         estimate D2E/DX2                !
 ! D26   D(7,2,15,27)          -42.9799         estimate D2E/DX2                !
 ! D27   D(2,3,4,5)            -55.6188         estimate D2E/DX2                !
 ! D28   D(2,3,4,9)             64.0722         estimate D2E/DX2                !
 ! D29   D(2,3,4,13)          -173.4723         estimate D2E/DX2                !
 ! D30   D(8,3,4,5)             61.7247         estimate D2E/DX2                !
 ! D31   D(8,3,4,9)           -178.5843         estimate D2E/DX2                !
 ! D32   D(8,3,4,13)           -56.1288         estimate D2E/DX2                !
 ! D33   D(14,3,4,5)           178.3332         estimate D2E/DX2                !
 ! D34   D(14,3,4,9)           -61.9758         estimate D2E/DX2                !
 ! D35   D(14,3,4,13)           60.4797         estimate D2E/DX2                !
 ! D36   D(2,3,14,23)          -43.8246         estimate D2E/DX2                !
 ! D37   D(4,3,14,23)           82.0598         estimate D2E/DX2                !
 ! D38   D(8,3,14,23)         -160.2426         estimate D2E/DX2                !
 ! D39   D(3,4,5,6)             54.7611         estimate D2E/DX2                !
 ! D40   D(3,4,5,10)           171.482          estimate D2E/DX2                !
 ! D41   D(3,4,5,12)           -66.6216         estimate D2E/DX2                !
 ! D42   D(9,4,5,6)            -65.4864         estimate D2E/DX2                !
 ! D43   D(9,4,5,10)            51.2345         estimate D2E/DX2                !
 ! D44   D(9,4,5,12)           173.1309         estimate D2E/DX2                !
 ! D45   D(13,4,5,6)           175.1043         estimate D2E/DX2                !
 ! D46   D(13,4,5,10)          -68.1748         estimate D2E/DX2                !
 ! D47   D(13,4,5,12)           53.7216         estimate D2E/DX2                !
 ! D48   D(3,4,13,22)          -44.1662         estimate D2E/DX2                !
 ! D49   D(5,4,13,22)         -164.0827         estimate D2E/DX2                !
 ! D50   D(9,4,13,22)           77.7308         estimate D2E/DX2                !
 ! D51   D(4,5,6,1)            -53.2601         estimate D2E/DX2                !
 ! D52   D(4,5,6,11)            65.9545         estimate D2E/DX2                !
 ! D53   D(4,5,6,16)          -173.9531         estimate D2E/DX2                !
 ! D54   D(10,5,6,1)          -170.5415         estimate D2E/DX2                !
 ! D55   D(10,5,6,11)          -51.3269         estimate D2E/DX2                !
 ! D56   D(10,5,6,16)           68.7655         estimate D2E/DX2                !
 ! D57   D(12,5,6,1)            69.4014         estimate D2E/DX2                !
 ! D58   D(12,5,6,11)         -171.384          estimate D2E/DX2                !
 ! D59   D(12,5,6,16)          -51.2917         estimate D2E/DX2                !
 ! D60   D(4,5,12,21)          -45.5933         estimate D2E/DX2                !
 ! D61   D(6,5,12,21)         -167.0072         estimate D2E/DX2                !
 ! D62   D(10,5,12,21)          74.9382         estimate D2E/DX2                !
 ! D63   D(1,6,16,17)         -178.6878         estimate D2E/DX2                !
 ! D64   D(1,6,16,18)          -60.4602         estimate D2E/DX2                !
 ! D65   D(1,6,16,19)           58.9671         estimate D2E/DX2                !
 ! D66   D(5,6,16,17)          -54.5282         estimate D2E/DX2                !
 ! D67   D(5,6,16,18)           63.6994         estimate D2E/DX2                !
 ! D68   D(5,6,16,19)         -176.8734         estimate D2E/DX2                !
 ! D69   D(11,6,16,17)          64.0433         estimate D2E/DX2                !
 ! D70   D(11,6,16,18)        -177.729          estimate D2E/DX2                !
 ! D71   D(11,6,16,19)         -58.3018         estimate D2E/DX2                !
 ! D72   D(2,15,27,26)          30.5861         estimate D2E/DX2                !
 ! D73   D(2,15,27,28)         -96.1154         estimate D2E/DX2                !
 ! D74   D(2,15,27,32)         148.1966         estimate D2E/DX2                !
 ! D75   D(6,16,19,20)          37.5931         estimate D2E/DX2                !
 ! D76   D(6,16,19,84)         -95.8052         estimate D2E/DX2                !
 ! D77   D(17,16,19,20)        -84.0717         estimate D2E/DX2                !
 ! D78   D(17,16,19,84)        142.53           estimate D2E/DX2                !
 ! D79   D(18,16,19,20)        158.7185         estimate D2E/DX2                !
 ! D80   D(18,16,19,84)         25.3202         estimate D2E/DX2                !
 ! D81   D(16,19,84,81)        157.4988         estimate D2E/DX2                !
 ! D82   D(20,19,84,81)         23.3637         estimate D2E/DX2                !
 ! D83   D(29,24,25,26)        -49.8147         estimate D2E/DX2                !
 ! D84   D(29,24,25,30)         71.5559         estimate D2E/DX2                !
 ! D85   D(29,24,25,37)       -175.7364         estimate D2E/DX2                !
 ! D86   D(25,24,29,28)         63.7138         estimate D2E/DX2                !
 ! D87   D(25,24,29,34)        -55.8603         estimate D2E/DX2                !
 ! D88   D(25,24,29,38)       -172.8148         estimate D2E/DX2                !
 ! D89   D(24,25,26,27)         39.4961         estimate D2E/DX2                !
 ! D90   D(24,25,26,31)        -78.6422         estimate D2E/DX2                !
 ! D91   D(24,25,26,36)        161.7887         estimate D2E/DX2                !
 ! D92   D(30,25,26,27)        -81.9065         estimate D2E/DX2                !
 ! D93   D(30,25,26,31)        159.9553         estimate D2E/DX2                !
 ! D94   D(30,25,26,36)         40.3861         estimate D2E/DX2                !
 ! D95   D(37,25,26,27)        162.4592         estimate D2E/DX2                !
 ! D96   D(37,25,26,31)         44.321          estimate D2E/DX2                !
 ! D97   D(37,25,26,36)        -75.2482         estimate D2E/DX2                !
 ! D98   D(24,25,37,49)         76.9797         estimate D2E/DX2                !
 ! D99   D(26,25,37,49)        -49.5408         estimate D2E/DX2                !
 ! D100  D(30,25,37,49)       -167.5649         estimate D2E/DX2                !
 ! D101  D(25,26,27,15)       -170.5492         estimate D2E/DX2                !
 ! D102  D(25,26,27,28)        -43.9151         estimate D2E/DX2                !
 ! D103  D(25,26,27,32)         74.8879         estimate D2E/DX2                !
 ! D104  D(31,26,27,15)        -52.6794         estimate D2E/DX2                !
 ! D105  D(31,26,27,28)         73.9547         estimate D2E/DX2                !
 ! D106  D(31,26,27,32)       -167.2423         estimate D2E/DX2                !
 ! D107  D(36,26,27,15)         66.6902         estimate D2E/DX2                !
 ! D108  D(36,26,27,28)       -166.6757         estimate D2E/DX2                !
 ! D109  D(36,26,27,32)        -47.8727         estimate D2E/DX2                !
 ! D110  D(25,26,36,44)         75.6306         estimate D2E/DX2                !
 ! D111  D(27,26,36,44)       -159.4469         estimate D2E/DX2                !
 ! D112  D(31,26,36,44)        -41.8795         estimate D2E/DX2                !
 ! D113  D(15,27,28,29)       -175.428          estimate D2E/DX2                !
 ! D114  D(15,27,28,33)        -57.113          estimate D2E/DX2                !
 ! D115  D(15,27,28,35)         65.7803         estimate D2E/DX2                !
 ! D116  D(26,27,28,29)         56.5315         estimate D2E/DX2                !
 ! D117  D(26,27,28,33)        174.8465         estimate D2E/DX2                !
 ! D118  D(26,27,28,35)        -62.2602         estimate D2E/DX2                !
 ! D119  D(32,27,28,29)        -62.6221         estimate D2E/DX2                !
 ! D120  D(32,27,28,33)         55.6929         estimate D2E/DX2                !
 ! D121  D(32,27,28,35)        178.5863         estimate D2E/DX2                !
 ! D122  D(27,28,29,24)        -66.127          estimate D2E/DX2                !
 ! D123  D(27,28,29,34)         53.8584         estimate D2E/DX2                !
 ! D124  D(27,28,29,38)        174.4949         estimate D2E/DX2                !
 ! D125  D(33,28,29,24)        175.3805         estimate D2E/DX2                !
 ! D126  D(33,28,29,34)        -64.6342         estimate D2E/DX2                !
 ! D127  D(33,28,29,38)         56.0024         estimate D2E/DX2                !
 ! D128  D(35,28,29,24)         55.7001         estimate D2E/DX2                !
 ! D129  D(35,28,29,34)        175.6854         estimate D2E/DX2                !
 ! D130  D(35,28,29,38)        -63.678          estimate D2E/DX2                !
 ! D131  D(27,28,35,43)        -22.1214         estimate D2E/DX2                !
 ! D132  D(29,28,35,43)       -140.7337         estimate D2E/DX2                !
 ! D133  D(33,28,35,43)        100.2978         estimate D2E/DX2                !
 ! D134  D(24,29,38,39)        -60.9289         estimate D2E/DX2                !
 ! D135  D(24,29,38,40)         57.4896         estimate D2E/DX2                !
 ! D136  D(24,29,38,41)        178.1855         estimate D2E/DX2                !
 ! D137  D(28,29,38,39)         59.4379         estimate D2E/DX2                !
 ! D138  D(28,29,38,40)        177.8564         estimate D2E/DX2                !
 ! D139  D(28,29,38,41)        -61.4477         estimate D2E/DX2                !
 ! D140  D(34,29,38,39)       -179.1848         estimate D2E/DX2                !
 ! D141  D(34,29,38,40)        -60.7663         estimate D2E/DX2                !
 ! D142  D(34,29,38,41)         59.9296         estimate D2E/DX2                !
 ! D143  D(26,36,44,56)         20.257          estimate D2E/DX2                !
 ! D144  D(25,37,49,48)        120.3358         estimate D2E/DX2                !
 ! D145  D(25,37,49,50)       -119.0768         estimate D2E/DX2                !
 ! D146  D(25,37,49,55)         -0.5096         estimate D2E/DX2                !
 ! D147  D(29,38,41,42)       -169.853          estimate D2E/DX2                !
 ! D148  D(39,38,41,42)         70.308          estimate D2E/DX2                !
 ! D149  D(40,38,41,42)        -51.7607         estimate D2E/DX2                !
 ! D150  D(36,44,56,48)        -61.0009         estimate D2E/DX2                !
 ! D151  D(36,44,56,64)        145.2901         estimate D2E/DX2                !
 ! D152  D(50,45,46,47)        -60.156          estimate D2E/DX2                !
 ! D153  D(50,45,46,51)         62.3824         estimate D2E/DX2                !
 ! D154  D(50,45,46,58)       -175.5816         estimate D2E/DX2                !
 ! D155  D(46,45,50,49)         68.1596         estimate D2E/DX2                !
 ! D156  D(46,45,50,54)        -51.1913         estimate D2E/DX2                !
 ! D157  D(46,45,50,59)       -167.8098         estimate D2E/DX2                !
 ! D158  D(45,46,47,48)         49.1308         estimate D2E/DX2                !
 ! D159  D(45,46,47,52)        -68.8717         estimate D2E/DX2                !
 ! D160  D(45,46,47,57)        169.5531         estimate D2E/DX2                !
 ! D161  D(51,46,47,48)        -71.4872         estimate D2E/DX2                !
 ! D162  D(51,46,47,52)        170.5104         estimate D2E/DX2                !
 ! D163  D(51,46,47,57)         48.9351         estimate D2E/DX2                !
 ! D164  D(58,46,47,48)        166.7211         estimate D2E/DX2                !
 ! D165  D(58,46,47,52)         48.7186         estimate D2E/DX2                !
 ! D166  D(58,46,47,57)        -72.8567         estimate D2E/DX2                !
 ! D167  D(45,46,58,66)        -71.2387         estimate D2E/DX2                !
 ! D168  D(47,46,58,66)        170.786          estimate D2E/DX2                !
 ! D169  D(51,46,58,66)         48.9183         estimate D2E/DX2                !
 ! D170  D(46,47,48,49)        -48.6513         estimate D2E/DX2                !
 ! D171  D(46,47,48,53)         70.8651         estimate D2E/DX2                !
 ! D172  D(46,47,48,56)       -169.3113         estimate D2E/DX2                !
 ! D173  D(52,47,48,49)         68.5592         estimate D2E/DX2                !
 ! D174  D(52,47,48,53)       -171.9244         estimate D2E/DX2                !
 ! D175  D(52,47,48,56)        -52.1008         estimate D2E/DX2                !
 ! D176  D(57,47,48,49)       -172.5899         estimate D2E/DX2                !
 ! D177  D(57,47,48,53)        -53.0735         estimate D2E/DX2                !
 ! D178  D(57,47,48,56)         66.7501         estimate D2E/DX2                !
 ! D179  D(46,47,57,65)         65.6254         estimate D2E/DX2                !
 ! D180  D(48,47,57,65)       -170.0953         estimate D2E/DX2                !
 ! D181  D(52,47,57,65)        -53.3441         estimate D2E/DX2                !
 ! D182  D(47,48,49,37)        178.4843         estimate D2E/DX2                !
 ! D183  D(47,48,49,50)         55.3078         estimate D2E/DX2                !
 ! D184  D(47,48,49,55)        -59.8623         estimate D2E/DX2                !
 ! D185  D(53,48,49,37)         58.2974         estimate D2E/DX2                !
 ! D186  D(53,48,49,50)        -64.8791         estimate D2E/DX2                !
 ! D187  D(53,48,49,55)        179.9507         estimate D2E/DX2                !
 ! D188  D(56,48,49,37)        -61.2896         estimate D2E/DX2                !
 ! D189  D(56,48,49,50)        175.534          estimate D2E/DX2                !
 ! D190  D(56,48,49,55)         60.3638         estimate D2E/DX2                !
 ! D191  D(47,48,56,44)        147.996          estimate D2E/DX2                !
 ! D192  D(47,48,56,64)        -55.1116         estimate D2E/DX2                !
 ! D193  D(49,48,56,44)         26.8857         estimate D2E/DX2                !
 ! D194  D(49,48,56,64)       -176.2219         estimate D2E/DX2                !
 ! D195  D(53,48,56,44)        -92.0987         estimate D2E/DX2                !
 ! D196  D(53,48,56,64)         64.7936         estimate D2E/DX2                !
 ! D197  D(37,49,50,45)        174.626          estimate D2E/DX2                !
 ! D198  D(37,49,50,54)        -66.1688         estimate D2E/DX2                !
 ! D199  D(37,49,50,59)         54.9586         estimate D2E/DX2                !
 ! D200  D(48,49,50,45)        -63.9933         estimate D2E/DX2                !
 ! D201  D(48,49,50,54)         55.2119         estimate D2E/DX2                !
 ! D202  D(48,49,50,59)        176.3392         estimate D2E/DX2                !
 ! D203  D(55,49,50,45)         53.3472         estimate D2E/DX2                !
 ! D204  D(55,49,50,54)        172.5524         estimate D2E/DX2                !
 ! D205  D(55,49,50,59)        -66.3203         estimate D2E/DX2                !
 ! D206  D(45,50,59,60)         53.0989         estimate D2E/DX2                !
 ! D207  D(45,50,59,61)        171.0406         estimate D2E/DX2                !
 ! D208  D(45,50,59,62)        -66.3371         estimate D2E/DX2                !
 ! D209  D(49,50,59,60)        172.0778         estimate D2E/DX2                !
 ! D210  D(49,50,59,61)        -69.9805         estimate D2E/DX2                !
 ! D211  D(49,50,59,62)         52.6418         estimate D2E/DX2                !
 ! D212  D(54,50,59,60)        -65.2328         estimate D2E/DX2                !
 ! D213  D(54,50,59,61)         52.7088         estimate D2E/DX2                !
 ! D214  D(54,50,59,62)        175.3312         estimate D2E/DX2                !
 ! D215  D(46,58,66,67)       -149.6298         estimate D2E/DX2                !
 ! D216  D(46,58,66,68)        -33.8316         estimate D2E/DX2                !
 ! D217  D(46,58,66,69)         90.0232         estimate D2E/DX2                !
 ! D218  D(50,59,62,63)        -79.637          estimate D2E/DX2                !
 ! D219  D(50,59,62,83)         47.3233         estimate D2E/DX2                !
 ! D220  D(60,59,62,63)        160.28           estimate D2E/DX2                !
 ! D221  D(60,59,62,83)        -72.7596         estimate D2E/DX2                !
 ! D222  D(61,59,62,63)         42.6148         estimate D2E/DX2                !
 ! D223  D(61,59,62,83)        169.5752         estimate D2E/DX2                !
 ! D224  D(59,62,81,78)         83.0874         estimate D2E/DX2                !
 ! D225  D(59,62,81,82)        -32.0502         estimate D2E/DX2                !
 ! D226  D(59,62,81,84)       -150.3706         estimate D2E/DX2                !
 ! D227  D(63,62,81,78)       -152.9407         estimate D2E/DX2                !
 ! D228  D(63,62,81,82)         91.9217         estimate D2E/DX2                !
 ! D229  D(63,62,81,84)        -26.3987         estimate D2E/DX2                !
 ! D230  D(58,66,69,70)        -70.2409         estimate D2E/DX2                !
 ! D231  D(58,66,69,71)        175.0067         estimate D2E/DX2                !
 ! D232  D(58,66,69,72)         52.8113         estimate D2E/DX2                !
 ! D233  D(67,66,69,70)        173.2845         estimate D2E/DX2                !
 ! D234  D(67,66,69,71)         58.5321         estimate D2E/DX2                !
 ! D235  D(67,66,69,72)        -63.6633         estimate D2E/DX2                !
 ! D236  D(68,66,69,70)         52.7133         estimate D2E/DX2                !
 ! D237  D(68,66,69,71)        -62.0391         estimate D2E/DX2                !
 ! D238  D(68,66,69,72)        175.7655         estimate D2E/DX2                !
 ! D239  D(66,69,72,73)        -36.3694         estimate D2E/DX2                !
 ! D240  D(66,69,72,74)         77.3195         estimate D2E/DX2                !
 ! D241  D(66,69,72,75)       -160.1523         estimate D2E/DX2                !
 ! D242  D(70,69,72,73)         84.8427         estimate D2E/DX2                !
 ! D243  D(70,69,72,74)       -161.4684         estimate D2E/DX2                !
 ! D244  D(70,69,72,75)        -38.9402         estimate D2E/DX2                !
 ! D245  D(71,69,72,73)       -157.3102         estimate D2E/DX2                !
 ! D246  D(71,69,72,74)        -43.6212         estimate D2E/DX2                !
 ! D247  D(71,69,72,75)         78.9069         estimate D2E/DX2                !
 ! D248  D(69,72,75,76)       -179.0808         estimate D2E/DX2                !
 ! D249  D(69,72,75,77)        -63.1202         estimate D2E/DX2                !
 ! D250  D(69,72,75,78)         57.54           estimate D2E/DX2                !
 ! D251  D(73,72,75,76)         57.6632         estimate D2E/DX2                !
 ! D252  D(73,72,75,77)        173.6238         estimate D2E/DX2                !
 ! D253  D(73,72,75,78)        -65.716          estimate D2E/DX2                !
 ! D254  D(74,72,75,76)        -55.7581         estimate D2E/DX2                !
 ! D255  D(74,72,75,77)         60.2025         estimate D2E/DX2                !
 ! D256  D(74,72,75,78)       -179.1374         estimate D2E/DX2                !
 ! D257  D(72,75,78,79)        -65.6376         estimate D2E/DX2                !
 ! D258  D(72,75,78,80)        174.4445         estimate D2E/DX2                !
 ! D259  D(72,75,78,81)         54.1457         estimate D2E/DX2                !
 ! D260  D(76,75,78,79)        171.1745         estimate D2E/DX2                !
 ! D261  D(76,75,78,80)         51.2566         estimate D2E/DX2                !
 ! D262  D(76,75,78,81)        -69.0422         estimate D2E/DX2                !
 ! D263  D(77,75,78,79)         56.9958         estimate D2E/DX2                !
 ! D264  D(77,75,78,80)        -62.9221         estimate D2E/DX2                !
 ! D265  D(77,75,78,81)        176.7791         estimate D2E/DX2                !
 ! D266  D(75,78,81,82)        -43.1949         estimate D2E/DX2                !
 ! D267  D(75,78,81,83)       -157.2111         estimate D2E/DX2                !
 ! D268  D(75,78,81,84)         81.0039         estimate D2E/DX2                !
 ! D269  D(79,78,81,82)         79.5225         estimate D2E/DX2                !
 ! D270  D(79,78,81,83)        -34.4936         estimate D2E/DX2                !
 ! D271  D(79,78,81,84)       -156.2786         estimate D2E/DX2                !
 ! D272  D(80,78,81,82)       -165.8164         estimate D2E/DX2                !
 ! D273  D(80,78,81,83)         80.1674         estimate D2E/DX2                !
 ! D274  D(80,78,81,84)        -41.6175         estimate D2E/DX2                !
 ! D275  D(78,81,84,19)         90.3199         estimate D2E/DX2                !
 ! D276  D(82,81,84,19)       -145.6267         estimate D2E/DX2                !
 ! D277  D(83,81,84,19)        -31.7497         estimate D2E/DX2                !
 --------------------------------------------------------------------------------
 Trust Radius=3.00D-01 FncErr=1.00D-07 GrdErr=1.00D-06
 Number of steps in this run=    504 maximum allowed number of steps=    504.
 GradGradGradGradGradGradGradGradGradGradGradGradGradGradGradGradGradGrad

 Leave Link  103 at Wed Apr  6 15:55:05 2016, MaxMem= 10737418240 cpu:         0.6
 (Enter /share/apps//g09/l202.exe)
 Stoichiometry    C23H44NO16(1+)
 Framework group  C1[X(C23H44NO16)]
 Deg. of freedom   246
 Full point group                 C1      NOp   1
 Largest Abelian subgroup         C1      NOp   1
 Largest concise Abelian subgroup C1      NOp   1
                         Standard orientation:                         
 ---------------------------------------------------------------------
 Center     Atomic      Atomic             Coordinates (Angstroms)
 Number     Number       Type             X           Y           Z
 ---------------------------------------------------------------------
      1          8           0        1.976058   -1.224034   -0.055108
      2          6           0        2.712276   -0.538242    0.982062
      3          6           0        3.835363   -1.418352    1.540422
      4          6           0        4.740670   -1.950184    0.424831
      5          6           0        3.905110   -2.700315   -0.621209
      6          6           0        2.788167   -1.789824   -1.131403
      7          1           0        1.968758   -0.356787    1.769835
      8          1           0        3.355742   -2.279240    2.030717
      9          1           0        5.257583   -1.105361   -0.070978
     10          1           0        4.559941   -2.935446   -1.484453
     11          1           0        3.271866   -0.957155   -1.677833
     12          8           0        3.339070   -3.889989   -0.084376
     13          8           0        5.685101   -2.883632    0.941357
     14          8           0        4.580117   -0.748541    2.550272
     15          8           0        3.300435    0.668343    0.536152
     16          6           0        1.836450   -2.529713   -2.063548
     17          1           0        2.426169   -2.987773   -2.874142
     18          1           0        1.325845   -3.329762   -1.513501
     19          8           0        0.806356   -1.687744   -2.625547
     20          1           0        1.186152   -0.804665   -2.823473
     21          1           0        4.061645   -4.327061    0.407747
     22          1           0        6.039108   -2.503498    1.768129
     23          1           0        4.742473    0.160594    2.229183
     24          8           0        0.050832    3.170730   -0.612615
     25          6           0        0.226257    3.021750    0.816453
     26          6           0        1.234310    1.905749    1.216393
     27          6           0        2.462176    1.839472    0.307909
     28          6           0        2.070643    1.961606   -1.168268
     29          6           0        1.294256    3.271590   -1.334120
     30          1           0        0.578272    3.981143    1.232061
     31          1           0        0.703024    0.945672    1.120944
     32          1           0        3.127914    2.682060    0.554724
     33          1           0        2.983027    2.003093   -1.785776
     34          1           0        1.897202    4.105913   -0.929771
     35          8           0        1.221820    0.886041   -1.608136
     36          8           0        1.658778    2.098361    2.549963
     37          8           0       -1.052653    2.836173    1.382143
     38          6           0        0.946843    3.603165   -2.784179
     39          1           0        0.330080    2.796233   -3.218998
     40          1           0        0.359657    4.536748   -2.794288
     41          8           0        2.190936    3.740306   -3.468323
     42          1           0        2.021231    4.107796   -4.351166
     43          1           0        1.361423    0.126217   -0.987329
     44          1           0        0.911584    1.805845    3.116922
     45          8           0       -3.429312    0.224959    0.300137
     46          6           0       -3.816634   -0.396375    1.549753
     47          6           0       -2.624279   -0.404976    2.515465
     48          6           0       -1.939873    0.957391    2.635366
     49          6           0       -1.663352    1.541212    1.248583
     50          6           0       -2.995329    1.591441    0.470647
     51          1           0       -4.682861    0.158162    1.968106
     52          1           0       -1.886744   -1.116645    2.094128
     53          1           0       -2.597575    1.656282    3.185751
     54          1           0       -3.752440    2.157643    1.048434
     55          1           0       -1.008275    0.856891    0.687370
     56          8           0       -0.706280    0.799248    3.348971
     57          8           0       -2.995163   -0.782255    3.836841
     58          8           0       -4.123944   -1.731835    1.319030
     59          6           0       -2.908360    2.233271   -0.909247
     60          1           0       -3.868628    2.087464   -1.423097
     61          1           0       -2.736685    3.313155   -0.790760
     62          8           0       -1.885585    1.671388   -1.744657
     63          1           0       -1.033071    2.085409   -1.444995
     64          1           0       -0.928754    0.370145    4.196677
     65          1           0       -3.289495   -1.710643    3.816497
     66          6           0       -5.349202   -2.018782    0.596284
     67          1           0       -5.679317   -2.991289    0.989318
     68          1           0       -6.112550   -1.265829    0.851655
     69          6           0       -5.124147   -2.085349   -0.916049
     70          1           0       -4.915572   -1.066399   -1.272270
     71          1           0       -6.069602   -2.393782   -1.390802
     72          6           0       -3.991221   -3.051665   -1.301715
     73          1           0       -3.198150   -2.990067   -0.537119
     74          1           0       -4.352767   -4.089658   -1.240923
     75          6           0       -3.383127   -2.836602   -2.697979
     76          1           0       -2.598894   -3.591301   -2.868783
     77          1           0       -4.143679   -3.008489   -3.476031
     78          6           0       -2.809021   -1.441643   -2.948041
     79          1           0       -3.595183   -0.675424   -2.940455
     80          1           0       -2.307049   -1.390254   -3.922470
     81          7           0       -1.802492   -1.024022   -1.914002
     82          1           0       -2.133999   -1.275390   -0.972209
     83          1           0       -1.735127    0.040600   -1.890807
     84          1           0       -0.845231   -1.424901   -2.087053
 ---------------------------------------------------------------------
 Rotational constants (GHZ):      0.1054366      0.0685543      0.0631373
 Leave Link  202 at Wed Apr  6 15:55:07 2016, MaxMem= 10737418240 cpu:         4.0
 (Enter /share/apps//g09/l301.exe)
 Standard basis: 6-311+G(d,p) (5D, 7F)
 Ernie: Thresh=  0.10000D-02 Tol=  0.10000D-05 Strict=F.
 There are  1184 symmetry adapted cartesian basis functions of A   symmetry.
 There are  1144 symmetry adapted basis functions of A   symmetry.
  1144 basis functions,  1792 primitive gaussians,  1184 cartesian basis functions
   158 alpha electrons      158 beta electrons
       nuclear repulsion energy      5902.9078846586 Hartrees.
 IExCor= 1009 DFT=T Ex+Corr=PBE1PBE ExCW=0 ScaHFX=  0.250000
 ScaDFX=  0.750000  0.750000  1.000000  1.000000 ScalE2=  1.000000  1.000000
 IRadAn=      0 IRanWt=     -1 IRanGd=            0 ICorTp=0 IEmpDi=131
 NAtoms=   84 NActive=   84 NUniq=   84 SFac= 1.00D+00 NAtFMM=   60 NAOKFM=T Big=T
 Integral buffers will be    131072 words long.
 Raffenetti 2 integral format.
 Two-electron integral symmetry is turned on.
 R6Disp:  Grimme-D3 Dispersion energy=       -0.0845462650 Hartrees.
 Nuclear repulsion after empirical dispersion term =     5902.8233383936 Hartrees.
 Leave Link  301 at Wed Apr  6 15:55:08 2016, MaxMem= 10737418240 cpu:         2.5
 (Enter /share/apps//g09/l302.exe)
 NPDir=0 NMtPBC=     1 NCelOv=     1 NCel=       1 NClECP=     1 NCelD=      1
         NCelK=      1 NCelE2=     1 NClLst=     1 CellRange=     0.0.
 One-electron integrals computed using PRISM.
 NBasis=  1144 RedAO= T EigKep=  1.17D-06  NBF=  1144
 NBsUse=  1144 1.00D-06 EigRej= -1.00D+00 NBFU=  1144
 Precomputing XC quadrature grid using
 IXCGrd= 4 IRadAn=           0 IRanWt=          -1 IRanGd=           0 AccXCQ= 0.00D+00.
 Generated NRdTot=       0 NPtTot=           0 NUsed=           0 NTot=          32
 NSgBfM=  1071  1089  1090  1092  1103 MxSgAt=    84 MxSgA2=    84.
 Leave Link  302 at Wed Apr  6 15:55:15 2016, MaxMem= 10737418240 cpu:        70.6
 (Enter /share/apps//g09/l303.exe)
 DipDrv:  MaxL=1.
 Leave Link  303 at Wed Apr  6 15:55:17 2016, MaxMem= 10737418240 cpu:        26.7
 (Enter /share/apps//g09/l401.exe)
 ExpMin= 4.38D-02 ExpMax= 8.59D+03 ExpMxC= 1.30D+03 IAcc=2 IRadAn=         4 AccDes= 0.00D+00
 Harris functional with IExCor= 1009 and IRadAn=       4 diagonalized for initial guess.
 HarFok:  IExCor= 1009 AccDes= 0.00D+00 IRadAn=         4 IDoV= 1 UseB2=F ITyADJ=14
 ICtDFT=  3500011 ScaDFX=  1.000000  1.000000  1.000000  1.000000
 FoFCou: FMM=F IPFlag=           0 FMFlag=      100000 FMFlg1=        2001
         NFxFlg=           0 DoJE=T BraDBF=F KetDBF=T FulRan=T
         wScrn=  0.000000 ICntrl=     500 IOpCl=  0 I1Cent=   200000004 NGrid=           0
         NMat0=    1 NMatS0=      1 NMatT0=    0 NMatD0=    1 NMtDS0=    0 NMtDT0=    0
 Petite list used in FoFCou.
 Harris En= -2159.70613690711    
 JPrj=0 DoOrth=F DoCkMO=F.
 Leave Link  401 at Wed Apr  6 15:55:23 2016, MaxMem= 10737418240 cpu:       118.9
 (Enter /share/apps//g09/l502.exe)
 Closed shell SCF:
 Using DIIS extrapolation, IDIIS=  1040.
 Integral symmetry usage will be decided dynamically.
 IVT=     4256630 IEndB=     4256630 NGot= 10737418240 MDV= 10734581291
 LenX= 10734581291 LenY= 10733178251
 Requested convergence on RMS density matrix=1.00D-08 within 128 cycles.
 Requested convergence on MAX density matrix=1.00D-06.
 Requested convergence on             energy=1.00D-06.
 No special actions if energy rises.
 Fock matrices will be formed incrementally for  20 cycles.

 Cycle   1  Pass 1  IDiag  1:
 FoFJK:  IHMeth= 1 ICntrl=       0 DoSepK=F KAlg= 0 I1Cent=   0 FoldK=F
 IRaf= 780000000 NMat=   1 IRICut=       1 DoRegI=T DoRafI=F ISym2E= 0.
 FoFCou: FMM=T IPFlag=           0 FMFlag=      100000 FMFlg1=        2001
         NFxFlg=           0 DoJE=F BraDBF=F KetDBF=F FulRan=T
         wScrn=  0.000000 ICntrl=       0 IOpCl=  0 I1Cent=           0 NGrid=           0
         NMat0=    1 NMatS0=      1 NMatT0=    0 NMatD0=    1 NMtDS0=    0 NMtDT0=    0
 Symmetry not used in FoFCou.
 FMM levels:  10  Number of levels for PrismC:   9
 E= -2158.68665964208    
 DIIS: error= 1.42D-02 at cycle   1 NSaved=   1.
 NSaved= 1 IEnMin= 1 EnMin= -2158.68665964208     IErMin= 1 ErrMin= 1.42D-02
 ErrMax= 1.42D-02  0.00D+00 EMaxC= 1.00D-01 BMatC= 1.03D+00 BMatP= 1.03D+00
 IDIUse=3 WtCom= 8.58D-01 WtEn= 1.42D-01
 Coeff-Com:  0.100D+01
 Coeff-En:   0.100D+01
 Coeff:      0.100D+01
 Gap=     0.290 Goal=   None    Shift=    0.000
 GapD=    0.290 DampG=1.000 DampE=0.500 DampFc=0.5000 IDamp=-1.
 Damping current iteration by 5.00D-01
 RMSDP=1.17D-02 MaxDP=2.78D+00              OVMax= 1.42D-01

 Cycle   2  Pass 1  IDiag  1:
 RMSU=  5.82D-03    CP:  1.02D+00
 E= -2158.96719938709     Delta-E=       -0.280539745008 Rises=F Damp=T
 DIIS: error= 3.72D-03 at cycle   2 NSaved=   2.
 NSaved= 2 IEnMin= 2 EnMin= -2158.96719938709     IErMin= 2 ErrMin= 3.72D-03
 ErrMax= 3.72D-03  0.00D+00 EMaxC= 1.00D-01 BMatC= 8.29D-02 BMatP= 1.03D+00
 IDIUse=3 WtCom= 9.63D-01 WtEn= 3.72D-02
 Coeff-Com:  0.654D-01 0.935D+00
 Coeff-En:   0.166D+00 0.834D+00
 Coeff:      0.691D-01 0.931D+00
 Gap=     0.288 Goal=   None    Shift=    0.000
 RMSDP=6.01D-03 MaxDP=2.19D+00 DE=-2.81D-01 OVMax= 8.67D-02

 Cycle   3  Pass 1  IDiag  1:
 RMSU=  2.88D-03    CP:  9.09D-01  8.14D-01
 E= -2159.33946789648     Delta-E=       -0.372268509389 Rises=F Damp=F
 DIIS: error= 3.69D-03 at cycle   3 NSaved=   3.
 NSaved= 3 IEnMin= 3 EnMin= -2159.33946789648     IErMin= 3 ErrMin= 3.69D-03
 ErrMax= 3.69D-03  0.00D+00 EMaxC= 1.00D-01 BMatC= 4.62D-02 BMatP= 8.29D-02
 IDIUse=3 WtCom= 9.63D-01 WtEn= 3.69D-02
 Coeff-Com: -0.639D-01 0.410D+00 0.654D+00
 Coeff-En:   0.000D+00 0.000D+00 0.100D+01
 Coeff:     -0.616D-01 0.395D+00 0.667D+00
 Gap=     0.273 Goal=   None    Shift=    0.000
 RMSDP=1.58D-03 MaxDP=4.59D-01 DE=-3.72D-01 OVMax= 1.77D-02

 Cycle   4  Pass 1  IDiag  1:
 RMSU=  1.17D-03    CP:  9.26D-01  9.10D-01  8.73D-01
 E= -2159.36791246643     Delta-E=       -0.028444569953 Rises=F Damp=F
 DIIS: error= 1.27D-03 at cycle   4 NSaved=   4.
 NSaved= 4 IEnMin= 4 EnMin= -2159.36791246643     IErMin= 4 ErrMin= 1.27D-03
 ErrMax= 1.27D-03  0.00D+00 EMaxC= 1.00D-01 BMatC= 6.51D-03 BMatP= 4.62D-02
 IDIUse=3 WtCom= 9.87D-01 WtEn= 1.27D-02
 Coeff-Com: -0.358D-01 0.124D+00 0.345D+00 0.567D+00
 Coeff-En:   0.000D+00 0.000D+00 0.904D-01 0.910D+00
 Coeff:     -0.353D-01 0.122D+00 0.342D+00 0.571D+00
 Gap=     0.269 Goal=   None    Shift=    0.000
 RMSDP=1.18D-03 MaxDP=3.97D-01 DE=-2.84D-02 OVMax= 6.30D-03

 Cycle   5  Pass 1  IDiag  1:
 RMSU=  3.37D-04    CP:  9.05D-01  8.86D-01  8.77D-01  5.78D-01
 E= -2159.37335335806     Delta-E=       -0.005440891634 Rises=F Damp=F
 DIIS: error= 3.21D-04 at cycle   5 NSaved=   5.
 NSaved= 5 IEnMin= 5 EnMin= -2159.37335335806     IErMin= 5 ErrMin= 3.21D-04
 ErrMax= 3.21D-04  0.00D+00 EMaxC= 1.00D-01 BMatC= 3.01D-04 BMatP= 6.51D-03
 IDIUse=3 WtCom= 9.97D-01 WtEn= 3.21D-03
 Coeff-Com: -0.118D-01 0.285D-01 0.109D+00 0.256D+00 0.618D+00
 Coeff-En:   0.000D+00 0.000D+00 0.000D+00 0.000D+00 0.100D+01
 Coeff:     -0.118D-01 0.285D-01 0.109D+00 0.255D+00 0.620D+00
 Gap=     0.268 Goal=   None    Shift=    0.000
 RMSDP=1.61D-04 MaxDP=4.14D-02 DE=-5.44D-03 OVMax= 1.80D-03

 Cycle   6  Pass 1  IDiag  1:
 RMSU=  8.98D-05    CP:  9.07D-01  8.97D-01  8.95D-01  5.91D-01  7.54D-01
 E= -2159.37356232636     Delta-E=       -0.000208968297 Rises=F Damp=F
 DIIS: error= 1.43D-04 at cycle   6 NSaved=   6.
 NSaved= 6 IEnMin= 6 EnMin= -2159.37356232636     IErMin= 6 ErrMin= 1.43D-04
 ErrMax= 1.43D-04  0.00D+00 EMaxC= 1.00D-01 BMatC= 4.37D-05 BMatP= 3.01D-04
 IDIUse=3 WtCom= 9.99D-01 WtEn= 1.43D-03
 Coeff-Com: -0.439D-02 0.794D-02 0.393D-01 0.109D+00 0.352D+00 0.496D+00
 Coeff-En:   0.000D+00 0.000D+00 0.000D+00 0.000D+00 0.277D-01 0.972D+00
 Coeff:     -0.438D-02 0.793D-02 0.392D-01 0.108D+00 0.352D+00 0.497D+00
 Gap=     0.268 Goal=   None    Shift=    0.000
 RMSDP=6.04D-05 MaxDP=1.50D-02 DE=-2.09D-04 OVMax= 6.36D-04

 Cycle   7  Pass 1  IDiag  1:
 RMSU=  2.59D-05    CP:  9.07D-01  8.95D-01  8.93D-01  6.08D-01  7.57D-01
                    CP:  6.19D-01
 E= -2159.37359333107     Delta-E=       -0.000031004709 Rises=F Damp=F
 DIIS: error= 2.81D-05 at cycle   7 NSaved=   7.
 NSaved= 7 IEnMin= 7 EnMin= -2159.37359333107     IErMin= 7 ErrMin= 2.81D-05
 ErrMax= 2.81D-05  0.00D+00 EMaxC= 1.00D-01 BMatC= 2.12D-06 BMatP= 4.37D-05
 IDIUse=1 WtCom= 1.00D+00 WtEn= 0.00D+00
 Coeff-Com: -0.120D-02 0.169D-02 0.111D-01 0.347D-01 0.128D+00 0.245D+00
 Coeff-Com:  0.581D+00
 Coeff:     -0.120D-02 0.169D-02 0.111D-01 0.347D-01 0.128D+00 0.245D+00
 Coeff:      0.581D+00
 Gap=     0.268 Goal=   None    Shift=    0.000
 RMSDP=9.80D-06 MaxDP=2.46D-03 DE=-3.10D-05 OVMax= 1.28D-04

 Cycle   8  Pass 1  IDiag  1:
 RMSU=  7.54D-06    CP:  9.07D-01  8.95D-01  8.93D-01  6.10D-01  7.63D-01
                    CP:  6.09D-01  8.03D-01
 E= -2159.37359475675     Delta-E=       -0.000001425688 Rises=F Damp=F
 DIIS: error= 5.57D-06 at cycle   8 NSaved=   8.
 NSaved= 8 IEnMin= 8 EnMin= -2159.37359475675     IErMin= 8 ErrMin= 5.57D-06
 ErrMax= 5.57D-06  0.00D+00 EMaxC= 1.00D-01 BMatC= 1.69D-07 BMatP= 2.12D-06
 IDIUse=1 WtCom= 1.00D+00 WtEn= 0.00D+00
 Coeff-Com: -0.286D-04-0.160D-03 0.495D-03 0.319D-02 0.155D-01 0.493D-01
 Coeff-Com:  0.258D+00 0.674D+00
 Coeff:     -0.286D-04-0.160D-03 0.495D-03 0.319D-02 0.155D-01 0.493D-01
 Coeff:      0.258D+00 0.674D+00
 Gap=     0.268 Goal=   None    Shift=    0.000
 RMSDP=4.21D-06 MaxDP=1.31D-03 DE=-1.43D-06 OVMax= 4.23D-05

 Cycle   9  Pass 1  IDiag  1:
 RMSU=  2.72D-06    CP:  9.07D-01  8.94D-01  8.93D-01  6.10D-01  7.65D-01
[...]
 0.00081917,-0.00033628,-0.00013436,0.00008440,-0.00010737,-0.00001051,
 0.00005584,-0.00001092,0.00004066,-0.00000929,0.00007080,0.00001004,0.
 00007934,0.00016023,-0.00013925,-0.00016991,0.00001826,-0.00027216,0.0
 0106792,0.00139362,-0.00028714,0.00005169,0.00010619,-0.00051209,0.000
 23385,0.00029629,0.00017137,0.00040177,0.00025459,0.00010090,0.0000451
 4,-0.00023773,-0.00007915,0.00007155,0.00005231,-0.00021507,-0.0004604
 1,0.00004578,-0.00000638,0.00007248,-0.00002655,-0.00034427,-0.0004609
 2,-0.00040911,0.00008403,-0.00001970,-0.00003446,-0.00164095,0.0010839
 2,0.00138716,0.00047177,-0.00092527,-0.00071840,0.00025416,0.00022370,
 -0.00031975,0.00004631,-0.00031337,-0.00000815,0.00083958,0.00053975,-
 0.00052169,0.00131296,-0.00084698,-0.00106623,-0.00009421,-0.00002739,
 0.00004974,-0.00014575,-0.00004062,0.00009711,-0.00000666,-0.00004580,
 0.00007845,-0.00033430,0.00041690,0.00008095,-0.00022657,-0.00020843,-
 0.00019388,-0.00033046,0.00015938,0.00006342,-0.00018666,0.00003645,0.
 00014511,-0.00005682,0.00024090,0.00085685,-0.00324643,-0.00515255,0.0
 0285619,-0.00010573,0.00026579,0.00016879,0.00051207,0.00093076,-0.001
 18554,-0.00906391,-0.00234921,-0.00529821,0.00660431,0.00154886,-0.002
 73452,-0.00000333,-0.00003615,-0.00006861,0.00001733,0.00002395,-0.000
 05341,-0.00027866,0.00003143,-0.00018854,0.00001152,0.00004194,-0.0000
 0042,0.00001863,-0.00008144,0.00012331,0.00037526,-0.00017922,-0.00015
 752,-0.00002361,0.00002153,-0.00007342,-0.00003837,-0.00000578,0.00002
 981,0.00001580,0.00066425,-0.00006227,-0.00005816,0.00010528,0.0001005
 9,-0.00007390,-0.00012006,0.00003436,-0.00606691,0.00066934,-0.0037457
 0,0.00010548,0.00022861,0.00011646,0.00033976,-0.00158982,-0.00137253,
 0.01482157,-0.01674207,-0.01857218,-0.00069339,-0.00116310,-0.00073098
 ,-0.00018843,0.00034144,-0.00041890,-0.09978089,0.04991881,0.07331475,
 -0.00392440,0.00600360,0.00624627,0.11179081,0.00023224,-0.00022817,-0
 .00050565,-0.00010011,0.00039503,0.00038017,-0.00003539,-0.00001186,0.
 00002467,-0.00004728,0.00002955,0.00006968,-0.00003588,0.00006575,-0.0
 0003254,-0.00011248,-0.00000522,0.00035493,-0.00001700,-0.00000790,-0.
 00000528,0.00003189,-0.00000106,0.00000180,-0.00000668,-0.00002574,-0.
 00000492,0.00002000,-0.00000184,-0.00001174,-0.00003244,-0.00004195,-0
 .00000373,0.00000644,-0.00009013,-0.00010056,0.00002981,-0.00001561,-0
 .00007553,0.00004501,-0.00001411,-0.00008268,0.00045475,-0.00032416,-0
 .00028300,0.00044593,-0.00011108,-0.00014053,-0.00006660,-0.00001729,0
 .00000800,0.00015037,0.00001469,-0.00001492,-0.00064209,-0.00215051,-0
 .00065844,-0.00115088,-0.00027668,0.00078241,0.00000851,0.00000538,0.0
 0002890,-0.00001945,-0.00000057,0.00001598,-0.00006839,0.00000078,0.00
 001432,0.00096505,0.00021332,0.00123904,-0.00062859,0.00104054,-0.0007
 2380,-0.00014413,0.00011077,-0.00003864,-0.00046007,0.00015039,0.00016
 009,0.00008388,-0.00032295,-0.00046526,-0.00016017,-0.00041480,0.00009
 131,0.00008730,-0.00010340,0.00009543,-0.00001506,0.00002819,0.0000000
 3,0.00004715,-0.00004840,0.00001142,0.00004630,0.00009723,0.00009869,0
 .00006111,0.00010290,0.00007410,0.00116731,0.00054580,0.00010532,0.000
 29901,-0.00024465,0.00011289,0.00013817,-0.00076663,-0.00034541,-0.000
 22201,-0.00058177,-0.00040002,0.00007043,-0.00007134,0.00023073,0.0000
 4558,0.00001614,0.00005420,0.00015378,0.00059068,0.00005393,0.00003069
 ,-0.00012277,-0.00000036,-0.00064489,0.00039395,0.00042371,-0.00002861
 ,0.00017729,0.00004449,0.00059429,0.00053631,-0.00255178,0.00058749,-0
 .00071404,-0.00014318,0.00002457,0.00001862,0.00037303,0.00003865,0.00
 034132,0.00025035,-0.00020520,-0.00007318,0.00026006,-0.00127229,0.001
 37487,0.00319198,-0.00008402,0.00035534,-0.00015819,0.00009389,0.00003
 289,-0.00007342,0.00002004,-0.00002175,-0.00004332,0.00030988,-0.00048
 750,-0.00036156,-0.00002649,0.00038869,-0.00001377,0.00004610,-0.00031
 674,-0.00019007,-0.00018500,0.00002097,-0.00028454,-0.00009242,-0.0000
 1348,-0.00042249,0.00114572,0.00870031,0.00152895,-0.00051115,-0.00046
 834,0.00015463,-0.00094995,-0.00169385,0.00150405,-0.00489385,-0.01394
 068,0.00436234,-0.00033152,-0.00256921,-0.00285377,0.00002613,0.000062
 25,0.00009418,0.00007442,-0.00005163,0.00004650,0.00014437,-0.00011021
 ,0.00026853,-0.00005705,0.00003163,-0.00003318,-0.00000504,0.00003359,
 -0.00008622,0.00008006,-0.00005734,-0.00019520,-0.00028948,-0.00016952
 ,0.00016068,-0.00001825,0.00011392,0.00004125,0.00006707,-0.00006947,-
 0.00009777,-0.00012783,-0.00009015,-0.00010685,-0.00005843,0.00013440,
 -0.00003751,0.00083392,-0.00041186,0.00018120,-0.00004896,-0.00008722,
 -0.00026494,0.00014619,0.00047632,0.00015698,-0.00431071,-0.00094624,-
 0.00340043,0.00058095,0.00053913,0.00018853,0.00021815,0.00002427,0.00
 112547,0.04624749,-0.12754738,-0.09159241,0.01418205,-0.01877857,-0.02
 504752,-0.04816851,0.14136979,0.00003707,-0.00015360,-0.00136920,-0.00
 003162,0.00064907,0.00120079,-0.00004529,-0.00003614,0.00009070,-0.000
 03012,0.00008912,0.00022185,0.00005584,0.00009575,-0.00019644,-0.00026
 440,-0.00018464,0.00094253,-0.00008160,0.00000069,-0.00005302,0.000054
 71,-0.00000689,0.00001464,-0.00001216,-0.00003469,-0.00000667,0.000056
 38,0.00002052,-0.00004249,-0.00001967,-0.00000393,-0.00000952,-0.00014
 304,-0.00008370,-0.00021653,-0.00006073,-0.00001435,-0.00022035,0.0000
 3107,-0.00000509,-0.00029396,0.00090198,-0.00047151,-0.00080442,0.0019
 9261,-0.00037383,-0.00018209,-0.00037996,-0.00009886,0.00005879,0.0000
 8486,0.00000816,-0.00000162,-0.00360352,-0.00208962,0.00003077,-0.0000
 1479,0.00063246,0.00106617,0.00004742,-0.00001321,0.00007073,-0.000030
 68,-0.00001790,0.00005197,-0.00012637,-0.00001601,0.00006631,0.0023038
 4,0.00150637,0.00242355,-0.00148462,0.00062937,-0.00099519,-0.00024645
 ,0.00015386,-0.00010381,-0.00083169,-0.00016617,0.00036280,-0.00007174
 ,0.00024440,0.00020733,-0.00065969,-0.00164598,0.00048332,0.00020729,-
 0.00007063,0.00019586,-0.00018043,-0.00001533,0.00007726,0.00001559,0.
 00000543,-0.00007441,0.00007946,0.00005886,-0.00002863,0.00018052,0.00
 030696,0.00002797,0.00138193,0.00020039,-0.00160840,0.00068878,-0.0001
 2595,0.00011499,0.00075464,-0.00014908,0.00028073,-0.00021382,-0.00074
 259,-0.00030564,-0.00006700,-0.00013381,0.00045080,0.00011405,-0.00010
 075,-0.00008307,0.00026686,0.00101420,-0.00018254,0.00003581,-0.000137
 91,0.00011399,-0.00064714,0.00038720,0.00098838,-0.00020466,0.00007694
 ,-0.00000104,0.00209161,-0.00323125,-0.00263366,-0.00139342,0.00261575
 ,0.00207347,-0.00041495,-0.00004154,0.00051896,-0.00065663,0.00069918,
 0.00029031,-0.00029969,-0.00032606,-0.00077056,-0.00104173,0.00193653,
 0.00091313,0.00027095,-0.00015040,-0.00008640,0.00022274,0.00007325,-0
 .00001690,0.00012982,-0.00012590,-0.00007107,0.00041903,-0.00087579,-0
 .00007104,-0.00093430,0.00006862,-0.00004496,0.00075601,-0.00044472,-0
 .00009093,0.00036673,-0.00044177,-0.00030667,-0.00012165,-0.00075117,-
 0.00251986,0.00544867,0.01160705,-0.00612902,-0.00067722,-0.00090918,0
 .00050617,-0.00131270,-0.00195531,0.00232534,-0.00624540,0.00057868,0.
 00917371,-0.00551909,-0.00508628,-0.00269559,-0.00003896,0.00013601,0.
 00013899,0.00000070,-0.00000906,0.00017409,0.00081938,0.00005460,0.000
 92988,-0.00011670,-0.00004844,-0.00009571,-0.00002741,0.00015390,-0.00
 024598,-0.00033634,0.00003317,-0.00004275,-0.00010391,-0.00011490,0.00
 039757,0.00010035,0.00013381,-0.00014078,-0.00089021,0.00031520,0.0005
 2268,0.00084929,-0.00032662,0.00035845,0.00038236,0.00038002,0.0000779
 6,-0.00099755,0.00071929,-0.00081769,-0.00016650,0.00019994,-0.0001818
 5,0.00030791,0.00006784,0.00020765,-0.00048364,-0.01010269,-0.01980594
 ,0.00183523,0.00016085,0.00229374,0.00061691,0.00034251,-0.00001813,0.
 07265433,-0.09776623,-0.20021835,-0.00642294,0.00541400,0.01543782,-0.
 06587936,0.09687387,0.20371078,0.00063778,0.00004416,0.00214613,-0.000
 36365,-0.00059162,-0.00189914,-0.00013385,0.00011347,-0.00020204,-0.00
 017203,-0.00027602,-0.00040808,-0.00041557,0.00007888,0.00080278,0.000
 56432,0.00024691,-0.00170229,0.00009723,0.00002075,0.00013548,-0.00003
 976,0.00001901,-0.00002103,0.00000660,-0.00000929,-0.00000233,-0.00007
 989,-0.00007445,0.00004695,-0.00005297,-0.00011039,-0.00001864,0.00066
 187,-0.00019934,0.00007300,0.00058064,0.00007616,0.00030832,0.00027545
 ,0.00005168,0.00051591,-0.00053458,0.00049942,0.00097331,-0.00753060,0
 .00150553,0.00086284,0.00162041,0.00048763,-0.00025565,-0.00013433,-0.
 00008054,0.00017238,-0.00086384,0.00512470,0.00217026,0.00521975,0.001
 10357,-0.00288579,-0.00015043,0.00009580,0.00000047,-0.00004453,0.0000
 1529,-0.00006873,-0.00000137,-0.00002686,-0.00012470,-0.00058645,-0.00
 060658,-0.00012129,0.00059947,0.00060493,-0.00008656,-0.00005998,-0.00
 004127,-0.00008093,0.00058315,0.00014773,-0.00038647,-0.00027371,-0.00
 059911,-0.00061836,0.00040489,0.00049930,-0.00018467,-0.00007204,-0.00
 005011,-0.00001300,0.00013338,0.00011807,-0.00005253,-0.00000465,-0.00
 001128,0.00009869,0.00004145,0.00000099,0.00003591,-0.00010928,-0.0000
 6954,0.00004156,-0.00082955,0.00039408,0.00205337,-0.00022882,-0.00022
 035,0.00023543,-0.00050667,-0.00077320,-0.00034513,0.00011694,0.000178
 99,0.00012260,0.00007118,0.00002023,-0.00010046,-0.00007632,0.00004348
 ,0.00003142,-0.00017902,-0.00019113,0.00008620,0.00003186,0.00000382,-
 0.00002477,0.00033802,-0.00040401,-0.00158467,0.00015204,0.00023519,-0
 .00000821,0.00003343,0.00075378,-0.00214375,0.00062075,-0.00105054,0.0
 0061625,0.00028673,-0.00003612,0.00001527,0.00045814,0.00006055,0.0001
 8209,0.00018890,0.00040373,0.00033358,-0.00002498,0.00079595,0.0008767
 4,-0.00005435,0.00017482,-0.00014308,0.00007891,0.00002976,0.00002579,
 -0.00005549,-0.00002079,0.00001683,-0.00003067,-0.00002552,-0.00023413
 ,0.00022511,0.00006903,0.00004506,-0.00058994,-0.00023147,-0.00017866,
 -0.00043169,0.00009838,-0.00017065,-0.00028414,0.00043996,-0.00045434,
 -0.00041140,-0.00087933,0.00045010,-0.00008492,0.00006935,0.00001304,0
 .00014432,0.00012486,-0.00020539,0.00099695,-0.00073277,-0.00250824,0.
 00083200,0.00087107,0.00055012,0.00008176,0.00003907,0.00001332,0.0001
 9397,-0.00001968,0.00002410,0.00010930,-0.00027466,0.00025000,-0.00005
 971,0.00004921,-0.00001030,0.00000265,0.00002423,-0.00009872,-0.000048
 24,-0.00017369,-0.00011296,-0.00029549,-0.00004416,0.00016956,-0.00000
 403,0.00014908,0.00003865,-0.00029362,0.00005902,0.00029908,0.00033272
 ,-0.00015506,-0.00009423,0.00015185,0.00027368,0.00009028,0.00159273,-
 0.00043616,-0.00060510,-0.00006333,-0.00020766,-0.00001886,-0.00000773
 ,0.00049155,0.00034209,-0.01877862,-0.00717673,0.00272208,-0.00033470,
 -0.00013452,-0.00239970,0.00113130,0.00050289,0.00100087,-0.25072701,-
 0.11342199,0.08087560,0.01623418,0.00518734,-0.00380166,-0.01061218,-0
 .00380778,0.00696877,0.26080403,0.00052466,-0.00042864,0.00173408,-0.0
 0034672,-0.00033573,-0.00130646,-0.00010047,0.00014278,-0.00020719,-0.
 00010202,-0.00027386,-0.00047422,-0.00039115,0.00028013,0.00117372,0.0
 0151187,0.00038693,-0.00219142,0.00008773,0.00001425,0.00015548,-0.000
 01093,0.00001268,-0.00001601,-0.00000151,-0.00002501,-0.00000616,-0.00
 011501,-0.00010539,0.00005584,-0.00014489,-0.00021313,-0.00009652,0.00
 060105,-0.00034961,0.00002481,0.00058014,0.00003778,0.00032229,0.00022
 121,0.00000078,0.00044026,-0.00030505,0.00019439,0.00068508,-0.0076586
 1,0.00502790,0.00148470,0.00196735,0.00036825,-0.00030464,0.00057987,-
 0.00012664,-0.00009499,0.00982412,-0.00497414,-0.00153110,0.00044294,-
 0.00244653,-0.00134453,-0.00012872,0.00009213,0.00000060,-0.00002466,0
 .00003124,-0.00006798,-0.00001450,-0.00001285,-0.00010873,-0.00049307,
 -0.00070550,0.00001713,0.00044311,0.00071573,-0.00020689,-0.00005576,0
 .00005797,-0.00006693,0.00031454,0.00027229,-0.00023358,-0.00011210,-0
 .00083252,-0.00088805,0.00040471,0.00054711,-0.00020638,-0.00005002,-0
 .00004923,-0.00001064,0.00011000,0.00011379,-0.00003026,0.00003788,-0.
 00004613,0.00010757,0.00004420,0.00005324,0.00009045,-0.00010853,-0.00
 007217,0.00007486,-0.00039421,0.00066593,0.00243859,-0.00013683,-0.000
 29274,0.00022353,-0.00037817,-0.00080025,-0.00035160,0.00005290,0.0000
 3529,-0.00004311,0.00012370,0.00002975,-0.00008275,-0.00006550,0.00006
 081,0.00007459,-0.00014209,-0.00008669,0.00015492,0.00004034,-0.000035
 94,-0.00005762,-0.00019640,0.00004812,-0.00138408,0.00012598,0.0002621
 2,0.00002440,-0.00005606,0.00015384,-0.00042495,0.00011119,-0.00014660
 ,0.00050079,0.00000441,-0.00026837,0.00027621,0.00037967,0.00011744,0.
 00016269,0.00002054,0.00034891,0.00041753,-0.00002188,0.00023336,0.000
 67802,0.00003541,0.00004758,-0.00008263,0.00015203,0.00006019,-0.00002
 070,-0.00004107,-0.00003101,-0.00002939,-0.00002268,0.00003403,-0.0000
 7889,0.00015143,0.00013857,0.00005487,-0.00045026,-0.00025116,-0.00022
 939,-0.00023793,0.00017965,-0.00024741,-0.00013869,0.00007315,-0.00058
 048,-0.00031530,-0.00055075,0.00046803,-0.00009959,0.00003563,0.000036
 95,0.00011237,0.00009977,-0.00018407,0.00049017,-0.00268700,-0.0035186
 7,0.00111470,0.00082077,-0.00009307,0.00006647,0.00004042,0.00006167,0
 .00011083,-0.00006641,0.00005566,0.00021031,-0.00011897,0.00026484,-0.
 00005784,0.00001846,-0.00000683,0.00000150,0.00003652,-0.00010583,0.00
 001860,0.00011867,-0.00004573,-0.00002564,-0.00003997,0.00009971,0.000
 08942,0.00004346,-0.00006485,-0.00049146,-0.00018829,-0.00006358,0.000
 36327,-0.00035992,0.00019076,0.00017294,0.00019589,0.00004345,0.000022
 04,-0.00084168,0.00026451,-0.00014291,0.00019831,-0.00033787,0.0001580
 7,0.00034008,0.00009854,-0.00033780,-0.00031760,-0.00490548,0.00204154
 ,0.00081942,0.00162107,0.00139799,0.00064292,0.00102332,-0.11087845,-0
 .13097315,0.04882254,-0.02581864,-0.01216992,0.00910971,0.01458330,0.0
 1608596,0.00095567,0.11076664,0.13088912,0.00030401,0.00027950,-0.0005
 3334,0.00000699,0.00015291,0.00012643,-0.00003799,-0.00003616,0.000107
 44,-0.00003486,0.00005068,0.00019188,0.00006230,0.00001140,-0.00042670
 ,-0.00086975,-0.00045587,0.00109889,-0.00003645,-0.00000587,-0.0000570
 2,0.00000933,-0.00000249,0.00000836,-0.00000264,-0.00000531,-0.0000045
 1,0.00006358,0.00001399,-0.00002909,0.00002835,0.00008490,-0.00001159,
 -0.00013492,0.00004092,-0.00009186,-0.00010520,-0.00000040,-0.00014458
 ,0.00003508,0.00002583,-0.00012432,0.00019558,-0.00005730,-0.00017580,
 0.00157390,-0.00053526,-0.00198786,0.00018325,-0.00001859,-0.00000302,
 0.00019148,-0.00003656,0.00019640,0.00095797,-0.00032993,-0.00476750,-
 0.00277129,-0.00178267,0.00152305,0.00002980,-0.00001773,0.00002828,-0
 .00001619,-0.00001806,0.00002990,-0.00004022,-0.00001029,0.00002637,0.
 00002106,0.00013283,0.00004814,-0.00008482,-0.00013289,-0.00007112,-0.
 00001274,-0.00003580,-0.00015214,-0.00021505,0.00002450,0.00015086,0.0
 0010737,-0.00006051,-0.00034904,-0.00001664,-0.00011651,0.00001326,0.0
 0000632,0.00001473,0.00001281,-0.00006887,0.00001309,0.00000200,0.0000
 3236,-0.00000339,0.00000338,0.00002106,0.00008033,0.00010551,-0.000002
 66,0.00001303,0.00001964,0.00041630,0.00062049,-0.00007269,0.00010071,
 0.00001580,0.00007622,-0.00000262,0.00011793,0.00020765,-0.00001597,-0
 .00011375,-0.00001235,0.00001593,-0.00001152,0.00002775,0.00000644,0.0
 0000827,0.00000383,0.00001950,0.00013272,-0.00004771,-0.00000527,-0.00
 001920,0.00002301,-0.00078830,-0.00065124,-0.00000817,-0.00003516,-0.0
 0002182,-0.00002306,-0.00015196,0.00027010,-0.00036460,0.00011672,0.00
 007272,-0.00010286,0.00008555,0.00021822,-0.00015158,-0.00014996,0.000
 00638,0.00000124,0.00023474,0.00010753,-0.00037170,0.00006029,0.000066
 70,0.00010026,-0.00003756,0.00002164,-0.00000979,-0.00009492,-0.000001
 59,0.00005673,0.00002705,-0.00002638,0.00003252,-0.00002187,-0.0000481
 7,-0.00002710,-0.00008908,-0.00005026,-0.00010966,0.00010950,-0.000005
 18,0.00006544,0.00003218,-0.00018456,0.00006505,-0.00003667,-0.0001005
 8,-0.00001614,-0.00003183,0.00030919,-0.00000547,-0.00002286,-0.000015
 73,-0.00000781,-0.00001619,-0.00004845,0.00004032,-0.00062367,-0.00137
 722,-0.00061635,0.00037930,-0.00030241,-0.00049325,-0.00003227,0.00001
 263,-0.00001391,-0.00001581,0.00003847,0.00001047,0.00009743,0.0000277
 5,-0.00004419,0.00001483,-0.00003174,0.00001215,-0.00001838,0.00001255
 ,-0.00001695,-0.00006134,0.00017590,0.00006374,0.00004657,0.00006556,-
 0.00013325,0.00000246,0.00001605,-0.00000979,0.00025660,-0.00001487,-0
 .00008439,-0.00009999,-0.00004868,0.00008484,-0.00002309,-0.00007330,-
 0.00001219,-0.00109820,0.00017095,0.00072231,0.00063090,-0.00018900,-0
 .00073759,0.00048157,0.00004261,-0.00042756,-0.02162857,-0.01373972,0.
 01419538,-0.00382416,-0.00077878,-0.00410143,-0.00007018,0.00041502,0.
 00083910,0.08015481,0.05064960,-0.09617126,0.00946871,0.00252769,-0.00
 492142,0.01931540,0.01661229,-0.00581000,-0.08245708,-0.05215771,0.103
 53313\\-0.00000021,-0.00001337,-0.00001090,0.00002075,-0.00001217,0.00
 002488,-0.00001189,0.00000007,-0.00001414,-0.00000731,-0.00002217,0.00
 001479,-0.00000402,0.00001055,0.00001474,0.00001659,-0.00000128,-0.000
 00566,-0.00000569,-0.00000125,-0.00000051,0.00000220,-0.00000513,0.000
 00916,0.00000676,-0.00000647,0.00000533,0.00001226,-0.00000834,0.00001
 006,0.00000658,-0.00000570,0.00000457,0.00000832,-0.00002146,0.0000109
 3,0.00001210,-0.00001044,0.00000802,0.00000746,-0.00000852,0.00001791,
 0.00000999,0.00000865,0.00000554,0.00001563,-0.00000523,0.00000005,0.0
 0000514,-0.00000589,0.00000336,0.00000555,-0.00000296,0.00000583,-0.00
 000056,0.00000851,0.00000025,0.00001932,0.00000671,-0.00000148,0.00000
 202,-0.00000484,0.00000527,0.00000290,-0.00000829,0.00001042,-0.000002
 24,-0.00000606,0.00000416,-0.00001774,-0.00000730,-0.00000151,0.000025
 24,0.00002990,0.00000438,-0.00000026,0.00000014,-0.00000889,-0.0000167
 8,-0.00001325,0.00000068,0.00000407,0.00000170,0.00001939,0.00001912,0
 .00001708,-0.00000929,-0.00000714,0.00000035,-0.00000616,-0.00000075,-
 0.00000071,0.00000550,-0.00000004,0.00000048,-0.00000103,0.00000262,-0
 .00000252,0.,0.00000033,-0.00000050,-0.00000241,0.00000768,-0.00000364
 ,-0.00001710,-0.00000116,0.00000378,0.00000392,-0.00001336,-0.00001630
 ,0.00000759,0.00000511,-0.00000279,-0.00000322,0.00000448,0.00000501,-
 0.00000412,0.00000403,0.00000528,-0.00000549,0.00000705,0.00000781,0.0
 0000007,0.00000807,0.00000166,-0.00000757,-0.00001642,0.00000435,0.000
 01307,-0.00001461,-0.00001170,-0.00000667,-0.00001115,0.00002965,-0.00
 000188,0.00000120,-0.00001405,0.00000895,-0.00000974,0.00001391,-0.000
 00715,-0.00002075,-0.00000419,-0.00000431,-0.00000576,0.00000699,-0.00
 001248,-0.00000395,0.00000609,-0.00000981,-0.00000712,0.00000867,-0.00
 000794,-0.00000916,-0.00000849,0.00000194,-0.00000571,-0.00000020,-0.0
 0000273,-0.00000557,0.00000636,-0.00000404,-0.00000419,-0.00000169,0.0
 0000240,0.00000129,0.00001381,0.00001845,-0.00000827,-0.00000535,0.000
 00511,0.00000854,-0.00000513,-0.00000766,-0.00001762,-0.00000406,0.000
 01643,-0.00000128,0.00001253,-0.00000657,0.00000158,0.00000484,-0.0000
 0658,0.00001557,-0.00001330,-0.00002905,-0.00000306,0.00000302,0.00000
 352,-0.00001400,-0.00000584,-0.00000383,-0.00000739,0.00000082,0.00000
 244,-0.00001678,0.00000736,-0.00000061,-0.00000760,0.00000635,-0.00000
 482,-0.00000670,0.00000522,-0.00000564,-0.00000073,0.00000323,-0.00001
 073,-0.00000024,-0.00000274,-0.00000661,-0.00000225,0.00000261,-0.0000
 0397,-0.00000359,0.00000297,0.00000538,0.00000132,0.00000215,0.0000023
 9,0.00000196,0.00000250,-0.00000125,0.00000714,-0.00000071,-0.00000065
 ,0.00000216,0.00000121,-0.00000079,0.00000278,0.00000752,-0.00000394,-
 0.00000330,0.00001002,-0.00001177,0.00000699,0.00000529,-0.00000689,0.
 00000976,0.00000125,-0.00000451,0.00000301,-0.00000622,-0.00001148,0.0
 0000609,0.00000260,-0.00000079,0.00000658,0.00001273,-0.00000161,-0.00
 002125,-0.00001150,0.00000938\\\@


 It takes a long time to grow an old friend.
                            -- John Leonard
 Job cpu time:      18 days 14 hours  7 minutes 51.2 seconds.
 File lengths (MBytes):  RWF=  17286 Int=      0 D2E=      0 Chk=     98 Scr=      1
 Normal termination of Gaussian 09 at Fri Apr  8 10:54:50 2016.
