 Entering Gaussian System, Link 0=g09
 Initial command:
 /share/apps//g09/l1.exe "/scratch/Gau-6413.inp" -scrdir="/scratch/"
 Entering Link 1 = /share/apps//g09/l1.exe PID=      6414.
  
 Copyright (c) 1988,1990,1992,1993,1995,1998,2003,2009,2013,
            Gaussian, Inc.  All Rights Reserved.
  
 This is part of the Gaussian(R) 09 program.  It is based on
 the Gaussian(R) 03 system (copyright 2003, Gaussian, Inc.),
 the Gaussian(R) 98 system (copyright 1998, Gaussian, Inc.),
 the Gaussian(R) 94 system (copyright 1995, Gaussian, Inc.),
 the Gaussian 92(TM) system (copyright 1992, Gaussian, Inc.),
 the Gaussian 90(TM) system (copyright 1990, Gaussian, Inc.),
 the Gaussian 88(TM) system (copyright 1988, Gaussian, Inc.),
 the Gaussian 86(TM) system (copyright 1986, Carnegie Mellon
 University), and the Gaussian 82(TM) system (copyright 1983,
 Carnegie Mellon University). Gaussian is a federally registered
 trademark of Gaussian, Inc.
  
 This software contains proprietary and confidential information,
 including trade secrets, belonging to Gaussian, Inc.
  
 This software is provided under written license and may be
 used, copied, transmitted, or stored only in accord with that
 written license.
  
 The following legend is applicable only to US Government
 contracts under FAR:
  
                    RESTRICTED RIGHTS LEGEND
  
 Use, reproduction and disclosure by the US Government is
 subject to restrictions as set forth in subparagraphs (a)
 and (c) of the Commercial Computer Software - Restricted
 Rights clause in FAR 52.227-19.
  
 Gaussian, Inc.
 340 Quinnipiac St., Bldg. 40, Wallingford CT 06492
  
  
 ---------------------------------------------------------------
 Warning -- This program may not be used in any manner that
 competes with the business of Gaussian, Inc. or will provide
 assistance to any competitor of Gaussian, Inc.  The licensee
 of this program is prohibited from giving any competitor of
 Gaussian, Inc. access to this program.  By using this program,
 the user acknowledges that Gaussian, Inc. is engaged in the
 business of creating and licensing software in the field of
 computational chemistry and represents and warrants to the
 licensee that it is not a competitor of Gaussian, Inc. and that
 it will not use this program in any manner prohibited above.
 ---------------------------------------------------------------
  

 Cite this work as:
 Gaussian 09, Revision D.01,
 M. J. Frisch, G. W. Trucks, H. B. Schlegel, G. E. Scuseria, 
 M. A. Robb, J. R. Cheeseman, G. Scalmani, V. Barone, B. Mennucci, 
 G. A. Petersson, H. Nakatsuji, M. Caricato, X. Li, H. P. Hratchian, 
 A. F. Izmaylov, J. Bloino, G. Zheng, J. L. Sonnenberg, M. Hada, 
 M. Ehara, K. Toyota, R. Fukuda, J. Hasegawa, M. Ishida, T. Nakajima, 
 Y. Honda, O. Kitao, H. Nakai, T. Vreven, J. A. Montgomery, Jr., 
 J. E. Peralta, F. Ogliaro, M. Bearpark, J. J. Heyd, E. Brothers, 
 K. N. Kudin, V. N. Staroverov, T. Keith, R. Kobayashi, J. Normand, 
 K. Raghavachari, A. Rendell, J. C. Burant, S. S. Iyengar, J. Tomasi, 
 M. Cossi, N. Rega, J. M. Millam, M. Klene, J. E. Knox, J. B. Cross, 
 V. Bakken, C. Adamo, J. Jaramillo, R. Gomperts, R. E. Stratmann, 
 O. Yazyev, A. J. Austin, R. Cammi, C. Pomelli, J. W. Ochterski, 
 R. L. Martin, K. Morokuma, V. G. Zakrzewski, G. A. Voth, 
 P. Salvador, J. J. Dannenberg, S. Dapprich, A. D. Daniels, 
 O. Farkas, J. B. Foresman, J. V. Ortiz, J. Cioslowski, 
 and D. J. Fox, Gaussian, Inc., Wallingford CT, 2013.
 
 ******************************************
 Gaussian 09:  EM64L-G09RevD.01 24-Apr-2013
                27-Apr-2016 
 ******************************************
 %nproc=20
 Will use up to   20 processors via shared memory.
 %mem=80GB
 %chk=Tri_A131_of.chk
 ----------------------------------------------------------------------
 #P PBE1PBE/6-311+G(d,p) opt=ModRedundant freq optcyc=999 EmpiricalDisp
 ersion=GD3
 ----------------------------------------------------------------------
 1/6=999,14=-1,18=120,19=15,26=3,38=1/1,3;
 2/9=110,12=2,17=6,18=5,40=1/2;
 3/5=4,6=6,7=111,11=2,16=1,25=1,30=1,71=1,74=-13,124=31/1,2,3;
 4//1;
 5/5=2,38=5/2;
 6/7=2,8=2,9=2,10=2,28=1/1;
 7//1,2,3,16;
 1/6=999,14=-1,18=20,19=15,26=3/3(2);
 2/9=110/2;
 99//99;
 2/9=110/2;
 3/5=4,6=6,7=111,11=2,16=1,25=1,30=1,71=1,74=-13,124=31/1,2,3;
 4/5=5,16=3,69=1/1;
 5/5=2,38=5/2;
 7//1,2,3,16;
 1/6=999,14=-1,18=20,19=15,26=3/3(-5);
 2/9=110/2;
 6/7=2,8=2,9=2,10=2,19=2,28=1/1;
 99/9=1/99;
 Leave Link    1 at Wed Apr 27 00:41:33 2016, MaxMem= 10737418240 cpu:         1.7
 (Enter /share/apps//g09/l101.exe)
 -----
 trich
 -----
 Symbolic Z-matrix:
 Charge =  1 Multiplicity = 1
 O                    -0.4096   -0.42363   7.60918 
 C                    -1.0897   -0.85325   6.44994 
 C                    -0.15799  -0.97915   5.23502 
 C                     1.01468  -1.90643   5.57574 
 C                     1.71678  -1.44667   6.85759 
 C                     0.70205  -1.26566   7.99586 
 H                    -1.85586  -0.0855    6.27008 
 H                     0.24188   0.02868   5.02859 
 H                     0.64584  -2.93663   5.69113 
 H                     2.42538  -2.24107   7.17085 
 H                     0.32609  -2.26536   8.28288 
 O                     2.44398  -0.26954   6.5025 
 O                     1.97658  -1.95653   4.50444 
 O                    -0.86204  -1.46247   4.08534 
 O                    -1.70538  -2.13358   6.61642 
 C                     1.29962  -0.61455   9.23935 
 H                     0.53622  -0.56831   10.03225 
 H                     2.14085  -1.219     9.60654 
 O                     1.83403   0.69557   8.97469 
 H                     1.07547   1.28517   8.80536 
 H                     2.47993   0.30626   7.30287 
 H                     2.52115  -1.14615   4.58954 
 H                    -1.82239  -1.44202   4.30383 
 O                    -3.4958   -4.38379   5.82226 
 C                    -3.29743  -4.68227   7.22534 
 C                    -3.15435  -3.36749   8.06809 
 C                    -3.01058  -2.10407   7.20332 
 C                    -4.11181  -2.01676   6.10656 
 C                    -4.56213  -3.42712   5.66512 
 H                    -4.20102  -5.20335   7.58983 
 H                    -2.25607  -3.4558    8.69645 
 H                    -3.09139  -1.23878   7.87844 
 H                    -4.98038  -1.49884   6.54458 
 H                    -5.40246  -3.73347   6.31737 
 O                    -3.59301  -1.23126   5.01913 
 O                    -4.33305  -3.16737   8.85985 
 O                    -2.27934  -5.63098   7.35089 
 C                    -4.99488  -3.5082    4.19425 
 H                    -4.10106  -3.50047   3.55395 
 H                    -5.52773  -4.45284   4.0096 
 O                    -5.77685  -2.37217   3.79833 
 H                    -6.70207  -2.5068    4.06662 
 H                    -4.34923  -1.10957   4.40688 
 H                    -4.25407  -3.69457   9.67259 
 O                     0.81728  -5.87607   5.37804 
 C                     1.7539   -6.24951   6.40677 
 C                     1.4836   -5.40466   7.65173 
 C                     0.01916  -5.49541   8.09475 
 C                    -0.94612  -5.27417   6.92778 
 C                    -0.53113  -6.18732   5.75118 
 H                     1.63276  -7.33344   6.62499 
 H                     1.7094   -4.3586    7.37376 
 H                    -0.16147  -6.51065   8.49797 
 H                    -0.60191  -7.2429    6.08734 
 H                    -0.91277  -4.22034   6.61255 
 O                    -0.2461   -4.52096   9.11064 
 O                     2.26404  -5.81067   8.77352 
 O                     3.03612  -5.95325   5.96483 
 C                    -1.38826  -6.06501   4.49875 
 H                    -0.96159  -6.71199   3.71977 
 H                    -2.40994  -6.40663   4.71628 
 O                    -1.41893  -4.73329   3.96216 
 H                    -2.01749  -4.22206   4.55178 
 H                     0.34955  -4.73198   9.85262 
 H                     3.20291  -5.7167    8.53077 
 C                     3.52492  -6.81551   4.90183 
 H                     4.22607  -7.54217   5.34321 
 H                     2.6793   -7.37132   4.46901 
 C                     4.2293   -5.96941   3.84743 
 H                     4.62897  -6.65671   3.08255 
 H                     5.10283  -5.48775   4.31361 
 C                     3.36025  -4.88182   3.19662 
 H                     2.99326  -4.21858   3.99409 
 H                     4.00861  -4.26419   2.55286 
 C                     2.18867  -5.41787   2.36118 
 H                     2.56792  -6.09159   1.5753 
 H                     1.51545  -6.01833   2.99203 
 C                     1.36976  -4.34083   1.65252 
 H                     0.61415  -4.79335   0.99651 
 H                     2.00984  -3.69296   1.03622 
 N                     0.6376   -3.45255   2.61717 
 H                     0.07799  -2.73176   2.14493 
 H                     1.28152  -2.91575   3.251 
 H                    -0.05061  -3.98396   3.219 
 
 The following ModRedundant input section has been read:
 B      45      84 B                                                           
 B      58      84 B                                                           
 B      56      84 B                                                           
 B      41      82 B                                                           
 B      62      82 B                                                           
 B      35      82 B                                                           
 B      13      83 B                                                           
 B      19      83 B                                                           
 B      14      83 B                                                           
 
 NAtoms=     84 NQM=       84 NQMF=       0 NMMI=      0 NMMIF=      0
                NMic=       0 NMicF=      0.
                    Isotopes and Nuclear Properties:
 (Nuclear quadrupole moments (NQMom) in fm**2, nuclear magnetic moments (NMagM)
  in nuclear magnetons)

  Atom         1           2           3           4           5           6           7           8           9          10
 IAtWgt=          16          12          12          12          12          12           1           1           1           1
 AtmWgt=  15.9949146  12.0000000  12.0000000  12.0000000  12.0000000  12.0000000   1.0078250   1.0078250   1.0078250   1.0078250
 NucSpn=           0           0           0           0           0           0           1           1           1           1
 AtZEff=   0.0000000   0.0000000   0.0000000   0.0000000   0.0000000   0.0000000   0.0000000   0.0000000   0.0000000   0.0000000
 NQMom=    0.0000000   0.0000000   0.0000000   0.0000000   0.0000000   0.0000000   0.0000000   0.0000000   0.0000000   0.0000000
 NMagM=    0.0000000   0.0000000   0.0000000   0.0000000   0.0000000   0.0000000   2.7928460   2.7928460   2.7928460   2.7928460
 AtZNuc=   8.0000000   6.0000000   6.0000000   6.0000000   6.0000000   6.0000000   1.0000000   1.0000000   1.0000000   1.0000000

  Atom        11          12          13          14          15          16          17          18          19          20
 IAtWgt=           1          16          16          16          16          12           1           1          16           1
 AtmWgt=   1.0078250  15.9949146  15.9949146  15.9949146  15.9949146  12.0000000   1.0078250   1.0078250  15.9949146   1.0078250
 NucSpn=           1           0           0           0           0           0           1           1           0           1
 AtZEff=   0.0000000   0.0000000   0.0000000   0.0000000   0.0000000   0.0000000   0.0000000   0.0000000   0.0000000   0.0000000
 NQMom=    0.0000000   0.0000000   0.0000000   0.0000000   0.0000000   0.0000000   0.0000000   0.0000000   0.0000000   0.0000000
 NMagM=    2.7928460   0.0000000   0.0000000   0.0000000   0.0000000   0.0000000   2.7928460   2.7928460   0.0000000   2.7928460
 AtZNuc=   1.0000000   8.0000000   8.0000000   8.0000000   8.0000000   6.0000000   1.0000000   1.0000000   8.0000000   1.0000000

  Atom        21          22          23          24          25          26          27          28          29          30
 IAtWgt=           1           1           1          16          12          12          12          12          12           1
 AtmWgt=   1.0078250   1.0078250   1.0078250  15.9949146  12.0000000  12.0000000  12.0000000  12.0000000  12.0000000   1.0078250
 NucSpn=           1           1           1           0           0           0           0           0           0           1
 AtZEff=   0.0000000   0.0000000   0.0000000   0.0000000   0.0000000   0.0000000   0.0000000   0.0000000   0.0000000   0.0000000
 NQMom=    0.0000000   0.0000000   0.0000000   0.0000000   0.0000000   0.0000000   0.0000000   0.0000000   0.0000000   0.0000000
 NMagM=    2.7928460   2.7928460   2.7928460   0.0000000   0.0000000   0.0000000   0.0000000   0.0000000   0.0000000   2.7928460
 AtZNuc=   1.0000000   1.0000000   1.0000000   8.0000000   6.0000000   6.0000000   6.0000000   6.0000000   6.0000000   1.0000000

  Atom        31          32          33          34          35          36          37          38          39          40
 IAtWgt=           1           1           1           1          16          16          16          12           1           1
 AtmWgt=   1.0078250   1.0078250   1.0078250   1.0078250  15.9949146  15.9949146  15.9949146  12.0000000   1.0078250   1.0078250
 NucSpn=           1           1           1           1           0           0           0           0           1           1
 AtZEff=   0.0000000   0.0000000   0.0000000   0.0000000   0.0000000   0.0000000   0.0000000   0.0000000   0.0000000   0.0000000
 NQMom=    0.0000000   0.0000000   0.0000000   0.0000000   0.0000000   0.0000000   0.0000000   0.0000000   0.0000000   0.0000000
 NMagM=    2.7928460   2.7928460   2.7928460   2.7928460   0.0000000   0.0000000   0.0000000   0.0000000   2.7928460   2.7928460
 AtZNuc=   1.0000000   1.0000000   1.0000000   1.0000000   8.0000000   8.0000000   8.0000000   6.0000000   1.0000000   1.0000000

  Atom        41          42          43          44          45          46          47          48          49          50
 IAtWgt=          16           1           1           1          16          12          12          12          12          12
 AtmWgt=  15.9949146   1.0078250   1.0078250   1.0078250  15.9949146  12.0000000  12.0000000  12.0000000  12.0000000  12.0000000
 NucSpn=           0           1           1           1           0           0           0           0           0           0
 AtZEff=   0.0000000   0.0000000   0.0000000   0.0000000   0.0000000   0.0000000   0.0000000   0.0000000   0.0000000   0.0000000
 NQMom=    0.0000000   0.0000000   0.0000000   0.0000000   0.0000000   0.0000000   0.0000000   0.0000000   0.0000000   0.0000000
 NMagM=    0.0000000   2.7928460   2.7928460   2.7928460   0.0000000   0.0000000   0.0000000   0.0000000   0.0000000   0.0000000
 AtZNuc=   8.0000000   1.0000000   1.0000000   1.0000000   8.0000000   6.0000000   6.0000000   6.0000000   6.0000000   6.0000000

  Atom        51          52          53          54          55          56          57          58          59          60
 IAtWgt=           1           1           1           1           1          16          16          16          12           1
 AtmWgt=   1.0078250   1.0078250   1.0078250   1.0078250   1.0078250  15.9949146  15.9949146  15.9949146  12.0000000   1.0078250
 NucSpn=           1           1           1           1           1           0           0           0           0           1
 AtZEff=   0.0000000   0.0000000   0.0000000   0.0000000   0.0000000   0.0000000   0.0000000   0.0000000   0.0000000   0.0000000
 NQMom=    0.0000000   0.0000000   0.0000000   0.0000000   0.0000000   0.0000000   0.0000000   0.0000000   0.0000000   0.0000000
 NMagM=    2.7928460   2.7928460   2.7928460   2.7928460   2.7928460   0.0000000   0.0000000   0.0000000   0.0000000   2.7928460
 AtZNuc=   1.0000000   1.0000000   1.0000000   1.0000000   1.0000000   8.0000000   8.0000000   8.0000000   6.0000000   1.0000000

  Atom        61          62          63          64          65          66          67          68          69          70
 IAtWgt=           1          16           1           1           1          12           1           1          12           1
 AtmWgt=   1.0078250  15.9949146   1.0078250   1.0078250   1.0078250  12.0000000   1.0078250   1.0078250  12.0000000   1.0078250
 NucSpn=           1           0           1           1           1           0           1           1           0           1
 AtZEff=   0.0000000   0.0000000   0.0000000   0.0000000   0.0000000   0.0000000   0.0000000   0.0000000   0.0000000   0.0000000
 NQMom=    0.0000000   0.0000000   0.0000000   0.0000000   0.0000000   0.0000000   0.0000000   0.0000000   0.0000000   0.0000000
 NMagM=    2.7928460   0.0000000   2.7928460   2.7928460   2.7928460   0.0000000   2.7928460   2.7928460   0.0000000   2.7928460
 AtZNuc=   1.0000000   8.0000000   1.0000000   1.0000000   1.0000000   6.0000000   1.0000000   1.0000000   6.0000000   1.0000000

  Atom        71          72          73          74          75          76          77          78          79          80
 IAtWgt=           1          12           1           1          12           1           1          12           1           1
 AtmWgt=   1.0078250  12.0000000   1.0078250   1.0078250  12.0000000   1.0078250   1.0078250  12.0000000   1.0078250   1.0078250
 NucSpn=           1           0           1           1           0           1           1           0           1           1
 AtZEff=   0.0000000   0.0000000   0.0000000   0.0000000   0.0000000   0.0000000   0.0000000   0.0000000   0.0000000   0.0000000
 NQMom=    0.0000000   0.0000000   0.0000000   0.0000000   0.0000000   0.0000000   0.0000000   0.0000000   0.0000000   0.0000000
 NMagM=    2.7928460   0.0000000   2.7928460   2.7928460   0.0000000   2.7928460   2.7928460   0.0000000   2.7928460   2.7928460
 AtZNuc=   1.0000000   6.0000000   1.0000000   1.0000000   6.0000000   1.0000000   1.0000000   6.0000000   1.0000000   1.0000000

  Atom        81          82          83          84
 IAtWgt=          14           1           1           1
 AtmWgt=  14.0030740   1.0078250   1.0078250   1.0078250
 NucSpn=           2           1           1           1
 AtZEff=   0.0000000   0.0000000   0.0000000   0.0000000
 NQMom=    2.0440000   0.0000000   0.0000000   0.0000000
 NMagM=    0.4037610   2.7928460   2.7928460   2.7928460
 AtZNuc=   7.0000000   1.0000000   1.0000000   1.0000000
 Leave Link  101 at Wed Apr 27 00:41:33 2016, MaxMem= 10737418240 cpu:         4.6
 (Enter /share/apps//g09/l103.exe)

 GradGradGradGradGradGradGradGradGradGradGradGradGradGradGradGradGradGrad
 Berny optimization.
 Initialization pass.
                           ----------------------------
                           !    Initial Parameters    !
                           ! (Angstroms and Degrees)  !
 --------------------------                            --------------------------
 ! Name  Definition              Value          Derivative Info.                !
 --------------------------------------------------------------------------------
 ! R1    R(1,2)                  1.411          estimate D2E/DX2                !
 ! R2    R(1,6)                  1.4472         estimate D2E/DX2                !
 ! R3    R(2,3)                  1.5362         estimate D2E/DX2                !
 ! R4    R(2,7)                  1.0995         estimate D2E/DX2                !
 ! R5    R(2,15)                 1.4304         estimate D2E/DX2                !
 ! R6    R(3,4)                  1.5333         estimate D2E/DX2                !
 ! R7    R(3,8)                  1.1037         estimate D2E/DX2                !
 ! R8    R(3,14)                 1.4321         estimate D2E/DX2                !
 ! R9    R(4,5)                  1.5321         estimate D2E/DX2                !
 ! R10   R(4,9)                  1.1003         estimate D2E/DX2                !
 ! R11   R(4,13)                 1.4406         estimate D2E/DX2                !
 ! R12   R(5,6)                  1.5356         estimate D2E/DX2                !
 ! R13   R(5,10)                 1.1096         estimate D2E/DX2                !
 ! R14   R(5,12)                 1.4285         estimate D2E/DX2                !
 ! R15   R(6,11)                 1.106          estimate D2E/DX2                !
 ! R16   R(6,16)                 1.5255         estimate D2E/DX2                !
 ! R17   R(12,21)                0.9866         estimate D2E/DX2                !
 ! R18   R(13,22)                0.9801         estimate D2E/DX2                !
 ! R19   R(13,83)                1.7246         estimate D2E/DX2                !
 ! R20   R(14,23)                0.9851         estimate D2E/DX2                !
 ! R21   R(14,83)                2.7208         estimate D2E/DX2                !
 ! R22   R(15,27)                1.4314         estimate D2E/DX2                !
 ! R23   R(16,17)                1.1016         estimate D2E/DX2                !
 ! R24   R(16,18)                1.099          estimate D2E/DX2                !
 ! R25   R(16,19)                1.4395         estimate D2E/DX2                !
 ! R26   R(19,20)                0.9756         estimate D2E/DX2                !
 ! R27   R(19,83)                6.7903         estimate D2E/DX2                !
 ! R28   R(24,25)                1.4481         estimate D2E/DX2                !
 ! R29   R(24,29)                1.4412         estimate D2E/DX2                !
 ! R30   R(25,26)                1.5682         estimate D2E/DX2                !
 ! R31   R(25,30)                1.1049         estimate D2E/DX2                !
 ! R32   R(25,37)                1.3973         estimate D2E/DX2                !
 ! R33   R(26,27)                1.5378         estimate D2E/DX2                !
 ! R34   R(26,31)                1.0998         estimate D2E/DX2                !
 ! R35   R(26,36)                1.434          estimate D2E/DX2                !
 ! R36   R(27,28)                1.5567         estimate D2E/DX2                !
 ! R37   R(27,32)                1.1005         estimate D2E/DX2                !
 ! R38   R(28,29)                1.5449         estimate D2E/DX2                !
 ! R39   R(28,33)                1.1021         estimate D2E/DX2                !
 ! R40   R(28,35)                1.4383         estimate D2E/DX2                !
 ! R41   R(29,34)                1.107          estimate D2E/DX2                !
 ! R42   R(29,38)                1.5354         estimate D2E/DX2                !
 ! R43   R(35,43)                0.9806         estimate D2E/DX2                !
 ! R44   R(35,82)                4.8978         estimate D2E/DX2                !
 ! R45   R(36,44)                0.972          estimate D2E/DX2                !
 ! R46   R(37,49)                1.4435         estimate D2E/DX2                !
 ! R47   R(38,39)                1.0995         estimate D2E/DX2                !
 ! R48   R(38,40)                1.1002         estimate D2E/DX2                !
 ! R49   R(38,41)                1.4348         estimate D2E/DX2                !
 ! R50   R(41,42)                0.9727         estimate D2E/DX2                !
 ! R51   R(41,82)                6.0944         estimate D2E/DX2                !
 ! R52   R(45,46)                1.4405         estimate D2E/DX2                !
 ! R53   R(45,50)                1.4333         estimate D2E/DX2                !
 ! R54   R(45,84)                2.9991         estimate D2E/DX2                !
 ! R55   R(46,47)                1.5286         estimate D2E/DX2                !
 ! R56   R(46,51)                1.1123         estimate D2E/DX2                !
 ! R57   R(46,58)                1.3882         estimate D2E/DX2                !
 ! R58   R(47,48)                1.5327         estimate D2E/DX2                !
 ! R59   R(47,52)                1.1057         estimate D2E/DX2                !
 ! R60   R(47,57)                1.4256         estimate D2E/DX2                !
 ! R61   R(48,49)                1.5305         estimate D2E/DX2                !
 ! R62   R(48,53)                1.1072         estimate D2E/DX2                !
 ! R63   R(48,56)                1.4325         estimate D2E/DX2                !
 ! R64   R(49,50)                1.5461         estimate D2E/DX2                !
 ! R65   R(49,55)                1.1005         estimate D2E/DX2                !
 ! R66   R(50,54)                1.1101         estimate D2E/DX2                !
 ! R67   R(50,59)                1.5226         estimate D2E/DX2                !
 ! R68   R(56,64)                0.9746         estimate D2E/DX2                !
 ! R69   R(56,84)                5.9193         estimate D2E/DX2                !
 ! R70   R(57,65)                0.9743         estimate D2E/DX2                !
 ! R71   R(58,66)                1.4534         estimate D2E/DX2                !
 ! R72   R(58,84)                4.5766         estimate D2E/DX2                !
 ! R73   R(59,60)                1.0988         estimate D2E/DX2                !
 ! R74   R(59,61)                1.099          estimate D2E/DX2                !
 ! R75   R(59,62)                1.4361         estimate D2E/DX2                !
 ! R76   R(62,63)                0.9835         estimate D2E/DX2                !
 ! R77   R(62,82)                3.0902         estimate D2E/DX2                !
 ! R78   R(66,67)                1.102          estimate D2E/DX2                !
 ! R79   R(66,68)                1.1006         estimate D2E/DX2                !
 ! R80   R(66,69)                1.5244         estimate D2E/DX2                !
 ! R81   R(69,70)                1.1032         estimate D2E/DX2                !
 ! R82   R(69,71)                1.1011         estimate D2E/DX2                !
 ! R83   R(69,72)                1.5368         estimate D2E/DX2                !
 ! R84   R(72,73)                1.1002         estimate D2E/DX2                !
 ! R85   R(72,74)                1.1028         estimate D2E/DX2                !
 ! R86   R(72,75)                1.5355         estimate D2E/DX2                !
 ! R87   R(75,76)                1.1024         estimate D2E/DX2                !
 ! R88   R(75,77)                1.1008         estimate D2E/DX2                !
 ! R89   R(75,78)                1.5274         estimate D2E/DX2                !
 ! R90   R(78,79)                1.0982         estimate D2E/DX2                !
 ! R91   R(78,80)                1.0997         estimate D2E/DX2                !
 ! R92   R(78,81)                1.5019         estimate D2E/DX2                !
 ! R93   R(81,82)                1.0275         estimate D2E/DX2                !
 ! R94   R(81,83)                1.051          estimate D2E/DX2                !
 ! R95   R(81,84)                1.0575         estimate D2E/DX2                !
 ! A1    A(2,1,6)              114.3688         estimate D2E/DX2                !
 ! A2    A(1,2,3)              112.4801         estimate D2E/DX2                !
 ! A3    A(1,2,7)              104.9316         estimate D2E/DX2                !
 ! A4    A(1,2,15)             112.6051         estimate D2E/DX2                !
 ! A5    A(3,2,7)              110.5176         estimate D2E/DX2                !
 ! A6    A(3,2,15)             106.2448         estimate D2E/DX2                !
 ! A7    A(7,2,15)             110.1292         estimate D2E/DX2                !
 ! A8    A(2,3,4)              109.7349         estimate D2E/DX2                !
 ! A9    A(2,3,8)              107.0259         estimate D2E/DX2                !
 ! A10   A(2,3,14)             111.3689         estimate D2E/DX2                !
 ! A11   A(4,3,8)              108.4628         estimate D2E/DX2                !
 ! A12   A(4,3,14)             110.5035         estimate D2E/DX2                !
 ! A13   A(8,3,14)             109.6405         estimate D2E/DX2                !
 ! A14   A(3,4,5)              110.7873         estimate D2E/DX2                !
 ! A15   A(3,4,9)              109.4603         estimate D2E/DX2                !
 ! A16   A(3,4,13)             111.4956         estimate D2E/DX2                !
 ! A17   A(5,4,9)              110.2936         estimate D2E/DX2                !
 ! A18   A(5,4,13)             109.0635         estimate D2E/DX2                !
 ! A19   A(9,4,13)             105.6193         estimate D2E/DX2                !
 ! A20   A(4,5,6)              110.6538         estimate D2E/DX2                !
 ! A21   A(4,5,10)             108.2999         estimate D2E/DX2                !
 ! A22   A(4,5,12)             105.8183         estimate D2E/DX2                !
 ! A23   A(6,5,10)             107.2836         estimate D2E/DX2                !
 ! A24   A(6,5,12)             115.0571         estimate D2E/DX2                !
 ! A25   A(10,5,12)            109.5742         estimate D2E/DX2                !
 ! A26   A(1,6,5)              112.2173         estimate D2E/DX2                !
 ! A27   A(1,6,11)             109.5216         estimate D2E/DX2                !
 ! A28   A(1,6,16)             105.6853         estimate D2E/DX2                !
 ! A29   A(5,6,11)             108.0866         estimate D2E/DX2                !
 ! A30   A(5,6,16)             113.3077         estimate D2E/DX2                !
 ! A31   A(11,6,16)            107.9037         estimate D2E/DX2                !
 ! A32   A(5,12,21)            107.3264         estimate D2E/DX2                !
 ! A33   A(4,13,22)            106.1216         estimate D2E/DX2                !
 ! A34   A(4,13,83)            106.9005         estimate D2E/DX2                !
 ! A35   A(22,13,83)           138.3264         estimate D2E/DX2                !
 ! A36   A(3,14,23)            107.1094         estimate D2E/DX2                !
 ! A37   A(3,14,83)             92.2422         estimate D2E/DX2                !
 ! A38   A(23,14,83)           147.9012         estimate D2E/DX2                !
 ! A39   A(2,15,27)            114.9451         estimate D2E/DX2                !
 ! A40   A(6,16,17)            109.4598         estimate D2E/DX2                !
 ! A41   A(6,16,18)            109.7199         estimate D2E/DX2                !
 ! A42   A(6,16,19)            112.5824         estimate D2E/DX2                !
 ! A43   A(17,16,18)           108.2422         estimate D2E/DX2                !
 ! A44   A(17,16,19)           110.5729         estimate D2E/DX2                !
 ! A45   A(18,16,19)           106.1304         estimate D2E/DX2                !
 ! A46   A(16,19,20)           107.0558         estimate D2E/DX2                !
 ! A47   A(16,19,83)            68.9441         estimate D2E/DX2                !
 ! A48   A(20,19,83)            96.422          estimate D2E/DX2                !
 ! A49   A(25,24,29)           110.1099         estimate D2E/DX2                !
 ! A50   A(24,25,26)           111.1227         estimate D2E/DX2                !
 ! A51   A(24,25,30)           107.7459         estimate D2E/DX2                !
 ! A52   A(24,25,37)           109.0758         estimate D2E/DX2                !
 ! A53   A(26,25,30)           107.0209         estimate D2E/DX2                !
 ! A54   A(26,25,37)           117.0316         estimate D2E/DX2                !
 ! A55   A(30,25,37)           104.2421         estimate D2E/DX2                !
 ! A56   A(25,26,27)           113.2746         estimate D2E/DX2                !
 ! A57   A(25,26,31)           108.3146         estimate D2E/DX2                !
 ! A58   A(25,26,36)           109.7992         estimate D2E/DX2                !
 ! A59   A(27,26,31)           108.1139         estimate D2E/DX2                !
 ! A60   A(27,26,36)           105.8245         estimate D2E/DX2                !
 ! A61   A(31,26,36)           111.5378         estimate D2E/DX2                !
 ! A62   A(15,27,26)           107.3909         estimate D2E/DX2                !
 ! A63   A(15,27,28)           110.9367         estimate D2E/DX2                !
 ! A64   A(15,27,32)           109.5549         estimate D2E/DX2                !
 ! A65   A(26,27,28)           112.0956         estimate D2E/DX2                !
 ! A66   A(26,27,32)           107.1066         estimate D2E/DX2                !
 ! A67   A(28,27,32)           109.6445         estimate D2E/DX2                !
 ! A68   A(27,28,29)           110.8743         estimate D2E/DX2                !
 ! A69   A(27,28,33)           107.6907         estimate D2E/DX2                !
 ! A70   A(27,28,35)           107.9474         estimate D2E/DX2                !
 ! A71   A(29,28,33)           108.232          estimate D2E/DX2                !
 ! A72   A(29,28,35)           112.8099         estimate D2E/DX2                !
 ! A73   A(33,28,35)           109.1552         estimate D2E/DX2                !
 ! A74   A(24,29,28)           111.0493         estimate D2E/DX2                !
 ! A75   A(24,29,34)           108.2836         estimate D2E/DX2                !
 ! A76   A(24,29,38)           106.1379         estimate D2E/DX2                !
 ! A77   A(28,29,34)           107.7911         estimate D2E/DX2                !
 ! A78   A(28,29,38)           113.8349         estimate D2E/DX2                !
 ! A79   A(34,29,38)           109.6265         estimate D2E/DX2                !
 ! A80   A(28,35,43)           105.1689         estimate D2E/DX2                !
 ! A81   A(28,35,82)           123.1423         estimate D2E/DX2                !
 ! A82   A(43,35,82)           104.4563         estimate D2E/DX2                !
 ! A83   A(26,36,44)           108.6148         estimate D2E/DX2                !
 ! A84   A(25,37,49)           118.6061         estimate D2E/DX2                !
 ! A85   A(29,38,39)           109.1709         estimate D2E/DX2                !
 ! A86   A(29,38,40)           110.0382         estimate D2E/DX2                !
 ! A87   A(29,38,41)           112.0948         estimate D2E/DX2                !
 ! A88   A(39,38,40)           107.579          estimate D2E/DX2                !
 ! A89   A(39,38,41)           106.0677         estimate D2E/DX2                !
 ! A90   A(40,38,41)           111.6878         estimate D2E/DX2                !
 ! A91   A(38,41,42)           109.4323         estimate D2E/DX2                !
 ! A92   A(38,41,82)            60.3029         estimate D2E/DX2                !
 ! A93   A(46,45,50)           111.684          estimate D2E/DX2                !
 ! A94   A(46,45,84)           149.9771         estimate D2E/DX2                !
 ! A95   A(50,45,84)            92.9907         estimate D2E/DX2                !
 ! A96   A(45,46,47)           108.8668         estimate D2E/DX2                !
 ! A97   A(45,46,51)           108.7797         estimate D2E/DX2                !
 ! A98   A(45,46,58)           108.5351         estimate D2E/DX2                !
 ! A99   A(47,46,51)           111.0724         estimate D2E/DX2                !
 ! A100  A(47,46,58)           107.7367         estimate D2E/DX2                !
 ! A101  A(51,46,58)           111.7784         estimate D2E/DX2                !
 ! A102  A(46,47,48)           111.8165         estimate D2E/DX2                !
 ! A103  A(46,47,52)           106.381          estimate D2E/DX2                !
 ! A104  A(46,47,57)           112.7465         estimate D2E/DX2                !
 ! A105  A(48,47,52)           108.8939         estimate D2E/DX2                !
 ! A106  A(48,47,57)           106.1862         estimate D2E/DX2                !
 ! A107  A(52,47,57)           110.8225         estimate D2E/DX2                !
 ! A108  A(47,48,49)           111.9413         estimate D2E/DX2                !
 ! A109  A(47,48,53)           108.3869         estimate D2E/DX2                !
 ! A110  A(47,48,56)           109.9773         estimate D2E/DX2                !
 ! A111  A(49,48,53)           107.898          estimate D2E/DX2                !
 ! A112  A(49,48,56)           109.0025         estimate D2E/DX2                !
 ! A113  A(53,48,56)           109.5892         estimate D2E/DX2                !
 ! A114  A(37,49,48)           108.8609         estimate D2E/DX2                !
 ! A115  A(37,49,50)           108.9636         estimate D2E/DX2                !
 ! A116  A(37,49,55)           110.4047         estimate D2E/DX2                !
 ! A117  A(48,49,50)           109.0009         estimate D2E/DX2                !
 ! A118  A(48,49,55)           109.7379         estimate D2E/DX2                !
 ! A119  A(50,49,55)           109.8437         estimate D2E/DX2                !
 ! A120  A(45,50,49)           108.8068         estimate D2E/DX2                !
 ! A121  A(45,50,54)           110.2014         estimate D2E/DX2                !
 ! A122  A(45,50,59)           107.3387         estimate D2E/DX2                !
 ! A123  A(49,50,54)           108.3036         estimate D2E/DX2                !
 ! A124  A(49,50,59)           115.3053         estimate D2E/DX2                !
 ! A125  A(54,50,59)           106.8335         estimate D2E/DX2                !
 ! A126  A(48,56,64)           106.2275         estimate D2E/DX2                !
 ! A127  A(48,56,84)            49.4372         estimate D2E/DX2                !
 ! A128  A(64,56,84)           139.219          estimate D2E/DX2                !
 ! A129  A(47,57,65)           107.6991         estimate D2E/DX2                !
 ! A130  A(46,58,66)           114.6365         estimate D2E/DX2                !
 ! A131  A(46,58,84)            70.1155         estimate D2E/DX2                !
 ! A132  A(66,58,84)            92.4817         estimate D2E/DX2                !
 ! A133  A(50,59,60)           108.4966         estimate D2E/DX2                !
 ! A134  A(50,59,61)           109.606          estimate D2E/DX2                !
 ! A135  A(50,59,62)           113.1955         estimate D2E/DX2                !
 ! A136  A(60,59,61)           108.558          estimate D2E/DX2                !
 ! A137  A(60,59,62)           106.8224         estimate D2E/DX2                !
 ! A138  A(61,59,62)           110.0202         estimate D2E/DX2                !
 ! A139  A(59,62,63)           105.725          estimate D2E/DX2                !
 ! A140  A(59,62,82)           144.0977         estimate D2E/DX2                !
 ! A141  A(63,62,82)           108.1004         estimate D2E/DX2                !
 ! A142  A(58,66,67)           108.194          estimate D2E/DX2                !
 ! A143  A(58,66,68)           109.1977         estimate D2E/DX2                !
 ! A144  A(58,66,69)           109.3902         estimate D2E/DX2                !
 ! A145  A(67,66,68)           108.2612         estimate D2E/DX2                !
 ! A146  A(67,66,69)           110.4279         estimate D2E/DX2                !
 ! A147  A(68,66,69)           111.3034         estimate D2E/DX2                !
 ! A148  A(66,69,70)           107.5271         estimate D2E/DX2                !
 ! A149  A(66,69,71)           108.4532         estimate D2E/DX2                !
 ! A150  A(66,69,72)           115.1144         estimate D2E/DX2                !
 ! A151  A(70,69,71)           106.1796         estimate D2E/DX2                !
 ! A152  A(70,69,72)           110.6187         estimate D2E/DX2                !
 ! A153  A(71,69,72)           108.5634         estimate D2E/DX2                !
 ! A154  A(69,72,73)           107.9563         estimate D2E/DX2                !
 ! A155  A(69,72,74)           108.1248         estimate D2E/DX2                !
 ! A156  A(69,72,75)           114.5076         estimate D2E/DX2                !
 ! A157  A(73,72,74)           106.3554         estimate D2E/DX2                !
 ! A158  A(73,72,75)           110.5052         estimate D2E/DX2                !
 ! A159  A(74,72,75)           109.0545         estimate D2E/DX2                !
 ! A160  A(72,75,76)           109.7985         estimate D2E/DX2                !
 ! A161  A(72,75,77)           110.1966         estimate D2E/DX2                !
 ! A162  A(72,75,78)           114.5408         estimate D2E/DX2                !
 ! A163  A(76,75,77)           106.5928         estimate D2E/DX2                !
 ! A164  A(76,75,78)           106.5372         estimate D2E/DX2                !
 ! A165  A(77,75,78)           108.8231         estimate D2E/DX2                !
 ! A166  A(75,78,79)           110.8233         estimate D2E/DX2                !
 ! A167  A(75,78,80)           111.3092         estimate D2E/DX2                !
 ! A168  A(75,78,81)           112.3604         estimate D2E/DX2                !
 ! A169  A(79,78,80)           107.9669         estimate D2E/DX2                !
 ! A170  A(79,78,81)           106.9754         estimate D2E/DX2                !
 ! A171  A(80,78,81)           107.174          estimate D2E/DX2                !
 ! A172  A(78,81,82)           112.6569         estimate D2E/DX2                !
 ! A173  A(78,81,83)           113.0024         estimate D2E/DX2                !
 ! A174  A(78,81,84)           112.6806         estimate D2E/DX2                !
 ! A175  A(82,81,83)           104.6301         estimate D2E/DX2                !
 ! A176  A(82,81,84)           105.0492         estimate D2E/DX2                !
 ! A177  A(83,81,84)           108.1913         estimate D2E/DX2                !
 ! A178  A(35,82,41)            26.1907         estimate D2E/DX2                !
 ! A179  A(35,82,62)            59.3536         estimate D2E/DX2                !
 ! A180  A(35,82,81)           110.6967         estimate D2E/DX2                !
 ! A181  A(41,82,62)            54.0775         estimate D2E/DX2                !
 ! A182  A(41,82,81)           116.0996         estimate D2E/DX2                !
 ! A183  A(62,82,81)            62.5597         estimate D2E/DX2                !
 ! A184  A(13,83,14)            78.3207         estimate D2E/DX2                !
 ! A185  A(13,83,19)            19.741          estimate D2E/DX2                !
 ! A186  A(14,83,19)            61.4159         estimate D2E/DX2                !
 ! A187  A(14,83,81)            88.5706         estimate D2E/DX2                !
 ! A188  A(19,83,81)           146.0848         estimate D2E/DX2                !
 ! A189  A(45,84,56)            40.1638         estimate D2E/DX2                !
 ! A190  A(45,84,58)            26.0319         estimate D2E/DX2                !
 ! A191  A(45,84,81)           122.5759         estimate D2E/DX2                !
 ! A192  A(56,84,58)            52.1261         estimate D2E/DX2                !
 ! A193  A(56,84,81)           129.3126         estimate D2E/DX2                !
 ! A194  A(58,84,81)            96.82           estimate D2E/DX2                !
 ! A195  L(42,41,82,38,-1)     169.7352         estimate D2E/DX2                !
 ! A196  L(13,83,81,14,-1)     166.8913         estimate D2E/DX2                !
 ! A197  L(42,41,82,38,-2)     174.6746         estimate D2E/DX2                !
 ! A198  L(13,83,81,14,-2)     185.5594         estimate D2E/DX2                !
 ! D1    D(6,1,2,3)            -56.8698         estimate D2E/DX2                !
 ! D2    D(6,1,2,7)           -177.0634         estimate D2E/DX2                !
 ! D3    D(6,1,2,15)            63.1458         estimate D2E/DX2                !
 ! D4    D(2,1,6,5)             55.1073         estimate D2E/DX2                !
 ! D5    D(2,1,6,11)           -64.9336         estimate D2E/DX2                !
 ! D6    D(2,1,6,16)           179.0682         estimate D2E/DX2                !
 ! D7    D(1,2,3,4)             55.2168         estimate D2E/DX2                !
 ! D8    D(1,2,3,8)            -62.2818         estimate D2E/DX2                !
 ! D9    D(1,2,3,14)           177.8973         estimate D2E/DX2                !
 ! D10   D(7,2,3,4)            172.1276         estimate D2E/DX2                !
 ! D11   D(7,2,3,8)             54.629          estimate D2E/DX2                !
 ! D12   D(7,2,3,14)           -65.1919         estimate D2E/DX2                !
 ! D13   D(15,2,3,4)           -68.4154         estimate D2E/DX2                !
 ! D14   D(15,2,3,8)           174.086          estimate D2E/DX2                !
 ! D15   D(15,2,3,14)           54.2651         estimate D2E/DX2                !
 ! D16   D(1,2,15,27)           85.4951         estimate D2E/DX2                !
 ! D17   D(3,2,15,27)         -150.9508         estimate D2E/DX2                !
 ! D18   D(7,2,15,27)          -31.2404         estimate D2E/DX2                !
 ! D19   D(2,3,4,5)            -53.1165         estimate D2E/DX2                !
 ! D20   D(2,3,4,9)             68.7261         estimate D2E/DX2                !
 ! D21   D(2,3,4,13)          -174.783          estimate D2E/DX2                !
 ! D22   D(8,3,4,5)             63.4815         estimate D2E/DX2                !
 ! D23   D(8,3,4,9)           -174.6759         estimate D2E/DX2                !
 ! D24   D(8,3,4,13)           -58.1849         estimate D2E/DX2                !
 ! D25   D(14,3,4,5)          -176.3081         estimate D2E/DX2                !
 ! D26   D(14,3,4,9)           -54.4655         estimate D2E/DX2                !
 ! D27   D(14,3,4,13)           62.0254         estimate D2E/DX2                !
 ! D28   D(2,3,14,23)           10.3495         estimate D2E/DX2                !
 ! D29   D(2,3,14,83)         -143.6893         estimate D2E/DX2                !
 ! D30   D(4,3,14,23)          132.5873         estimate D2E/DX2                !
 ! D31   D(4,3,14,83)          -21.4515         estimate D2E/DX2                !
 ! D32   D(8,3,14,23)         -107.9109         estimate D2E/DX2                !
 ! D33   D(8,3,14,83)           98.0503         estimate D2E/DX2                !
 ! D34   D(3,4,5,6)             52.1219         estimate D2E/DX2                !
 ! D35   D(3,4,5,10)           169.4499         estimate D2E/DX2                !
 ! D36   D(3,4,5,12)           -73.1333         estimate D2E/DX2                !
 ! D37   D(9,4,5,6)            -69.2309         estimate D2E/DX2                !
 ! D38   D(9,4,5,10)            48.0971         estimate D2E/DX2                !
 ! D39   D(9,4,5,12)           165.5138         estimate D2E/DX2                !
 ! D40   D(13,4,5,6)           175.2059         estimate D2E/DX2                !
 ! D41   D(13,4,5,10)          -67.4661         estimate D2E/DX2                !
 ! D42   D(13,4,5,12)           49.9507         estimate D2E/DX2                !
 ! D43   D(3,4,13,22)           79.8482         estimate D2E/DX2                !
 ! D44   D(3,4,13,83)          -74.3676         estimate D2E/DX2                !
 ! D45   D(5,4,13,22)          -42.812          estimate D2E/DX2                !
 ! D46   D(5,4,13,83)          162.9723         estimate D2E/DX2                !
 ! D47   D(9,4,13,22)         -161.3431         estimate D2E/DX2                !
 ! D48   D(9,4,13,83)           44.4412         estimate D2E/DX2                !
 ! D49   D(4,5,6,1)            -51.9157         estimate D2E/DX2                !
 ! D50   D(4,5,6,11)            68.9561         estimate D2E/DX2                !
 ! D51   D(4,5,6,16)          -171.5165         estimate D2E/DX2                !
 ! D52   D(10,5,6,1)          -169.8665         estimate D2E/DX2                !
 ! D53   D(10,5,6,11)          -48.9947         estimate D2E/DX2                !
 ! D54   D(10,5,6,16)           70.5327         estimate D2E/DX2                !
 ! D55   D(12,5,6,1)            67.9391         estimate D2E/DX2                !
 ! D56   D(12,5,6,11)         -171.189          estimate D2E/DX2                !
 ! D57   D(12,5,6,16)          -51.6617         estimate D2E/DX2                !
 ! D58   D(4,5,12,21)          149.2498         estimate D2E/DX2                !
 ! D59   D(6,5,12,21)           26.7603         estimate D2E/DX2                !
 ! D60   D(10,5,12,21)         -94.192          estimate D2E/DX2                !
 ! D61   D(1,6,16,17)           59.9563         estimate D2E/DX2                !
 ! D62   D(1,6,16,18)          178.5981         estimate D2E/DX2                !
 ! D63   D(1,6,16,19)          -63.4509         estimate D2E/DX2                !
 ! D64   D(5,6,16,17)         -176.7709         estimate D2E/DX2                !
 ! D65   D(5,6,16,18)          -58.1291         estimate D2E/DX2                !
 ! D66   D(5,6,16,19)           59.8219         estimate D2E/DX2                !
 ! D67   D(11,6,16,17)         -57.1389         estimate D2E/DX2                !
 ! D68   D(11,6,16,18)          61.5029         estimate D2E/DX2                !
 ! D69   D(11,6,16,19)         179.454          estimate D2E/DX2                !
 ! D70   D(4,13,83,14)          40.3793         estimate D2E/DX2                !
 ! D71   D(4,13,83,19)          10.8858         estimate D2E/DX2                !
 ! D72   D(22,13,83,14)       -100.6814         estimate D2E/DX2                !
 ! D73   D(22,13,83,19)       -130.1749         estimate D2E/DX2                !
 ! D74   D(3,14,83,13)         -10.7563         estimate D2E/DX2                !
 ! D75   D(3,14,83,19)           0.1599         estimate D2E/DX2                !
 ! D76   D(3,14,83,81)         163.6843         estimate D2E/DX2                !
 ! D77   D(23,14,83,13)       -138.8165         estimate D2E/DX2                !
 ! D78   D(23,14,83,19)       -127.9003         estimate D2E/DX2                !
 ! D79   D(23,14,83,81)         35.6241         estimate D2E/DX2                !
 ! D80   D(2,15,27,26)        -145.7286         estimate D2E/DX2                !
 ! D81   D(2,15,27,28)          91.4605         estimate D2E/DX2                !
 ! D82   D(2,15,27,32)         -29.7294         estimate D2E/DX2                !
 ! D83   D(6,16,19,20)          70.0805         estimate D2E/DX2                !
 ! D84   D(6,16,19,83)         -20.3352         estimate D2E/DX2                !
 ! D85   D(17,16,19,20)        -52.7045         estimate D2E/DX2                !
 ! D86   D(17,16,19,83)       -143.1202         estimate D2E/DX2                !
 ! D87   D(18,16,19,20)       -169.8732         estimate D2E/DX2                !
 ! D88   D(18,16,19,83)         99.7111         estimate D2E/DX2                !
 ! D89   D(16,19,83,13)       -125.7239         estimate D2E/DX2                !
 ! D90   D(16,19,83,14)         87.5782         estimate D2E/DX2                !
 ! D91   D(16,19,83,81)         57.0388         estimate D2E/DX2                !
 ! D92   D(20,19,83,13)        128.4369         estimate D2E/DX2                !
 ! D93   D(20,19,83,14)        -18.2611         estimate D2E/DX2                !
 ! D94   D(20,19,83,81)        -48.8005         estimate D2E/DX2                !
 ! D95   D(29,24,25,26)        -50.7399         estimate D2E/DX2                !
 ! D96   D(29,24,25,30)         66.2038         estimate D2E/DX2                !
 ! D97   D(29,24,25,37)        178.7847         estimate D2E/DX2                !
 ! D98   D(25,24,29,28)         73.2816         estimate D2E/DX2                !
 ! D99   D(25,24,29,34)        -44.8798         estimate D2E/DX2                !
 ! D100  D(25,24,29,38)       -162.5162         estimate D2E/DX2                !
 ! D101  D(24,25,26,27)        -10.0348         estimate D2E/DX2                !
 ! D102  D(24,25,26,31)       -129.9612         estimate D2E/DX2                !
 ! D103  D(24,25,26,36)        108.0225         estimate D2E/DX2                !
 ! D104  D(30,25,26,27)       -127.4209         estimate D2E/DX2                !
 ! D105  D(30,25,26,31)        112.6528         estimate D2E/DX2                !
 ! D106  D(30,25,26,36)         -9.3636         estimate D2E/DX2                !
 ! D107  D(37,25,26,27)        116.1533         estimate D2E/DX2                !
 ! D108  D(37,25,26,31)         -3.773          estimate D2E/DX2                !
 ! D109  D(37,25,26,36)       -125.7894         estimate D2E/DX2                !
 ! D110  D(24,25,37,49)         63.9101         estimate D2E/DX2                !
 ! D111  D(26,25,37,49)        -63.2833         estimate D2E/DX2                !
 ! D112  D(30,25,37,49)        178.7767         estimate D2E/DX2                !
 ! D113  D(25,26,27,15)        -71.8871         estimate D2E/DX2                !
 ! D114  D(25,26,27,28)         50.2052         estimate D2E/DX2                !
 ! D115  D(25,26,27,32)        170.5079         estimate D2E/DX2                !
 ! D116  D(31,26,27,15)         48.1537         estimate D2E/DX2                !
 ! D117  D(31,26,27,28)        170.246          estimate D2E/DX2                !
 ! D118  D(31,26,27,32)        -69.4513         estimate D2E/DX2                !
 ! D119  D(36,26,27,15)        167.77           estimate D2E/DX2                !
 ! D120  D(36,26,27,28)        -70.1376         estimate D2E/DX2                !
 ! D121  D(36,26,27,32)         50.1651         estimate D2E/DX2                !
 ! D122  D(25,26,36,44)         83.1662         estimate D2E/DX2                !
 ! D123  D(27,26,36,44)       -154.2491         estimate D2E/DX2                !
 ! D124  D(31,26,36,44)        -36.9087         estimate D2E/DX2                !
 ! D125  D(15,27,28,29)         90.163          estimate D2E/DX2                !
 ! D126  D(15,27,28,33)       -151.6012         estimate D2E/DX2                !
 ! D127  D(15,27,28,35)        -33.8687         estimate D2E/DX2                !
 ! D128  D(26,27,28,29)        -29.8837         estimate D2E/DX2                !
 ! D129  D(26,27,28,33)         88.352          estimate D2E/DX2                !
 ! D130  D(26,27,28,35)       -153.9154         estimate D2E/DX2                !
 ! D131  D(32,27,28,29)       -148.6998         estimate D2E/DX2                !
 ! D132  D(32,27,28,33)        -30.464          estimate D2E/DX2                !
 ! D133  D(32,27,28,35)         87.2685         estimate D2E/DX2                !
 ! D134  D(27,28,29,24)        -28.6207         estimate D2E/DX2                !
 ! D135  D(27,28,29,34)         89.8384         estimate D2E/DX2                !
 ! D136  D(27,28,29,38)       -148.3308         estimate D2E/DX2                !
 ! D137  D(33,28,29,24)       -146.5274         estimate D2E/DX2                !
 ! D138  D(33,28,29,34)        -28.0683         estimate D2E/DX2                !
 ! D139  D(33,28,29,38)         93.7626         estimate D2E/DX2                !
 ! D140  D(35,28,29,24)         92.5877         estimate D2E/DX2                !
 ! D141  D(35,28,29,34)       -148.9533         estimate D2E/DX2                !
 ! D142  D(35,28,29,38)        -27.1224         estimate D2E/DX2                !
 ! D143  D(27,28,35,43)       -173.2391         estimate D2E/DX2                !
 ! D144  D(27,28,35,82)         67.6876         estimate D2E/DX2                !
 ! D145  D(29,28,35,43)         63.9039         estimate D2E/DX2                !
 ! D146  D(29,28,35,82)        -55.1694         estimate D2E/DX2                !
 ! D147  D(33,28,35,43)        -56.4534         estimate D2E/DX2                !
 ! D148  D(33,28,35,82)       -175.5267         estimate D2E/DX2                !
 ! D149  D(24,29,38,39)        -46.4973         estimate D2E/DX2                !
 ! D150  D(24,29,38,40)         71.3528         estimate D2E/DX2                !
 ! D151  D(24,29,38,41)       -163.7157         estimate D2E/DX2                !
 ! D152  D(28,29,38,39)         75.955          estimate D2E/DX2                !
 ! D153  D(28,29,38,40)       -166.195          estimate D2E/DX2                !
 ! D154  D(28,29,38,41)        -41.2634         estimate D2E/DX2                !
 ! D155  D(34,29,38,39)       -163.2357         estimate D2E/DX2                !
 ! D156  D(34,29,38,40)        -45.3857         estimate D2E/DX2                !
 ! D157  D(34,29,38,41)         79.5459         estimate D2E/DX2                !
 ! D158  D(28,35,82,41)         85.5256         estimate D2E/DX2                !
 ! D159  D(28,35,82,62)         15.4321         estimate D2E/DX2                !
 ! D160  D(28,35,82,81)        -21.777          estimate D2E/DX2                !
 ! D161  D(43,35,82,41)        -33.8843         estimate D2E/DX2                !
 ! D162  D(43,35,82,62)       -103.9778         estimate D2E/DX2                !
 ! D163  D(43,35,82,81)       -141.1869         estimate D2E/DX2                !
 ! D164  D(25,37,49,48)        124.5713         estimate D2E/DX2                !
 ! D165  D(25,37,49,50)       -116.6657         estimate D2E/DX2                !
 ! D166  D(25,37,49,55)          4.0506         estimate D2E/DX2                !
 ! D167  D(29,38,41,42)        -82.5056         estimate D2E/DX2                !
 ! D168  D(29,38,41,82)        102.8197         estimate D2E/DX2                !
 ! D169  D(39,38,41,42)        158.433          estimate D2E/DX2                !
 ! D170  D(39,38,41,82)        -16.2416         estimate D2E/DX2                !
 ! D171  D(40,38,41,42)         41.5102         estimate D2E/DX2                !
 ! D172  D(40,38,41,82)       -133.1644         estimate D2E/DX2                !
 ! D173  D(38,41,82,35)        -96.6739         estimate D2E/DX2                !
 ! D174  D(38,41,82,62)         -3.993          estimate D2E/DX2                !
 ! D175  D(38,41,82,81)        -12.6612         estimate D2E/DX2                !
 ! D176  D(50,45,46,47)        -64.5516         estimate D2E/DX2                !
 ! D177  D(50,45,46,51)         56.6148         estimate D2E/DX2                !
 ! D178  D(50,45,46,58)        178.4396         estimate D2E/DX2                !
 ! D179  D(84,45,46,47)         78.6058         estimate D2E/DX2                !
 ! D180  D(84,45,46,51)       -160.2278         estimate D2E/DX2                !
 ! D181  D(84,45,46,58)        -38.403          estimate D2E/DX2                !
 ! D182  D(46,45,50,49)         67.6172         estimate D2E/DX2                !
 ! D183  D(46,45,50,54)        -50.9912         estimate D2E/DX2                !
 ! D184  D(46,45,50,59)       -166.9766         estimate D2E/DX2                !
 ! D185  D(84,45,50,49)        -94.8996         estimate D2E/DX2                !
 ! D186  D(84,45,50,54)        146.492          estimate D2E/DX2                !
 ! D187  D(84,45,50,59)         30.5066         estimate D2E/DX2                !
 ! D188  D(46,45,84,56)        -80.8717         estimate D2E/DX2                !
 ! D189  D(46,45,84,58)         24.0208         estimate D2E/DX2                !
 ! D190  D(46,45,84,81)         33.2469         estimate D2E/DX2                !
 ! D191  D(50,45,84,56)         65.2143         estimate D2E/DX2                !
 ! D192  D(50,45,84,58)        170.1068         estimate D2E/DX2                !
 ! D193  D(50,45,84,81)        179.3329         estimate D2E/DX2                !
 ! D194  D(45,46,47,48)         53.734          estimate D2E/DX2                !
 ! D195  D(45,46,47,52)        -65.0317         estimate D2E/DX2                !
 ! D196  D(45,46,47,57)        173.2997         estimate D2E/DX2                !
 ! D197  D(51,46,47,48)        -66.0191         estimate D2E/DX2                !
 ! D198  D(51,46,47,52)        175.2153         estimate D2E/DX2                !
 ! D199  D(51,46,47,57)         53.5467         estimate D2E/DX2                !
 ! D200  D(58,46,47,48)        171.2502         estimate D2E/DX2                !
 ! D201  D(58,46,47,52)         52.4846         estimate D2E/DX2                !
 ! D202  D(58,46,47,57)        -69.184          estimate D2E/DX2                !
 ! D203  D(45,46,58,66)        -70.875          estimate D2E/DX2                !
 ! D204  D(45,46,58,84)         12.5089         estimate D2E/DX2                !
 ! D205  D(47,46,58,66)        171.3941         estimate D2E/DX2                !
 ! D206  D(47,46,58,84)       -105.222          estimate D2E/DX2                !
 ! D207  D(51,46,58,66)         49.0981         estimate D2E/DX2                !
 ! D208  D(51,46,58,84)        132.4819         estimate D2E/DX2                !
 ! D209  D(46,47,48,49)        -48.694          estimate D2E/DX2                !
 ! D210  D(46,47,48,53)         70.1908         estimate D2E/DX2                !
 ! D211  D(46,47,48,56)       -170.0229         estimate D2E/DX2                !
 ! D212  D(52,47,48,49)         68.5698         estimate D2E/DX2                !
 ! D213  D(52,47,48,53)       -172.5454         estimate D2E/DX2                !
 ! D214  D(52,47,48,56)        -52.759          estimate D2E/DX2                !
 ! D215  D(57,47,48,49)       -172.0521         estimate D2E/DX2                !
 ! D216  D(57,47,48,53)        -53.1673         estimate D2E/DX2                !
 ! D217  D(57,47,48,56)         66.6191         estimate D2E/DX2                !
 ! D218  D(46,47,57,65)         60.1301         estimate D2E/DX2                !
 ! D219  D(48,47,57,65)       -177.0972         estimate D2E/DX2                !
 ! D220  D(52,47,57,65)        -58.9891         estimate D2E/DX2                !
 ! D221  D(47,48,49,37)        168.7929         estimate D2E/DX2                !
 ! D222  D(47,48,49,50)         50.0534         estimate D2E/DX2                !
 ! D223  D(47,48,49,55)        -70.2765         estimate D2E/DX2                !
 ! D224  D(53,48,49,37)         49.6194         estimate D2E/DX2                !
 ! D225  D(53,48,49,50)        -69.1201         estimate D2E/DX2                !
 ! D226  D(53,48,49,55)        170.5501         estimate D2E/DX2                !
 ! D227  D(56,48,49,37)        -69.3177         estimate D2E/DX2                !
 ! D228  D(56,48,49,50)        171.9428         estimate D2E/DX2                !
 ! D229  D(56,48,49,55)         51.613          estimate D2E/DX2                !
 ! D230  D(47,48,56,64)        -60.3394         estimate D2E/DX2                !
 ! D231  D(47,48,56,84)         81.7492         estimate D2E/DX2                !
 ! D232  D(49,48,56,64)        176.5893         estimate D2E/DX2                !
 ! D233  D(49,48,56,84)        -41.3221         estimate D2E/DX2                !
 ! D234  D(53,48,56,64)         58.7134         estimate D2E/DX2                !
 ! D235  D(53,48,56,84)       -159.198          estimate D2E/DX2                !
 ! D236  D(37,49,50,45)       -177.1188         estimate D2E/DX2                !
 ! D237  D(37,49,50,54)        -57.3244         estimate D2E/DX2                !
 ! D238  D(37,49,50,59)         62.2663         estimate D2E/DX2                !
 ! D239  D(48,49,50,45)        -58.4435         estimate D2E/DX2                !
 ! D240  D(48,49,50,54)         61.3509         estimate D2E/DX2                !
 ! D241  D(48,49,50,59)       -179.0584         estimate D2E/DX2                !
 ! D242  D(55,49,50,45)         61.8212         estimate D2E/DX2                !
 ! D243  D(55,49,50,54)       -178.3844         estimate D2E/DX2                !
 ! D244  D(55,49,50,59)        -58.7937         estimate D2E/DX2                !
 ! D245  D(45,50,59,60)         55.2074         estimate D2E/DX2                !
 ! D246  D(45,50,59,61)        173.5938         estimate D2E/DX2                !
 ! D247  D(45,50,59,62)        -63.1751         estimate D2E/DX2                !
 ! D248  D(49,50,59,60)        176.6192         estimate D2E/DX2                !
 ! D249  D(49,50,59,61)        -64.9944         estimate D2E/DX2                !
 ! D250  D(49,50,59,62)         58.2367         estimate D2E/DX2                !
 ! D251  D(54,50,59,60)        -62.9837         estimate D2E/DX2                !
 ! D252  D(54,50,59,61)         55.4027         estimate D2E/DX2                !
 ! D253  D(54,50,59,62)        178.6337         estimate D2E/DX2                !
 ! D254  D(48,56,84,45)        -16.7628         estimate D2E/DX2                !
 ! D255  D(48,56,84,58)        -49.2633         estimate D2E/DX2                !
 ! D256  D(48,56,84,81)       -113.0045         estimate D2E/DX2                !
 ! D257  D(64,56,84,45)         47.8234         estimate D2E/DX2                !
 ! D258  D(64,56,84,58)         15.3229         estimate D2E/DX2                !
 ! D259  D(64,56,84,81)        -48.4183         estimate D2E/DX2                !
 ! D260  D(46,58,66,67)       -102.6612         estimate D2E/DX2                !
 ! D261  D(46,58,66,68)         14.965          estimate D2E/DX2                !
 ! D262  D(46,58,66,69)        136.9964         estimate D2E/DX2                !
 ! D263  D(84,58,66,67)       -171.8884         estimate D2E/DX2                !
 ! D264  D(84,58,66,68)        -54.2622         estimate D2E/DX2                !
 ! D265  D(84,58,66,69)         67.7691         estimate D2E/DX2                !
 ! D266  D(46,58,84,45)        -12.9877         estimate D2E/DX2                !
 ! D267  D(46,58,84,56)         39.1639         estimate D2E/DX2                !
 ! D268  D(46,58,84,81)        174.8328         estimate D2E/DX2                !
 ! D269  D(66,58,84,45)        102.3549         estimate D2E/DX2                !
 ! D270  D(66,58,84,56)        154.5064         estimate D2E/DX2                !
 ! D271  D(66,58,84,81)        -69.8247         estimate D2E/DX2                !
 ! D272  D(50,59,62,63)        -75.9014         estimate D2E/DX2                !
 ! D273  D(50,59,62,82)         84.0386         estimate D2E/DX2                !
 ! D274  D(60,59,62,63)        164.7491         estimate D2E/DX2                !
 ! D275  D(60,59,62,82)        -35.311          estimate D2E/DX2                !
 ! D276  D(61,59,62,63)         47.1009         estimate D2E/DX2                !
 ! D277  D(61,59,62,82)       -152.9592         estimate D2E/DX2                !
 ! D278  D(59,62,82,35)       -168.14           estimate D2E/DX2                !
 ! D279  D(59,62,82,41)        161.0327         estimate D2E/DX2                !
 ! D280  D(59,62,82,81)        -27.7392         estimate D2E/DX2                !
 ! D281  D(63,62,82,35)         -8.4657         estimate D2E/DX2                !
 ! D282  D(63,62,82,41)        -39.293          estimate D2E/DX2                !
 ! D283  D(63,62,82,81)        131.935          estimate D2E/DX2                !
 ! D284  D(58,66,69,70)        177.3323         estimate D2E/DX2                !
 ! D285  D(58,66,69,71)         62.9112         estimate D2E/DX2                !
 ! D286  D(58,66,69,72)        -58.896          estimate D2E/DX2                !
 ! D287  D(67,66,69,70)         58.3648         estimate D2E/DX2                !
 ! D288  D(67,66,69,71)        -56.0563         estimate D2E/DX2                !
 ! D289  D(67,66,69,72)       -177.8635         estimate D2E/DX2                !
 ! D290  D(68,66,69,70)        -61.9094         estimate D2E/DX2                !
 ! D291  D(68,66,69,71)       -176.3305         estimate D2E/DX2                !
 ! D292  D(68,66,69,72)         61.8623         estimate D2E/DX2                !
 ! D293  D(66,69,72,73)         58.3695         estimate D2E/DX2                !
 ! D294  D(66,69,72,74)        173.0494         estimate D2E/DX2                !
 ! D295  D(66,69,72,75)        -65.1645         estimate D2E/DX2                !
 ! D296  D(70,69,72,73)       -179.5083         estimate D2E/DX2                !
 ! D297  D(70,69,72,74)        -64.8285         estimate D2E/DX2                !
 ! D298  D(70,69,72,75)         56.9577         estimate D2E/DX2                !
 ! D299  D(71,69,72,73)        -63.3781         estimate D2E/DX2                !
 ! D300  D(71,69,72,74)         51.3017         estimate D2E/DX2                !
 ! D301  D(71,69,72,75)        173.0879         estimate D2E/DX2                !
 ! D302  D(69,72,75,76)        -57.0497         estimate D2E/DX2                !
 ! D303  D(69,72,75,77)         60.068          estimate D2E/DX2                !
 ! D304  D(69,72,75,78)       -176.8468         estimate D2E/DX2                !
 ! D305  D(73,72,75,76)       -179.2063         estimate D2E/DX2                !
 ! D306  D(73,72,75,77)        -62.0885         estimate D2E/DX2                !
 ! D307  D(73,72,75,78)         60.9967         estimate D2E/DX2                !
 ! D308  D(74,72,75,76)         64.2268         estimate D2E/DX2                !
 ! D309  D(74,72,75,77)       -178.6555         estimate D2E/DX2                !
 ! D310  D(74,72,75,78)        -55.5703         estimate D2E/DX2                !
 ! D311  D(72,75,78,79)        174.3678         estimate D2E/DX2                !
 ! D312  D(72,75,78,80)         54.1958         estimate D2E/DX2                !
 ! D313  D(72,75,78,81)        -66.0142         estimate D2E/DX2                !
 ! D314  D(76,75,78,79)         52.7678         estimate D2E/DX2                !
 ! D315  D(76,75,78,80)        -67.4042         estimate D2E/DX2                !
 ! D316  D(76,75,78,81)        172.3858         estimate D2E/DX2                !
 ! D317  D(77,75,78,79)        -61.8105         estimate D2E/DX2                !
 ! D318  D(77,75,78,80)        178.0175         estimate D2E/DX2                !
 ! D319  D(77,75,78,81)         57.8076         estimate D2E/DX2                !
 ! D320  D(75,78,81,82)       -179.4537         estimate D2E/DX2                !
 ! D321  D(75,78,81,83)         62.2164         estimate D2E/DX2                !
 ! D322  D(75,78,81,84)        -60.8081         estimate D2E/DX2                !
 ! D323  D(79,78,81,82)        -57.6187         estimate D2E/DX2                !
 ! D324  D(79,78,81,83)       -175.9487         estimate D2E/DX2                !
 ! D325  D(79,78,81,84)         61.0269         estimate D2E/DX2                !
 ! D326  D(80,78,81,82)         57.9703         estimate D2E/DX2                !
 ! D327  D(80,78,81,83)        -60.3596         estimate D2E/DX2                !
 ! D328  D(80,78,81,84)        176.616          estimate D2E/DX2                !
 ! D329  D(78,81,82,35)        155.7915         estimate D2E/DX2                !
 ! D330  D(78,81,82,41)        127.8068         estimate D2E/DX2                !
 ! D331  D(78,81,82,62)        119.9024         estimate D2E/DX2                !
 ! D332  D(83,81,82,35)        -81.0742         estimate D2E/DX2                !
 ! D333  D(83,81,82,41)       -109.0589         estimate D2E/DX2                !
 ! D334  D(83,81,82,62)       -116.9633         estimate D2E/DX2                !
 ! D335  D(84,81,82,35)         32.7728         estimate D2E/DX2                !
 ! D336  D(84,81,82,41)          4.7882         estimate D2E/DX2                !
 ! D337  D(84,81,82,62)         -3.1163         estimate D2E/DX2                !
 ! D338  D(78,81,83,14)        170.1639         estimate D2E/DX2                !
 ! D339  D(78,81,83,19)       -163.3273         estimate D2E/DX2                !
 ! D340  D(82,81,83,14)         47.2534         estimate D2E/DX2                !
 ! D341  D(82,81,83,19)         73.7622         estimate D2E/DX2                !
 ! D342  D(84,81,83,14)        -64.3543         estimate D2E/DX2                !
 ! D343  D(84,81,83,19)        -37.8455         estimate D2E/DX2                !
 ! D344  D(78,81,84,45)         70.5081         estimate D2E/DX2                !
 ! D345  D(78,81,84,56)        120.0472         estimate D2E/DX2                !
 ! D346  D(78,81,84,58)         74.5718         estimate D2E/DX2                !
 ! D347  D(82,81,84,45)       -166.4884         estimate D2E/DX2                !
 ! D348  D(82,81,84,56)       -116.9493         estimate D2E/DX2                !
 ! D349  D(82,81,84,58)       -162.4247         estimate D2E/DX2                !
 ! D350  D(83,81,84,45)        -55.1632         estimate D2E/DX2                !
 ! D351  D(83,81,84,56)         -5.624          estimate D2E/DX2                !
 ! D352  D(83,81,84,58)        -51.0995         estimate D2E/DX2                !
 --------------------------------------------------------------------------------
 Trust Radius=3.00D-01 FncErr=1.00D-07 GrdErr=1.00D-06
 Number of steps in this run=    504 maximum allowed number of steps=    504.
 GradGradGradGradGradGradGradGradGradGradGradGradGradGradGradGradGradGrad

 Leave Link  103 at Wed Apr 27 00:41:34 2016, MaxMem= 10737418240 cpu:         0.6
 (Enter /share/apps//g09/l202.exe)
 Stoichiometry    C23H44NO16(1+)
 Framework group  C1[X(C23H44NO16)]
 Deg. of freedom   246
 Full point group                 C1      NOp   1
 Largest Abelian subgroup         C1      NOp   1
 Largest concise Abelian subgroup C1      NOp   1
                         Standard orientation:                         
 ---------------------------------------------------------------------
 Center     Atomic      Atomic             Coordinates (Angstroms)
 Number     Number       Type             X           Y           Z
 ---------------------------------------------------------------------
      1          8           0       -1.496588    3.037727   -0.847846
      2          6           0       -1.715255    1.735794   -1.345945
      3          6           0       -0.573034    1.254578   -2.253539
      4          6           0        0.760810    1.353670   -1.503784
      5          6           0        0.962970    2.762958   -0.937656
      6          6           0       -0.258939    3.196562   -0.114840
      7          1           0       -2.655146    1.803333   -1.912366
      8          1           0       -0.538749    1.937841   -3.119684
      9          1           0        0.781716    0.610094   -0.693027
     10          1           0        1.832900    2.740383   -0.249158
     11          1           0       -0.291209    2.580172    0.802846
     12          8           0        1.262428    3.594226   -2.060092
     13          8           0        1.872799    1.026224   -2.359181
     14          8           0       -0.795627   -0.085769   -2.706277
     15          8           0       -1.836630    0.762116   -0.305156
     16          6           0       -0.214025    4.662228    0.306002
     17          1           0       -1.087070    4.889434    0.938281
     18          1           0        0.695079    4.851572    0.893825
     19          8           0       -0.156981    5.558779   -0.818718
     20          1           0       -1.026598    5.520901   -1.259224
     21          1           0        0.917581    4.496263   -1.858000
     22          1           0        2.050630    1.828402   -2.893410
     23          1           0       -1.718922   -0.325252   -2.460103
     24          8           0       -2.467323   -1.937981    0.795499
     25          6           0       -2.467833   -1.147730    2.008996
     26          6           0       -2.996288    0.303696    1.737988
     27          6           0       -3.152069    0.624193    0.242080
     28          6           0       -3.955662   -0.475432   -0.511759
     29          6           0       -3.753551   -1.856466    0.150563
     30          1           0       -3.170576   -1.620574    2.718519
     31          1           0       -2.279431    1.018387    2.167960
     32          1           0       -3.683396    1.585245    0.170553
     33          1           0       -5.024238   -0.214208   -0.445247
     34          1           0       -4.537487   -1.979399    0.922423
     35          8           0       -3.549535   -0.453869   -1.891347
     36          8           0       -4.302208    0.459718    2.309386
     37          8           0       -1.221731   -1.264158    2.630282
     38          6           0       -3.811807   -3.031929   -0.835438
     39          1           0       -2.871956   -3.072680   -1.404627
     40          1           0       -3.909015   -3.980215   -0.286190
     41          8           0       -4.856880   -2.871440   -1.805418
     42          1           0       -5.701556   -3.164886   -1.422602
     43          1           0       -4.153227   -1.078431   -2.346325
     44          1           0       -4.204681    0.673456    3.252534
     45          8           0        2.083653   -1.423464    1.020836
     46          6           0        2.857395   -0.620167    1.932449
     47          6           0        2.043959    0.616488    2.314242
     48          6           0        0.658180    0.243014    2.852035
     49          6           0       -0.056939   -0.759413    1.943039
     50          6           0        0.898659   -1.937073    1.642378
     51          1           0        3.101354   -1.230976    2.829442
     52          1           0        1.921172    1.207219    1.387714
     53          1           0        0.784669   -0.228737    3.845704
     54          1           0        1.153445   -2.433076    2.602236
     55          1           0       -0.349341   -0.266410    1.003630
     56          8           0       -0.151006    1.418314    2.977875
     57          8           0        2.668860    1.394597    3.332274
     58          8           0        4.002132   -0.187601    1.276985
     59          6           0        0.335663   -3.014199    0.725293
     60          1           0        1.121659   -3.759131    0.538941
     61          1           0       -0.509782   -3.513746    1.218779
     62          8           0       -0.071262   -2.509895   -0.556283
     63          1           0       -0.923958   -2.044963   -0.401270
     64          1           0        0.313170    2.002735    3.604657
     65          1           0        3.535592    1.683739    2.994033
     66          6           0        4.982418   -1.229056    1.018532
     67          1           0        5.794167   -1.128456    1.757048
     68          1           0        4.509906   -2.213329    1.157349
     69          6           0        5.527645   -1.071047   -0.396231
     70          1           0        6.301087   -1.844063   -0.542493
     71          1           0        6.045847   -0.101886   -0.463816
     72          6           0        4.474175   -1.141463   -1.512877
     73          1           0        3.732473   -0.349682   -1.329880
     74          1           0        4.967772   -0.890210   -2.466553
     75          6           0        3.782170   -2.505303   -1.650636
     76          1           0        4.536446   -3.291395   -1.819350
     77          1           0        3.262388   -2.763925   -0.715387
     78          6           0        2.790001   -2.599217   -2.808050
     79          1           0        2.407232   -3.623301   -2.912020
     80          1           0        3.259283   -2.314125   -3.760815
     81          7           0        1.599867   -1.703806   -2.614476
     82          1           0        0.924970   -1.770095   -3.386378
     83          1           0        1.854956   -0.685168   -2.571646
     84          1           0        1.047087   -1.942535   -1.745183
 ---------------------------------------------------------------------
 Rotational constants (GHZ):      0.1085899      0.0807038      0.0718403
 Leave Link  202 at Wed Apr 27 00:41:34 2016, MaxMem= 10737418240 cpu:         0.6
 (Enter /share/apps//g09/l301.exe)
 Standard basis: 6-311+G(d,p) (5D, 7F)
 Ernie: Thresh=  0.10000D-02 Tol=  0.10000D-05 Strict=F.
 There are  1184 symmetry adapted cartesian basis functions of A   symmetry.
 There are  1144 symmetry adapted basis functions of A   symmetry.
  1144 basis functions,  1792 primitive gaussians,  1184 cartesian basis functions
   158 alpha electrons      158 beta electrons
       nuclear repulsion energy      6074.1994308176 Hartrees.
 IExCor= 1009 DFT=T Ex+Corr=PBE1PBE ExCW=0 ScaHFX=  0.250000
[...]
 72,-0.00001077,-0.00001682,0.00001557,0.00001345,-0.00004323,0.0000218
 4,-0.00000072,-0.00001198,0.00019316,-0.00003970,-0.00030103,-0.000032
 21,-0.00005684,-0.00004300,-0.00010605,-0.00004508,-0.00011871,-0.0001
 0839,0.00002499,0.00007681,0.00000395,0.00001062,-0.00002294,-0.000002
 24,-0.00000547,-0.00001052,0.00007578,-0.00005457,-0.00003874,-0.00001
 579,0.00000887,0.00000872,-0.00002133,0.00003414,0.00002446,0.00000673
 ,0.00001742,0.00002467,-0.00062875,0.00009868,-0.00056483,0.00090008,0
 .00012036,0.00023325,0.00002267,0.00026130,-0.00004265,0.00013022,0.00
 005546,0.00010636,-0.00001487,0.00007485,0.00007697,0.00011844,0.00000
 404,0.00010501,-0.00008025,-0.00003604,-0.00007186,0.00000835,-0.00004
 838,-0.00001240,-0.00003102,-0.00002831,-0.00000169,-0.00002554,0.0000
 1772,-0.00004934,0.00004418,0.00005035,0.00007638,-0.00013447,-0.00015
 414,-0.00009024,-0.00009744,-0.00014541,-0.00005714,-0.00041661,-0.000
 25739,0.00018877,0.00015385,-0.00074942,0.00044847,-0.00001583,-0.0000
 0263,-0.00002513,0.00001011,0.00015913,-0.00007995,0.00083890,0.000781
 67,-0.00036651,-0.00030167,0.00008999,0.00032136,0.00004059,0.00003692
 ,-0.00002570,0.00001297,0.00007811,-0.00001819,0.00025880,0.00008519,-
 0.00001124,-0.00006408,-0.00005656,0.00005515,-0.00006290,-0.00009881,
 0.00001962,-0.00032554,-0.00045025,-0.00089484,0.00025161,-0.00032689,
 0.00015280,-0.00011193,0.00010430,-0.00006968,0.00034799,0.00053482,0.
 00148405,-0.00154462,0.00140937,-0.00174792,-0.00041455,0.00005336,0.0
 0026689,0.00092916,0.00000241,0.00067040,-0.00041982,-0.00009900,-0.00
 037771,-0.00018461,-0.00024505,-0.00011016,0.02122211,0.00756118,0.010
 76788,-0.00273479,0.00391967,0.00401726,0.00021204,-0.00013433,0.00052
 874,-0.18583482,-0.08804542,-0.10906544,-0.01367477,-0.00908667,-0.010
 35167,0.19741905,-0.00050673,-0.00012202,0.00008360,0.00051190,0.00091
 829,-0.00090082,0.00056583,-0.00031345,0.00073727,0.00688216,0.0021125
 5,-0.00585929,-0.00160594,0.00024318,0.00099374,0.00110947,0.00041317,
 0.00026524,-0.00018865,-0.00003959,0.00024307,0.00007758,-0.00031628,-
 0.00005092,-0.00068469,-0.00022046,0.00083192,0.00009561,-0.00011286,-
 0.00007332,-0.00001536,0.00007278,-0.00000072,-0.00005911,0.00041259,0
 .00093065,0.00009749,0.00072214,0.00537641,-0.00158266,-0.00143740,-0.
 00105951,-0.00099518,-0.00077101,0.00038765,-0.00040947,-0.00002567,-0
 .00001220,-0.00000194,0.00010296,0.00018364,0.00001934,-0.00000726,-0.
 00005128,-0.00006731,0.00014919,0.00041875,0.00002823,-0.00011579,-0.0
 0011249,-0.00013846,-0.00043482,-0.00029668,-0.00116419,-0.00238586,0.
 00173987,0.00054952,0.00039833,0.00036754,0.00019109,-0.00026479,-0.00
 028330,-0.00011874,0.00030694,0.00021697,-0.00000752,0.00011930,-0.000
 03647,0.00059644,-0.00001589,-0.00012211,0.00003011,0.00017969,-0.0000
 5040,-0.00006672,0.00023425,-0.00001249,0.00000849,-0.00002372,-0.0000
 3371,-0.00000619,0.00003144,-0.00002209,-0.00002301,-0.00001574,-0.000
 01294,-0.00004294,-0.00002985,-0.00000499,0.00001722,-0.00004070,-0.00
 001798,-0.00036886,-0.00022115,-0.00001534,-0.00009131,-0.00016618,0.0
 0003403,0.00025534,-0.00029824,-0.00021545,-0.00012882,0.00005544,0.00
 010581,0.00001251,0.00005538,0.00000021,-0.00003035,-0.00002398,-0.000
 01754,0.00002863,-0.00014724,-0.00009019,0.00000504,0.00000171,0.00002
 820,0.00005344,0.00008302,0.00013618,0.00000411,0.00003419,0.00001858,
 0.00010187,0.00022729,-0.00098514,0.00019662,-0.00009952,0.00081380,0.
 00008308,0.00046116,-0.00000300,0.00000442,0.00016223,0.00025144,-0.00
 018192,0.00024994,0.00013360,-0.00051932,0.00005186,0.00024143,-0.0000
 1077,0.00002866,-0.00013320,-0.00002976,-0.00004174,0.00001832,-0.0000
 2230,-0.00006675,0.00001071,0.00004823,0.00002841,-0.00010492,0.000067
 73,0.00014664,0.00004745,-0.00003475,-0.00040810,-0.00025257,-0.000011
 06,-0.00032130,-0.00022032,0.00017641,-0.00008347,-0.00068001,0.000114
 99,-0.00065406,0.00024278,-0.00004942,-0.00005637,-0.00006084,0.000041
 70,0.00014848,-0.00004381,0.00105349,0.00063585,-0.00070470,-0.0002382
 0,0.00047710,0.00041237,0.00002477,0.00007947,-0.00001041,-0.00000227,
 0.00017556,0.00011348,-0.00016767,0.00007851,0.00042955,0.00000276,0.0
 0002327,-0.00013383,-0.00000852,-0.00013394,0.00002786,-0.00013766,-0.
 00008500,0.00059932,-0.00008809,0.00019442,-0.00013221,-0.00018595,0.0
 0011769,-0.00014485,0.00051892,-0.00002343,-0.00091655,0.00145875,0.00
 046563,0.00130931,-0.00021984,0.00007340,0.00029529,-0.00052239,-0.001
 24828,0.00002862,-0.00029803,0.00047994,0.00002303,-0.00000858,-0.0003
 1686,-0.00000697,-0.00845547,-0.00955739,-0.01093049,0.00134149,-0.000
 23784,-0.00094164,-0.00031760,0.00110503,0.00102889,-0.09343845,-0.127
 58925,-0.08282647,0.01937984,0.01619511,0.01802584,0.08953837,0.129356
 17,-0.00066691,-0.00003258,-0.00013735,0.00042459,0.00089114,-0.000773
 82,0.00132166,-0.00023192,0.00198000,0.00565951,-0.00137895,-0.0082617
 6,-0.00103080,0.00039615,0.00000435,0.00115017,0.00016693,0.00014444,-
 0.00022334,-0.00001230,0.00029626,-0.00005742,-0.00015120,-0.00009578,
 -0.00005954,0.00018413,-0.00048542,0.00002918,-0.00008651,-0.00005996,
 -0.00000139,0.00009483,-0.00002465,0.00010262,0.00108432,0.00149034,0.
 00350976,0.00623090,-0.00518976,-0.00105273,-0.00108172,-0.00209215,-0
 .00108733,-0.00069606,0.00025679,-0.00038340,-0.00004255,-0.00007044,-
 0.00000835,0.00010258,0.00018263,0.00000348,-0.00000822,-0.00006693,-0
 .00008930,0.00023423,0.00049932,0.00004129,-0.00014175,-0.00010941,-0.
 00008352,-0.00050904,-0.00037795,-0.00194963,-0.00135681,0.00539027,0.
 00028432,0.00028710,-0.00004297,0.00016778,-0.00016020,-0.00052610,0.0
 0014899,0.00008872,0.00042134,0.00001673,0.00011119,-0.00006722,0.0006
 5389,0.00001359,-0.00009287,0.00000750,0.00010718,0.00006742,-0.000016
 79,0.00020206,-0.00002668,-0.00001519,-0.00000634,-0.00005432,0.000007
 68,0.00001698,-0.00003766,-0.00003269,-0.00001032,-0.00001075,-0.00003
 322,-0.00001630,-0.00002715,0.00002570,-0.00003425,-0.00001699,-0.0002
 3682,-0.00016732,-0.00018561,-0.00013611,-0.00014665,0.00003973,-0.000
 15262,-0.00022587,-0.00013881,-0.00013825,0.00003793,0.00015063,0.0000
 1062,0.00005843,-0.00001441,-0.00002570,-0.00002093,-0.00002155,0.0000
 2879,-0.00012184,-0.00012036,0.00000573,0.00000092,0.00003378,0.000041
 83,0.00006237,0.00013686,0.00001693,0.00003243,0.00001508,-0.00046990,
 -0.00049780,-0.00058300,0.00013213,0.00020773,0.00034502,0.00005371,0.
 00061613,-0.00018442,0.00013651,0.00008549,0.00011607,-0.00004572,0.00
 034621,0.00004081,0.00038235,0.00024306,0.00016730,-0.00000187,-0.0000
 8804,-0.00004589,-0.00004694,-0.00014803,-0.00003518,-0.00004302,-0.00
 006957,0.00002753,-0.00011630,-0.00004479,-0.00007463,0.00012487,0.000
 08536,0.00005791,-0.00015057,-0.00031723,-0.00012228,0.00003848,-0.000
 36001,0.00001716,0.00017456,-0.00043576,-0.00041379,0.00051497,-0.0011
 9254,0.00041158,-0.00006910,-0.00006488,-0.00002202,0.00000675,0.00032
 244,-0.00013953,0.00244010,0.00146761,-0.00310942,0.00002205,0.0007890
 5,0.00033743,0.00004488,0.00006839,-0.00005694,-0.00004193,0.00016298,
 0.00003522,-0.00024861,0.00038558,0.00045310,0.00002188,-0.00002359,-0
 .00010738,-0.00003779,-0.00013121,0.00000648,0.00013227,-0.00023648,-0
 .00034975,0.00011045,-0.00010634,0.00000534,-0.00016395,0.00010382,-0.
 00009659,0.00004812,0.00053862,0.00098603,-0.00096905,0.00075121,0.000
 04158,0.00028159,-0.00006196,-0.00020656,0.00024625,0.00023968,0.00166
 079,-0.00050073,0.00042096,-0.00040241,-0.00003474,-0.00003358,0.00003
 954,-0.00876945,-0.01153899,-0.01400370,0.00176343,-0.00063284,-0.0006
 3584,-0.00062392,0.00077217,-0.00009198,-0.10800650,-0.07704347,-0.158
 43282,-0.01304330,-0.00700868,-0.00986856,0.11042471,0.08090327,0.1707
 6055,-0.00059645,-0.00019932,-0.00016035,0.00090530,0.00102390,-0.0002
 4777,0.00038218,-0.00009510,0.00040893,0.00142108,-0.00036355,-0.00155
 696,-0.00017517,0.00016881,-0.00014378,0.00049754,0.00003317,-0.000003
 51,-0.00007486,-0.00005306,0.00009215,-0.00012106,-0.00010935,-0.00013
 198,0.00034386,-0.00000695,-0.00022233,-0.00000214,-0.00002095,-0.0000
 3553,0.00001909,0.00005394,0.00000944,-0.00013041,0.00020207,0.0004549
 6,0.00020845,0.00133514,0.00190913,-0.00199818,-0.00107062,0.00013005,
 -0.00081498,-0.00097433,0.00003500,-0.00005828,0.00009650,0.00000793,-
 0.00000902,0.00003231,0.00007366,-0.00000490,-0.00000554,-0.00002910,-
 0.00010590,-0.00006624,0.00014022,0.00003749,0.00000249,-0.00002161,0.
 00006480,-0.00011165,-0.00014983,-0.00022618,-0.00019622,0.00017549,0.
 00037285,0.00127620,0.00019801,0.00143527,-0.00040429,-0.00186742,0.00
 031528,-0.00012767,0.00143245,-0.00015361,0.00022140,0.00011671,0.0003
 1897,0.00004600,0.00004780,0.00003010,0.00030998,-0.00000201,-0.000682
 49,0.00082411,-0.00018264,0.00002568,0.00005655,-0.00022585,0.00002950
 ,-0.00003941,-0.00003524,-0.00001111,-0.00005294,-0.00003292,-0.000018
 56,-0.00009825,-0.00002084,0.00020383,-0.00013751,-0.00006271,-0.00021
 082,-0.00055959,0.00005390,0.00010446,-0.00023704,-0.00026444,-0.00039
 360,-0.00011960,-0.00044102,-0.00070286,0.00028366,0.00016682,-0.00004
 060,0.00022002,-0.00023511,-0.00002030,-0.00003589,-0.00004398,0.00055
 560,-0.00048399,0.00011490,-0.00010058,-0.00001871,-0.00004969,0.00000
 397,0.00022707,-0.00000779,-0.00002284,0.00004955,0.00012390,-0.002825
 95,-0.00059906,0.00026041,0.00141411,0.00008642,0.00006527,0.00027799,
 0.00019666,-0.00008131,0.00058571,0.00011277,0.00023733,-0.00027613,0.
 00015507,0.00034241,0.00279477,0.00139701,-0.00006281,-0.00002988,-0.0
 0015424,0.00003378,-0.00002006,-0.00008047,-0.00003432,-0.00007253,-0.
 00005194,-0.00003611,-0.00076160,-0.00000240,-0.00041239,0.00013282,0.
 00024025,0.00030417,-0.00042698,-0.00022913,-0.00033810,-0.00037701,-0
 .00004859,-0.00000794,-0.00125855,-0.00015629,0.00092496,0.00602503,-0
 .00944042,0.00115463,-0.00028677,0.00077607,0.00009036,-0.00004552,0.0
 0272044,-0.00117704,-0.00229229,0.00672017,-0.00468545,-0.00160181,0.0
 0404925,0.00159437,0.00010689,0.00001106,-0.00002814,0.00004709,0.0000
 2243,-0.00009315,0.00039355,-0.00021043,-0.00062137,-0.00001962,-0.000
 01279,0.00017483,0.00002029,0.00011325,-0.00007118,-0.00001062,0.00025
 160,-0.00018386,-0.00000156,-0.00012866,0.00006748,0.00011922,-0.00011
 347,0.00013720,-0.00044047,-0.00019446,0.00014979,-0.00012597,-0.00004
 120,-0.00042673,0.00009794,-0.00006387,-0.00002593,-0.00048013,-0.0004
 2110,-0.00079452,0.00074469,-0.00034409,-0.00000869,0.00003435,0.00082
 339,-0.00003576,-0.00863733,-0.00033843,0.00900112,0.00099297,-0.00060
 821,-0.00129508,0.00086538,0.00031436,-0.00021508,-0.16729725,-0.09063
 577,0.10006775,0.01698122,0.01152516,-0.01419838,-0.01410703,-0.012040
 86,0.01010564,0.16916066,-0.00020287,-0.00017874,0.00050458,0.00088753
 ,0.00067012,-0.00062613,-0.00124271,-0.00062451,-0.00127322,0.00029139
 ,-0.00027232,-0.00065117,-0.00005154,0.00006256,-0.00032068,0.00012308
 ,0.00020819,-0.00013058,-0.00002662,-0.00006866,0.00003859,0.00011385,
 0.00013854,0.00022346,-0.00016782,0.00036835,-0.00040718,0.00010851,-0
 .00001539,0.00008192,0.00001110,0.00003843,0.00000549,0.00007432,0.000
 13735,0.00039697,0.00047944,0.00065038,0.00065996,-0.00090617,0.002538
 89,0.00183690,-0.00073235,-0.00074497,0.00042752,-0.00004552,0.0000359
 0,-0.00003056,-0.00001355,0.00002843,0.00004707,0.00002130,0.00000589,
 -0.00000656,-0.00004112,-0.00002824,0.00015030,0.00000327,-0.00002460,
 -0.00005208,0.00001894,-0.00007942,-0.00013932,-0.00015603,-0.00012730
 ,0.00016024,0.00113847,0.00025034,-0.00018180,0.00117016,-0.00051053,-
 0.00121895,-0.00001289,0.00022203,0.00074873,-0.00009043,0.00021009,0.
 00004681,0.00043771,0.00005617,-0.00010149,0.00010612,0.00038101,-0.00
 026980,-0.00054644,0.00069265,-0.00016612,0.00003705,0.00001279,-0.000
 14012,-0.00000357,-0.00001234,-0.00001557,-0.00004145,-0.00003703,-0.0
 0000729,-0.00006156,-0.00010312,0.00002795,0.00014569,-0.00012699,-0.0
 0002023,-0.00052655,-0.00039735,0.00040191,0.00004832,-0.00023075,-0.0
 0011227,0.00018242,-0.00031018,-0.00037482,-0.00032200,0.00017927,0.00
 001564,0.00000357,0.00018228,-0.00012328,-0.00006363,-0.00003560,-0.00
 001191,0.00026029,-0.00034197,0.00007977,-0.00003975,-0.00001517,-0.00
 002104,0.00009486,0.00013110,0.00002516,-0.00002056,0.00004011,0.00007
 147,-0.00176631,0.00002161,-0.00126270,0.00196772,0.00007285,0.0005841
 9,0.00008572,0.00034585,0.00004165,0.00026538,0.00013786,0.00031957,-0
 .00036547,0.00028566,0.00028735,0.00042676,0.00015832,0.00072143,-0.00
 013494,0.00000119,-0.00018163,-0.00003133,-0.00005878,-0.00002370,-0.0
 0003941,-0.00004969,-0.00000691,-0.00020523,0.00008786,-0.00029543,0.0
 0008709,0.00024712,0.00013004,-0.00016908,-0.00031775,-0.00037647,-0.0
 0025686,-0.00017312,-0.00028024,-0.00096532,-0.00010341,0.00044249,-0.
 00066405,-0.00561065,0.00224682,-0.00026209,0.00004073,-0.00017735,0.0
 0019865,0.00083767,-0.00046226,0.00539809,-0.00812064,-0.00444809,0.00
 194264,0.00584730,0.00042715,0.00004653,0.00002395,0.00000399,0.000058
 89,0.00007308,0.00001569,0.00040607,-0.00015248,-0.00031919,-0.0000619
 3,-0.00000608,0.00006432,-0.00001370,-0.00002666,-0.00003676,0.0000154
 7,0.00009564,-0.00003443,-0.00000011,-0.00005762,0.00003828,0.00002930
 ,-0.00005704,0.00005245,-0.00011622,-0.00035471,0.00051663,-0.00011956
 ,0.00012056,-0.00018208,-0.00033043,-0.00010570,-0.00006297,0.00034443
 ,0.00216171,-0.00145602,-0.00023656,-0.00031303,0.00033198,-0.00007633
 ,-0.00113208,0.00068317,0.01545520,0.01928724,-0.01268133,-0.00024792,
 0.00023603,-0.00026091,0.00302828,-0.00397713,-0.00431526,-0.08510427,
 -0.13683995,0.07984253,-0.01652040,-0.01418906,0.01382447,-0.00803642,
 -0.00913511,0.00776155,0.08552544,0.14774277,0.00029391,0.00018764,0.0
 0003991,-0.00054741,-0.00073819,0.00011659,0.00043304,-0.00035830,-0.0
 0025788,-0.00193478,-0.00137873,0.00161552,0.00017438,-0.00007253,-0.0
 0045885,-0.00023877,-0.00013027,-0.00004237,0.00003262,0.00005981,-0.0
 0002346,-0.00005909,0.00015040,0.00000233,-0.00009966,0.00018542,-0.00
 083364,-0.00001550,0.00002827,0.00003450,0.00000771,-0.00002328,-0.000
 03477,0.00025354,0.00024449,-0.00009019,0.00006456,-0.00101128,-0.0036
 1611,0.00021230,0.00073222,-0.00103484,0.00023242,0.00067105,0.0000168
 9,0.00001200,-0.00009909,-0.00004393,0.00000437,-0.00001431,-0.0000354
 6,-0.00000766,0.00000096,0.00000833,0.00007141,0.00012162,-0.00003746,
 -0.00001750,-0.00002842,0.00000031,0.00001313,0.00005586,0.00001476,0.
 00013838,0.00010878,-0.00009426,-0.00005200,-0.00053145,0.00015848,-0.
 00095198,0.00035298,0.00086547,0.00015896,-0.00019346,-0.00060229,0.00
 013423,-0.00012925,-0.00013185,0.00002271,0.00000331,-0.00002440,-0.00
 004375,-0.00020605,0.00009837,0.00057250,-0.00056342,0.00012572,-0.000
 05438,-0.00001668,0.00011578,-0.00000911,0.00001120,-0.00000436,-0.000
 02794,0.00003810,0.00002128,0.00001115,0.00006620,-0.00000483,-0.00013
 430,0.00008868,0.00001773,0.00008877,0.00033788,-0.00022738,-0.0001429
 7,0.00015387,0.00018757,-0.00030800,0.00014359,0.00042823,0.00030677,-
 0.00015619,0.00004000,0.00001719,-0.00012263,0.00017302,0.00002412,0.0
 0001470,0.00001378,-0.00032301,0.00026809,-0.00017309,0.00006034,0.000
 01271,0.00005063,-0.00001272,-0.00010604,0.00008695,0.00002816,-0.0000
 2946,-0.00008352,0.00184897,-0.00063618,0.00115270,-0.00234443,-0.0001
 0962,-0.00059193,-0.00014293,-0.00008138,-0.00014754,-0.00028369,-0.00
 017660,-0.00034783,0.00035057,0.00015198,-0.00041612,-0.00008022,0.000
 25513,-0.00066643,0.00020351,-0.00004987,0.00022833,-0.00001202,-0.000
 01248,0.00001342,0.00004999,0.00001468,0.00004524,0.00017838,-0.000169
 80,0.00030686,-0.00001293,-0.00030107,-0.00029839,0.00016994,0.0002244
 6,0.00035629,0.00036335,0.00002035,0.00030744,0.00129217,-0.00003982,-
 0.00080239,-0.00250098,0.00598325,-0.00183942,0.00018417,-0.00072969,0
 .00015577,-0.00008127,-0.00168424,0.00067902,-0.00483962,-0.00486877,-
 0.00092342,0.00165550,-0.00181373,-0.00190762,-0.00005317,-0.00001000,
 -0.00002640,-0.00009040,-0.00002258,0.00001902,-0.00050387,0.00037569,
 0.00065104,0.00006093,-0.00001748,-0.00013634,-0.00001542,-0.00005364,
 0.00005018,0.00001407,-0.00024351,0.00004548,0.00004131,0.00006604,-0.
 00005317,-0.00009376,0.00010240,-0.00011026,0.00011255,0.00047089,-0.0
 0010437,0.00006490,-0.00016289,0.00021504,0.00011245,-0.00003204,-0.00
 014923,-0.00082508,-0.00013101,0.00205406,-0.00056018,0.00045989,-0.00
 031955,0.00025166,-0.00018139,0.00043107,0.01357707,0.00623055,-0.0142
 5514,-0.00053297,0.00079720,-0.00010795,0.00035657,-0.00200851,-0.0007
 1521,0.09461748,0.08015501,-0.15144937,0.01008545,0.01059177,-0.009755
 61,-0.01161098,-0.00947152,0.02149282,-0.09939522,-0.08102030,0.160542
 74\\-0.00000389,-0.00000037,0.00000119,0.00000842,0.00000953,0.0000082
 3,-0.00001039,-0.00000069,-0.00000735,0.00001552,-0.00000491,-0.000008
 87,0.00000205,-0.00000180,0.00000207,-0.00000806,-0.00000468,-0.000006
 57,-0.00000040,0.00000142,-0.00000200,0.00000278,0.00000224,0.00000269
 ,-0.00000064,-0.00000236,0.00000205,0.00000167,-0.00000323,0.00000436,
 0.00000128,-0.00000085,0.00000143,-0.00000310,0.00000407,-0.00000993,-
 0.00000627,0.00000530,-0.00000286,0.00000942,0.00000483,0.00000472,-0.
 00000557,-0.00000826,-0.00000111,0.00001017,0.00001695,-0.00000249,-0.
 00000061,-0.00000269,0.00000197,0.00000178,-0.00000492,0.00000109,0.00
 000217,-0.00001495,0.00000497,-0.00000021,0.00000409,0.00000090,0.0000
 0472,-0.00000179,0.00000565,0.00000360,0.00000092,0.00000681,-0.000005
 23,-0.00000059,0.00000179,-0.00000493,0.00000520,-0.00000087,0.0000062
 1,-0.00000817,0.00000904,-0.00000337,0.00000996,0.00000452,0.00001647,
 0.00000167,0.00000263,-0.00000293,0.00001641,-0.00000918,0.00000567,-0
 .00001685,0.00000288,-0.00000286,0.00000197,0.00000293,0.00000187,-0.0
 0000349,0.00000064,-0.00000119,0.00000225,0.00000103,0.00000025,0.0000
 0115,0.00000119,-0.00000109,0.00000194,0.00000055,0.00000230,-0.000006
 78,0.00000943,-0.00000030,0.00000120,-0.00000714,-0.00000233,0.0000063
 8,-0.00001432,-0.00000128,0.00001761,-0.00000345,0.00000327,-0.0000000
 6,0.00000086,0.00000044,-0.00000188,-0.00000105,0.00000262,-0.00000243
 ,0.00000040,-0.00000424,0.00000289,0.00000390,-0.00000027,0.00000322,-
 0.00000167,0.00000167,-0.00000010,0.00000490,-0.00002052,0.00000584,-0
 .00000621,0.00001103,-0.00000874,-0.00000267,0.00000912,0.00000459,0.0
 0000957,-0.00000955,0.00001892,0.00001327,-0.00001602,0.00000392,0.000
 01234,0.00002421,-0.00001150,-0.00000516,-0.00000387,-0.00000218,0.000
 00209,0.00000349,-0.00000088,-0.00000420,0.00000061,-0.00000564,-0.000
 00141,-0.00000045,-0.00000073,0.00000181,0.00000183,0.00000098,-0.0000
 0309,-0.00000537,-0.00001029,-0.00000874,-0.00000814,-0.00001399,-0.00
 000803,-0.00000386,-0.00000816,-0.00000357,-0.00000442,0.00001019,-0.0
 0000771,-0.00000362,0.00000023,-0.00000308,-0.00000251,-0.00000176,0.0
 0000095,0.00000695,0.00000498,0.00000448,-0.00000919,0.00000084,-0.000
 00028,0.00000488,-0.00000194,0.00000138,0.00000270,0.00000716,0.000003
 05,-0.00000863,0.00000929,0.00001229,-0.00000021,-0.00000542,-0.000000
 86,-0.00000153,-0.00000438,-0.00000316,0.00000199,-0.00000077,-0.00000
 746,-0.00000160,-0.00000267,0.00000014,-0.00000041,-0.00000062,0.00000
 013,0.00000044,-0.00000285,0.00000065,-0.00000142,0.00000102,0.0000017
 2,-0.00000068,-0.00000028,-0.00000190,-0.00000248,-0.00000070,-0.00000
 067,-0.00000100,-0.00000082,-0.00000191,-0.00000171,-0.00000023,-0.000
 00031,0.00000379,-0.00000450,-0.00000305,-0.00000231,-0.00000013,-0.00
 000135,-0.00000055,0.00000120,0.00000018,-0.00002581,0.00001356,-0.000
 00841,0.00000550,-0.00000603,-0.00001460,0.00000330,-0.00001233,-0.000
 00504,0.00002086,-0.00000451,0.00002284\\\@


 EVERYTHING'S GOT A MORAL, IF ONLY YOU CAN FIND IT.

                                    -- LEWIS CARROL, ALICE IN WONDERLAND
 Job cpu time:      19 days  2 hours 10 minutes 48.9 seconds.
 File lengths (MBytes):  RWF=  17287 Int=      0 D2E=      0 Chk=     99 Scr=      1
 Normal termination of Gaussian 09 at Fri Apr 29 04:13:26 2016.
