 Entering Gaussian System, Link 0=g09
 Initial command:
 /share/apps//g09/l1.exe "/scratch/Gau-21639.inp" -scrdir="/scratch/"
 Entering Link 1 = /share/apps//g09/l1.exe PID=     21640.
  
 Copyright (c) 1988,1990,1992,1993,1995,1998,2003,2009,2013,
            Gaussian, Inc.  All Rights Reserved.
  
 This is part of the Gaussian(R) 09 program.  It is based on
 the Gaussian(R) 03 system (copyright 2003, Gaussian, Inc.),
 the Gaussian(R) 98 system (copyright 1998, Gaussian, Inc.),
 the Gaussian(R) 94 system (copyright 1995, Gaussian, Inc.),
 the Gaussian 92(TM) system (copyright 1992, Gaussian, Inc.),
 the Gaussian 90(TM) system (copyright 1990, Gaussian, Inc.),
 the Gaussian 88(TM) system (copyright 1988, Gaussian, Inc.),
 the Gaussian 86(TM) system (copyright 1986, Carnegie Mellon
 University), and the Gaussian 82(TM) system (copyright 1983,
 Carnegie Mellon University). Gaussian is a federally registered
 trademark of Gaussian, Inc.
  
 This software contains proprietary and confidential information,
 including trade secrets, belonging to Gaussian, Inc.
  
 This software is provided under written license and may be
 used, copied, transmitted, or stored only in accord with that
 written license.
  
 The following legend is applicable only to US Government
 contracts under FAR:
  
                    RESTRICTED RIGHTS LEGEND
  
 Use, reproduction and disclosure by the US Government is
 subject to restrictions as set forth in subparagraphs (a)
 and (c) of the Commercial Computer Software - Restricted
 Rights clause in FAR 52.227-19.
  
 Gaussian, Inc.
 340 Quinnipiac St., Bldg. 40, Wallingford CT 06492
  
  
 ---------------------------------------------------------------
 Warning -- This program may not be used in any manner that
 competes with the business of Gaussian, Inc. or will provide
 assistance to any competitor of Gaussian, Inc.  The licensee
 of this program is prohibited from giving any competitor of
 Gaussian, Inc. access to this program.  By using this program,
 the user acknowledges that Gaussian, Inc. is engaged in the
 business of creating and licensing software in the field of
 computational chemistry and represents and warrants to the
 licensee that it is not a competitor of Gaussian, Inc. and that
 it will not use this program in any manner prohibited above.
 ---------------------------------------------------------------
  

 Cite this work as:
 Gaussian 09, Revision D.01,
 M. J. Frisch, G. W. Trucks, H. B. Schlegel, G. E. Scuseria, 
 M. A. Robb, J. R. Cheeseman, G. Scalmani, V. Barone, B. Mennucci, 
 G. A. Petersson, H. Nakatsuji, M. Caricato, X. Li, H. P. Hratchian, 
 A. F. Izmaylov, J. Bloino, G. Zheng, J. L. Sonnenberg, M. Hada, 
 M. Ehara, K. Toyota, R. Fukuda, J. Hasegawa, M. Ishida, T. Nakajima, 
 Y. Honda, O. Kitao, H. Nakai, T. Vreven, J. A. Montgomery, Jr., 
 J. E. Peralta, F. Ogliaro, M. Bearpark, J. J. Heyd, E. Brothers, 
 K. N. Kudin, V. N. Staroverov, T. Keith, R. Kobayashi, J. Normand, 
 K. Raghavachari, A. Rendell, J. C. Burant, S. S. Iyengar, J. Tomasi, 
 M. Cossi, N. Rega, J. M. Millam, M. Klene, J. E. Knox, J. B. Cross, 
 V. Bakken, C. Adamo, J. Jaramillo, R. Gomperts, R. E. Stratmann, 
 O. Yazyev, A. J. Austin, R. Cammi, C. Pomelli, J. W. Ochterski, 
 R. L. Martin, K. Morokuma, V. G. Zakrzewski, G. A. Voth, 
 P. Salvador, J. J. Dannenberg, S. Dapprich, A. D. Daniels, 
 O. Farkas, J. B. Foresman, J. V. Ortiz, J. Cioslowski, 
 and D. J. Fox, Gaussian, Inc., Wallingford CT, 2013.
 
 ******************************************
 Gaussian 09:  EM64L-G09RevD.01 24-Apr-2013
                30-Apr-2016 
 ******************************************
 %nproc=20
 Will use up to   20 processors via shared memory.
 %mem=80GB
 %chk=Tri_A131_of.chk
 ----------------------------------------------------------------------
 #P PBE1PBE/6-311+G(d,p) opt=ModRedundant freq optcyc=999 EmpiricalDisp
 ersion=GD3
 ----------------------------------------------------------------------
 1/6=999,14=-1,18=120,19=15,26=3,38=1/1,3;
 2/9=110,12=2,17=6,18=5,40=1/2;
 3/5=4,6=6,7=111,11=2,16=1,25=1,30=1,71=1,74=-13,124=31/1,2,3;
 4//1;
 5/5=2,38=5/2;
 6/7=2,8=2,9=2,10=2,28=1/1;
 7//1,2,3,16;
 1/6=999,14=-1,18=20,19=15,26=3/3(2);
 2/9=110/2;
 99//99;
 2/9=110/2;
 3/5=4,6=6,7=111,11=2,16=1,25=1,30=1,71=1,74=-13,124=31/1,2,3;
 4/5=5,16=3,69=1/1;
 5/5=2,38=5/2;
 7//1,2,3,16;
 1/6=999,14=-1,18=20,19=15,26=3/3(-5);
 2/9=110/2;
 6/7=2,8=2,9=2,10=2,19=2,28=1/1;
 99/9=1/99;
 Leave Link    1 at Sat Apr 30 05:09:49 2016, MaxMem= 10737418240 cpu:         2.0
 (Enter /share/apps//g09/l101.exe)
 -----
 trich
 -----
 Symbolic Z-matrix:
 Charge =  1 Multiplicity = 1
 O                     1.53637  -6.42662   9.43641 
 C                     0.15105  -6.2713    9.63615 
 C                    -0.1057   -5.4223    10.88237 
 C                     0.57991  -4.05636   10.78162 
 C                     2.07772  -4.26153   10.53347 
 C                     2.26491  -5.17481   9.30778 
 H                    -0.23219  -7.29742   9.77101 
 H                     0.32838  -5.97433   11.73115 
 H                     0.1439   -3.48131   9.9487 
 H                     2.53811  -3.28201   10.29129 
 H                     1.88055  -4.62998   8.42547 
 O                     2.60072  -4.76881   11.75919 
 O                     0.31876  -3.31407   11.97372 
 O                    -1.52402  -5.25106   11.11422 
 O                    -0.50325  -5.62651   8.53933 
 C                     3.71234  -5.52655   9.00543 
 H                     3.73423  -6.23774   8.16297 
 H                     4.23206  -4.60189   8.69971 
 O                     4.32822  -6.10162   10.1714 
 H                     5.26722  -6.26694   9.98584 
 H                     3.41514  -5.27369   11.54251 
 H                     1.00676  -3.5907    12.61504 
 H                    -1.56415  -4.64144   11.88076 
 O                    -1.4536   -6.90876   4.66332 
 C                    -0.42203  -5.93587   4.79 
 C                    -0.43554  -5.26304   6.18395 
 C                    -0.40618  -6.32059   7.28258 
 C                    -1.56646  -7.30806   7.09748 
 C                    -1.52093  -7.91302   5.68141 
 H                     0.57498  -6.38181   4.61303 
 H                    -1.38492  -4.7079    6.29153 
 H                     0.55346  -6.86595   7.24275 
 H                    -1.45858  -8.1392    7.81963 
 H                    -0.63703  -8.58099   5.62354 
 O                    -2.81179  -6.63095   7.34201 
 O                     0.67066  -4.38926   6.33039 
 O                    -0.58794  -5.02239   3.726 
 C                    -2.77371  -8.73328   5.34879 
 H                    -2.68386  -9.13117   4.32624 
 H                    -2.85683  -9.58326   6.04164 
 O                    -3.97399  -7.95687   5.48375 
 H                    -4.04323  -7.333     4.70254 
 H                    -3.48229  -7.0482    6.70633 
 H                     0.4319   -3.59661   5.80185 
 O                    -3.59185  -3.50881   2.20766 
 C                    -4.02631  -2.74144   3.29322 
 C                    -2.86482  -2.07628   4.08469 
 C                    -1.54808  -2.76825   3.7423 
 C                    -1.81682  -4.28283   3.74316 
 C                    -2.63647  -4.58089   2.4712 
 H                    -4.65582  -1.94758   2.85945 
 H                    -3.04773  -2.23512   5.16756 
 H                    -1.23271  -2.45426   2.73427 
 H                    -1.93738  -4.55085   1.61761 
 H                    -2.41184  -4.56311   4.62624 
 O                    -0.54277  -2.34866   4.69715 
 O                    -2.87296  -0.6915    3.77054 
 O                    -4.81805  -3.57716   4.164 
 C                    -3.34275  -5.93321   2.41528 
 H                    -3.87557  -5.98835   1.4513 
 H                    -2.58667  -6.72836   2.44694 
 O                    -4.25563  -6.17599   3.49161 
 H                    -4.72907  -5.33273   3.6828 
 H                     0.25044  -2.11173   4.18626 
 H                    -2.13091  -0.27419   4.24456 
 C                    -5.83235  -2.8863    4.92071 
 H                    -5.38169  -2.03428   5.46168 
 H                    -6.5887   -2.47866   4.22782 
 C                    -6.46575  -3.88805   5.87683 
 H                    -6.86803  -4.72238   5.28115 
 H                    -7.33697  -3.40487   6.34852 
 C                    -5.52468  -4.44749   6.95768 
 H                    -6.00385  -5.33166   7.40882 
 H                    -4.60398  -4.81071   6.47325 
 C                    -5.19274  -3.44343   8.0721 
 H                    -4.62197  -2.58449   7.67614 
 H                    -6.12981  -3.01606   8.46492 
 C                    -4.44807  -4.02611   9.27177 
 H                    -4.97049  -4.90436   9.67671 
 H                    -4.37119  -3.28141   10.07573 
 N                    -3.0569   -4.47262   8.94327 
 H                    -3.0185   -5.32009   8.299 
 H                    -2.49864  -4.74658   9.80112 
 H                    -2.52167  -3.72578   8.48497 
 
 The following ModRedundant input section has been read:
 B      45      84 B                                                           
 B      58      84 B                                                           
 B      56      84 B                                                           
 B      41      82 B                                                           
 B      62      82 B                                                           
 B      35      82 B                                                           
 B      13      83 B                                                           
 B      19      83 B                                                           
 B      14      83 B                                                           
 
 NAtoms=     84 NQM=       84 NQMF=       0 NMMI=      0 NMMIF=      0
                NMic=       0 NMicF=      0.
                    Isotopes and Nuclear Properties:
 (Nuclear quadrupole moments (NQMom) in fm**2, nuclear magnetic moments (NMagM)
  in nuclear magnetons)

  Atom         1           2           3           4           5           6           7           8           9          10
 IAtWgt=          16          12          12          12          12          12           1           1           1           1
 AtmWgt=  15.9949146  12.0000000  12.0000000  12.0000000  12.0000000  12.0000000   1.0078250   1.0078250   1.0078250   1.0078250
 NucSpn=           0           0           0           0           0           0           1           1           1           1
 AtZEff=   0.0000000   0.0000000   0.0000000   0.0000000   0.0000000   0.0000000   0.0000000   0.0000000   0.0000000   0.0000000
 NQMom=    0.0000000   0.0000000   0.0000000   0.0000000   0.0000000   0.0000000   0.0000000   0.0000000   0.0000000   0.0000000
 NMagM=    0.0000000   0.0000000   0.0000000   0.0000000   0.0000000   0.0000000   2.7928460   2.7928460   2.7928460   2.7928460
 AtZNuc=   8.0000000   6.0000000   6.0000000   6.0000000   6.0000000   6.0000000   1.0000000   1.0000000   1.0000000   1.0000000

  Atom        11          12          13          14          15          16          17          18          19          20
 IAtWgt=           1          16          16          16          16          12           1           1          16           1
 AtmWgt=   1.0078250  15.9949146  15.9949146  15.9949146  15.9949146  12.0000000   1.0078250   1.0078250  15.9949146   1.0078250
 NucSpn=           1           0           0           0           0           0           1           1           0           1
 AtZEff=   0.0000000   0.0000000   0.0000000   0.0000000   0.0000000   0.0000000   0.0000000   0.0000000   0.0000000   0.0000000
 NQMom=    0.0000000   0.0000000   0.0000000   0.0000000   0.0000000   0.0000000   0.0000000   0.0000000   0.0000000   0.0000000
 NMagM=    2.7928460   0.0000000   0.0000000   0.0000000   0.0000000   0.0000000   2.7928460   2.7928460   0.0000000   2.7928460
 AtZNuc=   1.0000000   8.0000000   8.0000000   8.0000000   8.0000000   6.0000000   1.0000000   1.0000000   8.0000000   1.0000000

  Atom        21          22          23          24          25          26          27          28          29          30
 IAtWgt=           1           1           1          16          12          12          12          12          12           1
 AtmWgt=   1.0078250   1.0078250   1.0078250  15.9949146  12.0000000  12.0000000  12.0000000  12.0000000  12.0000000   1.0078250
 NucSpn=           1           1           1           0           0           0           0           0           0           1
 AtZEff=   0.0000000   0.0000000   0.0000000   0.0000000   0.0000000   0.0000000   0.0000000   0.0000000   0.0000000   0.0000000
 NQMom=    0.0000000   0.0000000   0.0000000   0.0000000   0.0000000   0.0000000   0.0000000   0.0000000   0.0000000   0.0000000
 NMagM=    2.7928460   2.7928460   2.7928460   0.0000000   0.0000000   0.0000000   0.0000000   0.0000000   0.0000000   2.7928460
 AtZNuc=   1.0000000   1.0000000   1.0000000   8.0000000   6.0000000   6.0000000   6.0000000   6.0000000   6.0000000   1.0000000

  Atom        31          32          33          34          35          36          37          38          39          40
 IAtWgt=           1           1           1           1          16          16          16          12           1           1
 AtmWgt=   1.0078250   1.0078250   1.0078250   1.0078250  15.9949146  15.9949146  15.9949146  12.0000000   1.0078250   1.0078250
 NucSpn=           1           1           1           1           0           0           0           0           1           1
 AtZEff=   0.0000000   0.0000000   0.0000000   0.0000000   0.0000000   0.0000000   0.0000000   0.0000000   0.0000000   0.0000000
 NQMom=    0.0000000   0.0000000   0.0000000   0.0000000   0.0000000   0.0000000   0.0000000   0.0000000   0.0000000   0.0000000
 NMagM=    2.7928460   2.7928460   2.7928460   2.7928460   0.0000000   0.0000000   0.0000000   0.0000000   2.7928460   2.7928460
 AtZNuc=   1.0000000   1.0000000   1.0000000   1.0000000   8.0000000   8.0000000   8.0000000   6.0000000   1.0000000   1.0000000

  Atom        41          42          43          44          45          46          47          48          49          50
 IAtWgt=          16           1           1           1          16          12          12          12          12          12
 AtmWgt=  15.9949146   1.0078250   1.0078250   1.0078250  15.9949146  12.0000000  12.0000000  12.0000000  12.0000000  12.0000000
 NucSpn=           0           1           1           1           0           0           0           0           0           0
 AtZEff=   0.0000000   0.0000000   0.0000000   0.0000000   0.0000000   0.0000000   0.0000000   0.0000000   0.0000000   0.0000000
 NQMom=    0.0000000   0.0000000   0.0000000   0.0000000   0.0000000   0.0000000   0.0000000   0.0000000   0.0000000   0.0000000
 NMagM=    0.0000000   2.7928460   2.7928460   2.7928460   0.0000000   0.0000000   0.0000000   0.0000000   0.0000000   0.0000000
 AtZNuc=   8.0000000   1.0000000   1.0000000   1.0000000   8.0000000   6.0000000   6.0000000   6.0000000   6.0000000   6.0000000

  Atom        51          52          53          54          55          56          57          58          59          60
 IAtWgt=           1           1           1           1           1          16          16          16          12           1
 AtmWgt=   1.0078250   1.0078250   1.0078250   1.0078250   1.0078250  15.9949146  15.9949146  15.9949146  12.0000000   1.0078250
 NucSpn=           1           1           1           1           1           0           0           0           0           1
 AtZEff=   0.0000000   0.0000000   0.0000000   0.0000000   0.0000000   0.0000000   0.0000000   0.0000000   0.0000000   0.0000000
 NQMom=    0.0000000   0.0000000   0.0000000   0.0000000   0.0000000   0.0000000   0.0000000   0.0000000   0.0000000   0.0000000
 NMagM=    2.7928460   2.7928460   2.7928460   2.7928460   2.7928460   0.0000000   0.0000000   0.0000000   0.0000000   2.7928460
 AtZNuc=   1.0000000   1.0000000   1.0000000   1.0000000   1.0000000   8.0000000   8.0000000   8.0000000   6.0000000   1.0000000

  Atom        61          62          63          64          65          66          67          68          69          70
 IAtWgt=           1          16           1           1           1          12           1           1          12           1
 AtmWgt=   1.0078250  15.9949146   1.0078250   1.0078250   1.0078250  12.0000000   1.0078250   1.0078250  12.0000000   1.0078250
 NucSpn=           1           0           1           1           1           0           1           1           0           1
 AtZEff=   0.0000000   0.0000000   0.0000000   0.0000000   0.0000000   0.0000000   0.0000000   0.0000000   0.0000000   0.0000000
 NQMom=    0.0000000   0.0000000   0.0000000   0.0000000   0.0000000   0.0000000   0.0000000   0.0000000   0.0000000   0.0000000
 NMagM=    2.7928460   0.0000000   2.7928460   2.7928460   2.7928460   0.0000000   2.7928460   2.7928460   0.0000000   2.7928460
 AtZNuc=   1.0000000   8.0000000   1.0000000   1.0000000   1.0000000   6.0000000   1.0000000   1.0000000   6.0000000   1.0000000

  Atom        71          72          73          74          75          76          77          78          79          80
 IAtWgt=           1          12           1           1          12           1           1          12           1           1
 AtmWgt=   1.0078250  12.0000000   1.0078250   1.0078250  12.0000000   1.0078250   1.0078250  12.0000000   1.0078250   1.0078250
 NucSpn=           1           0           1           1           0           1           1           0           1           1
 AtZEff=   0.0000000   0.0000000   0.0000000   0.0000000   0.0000000   0.0000000   0.0000000   0.0000000   0.0000000   0.0000000
 NQMom=    0.0000000   0.0000000   0.0000000   0.0000000   0.0000000   0.0000000   0.0000000   0.0000000   0.0000000   0.0000000
 NMagM=    2.7928460   0.0000000   2.7928460   2.7928460   0.0000000   2.7928460   2.7928460   0.0000000   2.7928460   2.7928460
 AtZNuc=   1.0000000   6.0000000   1.0000000   1.0000000   6.0000000   1.0000000   1.0000000   6.0000000   1.0000000   1.0000000

  Atom        81          82          83          84
 IAtWgt=          14           1           1           1
 AtmWgt=  14.0030740   1.0078250   1.0078250   1.0078250
 NucSpn=           2           1           1           1
 AtZEff=   0.0000000   0.0000000   0.0000000   0.0000000
 NQMom=    2.0440000   0.0000000   0.0000000   0.0000000
 NMagM=    0.4037610   2.7928460   2.7928460   2.7928460
 AtZNuc=   7.0000000   1.0000000   1.0000000   1.0000000
 Leave Link  101 at Sat Apr 30 05:09:50 2016, MaxMem= 10737418240 cpu:         5.2
 (Enter /share/apps//g09/l103.exe)

 GradGradGradGradGradGradGradGradGradGradGradGradGradGradGradGradGradGrad
 Berny optimization.
 Initialization pass.
                           ----------------------------
                           !    Initial Parameters    !
                           ! (Angstroms and Degrees)  !
 --------------------------                            --------------------------
 ! Name  Definition              Value          Derivative Info.                !
 --------------------------------------------------------------------------------
 ! R1    R(1,2)                  1.4082         estimate D2E/DX2                !
 ! R2    R(1,6)                  1.4541         estimate D2E/DX2                !
 ! R3    R(2,3)                  1.5296         estimate D2E/DX2                !
 ! R4    R(2,7)                  1.1036         estimate D2E/DX2                !
 ! R5    R(2,15)                 1.4307         estimate D2E/DX2                !
 ! R6    R(3,4)                  1.5317         estimate D2E/DX2                !
 ! R7    R(3,8)                  1.1016         estimate D2E/DX2                !
 ! R8    R(3,14)                 1.4473         estimate D2E/DX2                !
 ! R9    R(4,5)                  1.532          estimate D2E/DX2                !
 ! R10   R(4,9)                  1.1021         estimate D2E/DX2                !
 ! R11   R(4,13)                 1.4284         estimate D2E/DX2                !
 ! R12   R(5,6)                  1.5399         estimate D2E/DX2                !
 ! R13   R(5,10)                 1.1091         estimate D2E/DX2                !
 ! R14   R(5,12)                 1.4259         estimate D2E/DX2                !
 ! R15   R(6,11)                 1.1059         estimate D2E/DX2                !
 ! R16   R(6,16)                 1.5199         estimate D2E/DX2                !
 ! R17   R(12,21)                0.9824         estimate D2E/DX2                !
 ! R18   R(13,22)                0.9804         estimate D2E/DX2                !
 ! R19   R(13,83)                3.8354         estimate D2E/DX2                !
 ! R20   R(14,23)                0.9802         estimate D2E/DX2                !
 ! R21   R(14,83)                1.7113         estimate D2E/DX2                !
 ! R22   R(15,27)                1.439          estimate D2E/DX2                !
 ! R23   R(16,17)                1.1027         estimate D2E/DX2                !
 ! R24   R(16,18)                1.1039         estimate D2E/DX2                !
 ! R25   R(16,19)                1.4386         estimate D2E/DX2                !
 ! R26   R(19,20)                0.9713         estimate D2E/DX2                !
 ! R27   R(19,83)                6.9699         estimate D2E/DX2                !
 ! R28   R(24,25)                1.4236         estimate D2E/DX2                !
 ! R29   R(24,29)                1.4316         estimate D2E/DX2                !
 ! R30   R(25,26)                1.5479         estimate D2E/DX2                !
 ! R31   R(25,30)                1.1064         estimate D2E/DX2                !
 ! R32   R(25,37)                1.4121         estimate D2E/DX2                !
 ! R33   R(26,27)                1.5252         estimate D2E/DX2                !
 ! R34   R(26,31)                1.105          estimate D2E/DX2                !
 ! R35   R(26,36)                1.4173         estimate D2E/DX2                !
 ! R36   R(27,28)                1.5348         estimate D2E/DX2                !
 ! R37   R(27,32)                1.1045         estimate D2E/DX2                !
 ! R38   R(28,29)                1.5406         estimate D2E/DX2                !
 ! R39   R(28,33)                1.1063         estimate D2E/DX2                !
 ! R40   R(28,35)                1.4384         estimate D2E/DX2                !
 ! R41   R(29,34)                1.1094         estimate D2E/DX2                !
 ! R42   R(29,38)                1.5339         estimate D2E/DX2                !
 ! R43   R(35,43)                1.0138         estimate D2E/DX2                !
 ! R44   R(35,82)                1.6361         estimate D2E/DX2                !
 ! R45   R(36,44)                0.9822         estimate D2E/DX2                !
 ! R46   R(37,49)                1.4344         estimate D2E/DX2                !
 ! R47   R(38,39)                1.1009         estimate D2E/DX2                !
 ! R48   R(38,40)                1.0997         estimate D2E/DX2                !
 ! R49   R(38,41)                1.4359         estimate D2E/DX2                !
 ! R50   R(41,42)                1.0021         estimate D2E/DX2                !
 ! R51   R(41,82)                3.9738         estimate D2E/DX2                !
 ! R52   R(45,46)                1.3986         estimate D2E/DX2                !
 ! R53   R(45,50)                1.46           estimate D2E/DX2                !
 ! R54   R(45,84)                6.3716         estimate D2E/DX2                !
 ! R55   R(46,47)                1.555          estimate D2E/DX2                !
 ! R56   R(46,51)                1.1021         estimate D2E/DX2                !
 ! R57   R(46,58)                1.4434         estimate D2E/DX2                !
 ! R58   R(47,48)                1.5264         estimate D2E/DX2                !
 ! R59   R(47,52)                1.1096         estimate D2E/DX2                !
 ! R60   R(47,57)                1.42           estimate D2E/DX2                !
 ! R61   R(48,49)                1.5382         estimate D2E/DX2                !
 ! R62   R(48,53)                1.1019         estimate D2E/DX2                !
 ! R63   R(48,56)                1.4486         estimate D2E/DX2                !
 ! R64   R(49,50)                1.5423         estimate D2E/DX2                !
 ! R65   R(49,55)                1.1011         estimate D2E/DX2                !
 ! R66   R(50,54)                1.1037         estimate D2E/DX2                !
 ! R67   R(50,59)                1.5267         estimate D2E/DX2                !
 ! R68   R(56,64)                0.9728         estimate D2E/DX2                !
 ! R69   R(56,84)                4.49           estimate D2E/DX2                !
 ! R70   R(57,65)                0.9744         estimate D2E/DX2                !
 ! R71   R(58,66)                1.4418         estimate D2E/DX2                !
 ! R72   R(58,84)                4.8955         estimate D2E/DX2                !
 ! R73   R(59,60)                1.1028         estimate D2E/DX2                !
 ! R74   R(59,61)                1.0977         estimate D2E/DX2                !
 ! R75   R(59,62)                1.4321         estimate D2E/DX2                !
 ! R76   R(62,63)                0.9858         estimate D2E/DX2                !
 ! R77   R(62,82)                5.0373         estimate D2E/DX2                !
 ! R78   R(66,67)                1.1053         estimate D2E/DX2                !
 ! R79   R(66,68)                1.1038         estimate D2E/DX2                !
 ! R80   R(66,69)                1.5228         estimate D2E/DX2                !
 ! R81   R(69,70)                1.1013         estimate D2E/DX2                !
 ! R82   R(69,71)                1.1023         estimate D2E/DX2                !
 ! R83   R(69,72)                1.5384         estimate D2E/DX2                !
 ! R84   R(72,73)                1.1022         estimate D2E/DX2                !
 ! R85   R(72,74)                1.1019         estimate D2E/DX2                !
 ! R86   R(72,75)                1.5363         estimate D2E/DX2                !
 ! R87   R(75,76)                1.1047         estimate D2E/DX2                !
 ! R88   R(75,77)                1.1023         estimate D2E/DX2                !
 ! R89   R(75,78)                1.5275         estimate D2E/DX2                !
 ! R90   R(78,79)                1.0992         estimate D2E/DX2                !
 ! R91   R(78,80)                1.0986         estimate D2E/DX2                !
 ! R92   R(78,81)                1.4975         estimate D2E/DX2                !
 ! R93   R(81,82)                1.0653         estimate D2E/DX2                !
 ! R94   R(81,83)                1.0595         estimate D2E/DX2                !
 ! R95   R(81,84)                1.0268         estimate D2E/DX2                !
 ! A1    A(2,1,6)              114.2346         estimate D2E/DX2                !
 ! A2    A(1,2,3)              109.9922         estimate D2E/DX2                !
 ! A3    A(1,2,7)              104.8559         estimate D2E/DX2                !
 ! A4    A(1,2,15)             113.008          estimate D2E/DX2                !
 ! A5    A(3,2,7)              110.9905         estimate D2E/DX2                !
 ! A6    A(3,2,15)             107.3185         estimate D2E/DX2                !
 ! A7    A(7,2,15)             110.7263         estimate D2E/DX2                !
 ! A8    A(2,3,4)              111.4848         estimate D2E/DX2                !
 ! A9    A(2,3,8)              106.4663         estimate D2E/DX2                !
 ! A10   A(2,3,14)             111.1414         estimate D2E/DX2                !
 ! A11   A(4,3,8)              108.7346         estimate D2E/DX2                !
 ! A12   A(4,3,14)             110.1012         estimate D2E/DX2                !
 ! A13   A(8,3,14)             108.7842         estimate D2E/DX2                !
 ! A14   A(3,4,5)              109.199          estimate D2E/DX2                !
 ! A15   A(3,4,9)              109.7524         estimate D2E/DX2                !
 ! A16   A(3,4,13)             109.069          estimate D2E/DX2                !
 ! A17   A(5,4,9)              109.5273         estimate D2E/DX2                !
 ! A18   A(5,4,13)             112.5519         estimate D2E/DX2                !
 ! A19   A(9,4,13)             106.6943         estimate D2E/DX2                !
 ! A20   A(4,5,6)              109.098          estimate D2E/DX2                !
 ! A21   A(4,5,10)             108.8402         estimate D2E/DX2                !
 ! A22   A(4,5,12)             105.4857         estimate D2E/DX2                !
 ! A23   A(6,5,10)             107.4287         estimate D2E/DX2                !
 ! A24   A(6,5,12)             115.3795         estimate D2E/DX2                !
 ! A25   A(10,5,12)            110.4656         estimate D2E/DX2                !
 ! A26   A(1,6,5)              112.2872         estimate D2E/DX2                !
 ! A27   A(1,6,11)             108.697          estimate D2E/DX2                !
 ! A28   A(1,6,16)             107.1877         estimate D2E/DX2                !
 ! A29   A(5,6,11)             107.4927         estimate D2E/DX2                !
 ! A30   A(5,6,16)             114.2885         estimate D2E/DX2                !
 ! A31   A(11,6,16)            106.6352         estimate D2E/DX2                !
 ! A32   A(5,12,21)            107.2954         estimate D2E/DX2                !
 ! A33   A(4,13,22)            105.724          estimate D2E/DX2                !
 ! A34   A(4,13,83)             57.8219         estimate D2E/DX2                !
 ! A35   A(22,13,83)           141.3219         estimate D2E/DX2                !
 ! A36   A(3,14,23)            103.8261         estimate D2E/DX2                !
 ! A37   A(3,14,83)            118.0387         estimate D2E/DX2                !
 ! A38   A(23,14,83)           113.1653         estimate D2E/DX2                !
 ! A39   A(2,15,27)            114.9182         estimate D2E/DX2                !
 ! A40   A(6,16,17)            108.6706         estimate D2E/DX2                !
 ! A41   A(6,16,18)            108.035          estimate D2E/DX2                !
 ! A42   A(6,16,19)            109.8146         estimate D2E/DX2                !
 ! A43   A(17,16,18)           108.6204         estimate D2E/DX2                !
 ! A44   A(17,16,19)           110.6645         estimate D2E/DX2                !
 ! A45   A(18,16,19)           110.9622         estimate D2E/DX2                !
 ! A46   A(16,19,20)           109.091          estimate D2E/DX2                !
 ! A47   A(16,19,83)            57.309          estimate D2E/DX2                !
 ! A48   A(25,24,29)           116.7553         estimate D2E/DX2                !
 ! A49   A(24,25,26)           111.7688         estimate D2E/DX2                !
 ! A50   A(24,25,30)           111.3016         estimate D2E/DX2                !
 ! A51   A(24,25,37)           106.8516         estimate D2E/DX2                !
 ! A52   A(26,25,30)           109.0925         estimate D2E/DX2                !
 ! A53   A(26,25,37)           113.3491         estimate D2E/DX2                !
 ! A54   A(30,25,37)           104.2455         estimate D2E/DX2                !
 ! A55   A(25,26,27)           110.3109         estimate D2E/DX2                !
 ! A56   A(25,26,31)           108.2729         estimate D2E/DX2                !
 ! A57   A(25,26,36)           110.7461         estimate D2E/DX2                !
 ! A58   A(27,26,31)           107.1426         estimate D2E/DX2                !
 ! A59   A(27,26,36)           109.7573         estimate D2E/DX2                !
 ! A60   A(31,26,36)           110.5359         estimate D2E/DX2                !
 ! A61   A(15,27,26)           107.0589         estimate D2E/DX2                !
 ! A62   A(15,27,28)           111.3874         estimate D2E/DX2                !
 ! A63   A(15,27,32)           109.164          estimate D2E/DX2                !
 ! A64   A(26,27,28)           110.1628         estimate D2E/DX2                !
 ! A65   A(26,27,32)           109.458          estimate D2E/DX2                !
 ! A66   A(28,27,32)           109.5606         estimate D2E/DX2                !
 ! A67   A(27,28,29)           109.9479         estimate D2E/DX2                !
 ! A68   A(27,28,33)           109.3243         estimate D2E/DX2                !
 ! A69   A(27,28,35)           109.3374         estimate D2E/DX2                !
 ! A70   A(29,28,33)           107.5844         estimate D2E/DX2                !
 ! A71   A(29,28,35)           111.5119         estimate D2E/DX2                !
 ! A72   A(33,28,35)           109.0926         estimate D2E/DX2                !
 ! A73   A(24,29,28)           112.309          estimate D2E/DX2                !
 ! A74   A(24,29,34)           110.3521         estimate D2E/DX2                !
 ! A75   A(24,29,38)           105.0296         estimate D2E/DX2                !
 ! A76   A(28,29,34)           107.9344         estimate D2E/DX2                !
 ! A77   A(28,29,38)           112.6545         estimate D2E/DX2                !
 ! A78   A(34,29,38)           108.507          estimate D2E/DX2                !
 ! A79   A(28,35,43)           105.7987         estimate D2E/DX2                !
 ! A80   A(28,35,82)           125.8705         estimate D2E/DX2                !
 ! A81   A(43,35,82)           127.8035         estimate D2E/DX2                !
 ! A82   A(26,36,44)           104.6089         estimate D2E/DX2                !
 ! A83   A(25,37,49)           115.1622         estimate D2E/DX2                !
 ! A84   A(29,38,39)           109.1487         estimate D2E/DX2                !
 ! A85   A(29,38,40)           109.7805         estimate D2E/DX2                !
 ! A86   A(29,38,41)           111.9121         estimate D2E/DX2                !
 ! A87   A(39,38,40)           108.18           estimate D2E/DX2                !
 ! A88   A(39,38,41)           110.5458         estimate D2E/DX2                !
 ! A89   A(40,38,41)           107.1892         estimate D2E/DX2                !
 ! A90   A(38,41,42)           108.7299         estimate D2E/DX2                !
 ! A91   A(38,41,82)           102.9668         estimate D2E/DX2                !
 ! A92   A(42,41,82)            98.9632         estimate D2E/DX2                !
 ! A93   A(46,45,50)           117.7792         estimate D2E/DX2                !
 ! A94   A(46,45,84)            46.0652         estimate D2E/DX2                !
 ! A95   A(50,45,84)            71.7748         estimate D2E/DX2                !
 ! A96   A(45,46,47)           113.437          estimate D2E/DX2                !
 ! A97   A(45,46,51)           105.4952         estimate D2E/DX2                !
 ! A98   A(45,46,58)           108.7212         estimate D2E/DX2                !
 ! A99   A(47,46,51)           108.5938         estimate D2E/DX2                !
 ! A100  A(47,46,58)           110.5067         estimate D2E/DX2                !
 ! A101  A(51,46,58)           109.9485         estimate D2E/DX2                !
 ! A102  A(46,47,48)           109.6495         estimate D2E/DX2                !
 ! A103  A(46,47,52)           108.2014         estimate D2E/DX2                !
 ! A104  A(46,47,57)           107.4738         estimate D2E/DX2                !
 ! A105  A(48,47,52)           107.2299         estimate D2E/DX2                !
 ! A106  A(48,47,57)           113.4168         estimate D2E/DX2                !
 ! A107  A(52,47,57)           110.7658         estimate D2E/DX2                !
 ! A108  A(47,48,49)           107.1893         estimate D2E/DX2                !
 ! A109  A(47,48,53)           108.8397         estimate D2E/DX2                !
 ! A110  A(47,48,56)           108.6328         estimate D2E/DX2                !
 ! A111  A(49,48,53)           109.3347         estimate D2E/DX2                !
 ! A112  A(49,48,56)           113.9584         estimate D2E/DX2                !
 ! A113  A(53,48,56)           108.7744         estimate D2E/DX2                !
 ! A114  A(37,49,48)           110.9767         estimate D2E/DX2                !
 ! A115  A(37,49,50)           110.2315         estimate D2E/DX2                !
 ! A116  A(37,49,55)           109.9574         estimate D2E/DX2                !
 ! A117  A(48,49,50)           106.4202         estimate D2E/DX2                !
 ! A118  A(48,49,55)           110.2115         estimate D2E/DX2                !
 ! A119  A(50,49,55)           108.9686         estimate D2E/DX2                !
 ! A120  A(45,50,49)           110.7772         estimate D2E/DX2                !
 ! A121  A(45,50,54)           104.7669         estimate D2E/DX2                !
 ! A122  A(45,50,59)           109.9441         estimate D2E/DX2                !
 ! A123  A(49,50,54)           107.2141         estimate D2E/DX2                !
 ! A124  A(49,50,59)           116.5686         estimate D2E/DX2                !
 ! A125  A(54,50,59)           106.7862         estimate D2E/DX2                !
 ! A126  A(48,56,64)           106.8727         estimate D2E/DX2                !
 ! A127  A(48,56,84)            99.2863         estimate D2E/DX2                !
 ! A128  A(64,56,84)           151.297          estimate D2E/DX2                !
 ! A129  A(47,57,65)           107.7979         estimate D2E/DX2                !
 ! A130  A(46,58,66)           115.1552         estimate D2E/DX2                !
 ! A131  A(46,58,84)           107.0225         estimate D2E/DX2                !
 ! A132  A(66,58,84)            83.1828         estimate D2E/DX2                !
 ! A133  A(50,59,60)           107.447          estimate D2E/DX2                !
 ! A134  A(50,59,61)           108.7807         estimate D2E/DX2                !
 ! A135  A(50,59,62)           114.6799         estimate D2E/DX2                !
 ! A136  A(60,59,61)           108.7706         estimate D2E/DX2                !
 ! A137  A(60,59,62)           109.9083         estimate D2E/DX2                !
 ! A138  A(61,59,62)           107.1332         estimate D2E/DX2                !
 ! A139  A(59,62,63)           107.8724         estimate D2E/DX2                !
 ! A140  A(59,62,82)           122.1363         estimate D2E/DX2                !
 ! A141  A(63,62,82)            77.7317         estimate D2E/DX2                !
 ! A142  A(58,66,67)           109.841          estimate D2E/DX2                !
 ! A143  A(58,66,68)           109.2424         estimate D2E/DX2                !
 ! A144  A(58,66,69)           107.8751         estimate D2E/DX2                !
 ! A145  A(67,66,68)           107.5743         estimate D2E/DX2                !
 ! A146  A(67,66,69)           111.6779         estimate D2E/DX2                !
 ! A147  A(68,66,69)           110.614          estimate D2E/DX2                !
 ! A148  A(66,69,70)           108.102          estimate D2E/DX2                !
 ! A149  A(66,69,71)           108.004          estimate D2E/DX2                !
 ! A150  A(66,69,72)           115.2077         estimate D2E/DX2                !
 ! A151  A(70,69,71)           105.9531         estimate D2E/DX2                !
 ! A152  A(70,69,72)           109.1456         estimate D2E/DX2                !
 ! A153  A(71,69,72)           110.0135         estimate D2E/DX2                !
 ! A154  A(69,72,73)           108.2602         estimate D2E/DX2                !
 ! A155  A(69,72,74)           108.7898         estimate D2E/DX2                !
 ! A156  A(69,72,75)           113.837          estimate D2E/DX2                !
 ! A157  A(73,72,74)           106.1857         estimate D2E/DX2                !
 ! A158  A(73,72,75)           108.7409         estimate D2E/DX2                !
 ! A159  A(74,72,75)           110.719          estimate D2E/DX2                !
 ! A160  A(72,75,76)           111.0875         estimate D2E/DX2                !
 ! A161  A(72,75,77)           109.1604         estimate D2E/DX2                !
 ! A162  A(72,75,78)           115.1971         estimate D2E/DX2                !
 ! A163  A(76,75,77)           105.3971         estimate D2E/DX2                !
 ! A164  A(76,75,78)           109.0397         estimate D2E/DX2                !
 ! A165  A(77,75,78)           106.4064         estimate D2E/DX2                !
 ! A166  A(75,78,79)           111.2487         estimate D2E/DX2                !
 ! A167  A(75,78,80)           110.5054         estimate D2E/DX2                !
 ! A168  A(75,78,81)           113.2246         estimate D2E/DX2                !
 ! A169  A(79,78,80)           107.7753         estimate D2E/DX2                !
 ! A170  A(79,78,81)           106.5049         estimate D2E/DX2                !
 ! A171  A(80,78,81)           107.316          estimate D2E/DX2                !
 ! A172  A(78,81,82)           113.7885         estimate D2E/DX2                !
 ! A173  A(78,81,83)           112.8896         estimate D2E/DX2                !
 ! A174  A(78,81,84)           111.4249         estimate D2E/DX2                !
 ! A175  A(82,81,83)           105.3658         estimate D2E/DX2                !
 ! A176  A(82,81,84)           106.8528         estimate D2E/DX2                !
 ! A177  A(83,81,84)           105.9502         estimate D2E/DX2                !
 ! A178  A(35,82,41)            23.705          estimate D2E/DX2                !
 ! A179  A(35,82,62)            48.4461         estimate D2E/DX2                !
 ! A180  A(41,82,62)            32.0142         estimate D2E/DX2                !
 ! A181  A(41,82,81)           161.3859         estimate D2E/DX2                !
 ! A182  A(62,82,81)           134.7107         estimate D2E/DX2                !
 ! A183  A(13,83,14)            42.0208         estimate D2E/DX2                !
 ! A184  A(13,83,19)            47.391          estimate D2E/DX2                !
 ! A185  A(13,83,81)           138.5132         estimate D2E/DX2                !
 ! A186  A(14,83,19)            49.0119         estimate D2E/DX2                !
 ! A187  A(19,83,81)           127.5433         estimate D2E/DX2                !
 ! A188  A(45,84,56)            39.8657         estimate D2E/DX2                !
 ! A189  A(45,84,58)            18.3051         estimate D2E/DX2                !
 ! A190  A(45,84,81)           112.1454         estimate D2E/DX2                !
 ! A191  A(56,84,58)            56.8266         estimate D2E/DX2                !
 ! A192  A(56,84,81)           146.0344         estimate D2E/DX2                !
 ! A193  A(58,84,81)            99.8766         estimate D2E/DX2                !
 ! A194  L(20,19,83,16,-1)     166.4            estimate D2E/DX2                !
 ! A195  L(35,82,81,41,-1)     185.0909         estimate D2E/DX2                !
 ! A196  L(14,83,81,13,-1)     180.534          estimate D2E/DX2                !
 ! A197  L(20,19,83,16,-2)     175.7928         estimate D2E/DX2                !
 ! A198  L(35,82,81,41,-2)     184.205          estimate D2E/DX2                !
 ! A199  L(14,83,81,13,-2)     174.0145         estimate D2E/DX2                !
 ! D1    D(6,1,2,3)            -57.3754         estimate D2E/DX2                !
 ! D2    D(6,1,2,7)           -176.7731         estimate D2E/DX2                !
 ! D3    D(6,1,2,15)            62.5347         estimate D2E/DX2                !
 ! D4    D(2,1,6,5)             57.4834         estimate D2E/DX2                !
 ! D5    D(2,1,6,11)           -61.3105         estimate D2E/DX2                !
 ! D6    D(2,1,6,16)          -176.2104         estimate D2E/DX2                !
 ! D7    D(1,2,3,4)             56.9786         estimate D2E/DX2                !
 ! D8    D(1,2,3,8)            -61.4635         estimate D2E/DX2                !
 ! D9    D(1,2,3,14)          -179.7776         estimate D2E/DX2                !
 ! D10   D(7,2,3,4)            172.561          estimate D2E/DX2                !
 ! D11   D(7,2,3,8)             54.1189         estimate D2E/DX2                !
 ! D12   D(7,2,3,14)           -64.1952         estimate D2E/DX2                !
 ! D13   D(15,2,3,4)           -66.3281         estimate D2E/DX2                !
 ! D14   D(15,2,3,8)           175.2298         estimate D2E/DX2                !
 ! D15   D(15,2,3,14)           56.9158         estimate D2E/DX2                !
 ! D16   D(1,2,15,27)           60.7317         estimate D2E/DX2                !
 ! D17   D(3,2,15,27)         -177.836          estimate D2E/DX2                !
 ! D18   D(7,2,15,27)          -56.5588         estimate D2E/DX2                !
 ! D19   D(2,3,4,5)            -56.0439         estimate D2E/DX2                !
 ! D20   D(2,3,4,9)             64.0294         estimate D2E/DX2                !
 ! D21   D(2,3,4,13)          -179.4147         estimate D2E/DX2                !
 ! D22   D(8,3,4,5)             61.0309         estimate D2E/DX2                !
 ! D23   D(8,3,4,9)           -178.8958         estimate D2E/DX2                !
 ! D24   D(8,3,4,13)           -62.3398         estimate D2E/DX2                !
 ! D25   D(14,3,4,5)          -179.8782         estimate D2E/DX2                !
 ! D26   D(14,3,4,9)           -59.8049         estimate D2E/DX2                !
 ! D27   D(14,3,4,13)           56.751          estimate D2E/DX2                !
 ! D28   D(2,3,14,23)         -175.5865         estimate D2E/DX2                !
 ! D29   D(2,3,14,83)          -49.4248         estimate D2E/DX2                !
 ! D30   D(4,3,14,23)          -51.553          estimate D2E/DX2                !
 ! D31   D(4,3,14,83)           74.6086         estimate D2E/DX2                !
 ! D32   D(8,3,14,23)           67.5076         estimate D2E/DX2                !
 ! D33   D(8,3,14,83)         -166.3308         estimate D2E/DX2                !
 ! D34   D(3,4,5,6)             53.5881         estimate D2E/DX2                !
 ! D35   D(3,4,5,10)           170.5276         estimate D2E/DX2                !
 ! D36   D(3,4,5,12)           -70.9248         estimate D2E/DX2                !
 ! D37   D(9,4,5,6)            -66.6236         estimate D2E/DX2                !
 ! D38   D(9,4,5,10)            50.3159         estimate D2E/DX2                !
 ! D39   D(9,4,5,12)           168.8636         estimate D2E/DX2                !
 ! D40   D(13,4,5,6)           174.8664         estimate D2E/DX2                !
 ! D41   D(13,4,5,10)          -68.1941         estimate D2E/DX2                !
 ! D42   D(13,4,5,12)           50.3536         estimate D2E/DX2                !
 ! D43   D(3,4,13,22)           85.6455         estimate D2E/DX2                !
 ! D44   D(3,4,13,83)          -55.7119         estimate D2E/DX2                !
 ! D45   D(5,4,13,22)          -35.707          estimate D2E/DX2                !
 ! D46   D(5,4,13,83)         -177.0645         estimate D2E/DX2                !
 ! D47   D(9,4,13,22)         -155.866          estimate D2E/DX2                !
 ! D48   D(9,4,13,83)           62.7766         estimate D2E/DX2                !
 ! D49   D(4,5,6,1)            -54.0791         estimate D2E/DX2                !
 ! D50   D(4,5,6,11)            65.4205         estimate D2E/DX2                !
 ! D51   D(4,5,6,16)          -176.4459         estimate D2E/DX2                !
 ! D52   D(10,5,6,1)          -171.911          estimate D2E/DX2                !
 ! D53   D(10,5,6,11)          -52.4114         estimate D2E/DX2                !
 ! D54   D(10,5,6,16)           65.7222         estimate D2E/DX2                !
 ! D55   D(12,5,6,1)            64.4098         estimate D2E/DX2                !
 ! D56   D(12,5,6,11)         -176.0907         estimate D2E/DX2                !
 ! D57   D(12,5,6,16)          -57.9571         estimate D2E/DX2                !
 ! D58   D(4,5,12,21)          155.2578         estimate D2E/DX2                !
 ! D59   D(6,5,12,21)           34.7796         estimate D2E/DX2                !
 ! D60   D(10,5,12,21)         -87.2862         estimate D2E/DX2                !
 ! D61   D(1,6,16,17)           50.7784         estimate D2E/DX2                !
 ! D62   D(1,6,16,18)          168.4542         estimate D2E/DX2                !
 ! D63   D(1,6,16,19)          -70.3992         estimate D2E/DX2                !
 ! D64   D(5,6,16,17)          175.8861         estimate D2E/DX2                !
 ! D65   D(5,6,16,18)          -66.4381         estimate D2E/DX2                !
 ! D66   D(5,6,16,19)           54.7085         estimate D2E/DX2                !
 ! D67   D(11,6,16,17)         -65.4931         estimate D2E/DX2                !
 ! D68   D(11,6,16,18)          52.1828         estimate D2E/DX2                !
 ! D69   D(11,6,16,19)         173.3294         estimate D2E/DX2                !
 ! D70   D(4,13,83,14)          88.7279         estimate D2E/DX2                !
 ! D71   D(4,13,83,19)          16.8159         estimate D2E/DX2                !
 ! D72   D(4,13,83,81)         -85.2866         estimate D2E/DX2                !
 ! D73   D(22,13,83,14)         14.6091         estimate D2E/DX2                !
 ! D74   D(22,13,83,19)        -57.3029         estimate D2E/DX2                !
 ! D75   D(22,13,83,81)       -159.4054         estimate D2E/DX2                !
 ! D76   D(3,14,83,13)         -66.4866         estimate D2E/DX2                !
 ! D77   D(3,14,83,19)           1.4604         estimate D2E/DX2                !
 ! D78   D(23,14,83,13)         55.0054         estimate D2E/DX2                !
 ! D79   D(23,14,83,19)        122.9523         estimate D2E/DX2                !
 ! D80   D(2,15,27,26)        -149.8772         estimate D2E/DX2                !
 ! D81   D(2,15,27,28)          89.6324         estimate D2E/DX2                !
 ! D82   D(2,15,27,32)         -31.4832         estimate D2E/DX2                !
 ! D83   D(6,16,19,20)        -176.2249         estimate D2E/DX2                !
 ! D84   D(6,16,19,83)           7.9824         estimate D2E/DX2                !
 ! D85   D(17,16,19,20)         63.8039         estimate D2E/DX2                !
 ! D86   D(17,16,19,83)       -111.9889         estimate D2E/DX2                !
 ! D87   D(18,16,19,20)        -56.8553         estimate D2E/DX2                !
 ! D88   D(18,16,19,83)        127.352          estimate D2E/DX2                !
 ! D89   D(16,19,83,13)       -114.6823         estimate D2E/DX2                !
 ! D90   D(16,19,83,14)       -172.1382         estimate D2E/DX2                !
 ! D91   D(16,19,83,81)         10.5409         estimate D2E/DX2                !
 ! D92   D(29,24,25,26)        -52.6703         estimate D2E/DX2                !
 ! D93   D(29,24,25,30)         69.5887         estimate D2E/DX2                !
 ! D94   D(29,24,25,37)       -177.2029         estimate D2E/DX2                !
 ! D95   D(25,24,29,28)         52.7852         estimate D2E/DX2                !
 ! D96   D(25,24,29,34)        -67.6927         estimate D2E/DX2                !
 ! D97   D(25,24,29,38)        175.5542         estimate D2E/DX2                !
 ! D98   D(24,25,26,27)         52.968          estimate D2E/DX2                !
 ! D99   D(24,25,26,31)        -63.9809         estimate D2E/DX2                !
 ! D100  D(24,25,26,36)        174.6794         estimate D2E/DX2                !
 ! D101  D(30,25,26,27)        -70.5478         estimate D2E/DX2                !
 ! D102  D(30,25,26,31)        172.5032         estimate D2E/DX2                !
 ! D103  D(30,25,26,36)         51.1635         estimate D2E/DX2                !
 ! D104  D(37,25,26,27)        173.791          estimate D2E/DX2                !
 ! D105  D(37,25,26,31)         56.842          estimate D2E/DX2                !
 ! D106  D(37,25,26,36)        -64.4976         estimate D2E/DX2                !
 ! D107  D(24,25,37,49)         63.1947         estimate D2E/DX2                !
 ! D108  D(26,25,37,49)        -60.3663         estimate D2E/DX2                !
 ! D109  D(30,25,37,49)       -178.867          estimate D2E/DX2                !
 ! D110  D(25,26,27,15)       -176.5552         estimate D2E/DX2                !
 ! D111  D(25,26,27,28)        -55.2879         estimate D2E/DX2                !
 ! D112  D(25,26,27,32)         65.2422         estimate D2E/DX2                !
 ! D113  D(31,26,27,15)        -58.907          estimate D2E/DX2                !
 ! D114  D(31,26,27,28)         62.3603         estimate D2E/DX2                !
 ! D115  D(31,26,27,32)       -177.1096         estimate D2E/DX2                !
 ! D116  D(36,26,27,15)         61.1497         estimate D2E/DX2                !
 ! D117  D(36,26,27,28)       -177.583          estimate D2E/DX2                !
 ! D118  D(36,26,27,32)        -57.0529         estimate D2E/DX2                !
 ! D119  D(25,26,36,44)         75.8619         estimate D2E/DX2                !
 ! D120  D(27,26,36,44)       -162.1022         estimate D2E/DX2                !
 ! D121  D(31,26,36,44)        -44.1334         estimate D2E/DX2                !
 ! D122  D(15,27,28,29)        173.5899         estimate D2E/DX2                !
 ! D123  D(15,27,28,33)        -68.515          estimate D2E/DX2                !
 ! D124  D(15,27,28,35)         50.8525         estimate D2E/DX2                !
 ! D125  D(26,27,28,29)         54.942          estimate D2E/DX2                !
 ! D126  D(26,27,28,33)        172.8371         estimate D2E/DX2                !
 ! D127  D(26,27,28,35)        -67.7954         estimate D2E/DX2                !
 ! D128  D(32,27,28,29)        -65.5263         estimate D2E/DX2                !
 ! D129  D(32,27,28,33)         52.3687         estimate D2E/DX2                !
 ! D130  D(32,27,28,35)        171.7363         estimate D2E/DX2                !
 ! D131  D(27,28,29,24)        -52.3992         estimate D2E/DX2                !
 ! D132  D(27,28,29,34)         69.4661         estimate D2E/DX2                !
 ! D133  D(27,28,29,38)       -170.7578         estimate D2E/DX2                !
 ! D134  D(33,28,29,24)       -171.3669         estimate D2E/DX2                !
 ! D135  D(33,28,29,34)        -49.5015         estimate D2E/DX2                !
 ! D136  D(33,28,29,38)         70.2746         estimate D2E/DX2                !
 ! D137  D(35,28,29,24)         69.0467         estimate D2E/DX2                !
 ! D138  D(35,28,29,34)       -169.0879         estimate D2E/DX2                !
 ! D139  D(35,28,29,38)        -49.3118         estimate D2E/DX2                !
 ! D140  D(27,28,35,43)        145.7245         estimate D2E/DX2                !
 ! D141  D(27,28,35,82)        -26.4588         estimate D2E/DX2                !
 ! D142  D(29,28,35,43)         23.9246         estimate D2E/DX2                !
 ! D143  D(29,28,35,82)       -148.2587         estimate D2E/DX2                !
 ! D144  D(33,28,35,43)        -94.765          estimate D2E/DX2                !
 ! D145  D(33,28,35,82)         93.0517         estimate D2E/DX2                !
 ! D146  D(24,29,38,39)         57.0756         estimate D2E/DX2                !
 ! D147  D(24,29,38,40)        175.4912         estimate D2E/DX2                !
 ! D148  D(24,29,38,41)        -65.6157         estimate D2E/DX2                !
 ! D149  D(28,29,38,39)        179.6215         estimate D2E/DX2                !
 ! D150  D(28,29,38,40)        -61.9629         estimate D2E/DX2                !
 ! D151  D(28,29,38,41)         56.9302         estimate D2E/DX2                !
 ! D152  D(34,29,38,39)        -60.9341         estimate D2E/DX2                !
 ! D153  D(34,29,38,40)         57.4816         estimate D2E/DX2                !
 ! D154  D(34,29,38,41)        176.3746         estimate D2E/DX2                !
 ! D155  D(28,35,82,41)        163.2179         estimate D2E/DX2                !
 ! D156  D(28,35,82,62)        126.3095         estimate D2E/DX2                !
 ! D157  D(43,35,82,41)         -7.2483         estimate D2E/DX2                !
 ! D158  D(43,35,82,62)        -44.1567         estimate D2E/DX2                !
 ! D159  D(25,37,49,48)        123.3513         estimate D2E/DX2                !
 ! D160  D(25,37,49,50)       -119.0063         estimate D2E/DX2                !
 ! D161  D(25,37,49,55)          1.1517         estimate D2E/DX2                !
 ! D162  D(29,38,41,42)         75.0095         estimate D2E/DX2                !
 ! D163  D(29,38,41,82)        -29.284          estimate D2E/DX2                !
 ! D164  D(39,38,41,42)        -46.8838         estimate D2E/DX2                !
 ! D165  D(39,38,41,82)       -151.1773         estimate D2E/DX2                !
 ! D166  D(40,38,41,42)       -164.5757         estimate D2E/DX2                !
 ! D167  D(40,38,41,82)         91.1308         estimate D2E/DX2                !
 ! D168  D(38,41,82,35)         -7.5664         estimate D2E/DX2                !
 ! D169  D(38,41,82,62)        114.4691         estimate D2E/DX2                !
 ! D170  D(38,41,82,81)        168.2286         estimate D2E/DX2                !
 ! D171  D(42,41,82,35)       -119.2758         estimate D2E/DX2                !
 ! D172  D(42,41,82,62)          2.7596         estimate D2E/DX2                !
 ! D173  D(42,41,82,81)         56.5191         estimate D2E/DX2                !
 ! D174  D(50,45,46,47)         56.1701         estimate D2E/DX2                !
 ! D175  D(50,45,46,51)        174.9091         estimate D2E/DX2                !
 ! D176  D(50,45,46,58)        -67.201          estimate D2E/DX2                !
 ! D177  D(84,45,46,47)         59.3943         estimate D2E/DX2                !
 ! D178  D(84,45,46,51)        178.1333         estimate D2E/DX2                !
 ! D179  D(84,45,46,58)        -63.9768         estimate D2E/DX2                !
 ! D180  D(46,45,50,49)        -25.5334         estimate D2E/DX2                !
 ! D181  D(46,45,50,54)       -140.8328         estimate D2E/DX2                !
 ! D182  D(46,45,50,59)        104.7505         estimate D2E/DX2                !
 ! D183  D(84,45,50,49)        -27.9773         estimate D2E/DX2                !
 ! D184  D(84,45,50,54)       -143.2768         estimate D2E/DX2                !
 ! D185  D(84,45,50,59)        102.3065         estimate D2E/DX2                !
 ! D186  D(46,45,84,56)       -101.3533         estimate D2E/DX2                !
 ! D187  D(46,45,84,58)         53.0321         estimate D2E/DX2                !
 ! D188  D(46,45,84,81)        103.1953         estimate D2E/DX2                !
 ! D189  D(50,45,84,56)         75.6436         estimate D2E/DX2                !
 ! D190  D(50,45,84,58)       -129.971          estimate D2E/DX2                !
 ! D191  D(50,45,84,81)        -79.8078         estimate D2E/DX2                !
 ! D192  D(45,46,47,48)        -17.3922         estimate D2E/DX2                !
 ! D193  D(45,46,47,52)       -134.0392         estimate D2E/DX2                !
 ! D194  D(45,46,47,57)        106.3051         estimate D2E/DX2                !
 ! D195  D(51,46,47,48)       -134.3321         estimate D2E/DX2                !
 ! D196  D(51,46,47,52)        109.0209         estimate D2E/DX2                !
 ! D197  D(51,46,47,57)        -10.6348         estimate D2E/DX2                !
 ! D198  D(58,46,47,48)        104.9945         estimate D2E/DX2                !
 ! D199  D(58,46,47,52)        -11.6525         estimate D2E/DX2                !
 ! D200  D(58,46,47,57)       -131.3082         estimate D2E/DX2                !
 ! D201  D(45,46,58,66)       -151.362          estimate D2E/DX2                !
 ! D202  D(45,46,58,84)        118.2583         estimate D2E/DX2                !
 ! D203  D(47,46,58,66)         83.5296         estimate D2E/DX2                !
 ! D204  D(47,46,58,84)         -6.8501         estimate D2E/DX2                !
 ! D205  D(51,46,58,66)        -36.3322         estimate D2E/DX2                !
 ! D206  D(51,46,58,84)       -126.7119         estimate D2E/DX2                !
 ! D207  D(46,47,48,49)        -43.6704         estimate D2E/DX2                !
 ! D208  D(46,47,48,53)         74.4764         estimate D2E/DX2                !
 ! D209  D(46,47,48,56)       -167.2349         estimate D2E/DX2                !
 ! D210  D(52,47,48,49)         73.5869         estimate D2E/DX2                !
 ! D211  D(52,47,48,53)       -168.2662         estimate D2E/DX2                !
 ! D212  D(52,47,48,56)        -49.9775         estimate D2E/DX2                !
 ! D213  D(57,47,48,49)       -163.8087         estimate D2E/DX2                !
 ! D214  D(57,47,48,53)        -45.6619         estimate D2E/DX2                !
 ! D215  D(57,47,48,56)         72.6268         estimate D2E/DX2                !
 ! D216  D(46,47,57,65)       -178.4226         estimate D2E/DX2                !
 ! D217  D(48,47,57,65)        -57.0563         estimate D2E/DX2                !
 ! D218  D(52,47,57,65)         63.5701         estimate D2E/DX2                !
 ! D219  D(47,48,49,37)       -167.1563         estimate D2E/DX2                !
 ! D220  D(47,48,49,50)         72.9037         estimate D2E/DX2                !
 ! D221  D(47,48,49,55)        -45.1046         estimate D2E/DX2                !
 ! D222  D(53,48,49,37)         75.0192         estimate D2E/DX2                !
 ! D223  D(53,48,49,50)        -44.9208         estimate D2E/DX2                !
 ! D224  D(53,48,49,55)       -162.9292         estimate D2E/DX2                !
 ! D225  D(56,48,49,37)        -46.9289         estimate D2E/DX2                !
 ! D226  D(56,48,49,50)       -166.8689         estimate D2E/DX2                !
 ! D227  D(56,48,49,55)         75.1227         estimate D2E/DX2                !
 ! D228  D(47,48,56,64)       -132.9677         estimate D2E/DX2                !
 ! D229  D(47,48,56,84)         58.9784         estimate D2E/DX2                !
 ! D230  D(49,48,56,64)        107.6189         estimate D2E/DX2                !
 ! D231  D(49,48,56,84)        -60.435          estimate D2E/DX2                !
 ! D232  D(53,48,56,64)        -14.6377         estimate D2E/DX2                !
 ! D233  D(53,48,56,84)        177.3084         estimate D2E/DX2                !
 ! D234  D(37,49,50,45)       -158.1768         estimate D2E/DX2                !
 ! D235  D(37,49,50,54)        -44.4142         estimate D2E/DX2                !
 ! D236  D(37,49,50,59)         75.1222         estimate D2E/DX2                !
 ! D237  D(48,49,50,45)        -37.7551         estimate D2E/DX2                !
 ! D238  D(48,49,50,54)         76.0075         estimate D2E/DX2                !
 ! D239  D(48,49,50,59)       -164.4561         estimate D2E/DX2                !
 ! D240  D(55,49,50,45)         81.0708         estimate D2E/DX2                !
 ! D241  D(55,49,50,54)       -165.1666         estimate D2E/DX2                !
 ! D242  D(55,49,50,59)        -45.6302         estimate D2E/DX2                !
 ! D243  D(45,50,59,60)         53.0156         estimate D2E/DX2                !
 ! D244  D(45,50,59,61)        170.6055         estimate D2E/DX2                !
 ! D245  D(45,50,59,62)        -69.4803         estimate D2E/DX2                !
 ! D246  D(49,50,59,60)       -179.8717         estimate D2E/DX2                !
 ! D247  D(49,50,59,61)        -62.2819         estimate D2E/DX2                !
 ! D248  D(49,50,59,62)         57.6323         estimate D2E/DX2                !
 ! D249  D(54,50,59,60)        -60.1055         estimate D2E/DX2                !
 ! D250  D(54,50,59,61)         57.4843         estimate D2E/DX2                !
 ! D251  D(54,50,59,62)        177.3985         estimate D2E/DX2                !
 ! D252  D(48,56,84,45)         -1.893          estimate D2E/DX2                !
 ! D253  D(48,56,84,58)        -11.2287         estimate D2E/DX2                !
 ! D254  D(48,56,84,81)         41.6403         estimate D2E/DX2                !
 ! D255  D(64,56,84,45)       -157.535          estimate D2E/DX2                !
 ! D256  D(64,56,84,58)       -166.8707         estimate D2E/DX2                !
 ! D257  D(64,56,84,81)       -114.0017         estimate D2E/DX2                !
 ! D258  D(46,58,66,67)        -52.4453         estimate D2E/DX2                !
 ! D259  D(46,58,66,68)         65.3262         estimate D2E/DX2                !
 ! D260  D(46,58,66,69)       -174.3825         estimate D2E/DX2                !
 ! D261  D(84,58,66,67)         53.1942         estimate D2E/DX2                !
 ! D262  D(84,58,66,68)        170.9657         estimate D2E/DX2                !
 ! D263  D(84,58,66,69)        -68.743          estimate D2E/DX2                !
 ! D264  D(46,58,84,45)        -35.6637         estimate D2E/DX2                !
 ! D265  D(46,58,84,56)        -16.3301         estimate D2E/DX2                !
 ! D266  D(46,58,84,81)       -169.45           estimate D2E/DX2                !
 ! D267  D(66,58,84,45)       -149.9384         estimate D2E/DX2                !
 ! D268  D(66,58,84,56)       -130.6049         estimate D2E/DX2                !
 ! D269  D(66,58,84,81)         76.2752         estimate D2E/DX2                !
 ! D270  D(50,59,62,63)         39.1358         estimate D2E/DX2                !
 ! D271  D(50,59,62,82)        -47.3613         estimate D2E/DX2                !
 ! D272  D(60,59,62,63)        -82.0194         estimate D2E/DX2                !
 ! D273  D(60,59,62,82)       -168.5165         estimate D2E/DX2                !
 ! D274  D(61,59,62,63)        159.9613         estimate D2E/DX2                !
 ! D275  D(61,59,62,82)         73.4641         estimate D2E/DX2                !
 ! D276  D(59,62,82,35)        -87.1523         estimate D2E/DX2                !
 ! D277  D(59,62,82,41)       -114.2444         estimate D2E/DX2                !
 ! D278  D(59,62,82,81)         86.9943         estimate D2E/DX2                !
 ! D279  D(63,62,82,35)        169.2976         estimate D2E/DX2                !
 ! D280  D(63,62,82,41)        142.2055         estimate D2E/DX2                !
 ! D281  D(63,62,82,81)        -16.5558         estimate D2E/DX2                !
 ! D282  D(58,66,69,70)        -57.5559         estimate D2E/DX2                !
 ! D283  D(58,66,69,71)       -171.7788         estimate D2E/DX2                !
 ! D284  D(58,66,69,72)         64.8045         estimate D2E/DX2                !
 ! D285  D(67,66,69,70)       -178.3508         estimate D2E/DX2                !
 ! D286  D(67,66,69,71)         67.4263         estimate D2E/DX2                !
 ! D287  D(67,66,69,72)        -55.9904         estimate D2E/DX2                !
 ! D288  D(68,66,69,70)         61.8692         estimate D2E/DX2                !
 ! D289  D(68,66,69,71)        -52.3538         estimate D2E/DX2                !
 ! D290  D(68,66,69,72)       -175.7705         estimate D2E/DX2                !
 ! D291  D(66,69,72,73)       -165.5616         estimate D2E/DX2                !
 ! D292  D(66,69,72,74)        -50.5807         estimate D2E/DX2                !
 ! D293  D(66,69,72,75)         73.3971         estimate D2E/DX2                !
 ! D294  D(70,69,72,73)        -43.7623         estimate D2E/DX2                !
 ! D295  D(70,69,72,74)         71.2185         estimate D2E/DX2                !
 ! D296  D(70,69,72,75)       -164.8037         estimate D2E/DX2                !
 ! D297  D(71,69,72,73)         72.0926         estimate D2E/DX2                !
 ! D298  D(71,69,72,74)       -172.9265         estimate D2E/DX2                !
 ! D299  D(71,69,72,75)        -48.9487         estimate D2E/DX2                !
 ! D300  D(69,72,75,76)        -64.76           estimate D2E/DX2                !
 ! D301  D(69,72,75,77)         51.0406         estimate D2E/DX2                !
 ! D302  D(69,72,75,78)        170.6404         estimate D2E/DX2                !
 ! D303  D(73,72,75,76)        174.4674         estimate D2E/DX2                !
 ! D304  D(73,72,75,77)        -69.732          estimate D2E/DX2                !
 ! D305  D(73,72,75,78)         49.8677         estimate D2E/DX2                !
 ! D306  D(74,72,75,76)         58.1691         estimate D2E/DX2                !
 ! D307  D(74,72,75,77)        173.9698         estimate D2E/DX2                !
 ! D308  D(74,72,75,78)        -66.4305         estimate D2E/DX2                !
 ! D309  D(72,75,78,79)        -52.6242         estimate D2E/DX2                !
 ! D310  D(72,75,78,80)       -172.3031         estimate D2E/DX2                !
 ! D311  D(72,75,78,81)         67.2805         estimate D2E/DX2                !
 ! D312  D(76,75,78,79)       -178.2869         estimate D2E/DX2                !
 ! D313  D(76,75,78,80)         62.0342         estimate D2E/DX2                !
 ! D314  D(76,75,78,81)        -58.3821         estimate D2E/DX2                !
 ! D315  D(77,75,78,79)         68.4842         estimate D2E/DX2                !
 ! D316  D(77,75,78,80)        -51.1947         estimate D2E/DX2                !
 ! D317  D(77,75,78,81)       -171.6111         estimate D2E/DX2                !
 ! D318  D(75,78,81,82)        -68.146          estimate D2E/DX2                !
 ! D319  D(75,78,81,83)        171.8243         estimate D2E/DX2                !
 ! D320  D(75,78,81,84)         52.7395         estimate D2E/DX2                !
 ! D321  D(79,78,81,82)         54.4335         estimate D2E/DX2                !
 ! D322  D(79,78,81,83)        -65.5961         estimate D2E/DX2                !
 ! D323  D(79,78,81,84)        175.3191         estimate D2E/DX2                !
 ! D324  D(80,78,81,82)        169.6412         estimate D2E/DX2                !
 ! D325  D(80,78,81,83)         49.6116         estimate D2E/DX2                !
 ! D326  D(80,78,81,84)        -69.4732         estimate D2E/DX2                !
 ! D327  D(78,81,82,41)         30.2199         estimate D2E/DX2                !
 ! D328  D(78,81,82,62)         67.2078         estimate D2E/DX2                !
 ! D329  D(83,81,82,41)        154.4116         estimate D2E/DX2                !
 ! D330  D(83,81,82,62)       -168.6004         estimate D2E/DX2                !
 ! D331  D(84,81,82,41)        -93.1914         estimate D2E/DX2                !
 ! D332  D(84,81,82,62)        -56.2034         estimate D2E/DX2                !
 ! D333  D(78,81,83,13)       -104.7532         estimate D2E/DX2                !
 ! D334  D(78,81,83,19)       -169.9296         estimate D2E/DX2                !
 ! D335  D(82,81,83,13)        130.4901         estimate D2E/DX2                !
 ! D336  D(82,81,83,19)         65.3137         estimate D2E/DX2                !
 ! D337  D(84,81,83,13)         17.4584         estimate D2E/DX2                !
 ! D338  D(84,81,83,19)        -47.718          estimate D2E/DX2                !
 ! D339  D(78,81,84,45)        -84.1577         estimate D2E/DX2                !
 ! D340  D(78,81,84,56)       -112.6253         estimate D2E/DX2                !
 ! D341  D(78,81,84,58)        -69.9878         estimate D2E/DX2                !
 ! D342  D(82,81,84,45)         40.7052         estimate D2E/DX2                !
 ! D343  D(82,81,84,56)         12.2376         estimate D2E/DX2                !
 ! D344  D(82,81,84,58)         54.8751         estimate D2E/DX2                !
 ! D345  D(83,81,84,45)        152.7008         estimate D2E/DX2                !
 ! D346  D(83,81,84,56)        124.2332         estimate D2E/DX2                !
 ! D347  D(83,81,84,58)        166.8707         estimate D2E/DX2                !
 --------------------------------------------------------------------------------
 Trust Radius=3.00D-01 FncErr=1.00D-07 GrdErr=1.00D-06
 Number of steps in this run=    504 maximum allowed number of steps=    504.
 GradGradGradGradGradGradGradGradGradGradGradGradGradGradGradGradGradGrad

 Leave Link  103 at Sat Apr 30 05:09:50 2016, MaxMem= 10737418240 cpu:         0.3
 (Enter /share/apps//g09/l202.exe)
 Stoichiometry    C23H44NO16(1+)
 Framework group  C1[X(C23H44NO16)]
 Deg. of freedom   246
 Full point group                 C1      NOp   1
 Largest Abelian subgroup         C1      NOp   1
 Largest concise Abelian subgroup C1      NOp   1
                         Standard orientation:                         
 ---------------------------------------------------------------------
 Center     Atomic      Atomic             Coordinates (Angstroms)
 Number     Number       Type             X           Y           Z
 ---------------------------------------------------------------------
      1          8           0        4.219345   -0.899375    0.731221
      2          6           0        3.451275    0.232884    1.064671
      3          6           0        4.109748    1.494899    0.504745
      4          6           0        4.300966    1.402081   -1.012102
      5          6           0        5.112087    0.144866   -1.341648
      6          6           0        4.432294   -1.076892   -0.696184
      7          1           0        3.437450    0.250482    2.168066
      8          1           0        5.099732    1.568723    0.982312
      9          1           0        3.318641    1.347367   -1.508677
     10          1           0        5.101430   -0.010622   -2.439728
     11          1           0        3.450305   -1.209010   -1.187393
     12          8           0        6.436746    0.417037   -0.889481
     13          8           0        4.929841    2.597285   -1.477183
     14          8           0        3.342318    2.675872    0.838007
     15          8           0        2.120386    0.179374    0.542417
     16          6           0        5.189139   -2.382324   -0.878462
     17          1           0        4.663543   -3.175823   -0.321580
     18          1           0        5.176379   -2.637693   -1.952330
     19          8           0        6.537961   -2.234829   -0.400524
     20          1           0        7.028728   -3.054405   -0.576383
     21          1           0        6.867548   -0.447472   -0.710129
     22          1           0        5.892914    2.451294   -1.366110
     23          1           0        3.812320    3.399576    0.373054
     24          8           0       -1.237509   -2.102561    1.585536
     25          6           0       -0.600344   -2.413062    0.350907
     26          6           0        0.349515   -1.279458   -0.105916
     27          6           0        1.330397   -0.929413    1.008356
     28          6           0        0.567875   -0.573155    2.291808
     29          6           0       -0.386652   -1.721085    2.671859
     30          1           0       -0.029072   -3.358099    0.419926
     31          1           0       -0.257151   -0.376759   -0.301280
     32          1           0        1.993283   -1.791965    1.199406
     33          1           0        1.287705   -0.448124    3.122557
     34          1           0        0.229544   -2.583145    3.000441
     35          8           0       -0.143665    0.661537    2.095937
     36          8           0        1.062752   -1.660609   -1.269802
     37          8           0       -1.625011   -2.693577   -0.579382
     38          6           0       -1.341550   -1.342782    3.811147
     39          1           0       -1.998958   -2.198203    4.030392
     40          1           0       -0.765040   -1.111651    4.718688
     41          8           0       -2.119022   -0.177978    3.494180
     42          1           0       -2.831196   -0.435281    2.837751
     43          1           0       -1.000999    0.573718    2.629813
     44          1           0        0.408394   -1.582406   -1.998057
     45          8           0       -4.907808   -1.123999   -1.195356
     46          6           0       -4.474457    0.129231   -1.639962
     47          6           0       -3.214238    0.061406   -2.548349
     48          6           0       -2.527924   -1.290772   -2.373865
     49          6           0       -2.504628   -1.597631   -0.866725
     50          6           0       -3.951585   -1.957646   -0.472702
     51          1           0       -5.311087    0.537933   -2.229595
     52          1           0       -2.499530    0.839086   -2.208201
     53          1           0       -3.120789   -2.060443   -2.893758
     54          1           0       -4.142983   -2.982927   -0.833825
     55          1           0       -2.191139   -0.706013   -0.301768
     56          8           0       -1.214405   -1.224900   -2.981131
     57          8           0       -3.635201    0.312810   -3.881000
     58          8           0       -4.225509    0.967580   -0.491600
     59          6           0       -4.275537   -1.947993    1.019173
     60          1           0       -5.337061   -2.226087    1.128830
     61          1           0       -3.658465   -2.705364    1.519708
     62          8           0       -4.027896   -0.700189    1.676772
     63          1           0       -4.300820    0.023374    1.065417
     64          1           0       -1.114523   -2.024974   -3.525402
     65          1           0       -2.852819    0.246441   -4.458022
     66          6           0       -4.404765    2.380758   -0.714078
     67          1           0       -3.817470    2.699378   -1.594559
     68          1           0       -5.467856    2.582778   -0.931696
     69          6           0       -3.967587    3.111797    0.548190
     70          1           0       -4.566883    2.730129    1.389584
     71          1           0       -4.241016    4.173981    0.438733
     72          6           0       -2.473928    2.985588    0.894421
     73          1           0       -2.331025    3.320733    1.934683
     74          1           0       -2.193582    1.920099    0.873716
     75          6           0       -1.553001    3.807790   -0.019980
     76          1           0       -1.591855    3.437352   -1.059983
     77          1           0       -1.921037    4.845849   -0.065104
     78          6           0       -0.094437    3.886202    0.426898
     79          1           0       -0.015000    4.222974    1.470209
     80          1           0        0.461923    4.597697   -0.198465
     81          7           0        0.618640    2.571651    0.348695
     82          1           0        0.270177    1.851300    1.051854
     83          1           0        1.659774    2.656377    0.526110
     84          1           0        0.524539    2.148709   -0.582190
 ---------------------------------------------------------------------
 Rotational constants (GHZ):      0.1357397      0.0577559      0.0552879
 Leave Link  202 at Sat Apr 30 05:09:50 2016, MaxMem= 10737418240 cpu:         1.4
 (Enter /share/apps//g09/l301.exe)
 Standard basis: 6-311+G(d,p) (5D, 7F)
 Ernie: Thresh=  0.10000D-02 Tol=  0.10000D-05 Strict=F.
 There are  1184 symmetry adapted cartesian basis functions of A   symmetry.
 There are  1144 symmetry adapted basis functions of A   symmetry.
  1144 basis functions,  1792 primitive gaussians,  1184 cartesian basis functions
   158 alpha electrons      158 beta electrons
       nuclear repulsion energy      5866.8823705096 Hartrees.
 IExCor= 1009 DFT=T Ex+Corr=PBE1PBE ExCW=0 ScaHFX=  0.250000
 ScaDFX=  0.750000  0.750000  1.000000  1.000000 ScalE2=  1.000000  1.000000
 IRadAn=      0 IRanWt=     -1 IRanGd=            0 ICorTp=0 IEmpDi=131
 NAtoms=   84 NActive=   84 NUniq=   84 SFac= 1.00D+00 NAtFMM=   60 NAOKFM=T Big=T
 Integral buffers will be    131072 words long.
 Raffenetti 2 integral format.
[...]
 ,0.00009306,-0.00025541,0.00022105,-0.00023267,0.00004069,-0.00027909,
 -0.00039982,-0.00016262,0.00030205,-0.00001117,-0.00008058,0.00008772,
 0.00016973,-0.00186413,0.00292157,0.00161572,-0.00060425,0.00000495,-0
 .00034239,-0.00034145,0.00022663,-0.00030123,0.00041728,-0.00024716,-0
 .00013551,-0.00008680,-0.00000358,0.00000915,-0.00000348,0.00001995,-0
 .00002009,-0.00020769,0.00045871,0.00031040,0.00003723,-0.00007895,-0.
 00003694,-0.00036827,-0.00021597,-0.00040768,0.00021072,-0.00016930,0.
 00005369,-0.00020444,0.00019268,0.00021369,0.00026393,0.00008062,-0.00
 044618,0.00013834,0.00018808,-0.00034278,0.00018877,0.00002667,0.00010
 186,0.00032094,-0.00013261,-0.00012474,0.00009321,-0.00011565,0.000022
 04,-0.00000966,-0.00001004,0.00000995,-0.00002314,0.00000549,0.0001385
 2,-0.00004622,-0.00000720,0.00000990,-0.00001760,-0.00000042,0.0000285
 5,-0.00000323,-0.00003986,-0.00000866,-0.00035528,0.00003150,-0.000114
 15,-0.00015261,-0.00019444,0.00017663,-0.00029973,-0.00006164,0.000500
 63,0.00011935,0.00001084,-0.00015383,-0.00000855,-0.00000998,0.0000282
 1,-0.00001111,0.00001962,0.00001589,-0.00016408,0.00011552,0.00020762,
 0.00006153,-0.00014291,-0.00015876,0.00009420,-0.00000504,0.00005694,0
 .00008302,0.00004053,-0.00005653,0.00020392,-0.00007229,-0.00024077,-0
 .00002118,0.00009515,-0.00002683,-0.00001737,-0.00000481,0.00010924,-0
 .00010639,0.00011643,-0.00016499,0.00008360,-0.00001475,0.00011139,0.0
 0005352,-0.00007300,0.00004288,0.00011677,-0.00018821,0.00039404,-0.00
 001079,-0.00004769,-0.00004664,0.00010116,-0.00014857,-0.00028673,-0.0
 0319101,0.00092774,0.00259137,0.00007336,0.00022369,0.00011747,-0.0000
 6268,0.00039379,-0.00087280,-0.01661578,0.00759358,-0.02127285,0.00025
 841,-0.00077758,-0.00035046,0.00176326,-0.00004363,-0.00015424,-0.1269
 3659,0.03431178,-0.10935288,0.00103862,-0.00562854,-0.00339109,0.13682
 555,-0.00094170,-0.00021990,0.00047994,0.00204980,-0.00048827,-0.00036
 105,0.00309296,-0.00079560,-0.00119348,-0.00058344,0.00135844,-0.00089
 850,-0.00015396,-0.00032922,0.00014757,0.00026650,0.00047214,-0.000126
 27,0.00001184,-0.00025085,-0.00002987,-0.00050778,-0.00000891,0.000093
 22,-0.00006293,-0.00029380,0.00039864,-0.00017259,-0.00003229,0.000000
 98,-0.00002007,-0.00002397,0.00000313,-0.00005906,-0.00018727,0.000021
 24,-0.00022948,-0.00069678,0.00021091,0.00071230,-0.00897466,-0.000667
 49,-0.00038213,-0.00051280,0.00143790,0.00003797,-0.00007326,-0.000002
 84,0.00001333,0.00001749,-0.00001021,-0.00005413,-0.00000899,-0.000005
 45,-0.00009115,0.00001619,0.00000311,0.00002747,-0.00000267,0.00000673
 ,0.00008477,-0.00000590,0.00003583,0.00009527,0.00008339,0.00005997,-0
 .00363912,0.00292440,-0.00256098,0.00000511,-0.00013669,0.00015866,0.0
 0002702,0.00001304,-0.00015330,-0.00032834,0.00035055,0.00005277,-0.00
 009449,-0.00048553,-0.00126515,-0.00071816,-0.00010309,-0.00029754,0.0
 0024167,0.00001412,-0.00015720,0.00001827,-0.00003020,-0.00002921,0.00
 006991,-0.00012685,0.00008555,-0.00003783,0.00010413,0.00015839,0.0001
 6049,-0.00023765,-0.00003858,0.00003424,-0.00003036,-0.00005606,0.0017
 9447,-0.00261594,0.00003088,0.00018551,-0.00020564,0.00006763,0.000162
 70,-0.00017885,0.00018685,-0.00016197,0.00009295,0.00003007,0.00003602
 ,0.00000365,0.00001095,0.00000119,-0.00002683,0.00000562,0.00015694,-0
 .00014751,0.00005283,-0.00005251,0.00012188,-0.00005491,-0.00015319,0.
 00007509,0.00003517,-0.00009348,0.00010497,0.00002241,0.00012007,-0.00
 011935,-0.00010532,-0.00015177,-0.00002656,0.00023307,-0.00005563,-0.0
 0003616,0.00009859,-0.00004263,0.00001111,-0.00002960,-0.00015833,0.00
 009134,0.00004071,-0.00006223,0.00007367,-0.00001277,0.00000909,0.0000
 0406,-0.00000494,-0.00000087,0.00000513,-0.00004918,0.00001343,-0.0000
 0001,-0.00000552,0.00000870,-0.00000263,-0.00001123,-0.00000596,0.0000
 1868,0.00000410,0.00011205,-0.00005821,0.00001447,0.00006690,0.0000274
 3,-0.00006847,0.00017706,0.00000844,-0.00026952,-0.00004197,-0.0000024
 5,0.00005058,0.00000431,0.00000296,-0.00000792,0.00000542,-0.00000973,
 -0.00001515,0.00008586,-0.00011027,-0.00005584,-0.00004418,0.00009626,
 0.00009083,-0.00003164,0.00001749,-0.00000858,-0.00003314,-0.00000296,
 0.00003803,-0.00012465,0.00003647,0.00014244,0.00000575,-0.00004566,0.
 00001011,0.00001489,0.00000327,-0.00005438,-0.00001790,-0.00005323,0.0
 0017106,-0.00004652,0.00000656,-0.00006900,-0.00004117,0.00004956,-0.0
 0006363,0.00013922,0.00018239,-0.00029434,-0.00000662,0.00000471,0.000
 04106,-0.00015052,0.00009974,0.00028600,0.00133144,-0.00052207,-0.0007
 7566,-0.00004746,0.00018695,-0.00025920,0.00019875,0.00019212,0.000259
 63,0.00659606,-0.00422793,0.00651302,-0.00113654,0.00033563,-0.0001910
 8,-0.00006719,-0.00037482,0.00032984,0.02984255,-0.07770804,0.05476563
 ,-0.01609250,0.01392157,-0.02283157,-0.03452095,0.08633982,-0.00013253
 ,-0.00018089,-0.00241460,0.00190218,0.00025642,0.00638859,-0.01034406,
 0.00048524,0.00796374,0.00059259,-0.00183406,0.00058302,-0.00021700,0.
 00085655,0.00035578,-0.00009937,-0.00012633,0.00075833,-0.00020525,0.0
 0023234,-0.00034826,0.00305802,-0.00052465,-0.00086256,-0.00002137,0.0
 0042466,-0.00008348,0.00048584,0.00004554,-0.00009724,0.00014846,0.000
 06075,0.00007300,0.00097082,0.00001255,-0.00027051,0.00127613,0.000970
 73,-0.00034325,0.01291211,-0.00279234,-0.00185625,-0.00305942,0.001083
 56,-0.00329355,-0.00008332,-0.00000764,0.00005920,0.00008059,-0.000110
 95,-0.00004906,0.00003059,0.00003261,0.00002618,0.00018804,-0.00013969
 ,-0.00024598,-0.00006247,0.00004461,-0.00002413,-0.00038077,0.00024273
 ,0.00014193,-0.00036237,-0.00024833,-0.00029860,0.00087192,-0.00188133
 ,-0.00278728,-0.00018676,0.00004819,-0.00001430,0.00005951,0.00009623,
 -0.00009610,0.00093005,-0.00011694,-0.00016739,0.00000968,0.00033912,-
 0.00015314,0.00188850,-0.00096556,0.00005698,-0.00030731,0.00005939,-0
 .00006104,-0.00005110,0.00006600,0.00008522,-0.00026465,0.00019964,-0.
 00021563,-0.00009138,0.00011756,0.00029140,-0.00017358,0.00032081,-0.0
 0001557,-0.00008684,0.00007297,0.00017014,-0.00084666,0.00266121,0.001
 98651,-0.00067332,-0.00012472,-0.00010739,-0.00022289,0.00009059,-0.00
 003184,0.00032814,-0.00033359,-0.00004272,-0.00005014,0.00002421,0.000
 03954,-0.00001225,0.00002054,-0.00003154,-0.00006353,0.00061043,0.0004
 7925,0.00000532,-0.00006821,-0.00010160,-0.00072945,-0.00033688,-0.000
 47989,0.00017356,-0.00005172,-0.00002111,-0.00020653,0.00017316,0.0002
 6985,0.00033419,0.00015248,-0.00054625,0.00011184,0.00024103,-0.000316
 54,0.00019588,0.00003029,0.00009484,0.00022900,-0.00005019,-0.00013599
 ,0.00008292,-0.00011499,-0.00000280,-0.00000741,-0.00001572,0.00000838
 ,-0.00000021,-0.00000470,0.00014014,-0.00004703,-0.00000696,0.00001568
 ,-0.00002236,-0.00000096,0.00002978,-0.00000359,-0.00003358,0.00000543
 ,-0.00031582,-0.00005622,-0.00007640,-0.00015842,-0.00026865,0.0001801
 0,-0.00040711,-0.00009442,0.00063337,0.00013262,0.00001479,-0.00020497
 ,-0.00000035,-0.00001564,0.00004285,-0.00001921,0.00001557,-0.00000161
 ,-0.00016185,0.00012157,0.00029020,0.00005935,-0.00016253,-0.00019478,
 0.00010772,0.00003331,0.00004683,0.00008280,0.00006618,-0.00005642,0.0
 0027232,-0.00008243,-0.00034961,-0.00000583,0.00013770,-0.00005472,-0.
 00001746,-0.00000297,0.00014389,-0.00011219,0.00024429,-0.00004251,0.0
 0008463,0.00000002,0.00021932,-0.00006083,-0.00006247,0.00000033,-0.00
 009931,-0.00055536,-0.00028531,-0.00000986,0.00004549,0.00002034,-0.00
 000600,0.00003757,-0.00013327,0.00484039,-0.00145296,-0.00258299,-0.00
 033747,0.00015388,-0.00015390,0.00122116,-0.00064233,0.00138061,0.0004
 2562,-0.00265499,0.01886016,0.00073877,0.00021699,0.00012325,0.0008721
 4,-0.00096082,0.00026473,-0.10539575,0.06042406,-0.24274045,-0.0078145
 8,0.00036236,-0.01888831,0.10382233,-0.05704300,0.25106544,0.00027332,
 -0.00014578,0.00018539,-0.00032229,0.00016659,-0.00094156,0.00065927,0
 .00004339,-0.00054757,-0.00019534,0.00045604,-0.00093132,-0.00022407,-
 0.00003797,0.00004797,-0.00003415,0.00006107,-0.00008410,0.00010107,-0
 .00018662,0.00016338,-0.00019122,-0.00003050,0.00008515,-0.00016951,-0
 .00034334,0.00004343,-0.00002454,-0.00000512,0.00000562,-0.00005774,0.
 00002196,0.00004332,0.00021442,-0.00014263,0.00014658,0.00003429,-0.00
 000972,0.00045891,-0.00182520,-0.00005974,-0.00071717,0.00003418,-0.00
 084530,0.00038731,-0.00009917,0.00002173,-0.00001014,0.00000457,-0.000
 00916,-0.00000068,0.00000071,-0.00000009,0.00000803,0.00011446,-0.0000
 7005,0.00004133,-0.00002045,0.00001408,-0.00000371,-0.00004592,0.00003
 352,0.00002196,-0.00004148,0.00000136,0.00000660,-0.00001407,0.0000683
 2,-0.00006738,-0.00024824,-0.00020939,-0.00007664,0.00046151,0.0000789
 4,0.00047909,-0.00007658,0.00047525,0.00003999,0.00012918,0.00042767,0
 .00080986,0.00089156,-0.00013130,-0.00012039,-0.00019347,0.00009391,-0
 .00004972,-0.00004321,-0.00001802,-0.00009094,0.00033590,0.00007666,0.
 00037537,-0.00000100,-0.00013647,-0.00010892,-0.00011145,0.00005415,0.
 00000373,-0.00002760,0.00002063,0.00006664,-0.00077897,0.00093461,0.00
 072125,-0.00000537,-0.00048552,-0.00060001,-0.00031020,0.00014483,-0.0
 0024151,0.00021369,-0.00010015,-0.00003847,-0.00003956,0.00000029,0.00
 000227,-0.00001421,0.00000409,-0.00000437,-0.00014134,0.00017748,0.000
 08580,0.00004505,-0.00004550,0.00000265,-0.00006996,-0.00011658,-0.000
 07592,-0.00007894,-0.00008112,0.00043649,-0.00019460,0.00012989,0.0001
 2473,0.00025446,0.00010075,-0.00031471,0.00008423,0.00007581,-0.000244
 14,0.00030180,0.00007186,0.00023506,0.00019610,-0.00010584,-0.00005411
 ,0.00013042,-0.00009406,0.00004373,-0.00002033,-0.00001329,0.00000351,
 0.00003089,0.00001419,0.00007605,-0.00005992,-0.00000799,-0.00002413,-
 0.00001678,0.00000123,0.00001096,0.00005140,-0.00001401,-0.00000352,-0
 .00030080,0.00005713,-0.00031956,-0.00013948,-0.00007996,0.00010753,-0
 .00027419,-0.00002798,0.00039567,0.00008228,0.00002623,-0.00010602,-0.
 00001747,-0.00001256,0.00001241,-0.00000248,0.00001869,0.00001946,-0.0
 0013753,0.00006930,0.00011336,0.00006376,-0.00010499,-0.00010112,0.000
 01832,-0.00002888,0.00001804,0.00007869,-0.00001332,-0.00001841,0.0001
 2551,-0.00010000,-0.00023242,-0.00000130,0.00008900,-0.00001978,-0.000
 00681,0.00001857,0.00006985,0.00002252,0.00010754,-0.00012929,0.000045
 76,-0.00000383,0.00008557,-0.00000369,-0.00003816,0.00003967,-0.000184
 26,-0.00013689,-0.00028192,0.00018657,0.00018009,0.00015343,-0.0000196
 4,-0.00026063,-0.00024148,0.00125022,-0.00142717,-0.00009168,-0.000095
 41,0.00117351,-0.00101924,0.00081182,0.00028229,0.00025995,-0.01967754
 ,-0.02430184,0.01565403,-0.00475096,0.00365708,0.00115548,0.00119471,0
 .00015385,0.00011480,-0.15864718,-0.13782815,0.08943890,-0.00061642,-0
 .00199976,-0.00082373,0.01324575,0.01340059,-0.00558874,0.16888366,-0.
 00075173,-0.00000645,-0.00026207,0.00066133,-0.00029480,0.00147560,0.0
 0010685,-0.00000285,0.00026527,0.00000565,0.00025728,-0.00002837,-0.00
 002431,0.00001912,0.00005772,0.00021415,0.00027259,0.00004740,-0.00008
 164,0.00011760,-0.00017091,-0.00000573,-0.00005767,-0.00005292,0.00001
 920,0.00016362,0.00009649,-0.00003706,-0.00002856,-0.00001348,0.000027
 18,0.00000058,0.00001404,0.00000676,-0.00008751,-0.00005911,0.00000274
 ,-0.00021716,-0.00011176,0.00007409,0.00002767,-0.00022067,-0.00112097
 ,0.00120014,-0.00101170,0.00005047,-0.00003576,0.00002075,0.00002065,-
 0.00000895,-0.00001473,-0.00003003,-0.00000668,-0.00000299,-0.00006524
 ,0.00000384,-0.00005105,0.00001556,0.00000368,0.00000428,0.00001516,0.
 00002876,0.00003692,0.00000408,0.00001728,-0.00000046,0.00002884,0.000
 16690,0.00000365,0.00007283,0.00004910,0.00012856,-0.00048953,0.000099
 08,-0.00061059,0.00128637,0.00003715,0.00038370,0.00016349,-0.00059143
 ,-0.00079581,-0.00016262,-0.00023820,-0.00018909,0.00018217,-0.0000753
 8,-0.00006763,0.00000643,0.00005456,0.00015102,-0.00036510,0.00038056,
 -0.00059071,-0.00007093,0.00016618,0.00011141,-0.00003242,0.00004013,0
 .00000596,0.00000136,-0.00001481,-0.00002934,0.00093206,-0.00015166,-0
 .00085705,-0.00049758,-0.00052146,0.00006724,0.00021314,-0.00025428,0.
 00031018,-0.00008752,-0.00001098,0.00001969,0.00002169,0.00001094,0.00
 001635,0.00000206,-0.00000682,-0.00000483,0.00010262,-0.00001567,0.000
 11862,-0.00005379,0.00006483,-0.00007285,-0.00012278,0.00000821,-0.000
 26988,-0.00008242,0.00032072,-0.00006543,0.00007526,-0.00018298,-0.000
 07079,0.00006000,0.00016580,0.00008229,-0.00014273,0.00001162,0.000195
 69,0.00009184,0.00011993,0.00004166,-0.00009090,0.00019243,-0.00010456
 ,-0.00011476,0.00007184,-0.00001100,0.00000073,-0.00001524,-0.00000013
 ,0.00006994,0.00005351,-0.00004779,-0.00000229,-0.00002819,-0.00001617
 ,0.00001279,-0.00000273,0.00001083,-0.00005379,-0.00000828,-0.00002992
 ,0.00008366,-0.00022840,-0.00010055,0.00005746,-0.00008627,-0.00011866
 ,0.00003852,-0.00014188,-0.00003499,0.00000205,0.00000215,-0.00003179,
 0.00000586,-0.00000259,0.00001120,-0.00000773,-0.00001499,-0.00001798,
 0.00004665,-0.00007578,0.00005488,-0.00004359,0.00007427,0.00001072,-0
 .00002638,0.00004689,-0.00001010,-0.00004347,0.00000478,0.00010802,-0.
 00000973,0.00014223,0.00007636,-0.00001204,-0.00005247,-0.00001592,-0.
 00000503,-0.00002779,-0.00000609,0.00008731,-0.00001802,-0.00005940,-0
 .00000724,-0.00001017,-0.00000030,0.00003560,-0.00001042,0.00003031,-0
 .00030595,-0.00012393,0.00044887,-0.00000306,-0.00015363,-0.00013604,-
 0.00002756,-0.00012957,-0.00024488,0.00034073,0.00204034,-0.00130555,-
 0.00078973,-0.00062220,0.00031819,-0.00007841,-0.00022758,0.00006229,0
 .00724446,0.01317288,-0.00730933,0.00349470,-0.00027430,-0.00076760,0.
 00012316,0.00039597,-0.00052947,-0.13690853,-0.24099322,0.11929089,-0.
 01523141,-0.01775843,0.01818206,-0.00492720,-0.00693743,0.00217980,0.1
 4680521,0.25074844,0.00010025,-0.00008756,-0.00023767,-0.00006810,0.00
 016387,0.00031086,-0.00053416,0.00030154,-0.00025891,-0.00011966,0.000
 44266,-0.00065715,-0.00024055,0.00001869,0.00018893,0.00002407,0.00001
 556,0.00012717,-0.00001073,-0.00002531,-0.00002271,-0.00000007,-0.0000
 7898,0.00001354,-0.00023532,-0.00022267,0.00026095,0.00002292,0.000008
 90,-0.00000374,0.00001638,0.00000856,0.00008121,0.00028882,-0.00016849
 ,-0.00002037,0.00022448,-0.00008815,0.00018747,-0.00071240,-0.00099711
 ,0.00011195,0.00031232,-0.00059036,-0.00127518,-0.00002249,-0.00002162
 ,0.00002979,0.00002501,-0.00003542,-0.00001546,0.00000562,0.00000987,0
 .00000883,0.00003593,-0.00003445,-0.00007242,-0.00000883,0.00001168,-0
 .00000083,-0.00006841,0.00006493,0.00006978,-0.00006734,-0.00000898,-0
 .00002942,-0.00008493,0.00020234,-0.00037428,0.00018397,0.00041306,-0.
 00009640,-0.00067768,-0.00010060,-0.00033702,0.00181696,-0.00044496,0.
 00033306,0.00005568,-0.00022457,0.00099789,-0.00035225,-0.00014293,-0.
 00038297,0.00009463,-0.00034193,0.00028189,0.00000263,0.00010350,0.000
 20430,-0.00047986,0.00000491,-0.00066210,0.00003922,0.00002775,-0.0002
 1226,0.00005002,0.00006482,-0.00000885,-0.00000598,0.00000628,-0.00006
 841,0.00091564,-0.00076719,-0.00142108,-0.00069535,0.00001896,-0.00002
 130,-0.00001397,0.00012097,0.00003085,-0.00000201,0.00001325,-0.000020
 65,-0.00000993,-0.00001545,-0.00000557,0.00001526,0.00001990,-0.000004
 06,-0.00004254,0.00000628,-0.00015754,-0.00000938,-0.00011421,0.000091
 22,0.00016119,-0.00000400,0.00008826,0.00026778,0.00000339,-0.00018741
 ,0.00006967,0.00010017,0.00011244,-0.00018669,-0.00011843,-0.00008879,
 0.00015874,0.00027583,-0.00043663,-0.00000509,-0.00002090,-0.00011076,
 0.00017104,0.00001268,-0.00014605,-0.00009856,-0.00005730,-0.00003596,
 0.00002690,0.00000910,0.00001701,-0.00011711,0.00003439,0.00016876,-0.
 00002068,-0.00000571,0.00003451,0.00001166,0.00000765,0.00002966,-0.00
 011255,-0.00010719,-0.00001901,-0.00015042,-0.00011516,0.00012493,-0.0
 0002697,-0.00030318,0.00018675,0.00019552,0.00002818,0.00003031,-0.000
 02920,-0.00004183,0.00001255,0.00002021,0.00001101,0.00000502,-0.00000
 828,-0.00000408,-0.00000687,0.00006405,0.00012201,0.00000094,-0.000034
 71,-0.00007604,-0.00003842,0.00007997,0.00005907,0.00008003,0.00002769
 ,0.00008895,-0.00002043,-0.00017043,0.00002086,0.00003225,-0.00000549,
 0.00003959,-0.00000429,0.00002847,0.00000843,0.00001866,0.00006436,-0.
 00002938,-0.00011273,-0.00000144,0.00000957,-0.00001112,0.00004134,-0.
 00001701,0.00002862,-0.00026565,0.00014682,-0.00000706,0.00018563,0.00
 007215,-0.00002893,0.00004247,-0.00031376,-0.00022004,-0.00161883,-0.0
 0143404,0.00145385,0.00060855,0.00037342,0.00036160,0.00000480,0.00018
 336,-0.00036579,0.00445945,0.00397762,-0.00361405,0.00037069,-0.001129
 58,0.00027607,0.00029131,0.00010111,-0.00070350,0.08842024,0.11839674,
 -0.13126087,-0.01383540,-0.01317327,0.01414762,0.01962374,0.02324787,-
 0.01201350,-0.09847579,-0.12791645,0.13525912\\-0.00001690,0.00000466,
 0.00000065,0.00001617,-0.00000313,0.00000091,0.00001187,-0.00000342,-0
 .00000346,-0.00000952,-0.00000199,-0.00000144,0.00001395,-0.00000322,-
 0.00000587,0.00000637,-0.00000415,0.00000579,-0.00000309,0.00000060,0.
 00000063,-0.00000115,0.00000219,-0.00000032,0.00000283,-0.00000183,0.0
 0000023,0.00000313,-0.00000339,-0.00000115,-0.00000100,-0.00000055,-0.
 00000218,0.00000223,-0.00000765,-0.00000966,0.00001044,0.00001317,-0.0
 0000244,0.00000683,0.00001030,-0.00000050,-0.00000354,-0.00000086,-0.0
 0000321,-0.00000476,0.00000155,-0.00001065,-0.00000343,-0.00000637,0.0
 0000353,0.00000108,-0.00000783,-0.00000152,0.00000451,-0.00001097,0.00
 000371,-0.00000183,-0.00000009,-0.00000067,-0.00000875,0.00000499,-0.0
 0000016,0.00000078,-0.00000644,-0.00000148,0.00000054,-0.00000112,-0.0
 0000291,0.00000969,0.00000429,-0.00001383,-0.00000979,0.00000183,0.000
 01196,-0.00000732,-0.00001076,-0.00001656,0.00000539,0.00000090,0.0000
 0707,-0.00003320,0.00001325,-0.00000248,-0.00000894,-0.00000415,0.0000
 1519,0.00000196,-0.00000004,0.00000119,0.00000152,0.00000242,0.0000034
 0,-0.00000081,-0.00000072,0.00000070,0.00000132,-0.00000350,0.00000201
 ,-0.00000261,0.00000038,0.00000067,0.00004051,-0.00002702,0.00001417,0
 .00000137,0.00000834,-0.00001324,-0.00001569,-0.00001260,0.00000161,-0
 .00000130,-0.00001115,-0.00000275,-0.00000602,0.00000131,0.00000481,-0
 .00000715,0.00000188,0.00000271,0.00000044,0.00001593,-0.00000077,-0.0
 0001183,-0.00000808,0.00001103,-0.00001078,0.00000581,-0.00000173,0.00
 000335,-0.00001356,0.00000933,-0.00001149,0.00001660,0.00000543,0.0000
 1379,-0.00001401,-0.00000403,0.00000167,0.00000551,-0.00000497,-0.0000
 1153,0.00000024,-0.00000094,0.00000950,0.00000190,-0.00000254,0.000015
 03,-0.00002341,0.00000660,0.00000077,0.00000142,-0.00000144,0.00000119
 ,-0.00000066,-0.00000015,0.00000303,-0.00000640,-0.00000204,-0.0000043
 9,0.00000008,-0.00000026,-0.00000197,-0.00000267,0.00000340,0.00001608
 ,-0.00000570,0.00000733,0.00000533,-0.00000403,0.00000549,-0.00000870,
 0.00000840,-0.00000868,-0.00000279,0.00000616,-0.00000799,-0.00000360,
 -0.00000145,0.00000498,-0.00000324,-0.00000231,0.00000356,-0.00000264,
 0.00000820,0.00000428,0.00000445,-0.00000393,-0.00000228,-0.00000450,-
 0.00000167,-0.00000638,0.00000326,-0.00000376,-0.00000704,-0.00000101,
 0.00000833,0.00001353,0.00000370,0.00000029,-0.00000513,-0.00000054,-0
 .00000121,0.00000108,0.00000789,0.00000526,-0.00000081,-0.00000081,0.0
 0000551,0.00000083,0.00000005,0.00000443,0.00000311,-0.00000329,0.0000
 0520,0.00000065,0.00000028,0.00000406,0.00000113,0.00000015,0.00000192
 ,0.00000216,-0.00000294,0.00000207,-0.00000018,0.00000367,0.00000353,-
 0.00000109,0.00000373,0.00000756,-0.00000178,0.00001008,0.00000183,0.0
 0000361,0.,0.00000640,0.00000062,0.00000234,0.00000334,-0.00000022,0.0
 0000343,0.00000308,0.00000010,-0.00000185,0.00002044,-0.00000772,-0.00
 000932,-0.00001608,-0.00000406,-0.00001167,0.00001632,-0.00000048\\\@


 MAN IS THE MEASURE OF ALL THINGS.
  -- PROTAGORAS (5TH CENTURY B.C.)
 Job cpu time:      17 days  4 hours 14 minutes 12.5 seconds.
 File lengths (MBytes):  RWF=  17059 Int=      0 D2E=      0 Chk=     99 Scr=      1
 Normal termination of Gaussian 09 at Sun May  1 23:33:05 2016.
