 Entering Gaussian System, Link 0=g09
 Initial command:
 /share/apps//g09/l1.exe "/scratch/Gau-24327.inp" -scrdir="/scratch/"
 Entering Link 1 = /share/apps//g09/l1.exe PID=     24328.
  
 Copyright (c) 1988,1990,1992,1993,1995,1998,2003,2009,2013,
            Gaussian, Inc.  All Rights Reserved.
  
 This is part of the Gaussian(R) 09 program.  It is based on
 the Gaussian(R) 03 system (copyright 2003, Gaussian, Inc.),
 the Gaussian(R) 98 system (copyright 1998, Gaussian, Inc.),
 the Gaussian(R) 94 system (copyright 1995, Gaussian, Inc.),
 the Gaussian 92(TM) system (copyright 1992, Gaussian, Inc.),
 the Gaussian 90(TM) system (copyright 1990, Gaussian, Inc.),
 the Gaussian 88(TM) system (copyright 1988, Gaussian, Inc.),
 the Gaussian 86(TM) system (copyright 1986, Carnegie Mellon
 University), and the Gaussian 82(TM) system (copyright 1983,
 Carnegie Mellon University). Gaussian is a federally registered
 trademark of Gaussian, Inc.
  
 This software contains proprietary and confidential information,
 including trade secrets, belonging to Gaussian, Inc.
  
 This software is provided under written license and may be
 used, copied, transmitted, or stored only in accord with that
 written license.
  
 The following legend is applicable only to US Government
 contracts under FAR:
  
                    RESTRICTED RIGHTS LEGEND
  
 Use, reproduction and disclosure by the US Government is
 subject to restrictions as set forth in subparagraphs (a)
 and (c) of the Commercial Computer Software - Restricted
 Rights clause in FAR 52.227-19.
  
 Gaussian, Inc.
 340 Quinnipiac St., Bldg. 40, Wallingford CT 06492
  
  
 ---------------------------------------------------------------
 Warning -- This program may not be used in any manner that
 competes with the business of Gaussian, Inc. or will provide
 assistance to any competitor of Gaussian, Inc.  The licensee
 of this program is prohibited from giving any competitor of
 Gaussian, Inc. access to this program.  By using this program,
 the user acknowledges that Gaussian, Inc. is engaged in the
 business of creating and licensing software in the field of
 computational chemistry and represents and warrants to the
 licensee that it is not a competitor of Gaussian, Inc. and that
 it will not use this program in any manner prohibited above.
 ---------------------------------------------------------------
  

 Cite this work as:
 Gaussian 09, Revision D.01,
 M. J. Frisch, G. W. Trucks, H. B. Schlegel, G. E. Scuseria, 
 M. A. Robb, J. R. Cheeseman, G. Scalmani, V. Barone, B. Mennucci, 
 G. A. Petersson, H. Nakatsuji, M. Caricato, X. Li, H. P. Hratchian, 
 A. F. Izmaylov, J. Bloino, G. Zheng, J. L. Sonnenberg, M. Hada, 
 M. Ehara, K. Toyota, R. Fukuda, J. Hasegawa, M. Ishida, T. Nakajima, 
 Y. Honda, O. Kitao, H. Nakai, T. Vreven, J. A. Montgomery, Jr., 
 J. E. Peralta, F. Ogliaro, M. Bearpark, J. J. Heyd, E. Brothers, 
 K. N. Kudin, V. N. Staroverov, T. Keith, R. Kobayashi, J. Normand, 
 K. Raghavachari, A. Rendell, J. C. Burant, S. S. Iyengar, J. Tomasi, 
 M. Cossi, N. Rega, J. M. Millam, M. Klene, J. E. Knox, J. B. Cross, 
 V. Bakken, C. Adamo, J. Jaramillo, R. Gomperts, R. E. Stratmann, 
 O. Yazyev, A. J. Austin, R. Cammi, C. Pomelli, J. W. Ochterski, 
 R. L. Martin, K. Morokuma, V. G. Zakrzewski, G. A. Voth, 
 P. Salvador, J. J. Dannenberg, S. Dapprich, A. D. Daniels, 
 O. Farkas, J. B. Foresman, J. V. Ortiz, J. Cioslowski, 
 and D. J. Fox, Gaussian, Inc., Wallingford CT, 2013.
 
 ******************************************
 Gaussian 09:  EM64L-G09RevD.01 24-Apr-2013
                23-May-2016 
 ******************************************
 %nproc=20
 Will use up to   20 processors via shared memory.
 %mem=80GB
 %chk=Tri_A154_of.chk
 ----------------------------------------------------------------------
 #P PBE1PBE/6-311+G(d,p) opt=ModRedundant optcyc=999 freq EmpiricalDisp
 ersion=GD3
 ----------------------------------------------------------------------
 1/6=999,14=-1,18=120,19=15,26=3,38=1/1,3;
 2/9=110,12=2,17=6,18=5,40=1/2;
 3/5=4,6=6,7=111,11=2,16=1,25=1,30=1,71=1,74=-13,124=31/1,2,3;
 4//1;
 5/5=2,38=5/2;
 6/7=2,8=2,9=2,10=2,28=1/1;
 7//1,2,3,16;
 1/6=999,14=-1,18=20,19=15,26=3/3(2);
 2/9=110/2;
 99//99;
 2/9=110/2;
 3/5=4,6=6,7=111,11=2,16=1,25=1,30=1,71=1,74=-13,124=31/1,2,3;
 4/5=5,16=3,69=1/1;
 5/5=2,38=5/2;
 7//1,2,3,16;
 1/6=999,14=-1,18=20,19=15,26=3/3(-5);
 2/9=110/2;
 6/7=2,8=2,9=2,10=2,19=2,28=1/1;
 99/9=1/99;
 Leave Link    1 at Mon May 23 08:35:49 2016, MaxMem= 10737418240 cpu:         1.7
 (Enter /share/apps//g09/l101.exe)
 -------
 disacch
 -------
 Symbolic Z-matrix:
 Charge =  1 Multiplicity = 1
 O                    -1.40747  -0.76755  -2.17582 
 C                     0.0101   -0.87456  -2.0762 
 C                     0.54849  -1.73027  -3.23792 
 C                     0.1646   -1.09219  -4.57199 
 C                    -1.33746  -0.82335  -4.6524 
 C                    -1.82787  -0.11454  -3.37974 
 C                    -3.34938   0.00454  -3.32057 
 O                    -4.01349  -1.26704  -3.22404 
 O                    -2.05503  -2.05712  -4.82429 
 O                     0.48952  -1.94133  -5.67247 
 O                     1.96567  -1.83242  -3.24334 
 O                     0.22437  -1.50407  -0.83358 
 C                     1.42487  -1.16334  -0.12353 
 C                     2.14392  -2.46047   0.26168 
 O                     2.56849  -3.17398  -0.90126 
 C                     1.18703  -3.31531   1.08654 
 C                     0.68475  -2.54452   2.32751 
 O                     0.21246  -1.22537   1.99501 
 C                     1.10628  -0.44226   1.20246 
 C                     0.51124   0.95393   1.10432 
 O                    -0.80365   0.90354   0.52178 
 O                    -0.35565  -3.19038   3.01594 
 C                    -1.52289  -3.56282   2.25687 
 C                    -1.70635  -5.07582   2.39326 
 C                    -3.05696  -5.56398   1.85156 
 C                    -4.19617  -4.74546   2.46298 
 O                    -3.94156  -3.35158   2.18415 
 C                    -2.75939  -2.8364    2.82242 
 C                    -2.77238  -1.32595   2.60786 
 O                    -2.77647  -0.96533   1.21917 
 O                    -5.38866  -5.09298   1.85547 
 C                    -6.56914  -4.54456   2.49812 
 C                    -7.62301  -4.26643   1.43177 
 C                    -7.11373  -3.41472   0.26002 
 C                    -6.62542  -2.00795   0.64105 
 C                    -5.81063  -1.34194  -0.4639 
 N                    -4.46611  -1.99473  -0.64638 
 O                    -3.16967  -6.9767    2.0182 
 O                    -0.65004  -5.75264   1.69929 
 O                     1.87337  -4.50171   1.45827 
 H                     0.47356   0.13633  -2.08272 
 H                     0.0703   -2.72295  -3.14706 
 H                     0.70461  -0.12853  -4.66169 
 H                    -1.53826  -0.16037  -5.515 
 H                    -1.41994   0.91837  -3.40898 
 H                    -3.7046    0.55175  -4.21012 
 H                    -3.63528   0.58212  -2.42919 
 H                    -3.55663  -1.85471  -3.87426 
 H                    -1.52202  -2.59575  -5.44388 
 H                     1.39092  -2.27773  -5.50483 
 H                     2.23409  -2.44394  -2.51813 
 H                     2.08846  -0.53873  -0.74373 
 H                     3.03232  -2.20049   0.86876 
 H                     2.74372  -4.08993  -0.6074 
 H                     0.33681  -3.55113   0.42716 
 H                     1.50327  -2.47741   3.06794 
 H                     2.07393  -0.30797   1.73179 
 H                     0.46367   1.37288   2.12272 
 H                     1.18202   1.58586   0.49669 
 H                    -1.22293   1.76887   0.66147 
 H                    -1.41905  -3.28387   1.19676 
 H                    -1.64348  -5.31434   3.47547 
 H                    -3.08794  -5.40322   0.76123 
 H                    -4.24183  -4.87629   3.57004 
 H                    -2.80857  -3.01229   3.91636 
 H                    -3.691    -0.92951   3.06934 
 H                    -1.90263  -0.88471   3.11023 
 H                    -1.93765  -0.49716   0.98483 
 H                    -6.29538  -3.62283   3.03425 
 H                    -6.94429  -5.27645   3.23262 
 H                    -8.48013  -3.77961   1.92541 
 H                    -7.99459  -5.22326   1.03485 
 H                    -7.91178  -3.32859  -0.49395 
 H                    -6.30557  -3.98899  -0.22407 
 H                    -6.01322  -2.03738   1.55492 
 H                    -7.48809  -1.36065   0.86224 
 H                    -6.32717  -1.38999  -1.43288 
 H                    -5.61243  -0.28606  -0.23693 
 H                    -4.54057  -3.00992  -0.50733 
 H                    -3.7675   -1.63581   0.06687 
 H                    -4.11784  -1.80502  -1.63033 
 H                    -3.3763   -7.17496   2.95096 
 H                    -0.90921  -6.6943    1.66495 
 H                     1.1731   -5.16053   1.66352 
 
 The following ModRedundant input section has been read:
 
 NAtoms=     84 NQM=       84 NQMF=       0 NMMI=      0 NMMIF=      0
                NMic=       0 NMicF=      0.
                    Isotopes and Nuclear Properties:
 (Nuclear quadrupole moments (NQMom) in fm**2, nuclear magnetic moments (NMagM)
  in nuclear magnetons)

  Atom         1           2           3           4           5           6           7           8           9          10
 IAtWgt=          16          12          12          12          12          12          12          16          16          16
 AtmWgt=  15.9949146  12.0000000  12.0000000  12.0000000  12.0000000  12.0000000  12.0000000  15.9949146  15.9949146  15.9949146
 NucSpn=           0           0           0           0           0           0           0           0           0           0
 AtZEff=   0.0000000   0.0000000   0.0000000   0.0000000   0.0000000   0.0000000   0.0000000   0.0000000   0.0000000   0.0000000
 NQMom=    0.0000000   0.0000000   0.0000000   0.0000000   0.0000000   0.0000000   0.0000000   0.0000000   0.0000000   0.0000000
 NMagM=    0.0000000   0.0000000   0.0000000   0.0000000   0.0000000   0.0000000   0.0000000   0.0000000   0.0000000   0.0000000
 AtZNuc=   8.0000000   6.0000000   6.0000000   6.0000000   6.0000000   6.0000000   6.0000000   8.0000000   8.0000000   8.0000000

  Atom        11          12          13          14          15          16          17          18          19          20
 IAtWgt=          16          16          12          12          16          12          12          16          12          12
 AtmWgt=  15.9949146  15.9949146  12.0000000  12.0000000  15.9949146  12.0000000  12.0000000  15.9949146  12.0000000  12.0000000
 NucSpn=           0           0           0           0           0           0           0           0           0           0
 AtZEff=   0.0000000   0.0000000   0.0000000   0.0000000   0.0000000   0.0000000   0.0000000   0.0000000   0.0000000   0.0000000
 NQMom=    0.0000000   0.0000000   0.0000000   0.0000000   0.0000000   0.0000000   0.0000000   0.0000000   0.0000000   0.0000000
 NMagM=    0.0000000   0.0000000   0.0000000   0.0000000   0.0000000   0.0000000   0.0000000   0.0000000   0.0000000   0.0000000
 AtZNuc=   8.0000000   8.0000000   6.0000000   6.0000000   8.0000000   6.0000000   6.0000000   8.0000000   6.0000000   6.0000000

  Atom        21          22          23          24          25          26          27          28          29          30
 IAtWgt=          16          16          12          12          12          12          16          12          12          16
 AtmWgt=  15.9949146  15.9949146  12.0000000  12.0000000  12.0000000  12.0000000  15.9949146  12.0000000  12.0000000  15.9949146
 NucSpn=           0           0           0           0           0           0           0           0           0           0
 AtZEff=   0.0000000   0.0000000   0.0000000   0.0000000   0.0000000   0.0000000   0.0000000   0.0000000   0.0000000   0.0000000
 NQMom=    0.0000000   0.0000000   0.0000000   0.0000000   0.0000000   0.0000000   0.0000000   0.0000000   0.0000000   0.0000000
 NMagM=    0.0000000   0.0000000   0.0000000   0.0000000   0.0000000   0.0000000   0.0000000   0.0000000   0.0000000   0.0000000
 AtZNuc=   8.0000000   8.0000000   6.0000000   6.0000000   6.0000000   6.0000000   8.0000000   6.0000000   6.0000000   8.0000000

  Atom        31          32          33          34          35          36          37          38          39          40
 IAtWgt=          16          12          12          12          12          12          14          16          16          16
 AtmWgt=  15.9949146  12.0000000  12.0000000  12.0000000  12.0000000  12.0000000  14.0030740  15.9949146  15.9949146  15.9949146
 NucSpn=           0           0           0           0           0           0           2           0           0           0
 AtZEff=   0.0000000   0.0000000   0.0000000   0.0000000   0.0000000   0.0000000   0.0000000   0.0000000   0.0000000   0.0000000
 NQMom=    0.0000000   0.0000000   0.0000000   0.0000000   0.0000000   0.0000000   2.0440000   0.0000000   0.0000000   0.0000000
 NMagM=    0.0000000   0.0000000   0.0000000   0.0000000   0.0000000   0.0000000   0.4037610   0.0000000   0.0000000   0.0000000
 AtZNuc=   8.0000000   6.0000000   6.0000000   6.0000000   6.0000000   6.0000000   7.0000000   8.0000000   8.0000000   8.0000000

  Atom        41          42          43          44          45          46          47          48          49          50
 IAtWgt=           1           1           1           1           1           1           1           1           1           1
 AtmWgt=   1.0078250   1.0078250   1.0078250   1.0078250   1.0078250   1.0078250   1.0078250   1.0078250   1.0078250   1.0078250
 NucSpn=           1           1           1           1           1           1           1           1           1           1
 AtZEff=   0.0000000   0.0000000   0.0000000   0.0000000   0.0000000   0.0000000   0.0000000   0.0000000   0.0000000   0.0000000
 NQMom=    0.0000000   0.0000000   0.0000000   0.0000000   0.0000000   0.0000000   0.0000000   0.0000000   0.0000000   0.0000000
 NMagM=    2.7928460   2.7928460   2.7928460   2.7928460   2.7928460   2.7928460   2.7928460   2.7928460   2.7928460   2.7928460
 AtZNuc=   1.0000000   1.0000000   1.0000000   1.0000000   1.0000000   1.0000000   1.0000000   1.0000000   1.0000000   1.0000000

  Atom        51          52          53          54          55          56          57          58          59          60
 IAtWgt=           1           1           1           1           1           1           1           1           1           1
 AtmWgt=   1.0078250   1.0078250   1.0078250   1.0078250   1.0078250   1.0078250   1.0078250   1.0078250   1.0078250   1.0078250
 NucSpn=           1           1           1           1           1           1           1           1           1           1
 AtZEff=   0.0000000   0.0000000   0.0000000   0.0000000   0.0000000   0.0000000   0.0000000   0.0000000   0.0000000   0.0000000
 NQMom=    0.0000000   0.0000000   0.0000000   0.0000000   0.0000000   0.0000000   0.0000000   0.0000000   0.0000000   0.0000000
 NMagM=    2.7928460   2.7928460   2.7928460   2.7928460   2.7928460   2.7928460   2.7928460   2.7928460   2.7928460   2.7928460
 AtZNuc=   1.0000000   1.0000000   1.0000000   1.0000000   1.0000000   1.0000000   1.0000000   1.0000000   1.0000000   1.0000000

  Atom        61          62          63          64          65          66          67          68          69          70
 IAtWgt=           1           1           1           1           1           1           1           1           1           1
 AtmWgt=   1.0078250   1.0078250   1.0078250   1.0078250   1.0078250   1.0078250   1.0078250   1.0078250   1.0078250   1.0078250
 NucSpn=           1           1           1           1           1           1           1           1           1           1
 AtZEff=   0.0000000   0.0000000   0.0000000   0.0000000   0.0000000   0.0000000   0.0000000   0.0000000   0.0000000   0.0000000
 NQMom=    0.0000000   0.0000000   0.0000000   0.0000000   0.0000000   0.0000000   0.0000000   0.0000000   0.0000000   0.0000000
 NMagM=    2.7928460   2.7928460   2.7928460   2.7928460   2.7928460   2.7928460   2.7928460   2.7928460   2.7928460   2.7928460
 AtZNuc=   1.0000000   1.0000000   1.0000000   1.0000000   1.0000000   1.0000000   1.0000000   1.0000000   1.0000000   1.0000000

  Atom        71          72          73          74          75          76          77          78          79          80
 IAtWgt=           1           1           1           1           1           1           1           1           1           1
 AtmWgt=   1.0078250   1.0078250   1.0078250   1.0078250   1.0078250   1.0078250   1.0078250   1.0078250   1.0078250   1.0078250
 NucSpn=           1           1           1           1           1           1           1           1           1           1
 AtZEff=   0.0000000   0.0000000   0.0000000   0.0000000   0.0000000   0.0000000   0.0000000   0.0000000   0.0000000   0.0000000
 NQMom=    0.0000000   0.0000000   0.0000000   0.0000000   0.0000000   0.0000000   0.0000000   0.0000000   0.0000000   0.0000000
 NMagM=    2.7928460   2.7928460   2.7928460   2.7928460   2.7928460   2.7928460   2.7928460   2.7928460   2.7928460   2.7928460
 AtZNuc=   1.0000000   1.0000000   1.0000000   1.0000000   1.0000000   1.0000000   1.0000000   1.0000000   1.0000000   1.0000000

  Atom        81          82          83          84
 IAtWgt=           1           1           1           1
 AtmWgt=   1.0078250   1.0078250   1.0078250   1.0078250
 NucSpn=           1           1           1           1
 AtZEff=   0.0000000   0.0000000   0.0000000   0.0000000
 NQMom=    0.0000000   0.0000000   0.0000000   0.0000000
 NMagM=    2.7928460   2.7928460   2.7928460   2.7928460
 AtZNuc=   1.0000000   1.0000000   1.0000000   1.0000000
 Leave Link  101 at Mon May 23 08:35:50 2016, MaxMem= 10737418240 cpu:         4.9
 (Enter /share/apps//g09/l103.exe)

 GradGradGradGradGradGradGradGradGradGradGradGradGradGradGradGradGradGrad
 Berny optimization.
 Initialization pass.
                           ----------------------------
                           !    Initial Parameters    !
                           ! (Angstroms and Degrees)  !
 --------------------------                            --------------------------
 ! Name  Definition              Value          Derivative Info.                !
 --------------------------------------------------------------------------------
 ! R1    R(1,2)                  1.4251         estimate D2E/DX2                !
 ! R2    R(1,6)                  1.4327         estimate D2E/DX2                !
 ! R3    R(2,3)                  1.54           estimate D2E/DX2                !
 ! R4    R(2,12)                 1.4094         estimate D2E/DX2                !
 ! R5    R(2,41)                 1.1121         estimate D2E/DX2                !
 ! R6    R(3,4)                  1.5278         estimate D2E/DX2                !
 ! R7    R(3,11)                 1.4209         estimate D2E/DX2                !
 ! R8    R(3,42)                 1.1056         estimate D2E/DX2                !
 ! R9    R(4,5)                  1.528          estimate D2E/DX2                !
 ! R10   R(4,10)                 1.4275         estimate D2E/DX2                !
 ! R11   R(4,43)                 1.1083         estimate D2E/DX2                !
 ! R12   R(5,6)                  1.5371         estimate D2E/DX2                !
 ! R13   R(5,9)                  1.4376         estimate D2E/DX2                !
 ! R14   R(5,44)                 1.1063         estimate D2E/DX2                !
 ! R15   R(6,7)                  1.5273         estimate D2E/DX2                !
 ! R16   R(6,45)                 1.1109         estimate D2E/DX2                !
 ! R17   R(7,8)                  1.4378         estimate D2E/DX2                !
 ! R18   R(7,46)                 1.1031         estimate D2E/DX2                !
 ! R19   R(7,47)                 1.1            estimate D2E/DX2                !
 ! R20   R(8,48)                 0.9884         estimate D2E/DX2                !
 ! R21   R(9,49)                 0.9788         estimate D2E/DX2                !
 ! R22   R(10,50)                0.9766         estimate D2E/DX2                !
 ! R23   R(11,51)                0.9859         estimate D2E/DX2                !
 ! R24   R(12,13)                1.4358         estimate D2E/DX2                !
 ! R25   R(13,14)                1.5323         estimate D2E/DX2                !
 ! R26   R(13,19)                1.5426         estimate D2E/DX2                !
 ! R27   R(13,52)                1.1023         estimate D2E/DX2                !
 ! R28   R(14,15)                1.4289         estimate D2E/DX2                !
 ! R29   R(14,16)                1.5254         estimate D2E/DX2                !
 ! R30   R(14,53)                1.107          estimate D2E/DX2                !
 ! R31   R(15,54)                0.9778         estimate D2E/DX2                !
 ! R32   R(16,17)                1.5448         estimate D2E/DX2                !
 ! R33   R(16,40)                1.4201         estimate D2E/DX2                !
 ! R34   R(16,55)                1.1015         estimate D2E/DX2                !
 ! R35   R(17,18)                1.4401         estimate D2E/DX2                !
 ! R36   R(17,22)                1.4048         estimate D2E/DX2                !
 ! R37   R(17,56)                1.1058         estimate D2E/DX2                !
 ! R38   R(18,19)                1.4284         estimate D2E/DX2                !
 ! R39   R(19,20)                1.5209         estimate D2E/DX2                !
 ! R40   R(19,57)                1.1111         estimate D2E/DX2                !
 ! R41   R(20,21)                1.439          estimate D2E/DX2                !
 ! R42   R(20,58)                1.1022         estimate D2E/DX2                !
 ! R43   R(20,59)                1.1039         estimate D2E/DX2                !
 ! R44   R(21,60)                0.9717         estimate D2E/DX2                !
 ! R45   R(22,23)                1.4413         estimate D2E/DX2                !
 ! R46   R(23,24)                1.5302         estimate D2E/DX2                !
 ! R47   R(23,28)                1.5416         estimate D2E/DX2                !
 ! R48   R(23,61)                1.1011         estimate D2E/DX2                !
 ! R49   R(24,25)                1.5349         estimate D2E/DX2                !
 ! R50   R(24,39)                1.4337         estimate D2E/DX2                !
 ! R51   R(24,62)                1.11           estimate D2E/DX2                !
 ! R52   R(25,26)                1.5302         estimate D2E/DX2                !
 ! R53   R(25,38)                1.427          estimate D2E/DX2                !
 ! R54   R(25,63)                1.1026         estimate D2E/DX2                !
 ! R55   R(26,27)                1.4441         estimate D2E/DX2                !
 ! R56   R(26,31)                1.3827         estimate D2E/DX2                !
 ! R57   R(26,64)                1.1157         estimate D2E/DX2                !
 ! R58   R(27,28)                1.4389         estimate D2E/DX2                !
 ! R59   R(28,29)                1.5257         estimate D2E/DX2                !
 ! R60   R(28,65)                1.1091         estimate D2E/DX2                !
 ! R61   R(29,30)                1.4348         estimate D2E/DX2                !
 ! R62   R(29,66)                1.1018         estimate D2E/DX2                !
 ! R63   R(29,67)                1.0971         estimate D2E/DX2                !
 ! R64   R(30,68)                0.9888         estimate D2E/DX2                !
 ! R65   R(31,32)                1.4517         estimate D2E/DX2                !
 ! R66   R(32,33)                1.5248         estimate D2E/DX2                !
 ! R67   R(32,69)                1.1009         estimate D2E/DX2                !
 ! R68   R(32,70)                1.1027         estimate D2E/DX2                !
 ! R69   R(33,34)                1.5355         estimate D2E/DX2                !
 ! R70   R(33,71)                1.1024         estimate D2E/DX2                !
 ! R71   R(33,72)                1.1005         estimate D2E/DX2                !
 ! R72   R(34,35)                1.5371         estimate D2E/DX2                !
 ! R73   R(34,73)                1.1013         estimate D2E/DX2                !
 ! R74   R(34,74)                1.1033         estimate D2E/DX2                !
 ! R75   R(35,36)                1.5259         estimate D2E/DX2                !
 ! R76   R(35,75)                1.1004         estimate D2E/DX2                !
 ! R77   R(35,76)                1.101          estimate D2E/DX2                !
 ! R78   R(36,37)                1.5057         estimate D2E/DX2                !
 ! R79   R(36,77)                1.0991         estimate D2E/DX2                !
 ! R80   R(36,78)                1.098          estimate D2E/DX2                !
 ! R81   R(37,79)                1.0274         estimate D2E/DX2                !
 ! R82   R(37,80)                1.0609         estimate D2E/DX2                !
 ! R83   R(37,81)                1.0609         estimate D2E/DX2                !
 ! R84   R(38,82)                0.9757         estimate D2E/DX2                !
 ! R85   R(39,83)                0.9773         estimate D2E/DX2                !
 ! R86   R(40,84)                0.9831         estimate D2E/DX2                !
 ! A1    A(2,1,6)              112.6347         estimate D2E/DX2                !
 ! A2    A(1,2,3)              109.6786         estimate D2E/DX2                !
 ! A3    A(1,2,12)             104.2649         estimate D2E/DX2                !
 ! A4    A(1,2,41)             110.2357         estimate D2E/DX2                !
 ! A5    A(3,2,12)             111.3316         estimate D2E/DX2                !
 ! A6    A(3,2,41)             110.7914         estimate D2E/DX2                !
 ! A7    A(12,2,41)            110.3545         estimate D2E/DX2                !
 ! A8    A(2,3,4)              109.8027         estimate D2E/DX2                !
 ! A9    A(2,3,11)             113.0487         estimate D2E/DX2                !
 ! A10   A(2,3,42)             106.6005         estimate D2E/DX2                !
 ! A11   A(4,3,11)             106.0996         estimate D2E/DX2                !
 ! A12   A(4,3,42)             109.7592         estimate D2E/DX2                !
 ! A13   A(11,3,42)            111.5406         estimate D2E/DX2                !
 ! A14   A(3,4,5)              111.495          estimate D2E/DX2                !
 ! A15   A(3,4,10)             111.5636         estimate D2E/DX2                !
 ! A16   A(3,4,43)             108.1425         estimate D2E/DX2                !
 ! A17   A(5,4,10)             106.7285         estimate D2E/DX2                !
 ! A18   A(5,4,43)             108.7672         estimate D2E/DX2                !
 ! A19   A(10,4,43)            110.1164         estimate D2E/DX2                !
 ! A20   A(4,5,6)              110.5602         estimate D2E/DX2                !
 ! A21   A(4,5,9)              110.2404         estimate D2E/DX2                !
 ! A22   A(4,5,44)             108.9583         estimate D2E/DX2                !
 ! A23   A(6,5,9)              109.6035         estimate D2E/DX2                !
 ! A24   A(6,5,44)             108.1388         estimate D2E/DX2                !
 ! A25   A(9,5,44)             109.298          estimate D2E/DX2                !
 ! A26   A(1,6,5)              113.0767         estimate D2E/DX2                !
 ! A27   A(1,6,7)              107.1757         estimate D2E/DX2                !
 ! A28   A(1,6,45)             109.7644         estimate D2E/DX2                !
 ! A29   A(5,6,7)              112.6981         estimate D2E/DX2                !
 ! A30   A(5,6,45)             106.8466         estimate D2E/DX2                !
 ! A31   A(7,6,45)             107.1174         estimate D2E/DX2                !
 ! A32   A(6,7,8)              113.1903         estimate D2E/DX2                !
 ! A33   A(6,7,46)             109.1608         estimate D2E/DX2                !
 ! A34   A(6,7,47)             109.3458         estimate D2E/DX2                !
 ! A35   A(8,7,46)             110.1272         estimate D2E/DX2                !
 ! A36   A(8,7,47)             106.8536         estimate D2E/DX2                !
 ! A37   A(46,7,47)            108.0174         estimate D2E/DX2                !
 ! A38   A(7,8,48)             105.5558         estimate D2E/DX2                !
 ! A39   A(5,9,49)             106.0301         estimate D2E/DX2                !
 ! A40   A(4,10,50)            106.4187         estimate D2E/DX2                !
 ! A41   A(3,11,51)            108.2612         estimate D2E/DX2                !
 ! A42   A(2,12,13)            117.2034         estimate D2E/DX2                !
 ! A43   A(12,13,14)           108.4088         estimate D2E/DX2                !
 ! A44   A(12,13,19)           111.3052         estimate D2E/DX2                !
 ! A45   A(12,13,52)           111.0736         estimate D2E/DX2                !
 ! A46   A(14,13,19)           106.0526         estimate D2E/DX2                !
 ! A47   A(14,13,52)           109.7923         estimate D2E/DX2                !
 ! A48   A(19,13,52)           110.0644         estimate D2E/DX2                !
 ! A49   A(13,14,15)           110.9487         estimate D2E/DX2                !
 ! A50   A(13,14,16)           108.4193         estimate D2E/DX2                !
 ! A51   A(13,14,53)           108.4006         estimate D2E/DX2                !
 ! A52   A(15,14,16)           110.2832         estimate D2E/DX2                !
 ! A53   A(15,14,53)           108.9745         estimate D2E/DX2                !
 ! A54   A(16,14,53)           109.7859         estimate D2E/DX2                !
 ! A55   A(14,15,54)           106.0466         estimate D2E/DX2                !
 ! A56   A(14,16,17)           111.0232         estimate D2E/DX2                !
 ! A57   A(14,16,40)           107.8512         estimate D2E/DX2                !
 ! A58   A(14,16,55)           106.2889         estimate D2E/DX2                !
 ! A59   A(17,16,40)           111.3276         estimate D2E/DX2                !
 ! A60   A(17,16,55)           109.6785         estimate D2E/DX2                !
 ! A61   A(40,16,55)           110.5414         estimate D2E/DX2                !
 ! A62   A(16,17,18)           112.2234         estimate D2E/DX2                !
 ! A63   A(16,17,22)           113.8957         estimate D2E/DX2                !
 ! A64   A(16,17,56)           109.1179         estimate D2E/DX2                !
 ! A65   A(18,17,22)           106.9421         estimate D2E/DX2                !
 ! A66   A(18,17,56)           109.9855         estimate D2E/DX2                !
 ! A67   A(22,17,56)           104.3575         estimate D2E/DX2                !
 ! A68   A(17,18,19)           115.157          estimate D2E/DX2                !
 ! A69   A(13,19,18)           110.481          estimate D2E/DX2                !
 ! A70   A(13,19,20)           117.0296         estimate D2E/DX2                !
 ! A71   A(13,19,57)           106.6264         estimate D2E/DX2                !
 ! A72   A(18,19,20)           107.1143         estimate D2E/DX2                !
 ! A73   A(18,19,57)           110.2971         estimate D2E/DX2                !
 ! A74   A(20,19,57)           105.101          estimate D2E/DX2                !
 ! A75   A(19,20,21)           110.5774         estimate D2E/DX2                !
 ! A76   A(19,20,58)           107.8301         estimate D2E/DX2                !
 ! A77   A(19,20,59)           108.8634         estimate D2E/DX2                !
 ! A78   A(21,20,58)           110.3588         estimate D2E/DX2                !
 ! A79   A(21,20,59)           110.6378         estimate D2E/DX2                !
 ! A80   A(58,20,59)           108.4953         estimate D2E/DX2                !
 ! A81   A(20,21,60)           107.7523         estimate D2E/DX2                !
 ! A82   A(17,22,23)           117.4185         estimate D2E/DX2                !
 ! A83   A(22,23,24)           107.7979         estimate D2E/DX2                !
 ! A84   A(22,23,28)           109.5485         estimate D2E/DX2                !
 ! A85   A(22,23,61)           111.4206         estimate D2E/DX2                !
 ! A86   A(24,23,28)           109.698          estimate D2E/DX2                !
 ! A87   A(24,23,61)           110.3415         estimate D2E/DX2                !
 ! A88   A(28,23,61)           108.0274         estimate D2E/DX2                !
 ! A89   A(23,24,25)           112.8622         estimate D2E/DX2                !
 ! A90   A(23,24,39)           109.591          estimate D2E/DX2                !
 ! A91   A(23,24,62)           107.0132         estimate D2E/DX2                !
 ! A92   A(25,24,39)           109.1077         estimate D2E/DX2                !
 ! A93   A(25,24,62)           109.0017         estimate D2E/DX2                !
 ! A94   A(39,24,62)           109.1937         estimate D2E/DX2                !
 ! A95   A(24,25,26)           110.1179         estimate D2E/DX2                !
 ! A96   A(24,25,38)           110.0692         estimate D2E/DX2                !
 ! A97   A(24,25,63)           109.1089         estimate D2E/DX2                !
 ! A98   A(26,25,38)           115.0934         estimate D2E/DX2                !
 ! A99   A(26,25,63)           107.2307         estimate D2E/DX2                !
 ! A100  A(38,25,63)           104.9286         estimate D2E/DX2                !
 ! A101  A(25,26,27)           107.932          estimate D2E/DX2                !
 ! A102  A(25,26,31)           109.3941         estimate D2E/DX2                !
 ! A103  A(25,26,64)           111.359          estimate D2E/DX2                !
 ! A104  A(27,26,31)           108.0479         estimate D2E/DX2                !
 ! A105  A(27,26,64)           108.1788         estimate D2E/DX2                !
 ! A106  A(31,26,64)           111.7893         estimate D2E/DX2                !
 ! A107  A(26,27,28)           113.8784         estimate D2E/DX2                !
 ! A108  A(23,28,27)           109.1201         estimate D2E/DX2                !
 ! A109  A(23,28,29)           114.9454         estimate D2E/DX2                !
 ! A110  A(23,28,65)           108.8258         estimate D2E/DX2                !
 ! A111  A(27,28,29)           106.5646         estimate D2E/DX2                !
 ! A112  A(27,28,65)           110.1404         estimate D2E/DX2                !
 ! A113  A(29,28,65)           107.1782         estimate D2E/DX2                !
 ! A114  A(28,29,30)           112.6426         estimate D2E/DX2                !
 ! A115  A(28,29,66)           107.7229         estimate D2E/DX2                !
 ! A116  A(28,29,67)           109.0893         estimate D2E/DX2                !
 ! A117  A(30,29,66)           108.2146         estimate D2E/DX2                !
 ! A118  A(30,29,67)           110.1446         estimate D2E/DX2                !
 ! A119  A(66,29,67)           108.9338         estimate D2E/DX2                !
 ! A120  A(29,30,68)           110.2413         estimate D2E/DX2                !
 ! A121  A(26,31,32)           114.3223         estimate D2E/DX2                !
 ! A122  A(31,32,33)           108.7446         estimate D2E/DX2                !
 ! A123  A(31,32,69)           109.2495         estimate D2E/DX2                !
 ! A124  A(31,32,70)           108.7111         estimate D2E/DX2                !
 ! A125  A(33,32,69)           111.0829         estimate D2E/DX2                !
 ! A126  A(33,32,70)           110.5946         estimate D2E/DX2                !
 ! A127  A(69,32,70)           108.4171         estimate D2E/DX2                !
 ! A128  A(32,33,34)           113.9288         estimate D2E/DX2                !
 ! A129  A(32,33,71)           107.7436         estimate D2E/DX2                !
 ! A130  A(32,33,72)           109.0864         estimate D2E/DX2                !
 ! A131  A(34,33,71)           110.7708         estimate D2E/DX2                !
 ! A132  A(34,33,72)           108.6034         estimate D2E/DX2                !
 ! A133  A(71,33,72)           106.4347         estimate D2E/DX2                !
 ! A134  A(33,34,35)           115.078          estimate D2E/DX2                !
 ! A135  A(33,34,73)           108.9949         estimate D2E/DX2                !
 ! A136  A(33,34,74)           106.8017         estimate D2E/DX2                !
 ! A137  A(35,34,73)           109.1689         estimate D2E/DX2                !
 ! A138  A(35,34,74)           110.6366         estimate D2E/DX2                !
 ! A139  A(73,34,74)           105.7315         estimate D2E/DX2                !
 ! A140  A(34,35,36)           112.9294         estimate D2E/DX2                !
 ! A141  A(34,35,75)           110.9864         estimate D2E/DX2                !
 ! A142  A(34,35,76)           109.8142         estimate D2E/DX2                !
 ! A143  A(36,35,75)           108.4207         estimate D2E/DX2                !
 ! A144  A(36,35,76)           107.8944         estimate D2E/DX2                !
 ! A145  A(75,35,76)           106.5475         estimate D2E/DX2                !
 ! A146  A(35,36,37)           112.0453         estimate D2E/DX2                !
 ! A147  A(35,36,77)           111.615          estimate D2E/DX2                !
 ! A148  A(35,36,78)           111.4948         estimate D2E/DX2                !
 ! A149  A(37,36,77)           107.0888         estimate D2E/DX2                !
 ! A150  A(37,36,78)           106.3061         estimate D2E/DX2                !
 ! A151  A(77,36,78)           108.0051         estimate D2E/DX2                !
 ! A152  A(36,37,79)           110.3212         estimate D2E/DX2                !
 ! A153  A(36,37,80)           111.0906         estimate D2E/DX2                !
 ! A154  A(36,37,81)           109.1487         estimate D2E/DX2                !
 ! A155  A(79,37,80)           106.9194         estimate D2E/DX2                !
 ! A156  A(79,37,81)           109.028          estimate D2E/DX2                !
 ! A157  A(80,37,81)           110.2958         estimate D2E/DX2                !
 ! A158  A(25,38,82)           109.24           estimate D2E/DX2                !
 ! A159  A(24,39,83)           106.0511         estimate D2E/DX2                !
 ! A160  A(16,40,84)           105.6783         estimate D2E/DX2                !
 ! D1    D(6,1,2,3)            -62.0264         estimate D2E/DX2                !
 ! D2    D(6,1,2,12)           178.663          estimate D2E/DX2                !
 ! D3    D(6,1,2,41)            60.2238         estimate D2E/DX2                !
 ! D4    D(2,1,6,5)             58.3967         estimate D2E/DX2                !
 ! D5    D(2,1,6,7)           -176.8039         estimate D2E/DX2                !
 ! D6    D(2,1,6,45)           -60.8011         estimate D2E/DX2                !
 ! D7    D(1,2,3,4)             58.9893         estimate D2E/DX2                !
 ! D8    D(1,2,3,11)           177.2517         estimate D2E/DX2                !
 ! D9    D(1,2,3,42)           -59.8458         estimate D2E/DX2                !
 ! D10   D(12,2,3,4)           173.8616         estimate D2E/DX2                !
 ! D11   D(12,2,3,11)          -67.876          estimate D2E/DX2                !
 ! D12   D(12,2,3,42)           55.0265         estimate D2E/DX2                !
 ! D13   D(41,2,3,4)           -62.9292         estimate D2E/DX2                !
 ! D14   D(41,2,3,11)           55.3332         estimate D2E/DX2                !
 ! D15   D(41,2,3,42)          178.2357         estimate D2E/DX2                !
 ! D16   D(1,2,12,13)         -148.6118         estimate D2E/DX2                !
 ! D17   D(3,2,12,13)           93.2046         estimate D2E/DX2                !
 ! D18   D(41,2,12,13)         -30.2539         estimate D2E/DX2                !
 ! D19   D(2,3,4,5)            -53.0815         estimate D2E/DX2                !
 ! D20   D(2,3,4,10)          -172.3081         estimate D2E/DX2                !
 ! D21   D(2,3,4,43)            66.45           estimate D2E/DX2                !
 ! D22   D(11,3,4,5)          -175.5635         estimate D2E/DX2                !
 ! D23   D(11,3,4,10)           65.2099         estimate D2E/DX2                !
 ! D24   D(11,3,4,43)          -56.032          estimate D2E/DX2                !
 ! D25   D(42,3,4,5)            63.7903         estimate D2E/DX2                !
 ! D26   D(42,3,4,10)          -55.4363         estimate D2E/DX2                !
 ! D27   D(42,3,4,43)         -176.6782         estimate D2E/DX2                !
 ! D28   D(2,3,11,51)           74.2127         estimate D2E/DX2                !
 ! D29   D(4,3,11,51)         -165.3892         estimate D2E/DX2                !
 ! D30   D(42,3,11,51)         -45.9027         estimate D2E/DX2                !
 ! D31   D(3,4,5,6)             48.3562         estimate D2E/DX2                !
 ! D32   D(3,4,5,9)            -72.991          estimate D2E/DX2                !
 ! D33   D(3,4,5,44)           167.0687         estimate D2E/DX2                !
 ! D34   D(10,4,5,6)           170.4174         estimate D2E/DX2                !
 ! D35   D(10,4,5,9)            49.0702         estimate D2E/DX2                !
 ! D36   D(10,4,5,44)          -70.8701         estimate D2E/DX2                !
 ! D37   D(43,4,5,6)           -70.8045         estimate D2E/DX2                !
 ! D38   D(43,4,5,9)           167.8483         estimate D2E/DX2                !
 ! D39   D(43,4,5,44)           47.908          estimate D2E/DX2                !
 ! D40   D(3,4,10,50)          -45.1145         estimate D2E/DX2                !
 ! D41   D(5,4,10,50)         -167.1324         estimate D2E/DX2                !
 ! D42   D(43,4,10,50)          74.9726         estimate D2E/DX2                !
 ! D43   D(4,5,6,1)            -50.2751         estimate D2E/DX2                !
 ! D44   D(4,5,6,7)           -172.0202         estimate D2E/DX2                !
 ! D45   D(4,5,6,45)            70.5927         estimate D2E/DX2                !
 ! D46   D(9,5,6,1)             71.4482         estimate D2E/DX2                !
 ! D47   D(9,5,6,7)            -50.2969         estimate D2E/DX2                !
 ! D48   D(9,5,6,45)          -167.684          estimate D2E/DX2                !
 ! D49   D(44,5,6,1)          -169.4845         estimate D2E/DX2                !
 ! D50   D(44,5,6,7)            68.7704         estimate D2E/DX2                !
 ! D51   D(44,5,6,45)          -48.6167         estimate D2E/DX2                !
 ! D52   D(4,5,9,49)           -39.6506         estimate D2E/DX2                !
 ! D53   D(6,5,9,49)          -161.5656         estimate D2E/DX2                !
 ! D54   D(44,5,9,49)           80.0843         estimate D2E/DX2                !
 ! D55   D(1,6,7,8)            -59.9122         estimate D2E/DX2                !
 ! D56   D(1,6,7,46)           177.052          estimate D2E/DX2                !
 ! D57   D(1,6,7,47)            59.0803         estimate D2E/DX2                !
 ! D58   D(5,6,7,8)             65.1161         estimate D2E/DX2                !
 ! D59   D(5,6,7,46)           -57.9197         estimate D2E/DX2                !
 ! D60   D(5,6,7,47)          -175.8914         estimate D2E/DX2                !
 ! D61   D(45,6,7,8)          -177.657          estimate D2E/DX2                !
 ! D62   D(45,6,7,46)           59.3072         estimate D2E/DX2                !
 ! D63   D(45,6,7,47)          -58.6645         estimate D2E/DX2                !
 ! D64   D(6,7,8,48)           -43.9128         estimate D2E/DX2                !
 ! D65   D(46,7,8,48)           78.587          estimate D2E/DX2                !
 ! D66   D(47,7,8,48)         -164.3332         estimate D2E/DX2                !
 ! D67   D(2,12,13,14)        -128.6225         estimate D2E/DX2                !
 ! D68   D(2,12,13,19)         115.107          estimate D2E/DX2                !
 ! D69   D(2,12,13,52)          -7.9119         estimate D2E/DX2                !
 ! D70   D(12,13,14,15)         64.2149         estimate D2E/DX2                !
 ! D71   D(12,13,14,16)        -57.0326         estimate D2E/DX2                !
 ! D72   D(12,13,14,53)       -176.163          estimate D2E/DX2                !
 ! D73   D(19,13,14,15)       -176.1658         estimate D2E/DX2                !
 ! D74   D(19,13,14,16)         62.5867         estimate D2E/DX2                !
 ! D75   D(19,13,14,53)        -56.5436         estimate D2E/DX2                !
 ! D76   D(52,13,14,15)        -57.287          estimate D2E/DX2                !
 ! D77   D(52,13,14,16)       -178.5345         estimate D2E/DX2                !
 ! D78   D(52,13,14,53)         62.3352         estimate D2E/DX2                !
 ! D79   D(12,13,19,18)         54.562          estimate D2E/DX2                !
 ! D80   D(12,13,19,20)        -68.3404         estimate D2E/DX2                !
 ! D81   D(12,13,19,57)        174.4289         estimate D2E/DX2                !
 ! D82   D(14,13,19,18)        -63.1435         estimate D2E/DX2                !
 ! D83   D(14,13,19,20)        173.9541         estimate D2E/DX2                !
 ! D84   D(14,13,19,57)         56.7234         estimate D2E/DX2                !
 ! D85   D(52,13,19,18)        178.1572         estimate D2E/DX2                !
 ! D86   D(52,13,19,20)         55.2548         estimate D2E/DX2                !
 ! D87   D(52,13,19,57)        -61.9759         estimate D2E/DX2                !
 ! D88   D(13,14,15,54)       -162.0499         estimate D2E/DX2                !
 ! D89   D(16,14,15,54)        -41.905          estimate D2E/DX2                !
 ! D90   D(53,14,15,54)         78.6717         estimate D2E/DX2                !
 ! D91   D(13,14,16,17)        -56.6895         estimate D2E/DX2                !
 ! D92   D(13,14,16,40)       -178.9058         estimate D2E/DX2                !
 ! D93   D(13,14,16,55)         62.5293         estimate D2E/DX2                !
 ! D94   D(15,14,16,17)       -178.3463         estimate D2E/DX2                !
 ! D95   D(15,14,16,40)         59.4374         estimate D2E/DX2                !
 ! D96   D(15,14,16,55)        -59.1275         estimate D2E/DX2                !
 ! D97   D(53,14,16,17)         61.5647         estimate D2E/DX2                !
 ! D98   D(53,14,16,40)        -60.6516         estimate D2E/DX2                !
 ! D99   D(53,14,16,55)       -179.2165         estimate D2E/DX2                !
 ! D100  D(14,16,17,18)         48.8888         estimate D2E/DX2                !
 ! D101  D(14,16,17,22)        170.5784         estimate D2E/DX2                !
 ! D102  D(14,16,17,56)        -73.2778         estimate D2E/DX2                !
 ! D103  D(40,16,17,18)        169.0614         estimate D2E/DX2                !
 ! D104  D(40,16,17,22)        -69.249          estimate D2E/DX2                !
 ! D105  D(40,16,17,56)         46.8948         estimate D2E/DX2                !
 ! D106  D(55,16,17,18)        -68.277          estimate D2E/DX2                !
 ! D107  D(55,16,17,22)         53.4126         estimate D2E/DX2                !
 ! D108  D(55,16,17,56)        169.5564         estimate D2E/DX2                !
 ! D109  D(14,16,40,84)       -158.4577         estimate D2E/DX2                !
 ! D110  D(17,16,40,84)         79.5139         estimate D2E/DX2                !
 ! D111  D(55,16,40,84)        -42.6501         estimate D2E/DX2                !
 ! D112  D(16,17,18,19)        -50.1946         estimate D2E/DX2                !
 ! D113  D(22,17,18,19)       -175.7783         estimate D2E/DX2                !
 ! D114  D(56,17,18,19)         71.4773         estimate D2E/DX2                !
 ! D115  D(16,17,22,23)        -54.1582         estimate D2E/DX2                !
 ! D116  D(18,17,22,23)         70.4116         estimate D2E/DX2                !
 ! D117  D(56,17,22,23)       -173.051          estimate D2E/DX2                !
 ! D118  D(17,18,19,13)         58.2498         estimate D2E/DX2                !
 ! D119  D(17,18,19,20)       -173.244          estimate D2E/DX2                !
 ! D120  D(17,18,19,57)        -59.3828         estimate D2E/DX2                !
 ! D121  D(13,19,20,21)         66.2887         estimate D2E/DX2                !
 ! D122  D(13,19,20,58)       -172.9735         estimate D2E/DX2                !
 ! D123  D(13,19,20,59)        -55.4546         estimate D2E/DX2                !
 ! D124  D(18,19,20,21)        -58.3285         estimate D2E/DX2                !
 ! D125  D(18,19,20,58)         62.4093         estimate D2E/DX2                !
 ! D126  D(18,19,20,59)        179.9282         estimate D2E/DX2                !
 ! D127  D(57,19,20,21)       -175.6529         estimate D2E/DX2                !
 ! D128  D(57,19,20,58)        -54.9151         estimate D2E/DX2                !
 ! D129  D(57,19,20,59)         62.6037         estimate D2E/DX2                !
 ! D130  D(19,20,21,60)        167.3436         estimate D2E/DX2                !
 ! D131  D(58,20,21,60)         48.1234         estimate D2E/DX2                !
 ! D132  D(59,20,21,60)        -71.9643         estimate D2E/DX2                !
 ! D133  D(17,22,23,24)        121.8746         estimate D2E/DX2                !
 ! D134  D(17,22,23,28)       -118.8082         estimate D2E/DX2                !
 ! D135  D(17,22,23,61)          0.6684         estimate D2E/DX2                !
 ! D136  D(22,23,24,25)        169.2412         estimate D2E/DX2                !
 ! D137  D(22,23,24,39)        -68.9459         estimate D2E/DX2                !
 ! D138  D(22,23,24,62)         49.3377         estimate D2E/DX2                !
 ! D139  D(28,23,24,25)         50.0191         estimate D2E/DX2                !
 ! D140  D(28,23,24,39)        171.832          estimate D2E/DX2                !
 ! D141  D(28,23,24,62)        -69.8844         estimate D2E/DX2                !
 ! D142  D(61,23,24,25)        -68.8819         estimate D2E/DX2                !
 ! D143  D(61,23,24,39)         52.931          estimate D2E/DX2                !
 ! D144  D(61,23,24,62)        171.2146         estimate D2E/DX2                !
 ! D145  D(22,23,28,27)       -172.0977         estimate D2E/DX2                !
 ! D146  D(22,23,28,29)         68.2957         estimate D2E/DX2                !
 ! D147  D(22,23,28,65)        -51.8848         estimate D2E/DX2                !
 ! D148  D(24,23,28,27)        -53.9571         estimate D2E/DX2                !
 ! D149  D(24,23,28,29)       -173.5637         estimate D2E/DX2                !
 ! D150  D(24,23,28,65)         66.2558         estimate D2E/DX2                !
 ! D151  D(61,23,28,27)         66.3607         estimate D2E/DX2                !
 ! D152  D(61,23,28,29)        -53.2458         estimate D2E/DX2                !
 ! D153  D(61,23,28,65)       -173.4263         estimate D2E/DX2                !
 ! D154  D(23,24,25,26)        -51.5811         estimate D2E/DX2                !
 ! D155  D(23,24,25,38)       -179.5092         estimate D2E/DX2                !
 ! D156  D(23,24,25,63)         65.8558         estimate D2E/DX2                !
 ! D157  D(39,24,25,26)       -173.6661         estimate D2E/DX2                !
 ! D158  D(39,24,25,38)         58.4058         estimate D2E/DX2                !
 ! D159  D(39,24,25,63)        -56.2292         estimate D2E/DX2                !
 ! D160  D(62,24,25,26)         67.1718         estimate D2E/DX2                !
 ! D161  D(62,24,25,38)        -60.7563         estimate D2E/DX2                !
 ! D162  D(62,24,25,63)       -175.3913         estimate D2E/DX2                !
 ! D163  D(23,24,39,83)       -168.9822         estimate D2E/DX2                !
 ! D164  D(25,24,39,83)        -44.9449         estimate D2E/DX2                !
 ! D165  D(62,24,39,83)         74.0977         estimate D2E/DX2                !
 ! D166  D(24,25,26,27)         55.9762         estimate D2E/DX2                !
 ! D167  D(24,25,26,31)        173.308          estimate D2E/DX2                !
 ! D168  D(24,25,26,64)        -62.6211         estimate D2E/DX2                !
 ! D169  D(38,25,26,27)       -178.9189         estimate D2E/DX2                !
 ! D170  D(38,25,26,31)        -61.5871         estimate D2E/DX2                !
 ! D171  D(38,25,26,64)         62.4838         estimate D2E/DX2                !
 ! D172  D(63,25,26,27)        -62.6192         estimate D2E/DX2                !
 ! D173  D(63,25,26,31)         54.7126         estimate D2E/DX2                !
 ! D174  D(63,25,26,64)        178.7835         estimate D2E/DX2                !
 ! D175  D(24,25,38,82)         76.9999         estimate D2E/DX2                !
 ! D176  D(26,25,38,82)        -48.1303         estimate D2E/DX2                !
 ! D177  D(63,25,38,82)       -165.7352         estimate D2E/DX2                !
 ! D178  D(25,26,27,28)        -65.0106         estimate D2E/DX2                !
 ! D179  D(31,26,27,28)        176.7911         estimate D2E/DX2                !
 ! D180  D(64,26,27,28)         55.5988         estimate D2E/DX2                !
 ! D181  D(25,26,31,32)        170.4399         estimate D2E/DX2                !
 ! D182  D(27,26,31,32)        -72.3012         estimate D2E/DX2                !
 ! D183  D(64,26,31,32)         46.6218         estimate D2E/DX2                !
 ! D184  D(26,27,28,23)         64.2632         estimate D2E/DX2                !
 ! D185  D(26,27,28,29)       -171.0688         estimate D2E/DX2                !
 ! D186  D(26,27,28,65)        -55.1379         estimate D2E/DX2                !
 ! D187  D(23,28,29,30)         61.7001         estimate D2E/DX2                !
 ! D188  D(23,28,29,66)       -179.034          estimate D2E/DX2                !
 ! D189  D(23,28,29,67)        -60.9306         estimate D2E/DX2                !
 ! D190  D(27,28,29,30)        -59.3137         estimate D2E/DX2                !
 ! D191  D(27,28,29,66)         59.9522         estimate D2E/DX2                !
 ! D192  D(27,28,29,67)        178.0556         estimate D2E/DX2                !
 ! D193  D(65,28,29,30)       -177.2152         estimate D2E/DX2                !
 ! D194  D(65,28,29,66)        -57.9493         estimate D2E/DX2                !
 ! D195  D(65,28,29,67)         60.1541         estimate D2E/DX2                !
 ! D196  D(28,29,30,68)       -114.687          estimate D2E/DX2                !
 ! D197  D(66,29,30,68)        126.3333         estimate D2E/DX2                !
 ! D198  D(67,29,30,68)          7.3495         estimate D2E/DX2                !
 ! D199  D(26,31,32,33)        147.1741         estimate D2E/DX2                !
 ! D200  D(26,31,32,69)         25.7838         estimate D2E/DX2                !
 ! D201  D(26,31,32,70)        -92.3537         estimate D2E/DX2                !
 ! D202  D(31,32,33,34)        -52.3828         estimate D2E/DX2                !
 ! D203  D(31,32,33,71)       -175.7047         estimate D2E/DX2                !
 ! D204  D(31,32,33,72)         69.1413         estimate D2E/DX2                !
 ! D205  D(69,32,33,34)         67.879          estimate D2E/DX2                !
 ! D206  D(69,32,33,71)        -55.4429         estimate D2E/DX2                !
 ! D207  D(69,32,33,72)       -170.5969         estimate D2E/DX2                !
 ! D208  D(70,32,33,34)       -171.6846         estimate D2E/DX2                !
 ! D209  D(70,32,33,71)         64.9935         estimate D2E/DX2                !
 ! D210  D(70,32,33,72)        -50.1605         estimate D2E/DX2                !
 ! D211  D(32,33,34,35)        -61.2739         estimate D2E/DX2                !
 ! D212  D(32,33,34,73)        175.7359         estimate D2E/DX2                !
 ! D213  D(32,33,34,74)         61.9406         estimate D2E/DX2                !
 ! D214  D(71,33,34,35)         60.3872         estimate D2E/DX2                !
 ! D215  D(71,33,34,73)        -62.603          estimate D2E/DX2                !
 ! D216  D(71,33,34,74)       -176.3982         estimate D2E/DX2                !
 ! D217  D(72,33,34,35)        176.9346         estimate D2E/DX2                !
 ! D218  D(72,33,34,73)         53.9444         estimate D2E/DX2                !
 ! D219  D(72,33,34,74)        -59.8508         estimate D2E/DX2                !
 ! D220  D(33,34,35,36)        165.2453         estimate D2E/DX2                !
 ! D221  D(33,34,35,75)         43.2571         estimate D2E/DX2                !
 ! D222  D(33,34,35,76)        -74.2881         estimate D2E/DX2                !
 ! D223  D(73,34,35,36)        -71.8574         estimate D2E/DX2                !
 ! D224  D(73,34,35,75)        166.1543         estimate D2E/DX2                !
 ! D225  D(73,34,35,76)         48.6091         estimate D2E/DX2                !
 ! D226  D(74,34,35,36)         44.0963         estimate D2E/DX2                !
 ! D227  D(74,34,35,75)        -77.892          estimate D2E/DX2                !
 ! D228  D(74,34,35,76)        164.5628         estimate D2E/DX2                !
 ! D229  D(34,35,36,37)        -70.1843         estimate D2E/DX2                !
 ! D230  D(34,35,36,77)         49.9127         estimate D2E/DX2                !
 ! D231  D(34,35,36,78)        170.8014         estimate D2E/DX2                !
 ! D232  D(75,35,36,37)         53.2351         estimate D2E/DX2                !
 ! D233  D(75,35,36,77)        173.3321         estimate D2E/DX2                !
 ! D234  D(75,35,36,78)        -65.7792         estimate D2E/DX2                !
 ! D235  D(76,35,36,37)        168.2586         estimate D2E/DX2                !
 ! D236  D(76,35,36,77)        -71.6444         estimate D2E/DX2                !
 ! D237  D(76,35,36,78)         49.2443         estimate D2E/DX2                !
 ! D238  D(35,36,37,79)         36.5396         estimate D2E/DX2                !
 ! D239  D(35,36,37,80)        -81.8491         estimate D2E/DX2                !
 ! D240  D(35,36,37,81)        156.3165         estimate D2E/DX2                !
 ! D241  D(77,36,37,79)        -86.1626         estimate D2E/DX2                !
 ! D242  D(77,36,37,80)        155.4487         estimate D2E/DX2                !
 ! D243  D(77,36,37,81)         33.6143         estimate D2E/DX2                !
 ! D244  D(78,36,37,79)        158.5687         estimate D2E/DX2                !
 ! D245  D(78,36,37,80)         40.1799         estimate D2E/DX2                !
 ! D246  D(78,36,37,81)        -81.6545         estimate D2E/DX2                !
 --------------------------------------------------------------------------------
 Trust Radius=3.00D-01 FncErr=1.00D-07 GrdErr=1.00D-06
 Number of steps in this run=    504 maximum allowed number of steps=    504.
 GradGradGradGradGradGradGradGradGradGradGradGradGradGradGradGradGradGrad

 Leave Link  103 at Mon May 23 08:35:50 2016, MaxMem= 10737418240 cpu:         0.4
 (Enter /share/apps//g09/l202.exe)
 Stoichiometry    C23H44NO16(1+)
 Framework group  C1[X(C23H44NO16)]
 Deg. of freedom   246
 Full point group                 C1      NOp   1
 Largest Abelian subgroup         C1      NOp   1
 Largest concise Abelian subgroup C1      NOp   1
                         Standard orientation:                         
 ---------------------------------------------------------------------
 Center     Atomic      Atomic             Coordinates (Angstroms)
 Number     Number       Type             X           Y           Z
 ---------------------------------------------------------------------
      1          8           0        2.131640    1.592432    0.442230
      2          6           0        3.042149    0.509623    0.270828
      3          6           0        3.780895    0.660847   -1.071961
      4          6           0        4.536015    1.988715   -1.100614
      5          6           0        3.616002    3.163244   -0.770487
      6          6           0        2.789956    2.863986    0.490730
      7          6           0        1.716665    3.917707    0.756045
      8          8           0        0.699630    3.958136   -0.259475
      9          8           0        2.733148    3.428776   -1.873530
     10          8           0        5.089173    2.249968   -2.390354
     11          8           0        4.754735   -0.350963   -1.288147
     12          8           0        2.223211   -0.637360    0.279094
     13          6           0        2.791723   -1.845993    0.805848
     14          6           0        2.580744   -2.966307   -0.218042
     15          8           0        3.293578   -2.694984   -1.426362
     16          6           0        1.086584   -3.085576   -0.500960
     17          6           0        0.294451   -3.338187    0.801008
     18          8           0        0.658703   -2.418265    1.847351
     19          6           0        2.061454   -2.296627    2.087777
     20          6           0        2.229986   -1.424293    3.322153
     21          8           0        1.616229   -0.138436    3.120407
     22          8           0       -1.098961   -3.250369    0.645465
     23          6           0       -1.627104   -2.041455    0.064998
     24          6           0       -2.417572   -2.429969   -1.186260
     25          6           0       -3.248480   -1.269521   -1.750917
     26          6           0       -4.106082   -0.649580   -0.645565
     27          8           0       -3.226815   -0.250101    0.428111
     28          6           0       -2.562343   -1.349438    1.076386
     29          6           0       -1.866878   -0.773262    2.306025
     30          8           0       -0.915314    0.248106    1.974579
     31          8           0       -4.731765    0.483857   -1.131067
     32          6           0       -5.740596    1.035827   -0.245129
     33          6           0       -5.758118    2.551960   -0.406790
     34          6           0       -4.380174    3.211014   -0.249658
     35          6           0       -3.717348    3.015725    1.123352
     36          6           0       -2.232121    3.365674    1.121655
     37          7           0       -1.416897    2.366256    0.344647
     38          8           0       -3.967905   -1.699017   -2.905997
     39          8           0       -1.516232   -2.897775   -2.198295
     40          8           0        0.902639   -4.143027   -1.430881
     41          1           0        3.763443    0.476021    1.116607
     42          1           0        3.006502    0.654145   -1.861015
     43          1           0        5.342658    1.943439   -0.341948
     44          1           0        4.233964    4.059353   -0.572870
     45          1           0        3.493473    2.890246    1.350113
     46          1           0        2.196094    4.906506    0.852708
     47          1           0        1.210204    3.690865    1.705748
     48          1           0        1.182274    3.903880   -1.120274
     49          1           0        3.270831    3.315095   -2.683522
     50          1           0        5.504040    1.416981   -2.686679
     51          1           0        4.285431   -1.188936   -1.510613
     52          1           0        3.868397   -1.722520    1.007501
     53          1           0        2.956474   -3.912416    0.216809
     54          1           0        2.894826   -3.269012   -2.110110
     55          1           0        0.778058   -2.124708   -0.942336
     56          1           0        0.468119   -4.378024    1.134615
     57          1           0        2.491210   -3.281974    2.368793
     58          1           0        1.757909   -1.945610    4.170854
     59          1           0        3.307198   -1.312064    3.535492
     60          1           0        1.566836    0.304967    3.983575
     61          1           0       -0.823077   -1.335189   -0.194150
     62          1           0       -3.100317   -3.255500   -0.895777
     63          1           0       -2.568025   -0.482733   -2.116388
     64          1           0       -4.839514   -1.385629   -0.239250
     65          1           0       -3.307833   -2.087066    1.437236
     66          1           0       -2.640842   -0.326779    2.950713
     67          1           0       -1.373450   -1.586192    2.853025
     68          1           0       -0.000536   -0.049260    2.203646
     69          1           0       -5.507618    0.750867    0.792410
     70          1           0       -6.720033    0.605857   -0.512931
     71          1           0       -6.472546    2.959851    0.327067
     72          1           0       -6.156075    2.803213   -1.401598
     73          1           0       -4.472596    4.288705   -0.456572
     74          1           0       -3.739743    2.806270   -1.051707
     75          1           0       -3.829627    1.977810    1.471115
     76          1           0       -4.214098    3.652581    1.871534
     77          1           0       -2.048965    4.351556    0.671617
     78          1           0       -1.819856    3.375241    2.139312
     79          1           0       -1.940571    2.040324   -0.476952
     80          1           0       -1.200910    1.510041    0.932738
     81          1           0       -0.517660    2.826929    0.021237
     82          1           0       -4.739401   -2.226905   -2.626407
     83          1           0       -2.041424   -2.959915   -3.020113
     84          1           0        0.030652   -3.976611   -1.853366
 ---------------------------------------------------------------------
 Rotational constants (GHZ):      0.1070730      0.0727699      0.0561843
 Leave Link  202 at Mon May 23 08:35:50 2016, MaxMem= 10737418240 cpu:         0.7
 (Enter /share/apps//g09/l301.exe)
 Standard basis: 6-311+G(d,p) (5D, 7F)
 Ernie: Thresh=  0.10000D-02 Tol=  0.10000D-05 Strict=F.
 There are  1184 symmetry adapted cartesian basis functions of A   symmetry.
 There are  1144 symmetry adapted basis functions of A   symmetry.
  1144 basis functions,  1792 primitive gaussians,  1184 cartesian basis functions
   158 alpha electrons      158 beta electrons
       nuclear repulsion energy      5867.3133762870 Hartrees.
 IExCor= 1009 DFT=T Ex+Corr=PBE1PBE ExCW=0 ScaHFX=  0.250000
 ScaDFX=  0.750000  0.750000  1.000000  1.000000 ScalE2=  1.000000  1.000000
 IRadAn=      0 IRanWt=     -1 IRanGd=            0 ICorTp=0 IEmpDi=131
 NAtoms=   84 NActive=   84 NUniq=   84 SFac= 1.00D+00 NAtFMM=   60 NAOKFM=T Big=T
 Integral buffers will be    131072 words long.
 Raffenetti 2 integral format.
 Two-electron integral symmetry is turned on.
 R6Disp:  Grimme-D3 Dispersion energy=       -0.0815263326 Hartrees.
 Nuclear repulsion after empirical dispersion term =     5867.2318499543 Hartrees.
 Leave Link  301 at Mon May 23 08:35:50 2016, MaxMem= 10737418240 cpu:         1.6
 (Enter /share/apps//g09/l302.exe)
 NPDir=0 NMtPBC=     1 NCelOv=     1 NCel=       1 NClECP=     1 NCelD=      1
         NCelK=      1 NCelE2=     1 NClLst=     1 CellRange=     0.0.
 One-electron integrals computed using PRISM.
 NBasis=  1144 RedAO= T EigKep=  1.54D-06  NBF=  1144
 NBsUse=  1144 1.00D-06 EigRej= -1.00D+00 NBFU=  1144
 Precomputing XC quadrature grid using
 IXCGrd= 4 IRadAn=           0 IRanWt=          -1 IRanGd=           0 AccXCQ= 0.00D+00.
 Generated NRdTot=       0 NPtTot=           0 NUsed=           0 NTot=          32
 NSgBfM=  1105  1106  1106  1106  1106 MxSgAt=    84 MxSgA2=    84.
 Leave Link  302 at Mon May 23 08:35:54 2016, MaxMem= 10737418240 cpu:        55.8
 (Enter /share/apps//g09/l303.exe)
 DipDrv:  MaxL=1.
 Leave Link  303 at Mon May 23 08:35:57 2016, MaxMem= 10737418240 cpu:        32.4
 (Enter /share/apps//g09/l401.exe)
 ExpMin= 4.38D-02 ExpMax= 8.59D+03 ExpMxC= 1.30D+03 IAcc=2 IRadAn=         4 AccDes= 0.00D+00
 Harris functional with IExCor= 1009 and IRadAn=       4 diagonalized for initial guess.
 HarFok:  IExCor= 1009 AccDes= 0.00D+00 IRadAn=         4 IDoV= 1 UseB2=F ITyADJ=14
 ICtDFT=  3500011 ScaDFX=  1.000000  1.000000  1.000000  1.000000
 FoFCou: FMM=F IPFlag=           0 FMFlag=      100000 FMFlg1=        2001
         NFxFlg=           0 DoJE=T BraDBF=F KetDBF=T FulRan=T
         wScrn=  0.000000 ICntrl=     500 IOpCl=  0 I1Cent=   200000004 NGrid=           0
         NMat0=    1 NMatS0=      1 NMatT0=    0 NMatD0=    1 NMtDS0=    0 NMtDT0=    0
 Petite list used in FoFCou.
 Harris En= -2159.71704541027    
 JPrj=0 DoOrth=F DoCkMO=F.
 Leave Link  401 at Mon May 23 08:36:03 2016, MaxMem= 10737418240 cpu:       113.3
 (Enter /share/apps//g09/l502.exe)
 Closed shell SCF:
 Using DIIS extrapolation, IDIIS=  1040.
 Integral symmetry usage will be decided dynamically.
 IVT=     4256630 IEndB=     4256630 NGot= 10737418240 MDV= 10734581291
 LenX= 10734581291 LenY= 10733178251
 Requested convergence on RMS density matrix=1.00D-08 within 128 cycles.
 Requested convergence on MAX density matrix=1.00D-06.
 Requested convergence on             energy=1.00D-06.
 No special actions if energy rises.
 Fock matrices will be formed incrementally for  20 cycles.

 Cycle   1  Pass 1  IDiag  1:
 FoFJK:  IHMeth= 1 ICntrl=       0 DoSepK=F KAlg= 0 I1Cent=   0 FoldK=F
 IRaf= 770000000 NMat=   1 IRICut=       1 DoRegI=T DoRafI=F ISym2E= 0.
 FoFCou: FMM=T IPFlag=           0 FMFlag=      100000 FMFlg1=        2001
         NFxFlg=           0 DoJE=F BraDBF=F KetDBF=F FulRan=T
         wScrn=  0.000000 ICntrl=       0 IOpCl=  0 I1Cent=           0 NGrid=           0
         NMat0=    1 NMatS0=      1 NMatT0=    0 NMatD0=    1 NMtDS0=    0 NMtDT0=    0
 Symmetry not used in FoFCou.
 FMM levels:  10  Number of levels for PrismC:   9
 E= -2158.69939137085    
 DIIS: error= 1.23D-02 at cycle   1 NSaved=   1.
 NSaved= 1 IEnMin= 1 EnMin= -2158.69939137085     IErMin= 1 ErrMin= 1.23D-02
 ErrMax= 1.23D-02  0.00D+00 EMaxC= 1.00D-01 BMatC= 1.02D+00 BMatP= 1.02D+00
 IDIUse=3 WtCom= 8.77D-01 WtEn= 1.23D-01
 Coeff-Com:  0.100D+01
 Coeff-En:   0.100D+01
 Coeff:      0.100D+01
 Gap=     0.243 Goal=   None    Shift=    0.000
 GapD=    0.243 DampG=1.000 DampE=0.500 DampFc=0.5000 IDamp=-1.
 Damping current iteration by 5.00D-01
 RMSDP=9.98D-03 MaxDP=2.41D+00              OVMax= 1.37D-01

 Cycle   2  Pass 1  IDiag  1:
 RMSU=  4.74D-03    CP:  1.04D+00
 E= -2158.97923508714     Delta-E=       -0.279843716288 Rises=F Damp=T
 DIIS: error= 3.16D-03 at cycle   2 NSaved=   2.
 NSaved= 2 IEnMin= 2 EnMin= -2158.97923508714     IErMin= 2 ErrMin= 3.16D-03
 ErrMax= 3.16D-03  0.00D+00 EMaxC= 1.00D-01 BMatC= 8.20D-02 BMatP= 1.02D+00
 IDIUse=3 WtCom= 9.68D-01 WtEn= 3.16D-02
 Coeff-Com:  0.648D-01 0.935D+00
 Coeff-En:   0.166D+00 0.834D+00
 Coeff:      0.680D-01 0.932D+00
 Gap=     0.270 Goal=   None    Shift=    0.000
 RMSDP=4.74D-03 MaxDP=1.42D+00 DE=-2.80D-01 OVMax= 7.89D-02

 Cycle   3  Pass 1  IDiag  1:
 RMSU=  2.90D-03    CP:  9.47D-01  9.38D-01
 E= -2159.35142118960     Delta-E=       -0.372186102459 Rises=F Damp=F
 DIIS: error= 3.11D-03 at cycle   3 NSaved=   3.
 NSaved= 3 IEnMin= 3 EnMin= -2159.35142118960     IErMin= 3 ErrMin= 3.11D-03
 ErrMax= 3.11D-03  0.00D+00 EMaxC= 1.00D-01 BMatC= 4.56D-02 BMatP= 8.20D-02
 IDIUse=3 WtCom= 9.69D-01 WtEn= 3.11D-02
 Coeff-Com: -0.663D-01 0.408D+00 0.658D+00
 Coeff-En:   0.000D+00 0.000D+00 0.100D+01
 Coeff:     -0.642D-01 0.395D+00 0.669D+00
 Gap=     0.258 Goal=   None    Shift=    0.000
 RMSDP=1.72D-03 MaxDP=4.45D-01 DE=-3.72D-01 OVMax= 1.68D-02

 Cycle   4  Pass 1  IDiag  1:
 RMSU=  1.23D-03    CP:  9.68D-01  1.06D+00  7.93D-01
 E= -2159.38007434449     Delta-E=       -0.028653154894 Rises=F Damp=F
 DIIS: error= 1.02D-03 at cycle   4 NSaved=   4.
 NSaved= 4 IEnMin= 4 EnMin= -2159.38007434449     IErMin= 4 ErrMin= 1.02D-03
 ErrMax= 1.02D-03  0.00D+00 EMaxC= 1.00D-01 BMatC= 6.32D-03 BMatP= 4.56D-02
 IDIUse=3 WtCom= 9.90D-01 WtEn= 1.02D-02
 Coeff-Com: -0.365D-01 0.127D+00 0.346D+00 0.564D+00
 Coeff-En:   0.000D+00 0.000D+00 0.821D-01 0.918D+00
 Coeff:     -0.361D-01 0.126D+00 0.343D+00 0.568D+00
 Gap=     0.254 Goal=   None    Shift=    0.000
 RMSDP=1.20D-03 MaxDP=3.97D-01 DE=-2.87D-02 OVMax= 6.03D-03

 Cycle   5  Pass 1  IDiag  1:
 RMSU=  3.17D-04    CP:  9.44D-01  1.01D+00  8.24D-01  6.04D-01
 E= -2159.38540458069     Delta-E=       -0.005330236194 Rises=F Damp=F
 DIIS: error= 2.48D-04 at cycle   5 NSaved=   5.
 NSaved= 5 IEnMin= 5 EnMin= -2159.38540458069     IErMin= 5 ErrMin= 2.48D-04
 ErrMax= 2.48D-04  0.00D+00 EMaxC= 1.00D-01 BMatC= 3.02D-04 BMatP= 6.32D-03
 IDIUse=3 WtCom= 9.98D-01 WtEn= 2.48D-03
 Coeff-Com: -0.122D-01 0.284D-01 0.109D+00 0.254D+00 0.621D+00
 Coeff-En:   0.000D+00 0.000D+00 0.000D+00 0.000D+00 0.100D+01
 Coeff:     -0.122D-01 0.283D-01 0.108D+00 0.253D+00 0.622D+00
 Gap=     0.253 Goal=   None    Shift=    0.000
 RMSDP=1.45D-04 MaxDP=3.53D-02 DE=-5.33D-03 OVMax= 1.74D-03

 Cycle   6  Pass 1  IDiag  1:
 RMSU=  7.72D-05    CP:  9.46D-01  1.01D+00  8.33D-01  6.17D-01  7.74D-01
 E= -2159.38560931743     Delta-E=       -0.000204736741 Rises=F Damp=F
 DIIS: error= 8.25D-05 at cycle   6 NSaved=   6.
 NSaved= 6 IEnMin= 6 EnMin= -2159.38560931743     IErMin= 6 ErrMin= 8.25D-05
 ErrMax= 8.25D-05  0.00D+00 EMaxC= 1.00D-01 BMatC= 3.05D-05 BMatP= 3.02D-04
 IDIUse=1 WtCom= 1.00D+00 WtEn= 0.00D+00
 Coeff-Com: -0.430D-02 0.778D-02 0.374D-01 0.102D+00 0.331D+00 0.526D+00
 Coeff:     -0.430D-02 0.778D-02 0.374D-01 0.102D+00 0.331D+00 0.526D+00
 Gap=     0.254 Goal=   None    Shift=    0.000
 RMSDP=4.50D-05 MaxDP=1.33D-02 DE=-2.05D-04 OVMax= 6.46D-04

 Cycle   7  Pass 1  IDiag  1:
 RMSU=  2.06D-05    CP:  9.46D-01  1.02D+00  8.38D-01  6.24D-01  7.73D-01
                    CP:  6.84D-01
 E= -2159.38563055892     Delta-E=       -0.000021241496 Rises=F Damp=F
 DIIS: error= 2.04D-05 at cycle   7 NSaved=   7.
 NSaved= 7 IEnMin= 7 EnMin= -2159.38563055892     IErMin= 7 ErrMin= 2.04D-05
 ErrMax= 2.04D-05  0.00D+00 EMaxC= 1.00D-01 BMatC= 1.96D-06 BMatP= 3.05D-05
 IDIUse=1 WtCom= 1.00D+00 WtEn= 0.00D+00
 Coeff-Com: -0.114D-02 0.159D-02 0.101D-01 0.316D-01 0.116D+00 0.264D+00
 Coeff-Com:  0.578D+00
 Coeff:     -0.114D-02 0.159D-02 0.101D-01 0.316D-01 0.116D+00 0.264D+00
 Coeff:      0.578D+00
 Gap=     0.254 Goal=   None    Shift=    0.000
 RMSDP=1.45D-05 MaxDP=2.79D-03 DE=-2.12D-05 OVMax= 1.34D-04

 Cycle   8  Pass 1  IDiag  1:
 RMSU=  7.85D-06    CP:  9.46D-01  1.02D+00  8.35D-01  6.29D-01  7.80D-01
                    CP:  7.11D-01  7.00D-01
 E= -2159.38563200580     Delta-E=       -0.000001446878 Rises=F Damp=F
 DIIS: error= 6.66D-06 at cycle   8 NSaved=   8.
 NSaved= 8 IEnMin= 8 EnMin= -2159.38563200580     IErMin= 8 ErrMin= 6.66D-06
 ErrMax= 6.66D-06  0.00D+00 EMaxC= 1.00D-01 BMatC= 1.41D-07 BMatP= 1.96D-06
 IDIUse=1 WtCom= 1.00D+00 WtEn= 0.00D+00
 Coeff-Com: -0.190D-04-0.166D-03 0.332D-03 0.274D-02 0.135D-01 0.524D-01
 Coeff-Com:  0.250D+00 0.681D+00
 Coeff:     -0.190D-04-0.166D-03 0.332D-03 0.274D-02 0.135D-01 0.524D-01
 Coeff:      0.250D+00 0.681D+00
 Gap=     0.254 Goal=   None    Shift=    0.000
 RMSDP=3.89D-06 MaxDP=8.67D-04 DE=-1.45D-06 OVMax= 3.59D-05

 Cycle   9  Pass 1  IDiag  1:
 RMSU=  2.33D-06    CP:  9.46D-01  1.02D+00  8.36D-01  6.28D-01  7.80D-01
                    CP:  7.12D-01  7.71D-01  8.97D-01
 E= -2159.38563211454     Delta-E=       -0.000000108736 Rises=F Damp=F
 DIIS: error= 1.61D-06 at cycle   9 NSaved=   9.
 NSaved= 9 IEnMin= 9 EnMin= -2159.38563211454     IErMin= 9 ErrMin= 1.61D-06
 ErrMax= 1.61D-06  0.00D+00 EMaxC= 1.00D-01 BMatC= 1.65D-08 BMatP= 1.41D-07
 IDIUse=1 WtCom= 1.00D+00 WtEn= 0.00D+00
 Coeff-Com:  0.675D-04-0.188D-03-0.552D-03-0.856D-03-0.185D-02 0.598D-02
 Coeff-Com:  0.808D-01 0.336D+00 0.581D+00
 Coeff:      0.675D-04-0.188D-03-0.552D-03-0.856D-03-0.185D-02 0.598D-02
 Coeff:      0.808D-01 0.336D+00 0.581D+00
 Gap=     0.254 Goal=   None    Shift=    0.000
 RMSDP=9.43D-07 MaxDP=4.06D-04 DE=-1.09D-07 OVMax= 1.11D-05

 Cycle  10  Pass 1  IDiag  1:
 RMSU=  5.66D-07    CP:  9.46D-01  1.02D+00  8.36D-01  6.28D-01  7.80D-01
                    CP:  7.15D-01  7.75D-01  9.01D-01  7.44D-01
 E= -2159.38563212596     Delta-E=       -0.000000011421 Rises=F Damp=F
 DIIS: error= 5.47D-07 at cycle  10 NSaved=  10.
 NSaved=10 IEnMin=10 EnMin= -2159.38563212596     IErMin=10 ErrMin= 5.47D-07
 ErrMax= 5.47D-07  0.00D+00 EMaxC= 1.00D-01 BMatC= 1.61D-09 BMatP= 1.65D-08
 IDIUse=1 WtCom= 1.00D+00 WtEn= 0.00D+00
 Coeff-Com:  0.317D-04-0.735D-04-0.299D-03-0.624D-03-0.202D-02-0.148D-02
 Coeff-Com:  0.180D-01 0.108D+00 0.297D+00 0.581D+00
 Coeff:      0.317D-04-0.735D-04-0.299D-03-0.624D-03-0.202D-02-0.148D-02
 Coeff:      0.180D-01 0.108D+00 0.297D+00 0.581D+00
 Gap=     0.254 Goal=   None    Shift=    0.000
 RMSDP=3.06D-07 MaxDP=8.80D-05 DE=-1.14D-08 OVMax= 3.61D-06

 Cycle  11  Pass 1  IDiag  1:
 RMSU=  1.68D-07    CP:  9.46D-01  1.02D+00  8.36D-01  6.28D-01  7.80D-01
                    CP:  7.15D-01  7.77D-01  9.13D-01  7.74D-01  6.55D-01
 E= -2159.38563212718     Delta-E=       -0.000000001223 Rises=F Damp=F
 DIIS: error= 1.79D-07 at cycle  11 NSaved=  11.
 NSaved=11 IEnMin=11 EnMin= -2159.38563212718     IErMin=11 ErrMin= 1.79D-07
 ErrMax= 1.79D-07  0.00D+00 EMaxC= 1.00D-01 BMatC= 1.29D-10 BMatP= 1.61D-09
 IDIUse=1 WtCom= 1.00D+00 WtEn= 0.00D+00
 Coeff-Com:  0.920D-05-0.198D-04-0.103D-03-0.228D-03-0.807D-03-0.106D-02
 Coeff-Com:  0.276D-02 0.270D-01 0.998D-01 0.289D+00 0.584D+00
 Coeff:      0.920D-05-0.198D-04-0.103D-03-0.228D-03-0.807D-03-0.106D-02
 Coeff:      0.276D-02 0.270D-01 0.998D-01 0.289D+00 0.584D+00
 Gap=     0.254 Goal=   None    Shift=    0.000
 RMSDP=8.73D-08 MaxDP=1.44D-05 DE=-1.22D-09 OVMax= 1.02D-06

 Cycle  12  Pass 1  IDiag  1:
 RMSU=  4.79D-08    CP:  9.46D-01  1.02D+00  8.36D-01  6.28D-01  7.80D-01
                    CP:  7.15D-01  7.76D-01  9.16D-01  7.73D-01  6.95D-01
                    CP:  7.45D-01
 E= -2159.38563212718     Delta-E=        0.000000000005 Rises=F Damp=F
 DIIS: error= 4.48D-08 at cycle  12 NSaved=  12.
 NSaved=12 IEnMin=11 EnMin= -2159.38563212718     IErMin=12 ErrMin= 4.48D-08
 ErrMax= 4.48D-08  0.00D+00 EMaxC= 1.00D-01 BMatC= 8.31D-12 BMatP= 1.29D-10
 IDIUse=1 WtCom= 1.00D+00 WtEn= 0.00D+00
 Coeff-Com:  0.431D-06-0.606D-06-0.137D-04-0.327D-04-0.131D-03-0.295D-03
 Coeff-Com: -0.694D-03-0.216D-03 0.110D-01 0.620D-01 0.246D+00 0.682D+00
 Coeff:      0.431D-06-0.606D-06-0.137D-04-0.327D-04-0.131D-03-0.295D-03
 Coeff:     -0.694D-03-0.216D-03 0.110D-01 0.620D-01 0.246D+00 0.682D+00
 Gap=     0.254 Goal=   None    Shift=    0.000
 RMSDP=2.52D-08 MaxDP=7.29D-06 DE= 5.46D-12 OVMax= 3.20D-07

 Cycle  13  Pass 1  IDiag  1:
 RMSU=  1.38D-08    CP:  9.46D-01  1.02D+00  8.36D-01  6.28D-01  7.80D-01
                    CP:  7.15D-01  7.76D-01  9.16D-01  7.77D-01  7.04D-01
                    CP:  7.42D-01  8.49D-01
 E= -2159.38563212734     Delta-E=       -0.000000000163 Rises=F Damp=F
 DIIS: error= 1.66D-08 at cycle  13 NSaved=  13.
 NSaved=13 IEnMin=13 EnMin= -2159.38563212734     IErMin=13 ErrMin= 1.66D-08
 ErrMax= 1.66D-08  0.00D+00 EMaxC= 1.00D-01 BMatC= 1.11D-12 BMatP= 8.31D-12
 IDIUse=1 WtCom= 1.00D+00 WtEn= 0.00D+00
 Coeff-Com: -0.413D-06 0.105D-05-0.113D-06-0.159D-05-0.129D-04-0.823D-04
 Coeff-Com: -0.544D-03-0.207D-02-0.135D-02 0.121D-01 0.873D-01 0.352D+00
 Coeff-Com:  0.553D+00
 Coeff:     -0.413D-06 0.105D-05-0.113D-06-0.159D-05-0.129D-04-0.823D-04
 Coeff:     -0.544D-03-0.207D-02-0.135D-02 0.121D-01 0.873D-01 0.352D+00
 Coeff:      0.553D+00
 Gap=     0.254 Goal=   None    Shift=    0.000
 RMSDP=6.99D-09 MaxDP=1.13D-06 DE=-1.63D-10 OVMax= 1.41D-07

 Cycle  14  Pass 1  IDiag  1:
[...]
 0.00018311,0.00054545,-0.00062889,-0.00022904,-0.00039830,0.00019152,0
 .00022680,0.00001806,-0.00001956,-0.00005643,-0.00000517,0.00004019,0.
 00001614,0.00000926,0.00000803,0.00000785,0.00000023,-0.00000100,-0.00
 002461,-0.00007033,-0.00005722,0.00001872,0.00359454,-0.00196089,-0.00
 113768,-0.07634695,-0.14918062,-0.00100599,-0.00218038,-0.00020530,0.0
 0045294,-0.00000776,-0.00000160,-0.00000114,0.00000896,-0.00000674,0.0
 0000226,-0.00000232,0.00000191,0.00000002,-0.00000387,-0.00000375,-0.0
 0000273,-0.00000534,-0.00000321,-0.00000175,-0.00000577,-0.00001186,0.
 00000576,0.,0.00000248,0.00000192,0.00004144,0.00000530,-0.00003295,0.
 00002229,-0.00000476,-0.00000207,0.00001023,-0.00001324,0.00000707,0.0
 0002346,-0.00005242,0.00004142,-0.00000692,-0.00000110,-0.00000415,-0.
 00001717,-0.00002862,0.00004951,-0.00002014,-0.00014750,-0.00002498,-0
 .00006391,0.00007865,-0.00020028,-0.00000821,-0.00002758,-0.00002058,-
 0.00000193,-0.00000184,-0.00000807,-0.00000353,0.00000126,-0.00000144,
 -0.00000430,-0.00000143,-0.00000037,0.00001032,0.00000006,0.00000304,-
 0.00001660,-0.00026946,-0.00011142,-0.00013454,-0.00018360,0.00093169,
 -0.00029058,-0.00019789,-0.00017245,0.00013986,-0.00009066,-0.00003700
 ,-0.00003511,-0.00002442,-0.00005147,-0.00001966,0.00028526,-0.0000266
 0,-0.00000180,-0.00008476,0.00001734,0.00002500,0.00000135,-0.00001703
 ,0.00005212,-0.00005150,-0.00005225,0.00002505,0.00000010,-0.00001948,
 0.00003801,-0.00002225,0.00001981,-0.00002584,-0.00000435,0.00001180,0
 .00001756,-0.00002849,0.00001544,-0.00000471,0.00001281,-0.00004611,-0
 .00000189,0.00003375,0.00000168,0.00000745,-0.00001625,0.00000374,0.00
 000224,0.00000765,0.00000080,0.00000044,-0.00002117,0.00000613,-0.0000
 2962,0.00011913,-0.00006272,0.00015518,0.00012003,0.00010988,0.0000470
 6,0.00004154,-0.00011670,0.00017008,-0.00076436,0.00063820,0.07308740,
 -0.00006719,0.00004940,-0.00009758,0.00006297,-0.00007675,0.00018089,-
 0.00002033,-0.00000856,-0.00000820,-0.00000909,0.00000795,0.00006141,0
 .00001318,0.00001046,0.00000872,0.00003161,-0.00004119,0.00008472,0.00
 000152,-0.00001756,0.00000612,-0.00001707,0.00002035,-0.00006125,-0.00
 001395,-0.00001676,-0.00004522,0.00002070,-0.00002196,-0.00007677,0.00
 000703,0.00001411,-0.00008018,-0.00003962,0.00009881,-0.00016291,0.000
 07018,-0.00002156,0.00000722,-0.00011091,0.00000698,0.00016485,0.00013
 389,0.00003121,-0.00017768,0.00005982,-0.00017231,0.00000275,-0.000281
 21,-0.00047684,0.00016643,0.00005564,0.00034915,-0.00012194,-0.0001232
 7,-0.00010670,0.00007865,0.00002876,-0.00002812,-0.00000269,-0.0000181
 2,0.00004882,-0.00002393,0.00014897,0.00096519,0.00027628,0.00299546,-
 0.00079374,-0.00255084,-0.00110706,-0.02147855,-0.00297924,-0.00117619
 ,0.00303446,0.00043180,0.00005959,-0.00158004,-0.00015269,0.00000754,-
 0.00016971,-0.00007532,-0.00041833,-0.00068649,0.00022860,0.00025492,-
 0.00005961,-0.00020045,-0.00007288,0.00011945,0.00000671,-0.00102399,0
 .00020833,0.00013697,0.00013808,0.00000327,-0.00025020,-0.00004464,0.0
 0003367,0.00006309,0.00000273,-0.00001573,-0.00000324,0.00000460,0.000
 00305,0.00000781,0.00006225,-0.00002628,-0.00000013,-0.00006456,0.0000
 1627,-0.00005093,0.00117597,-0.00153344,0.00039268,-0.10817584,-0.4704
 4385,-0.05670441,0.00101602,0.00074836,-0.00036936,0.00000198,0.000017
 77,-0.00001426,0.00000208,0.00000815,0.00001868,-0.00000207,-0.0000005
 1,-0.00000533,-0.00000546,0.00000142,-0.00000905,0.00000304,0.00001020
 ,-0.00000757,-0.00000367,0.00000517,-0.00000885,0.00000475,-0.00000556
 ,0.00000248,0.00000996,0.00000804,0.00003377,0.00000830,0.00001490,0.0
 0002516,-0.00001016,0.00000651,0.00003126,-0.00000430,-0.00002864,0.00
 009151,-0.00000816,0.00002470,-0.00001912,0.00003424,0.00002335,-0.000
 01527,-0.00011877,0.00001913,0.00008940,-0.00005610,-0.00016517,0.0000
 6944,0.00002736,0.00003353,0.00000835,0.00002333,0.00000302,-0.0000023
 7,-0.00000861,-0.00000280,0.00000536,-0.00000227,0.00001360,-0.0000128
 4,0.00000670,-0.00001648,0.00000573,-0.00000808,0.00031721,-0.00003453
 ,-0.00114494,0.00064729,0.00093267,0.00054299,-0.00015112,0.00033453,-
 0.00010540,0.00009729,0.00007618,0.00001775,-0.00002074,-0.00005514,-0
 .00004810,-0.00006093,0.00002152,0.00001156,-0.00000473,-0.00001300,0.
 00001181,-0.00006614,0.00001933,-0.00000659,-0.00000288,0.00001312,-0.
 00002926,0.00000230,0.00003587,-0.00002941,0.00000898,-0.00002143,-0.0
 0000836,-0.00000839,-0.00001382,-0.00001314,0.00001090,-0.00000813,0.0
 0000785,0.00000839,0.00002274,0.00000780,-0.00001604,-0.00000959,-0.00
 001025,0.00000220,-0.00000116,-0.00000855,0.00000274,-0.00000362,-0.00
 000559,0.00000340,0.00000388,0.00007034,-0.00002786,0.00003893,0.00005
 665,-0.00002170,0.00004593,0.00000283,-0.00002151,0.00007651,-0.000462
 40,0.00018919,0.00028724,0.10992306,0.49203049,-0.00005207,-0.00002235
 ,-0.00005793,0.00006562,-0.00000217,0.00018927,0.00006148,0.00008582,0
 .00000552,-0.00000785,0.00000487,0.00001042,0.00002845,0.00007598,0.00
 000978,0.00000044,-0.00000073,0.00002864,0.00001427,0.00005357,0.00000
 009,0.00000251,-0.00007481,-0.00002497,-0.00001210,-0.00010902,-0.0000
 0239,-0.00000325,-0.00005003,-0.00001981,-0.00005719,-0.00004435,-0.00
 007041,-0.00010486,0.00003603,-0.00022450,0.00011308,-0.00004197,0.000
 07057,0.00000941,0.00014593,0.00038846,0.00000091,-0.00014460,-0.00025
 947,0.00018092,0.00017308,-0.00036632,0.00000449,-0.00024838,-0.000033
 74,0.00001639,0.00023359,-0.00008351,-0.00007186,-0.00006974,0.0000754
 1,0.00004473,-0.00000742,0.00001657,-0.00003538,0.00001483,-0.00003984
 ,0.00025992,0.00026038,-0.00000666,0.00152415,0.00005233,-0.00177975,-
 0.00270834,-0.02237362,-0.00347904,0.00018266,-0.00091320,0.00255077,-
 0.00011596,0.00022792,0.00003134,-0.00014638,0.00006646,-0.00014407,0.
 00000811,-0.00067725,0.00064414,0.00020596,-0.00006063,-0.00005183,-0.
 00007672,0.00005791,-0.00007047,-0.00005927,0.00004974,-0.00016449,0.0
 0001556,0.00000161,0.00000224,0.00000613,0.00000287,0.00000297,-0.0000
 2960,0.00001629,0.00001080,0.00001369,-0.00000367,0.00000427,-0.000027
 17,0.00000469,0.00000549,0.00000509,-0.00002353,-0.00006457,-0.0024494
 9,0.00142736,-0.00268553,0.00827320,-0.03661913,-0.01845103,-0.0000411
 7,0.00028255,-0.00023349,-0.00000662,-0.00001143,-0.00001745,-0.000012
 59,-0.00001106,-0.00000926,-0.00000510,-0.00001399,0.00000516,-0.00000
 311,-0.00001538,0.00000093,-0.00000255,-0.00000753,-0.00000241,-0.0000
 0607,-0.00000557,0.00000357,0.00000363,-0.00000757,-0.00000590,-0.0000
 1757,0.00005463,-0.00000013,0.00000510,0.00004427,-0.00002057,0.000010
 86,0.00002450,-0.00000040,0.00003096,0.00002097,0.00007497,-0.00001443
 ,0.00001969,-0.00001247,0.00004361,0.00003235,-0.00007607,0.00005540,0
 .00010529,0.00012250,0.00002500,-0.00012908,0.00036637,-0.00002436,0.0
 0000288,0.00002831,0.00001001,-0.00000326,-0.00001154,-0.00000345,-0.0
 0000561,-0.00000339,-0.00000356,0.00000922,-0.00000553,0.00000450,-0.0
 0000466,0.00001265,0.00004701,0.00001626,0.00015561,0.00016695,-0.0009
 2390,-0.00070264,-0.00044318,0.00042652,-0.00045239,0.00016410,-0.0000
 9524,-0.00019388,-0.00009023,0.00003736,-0.00000723,-0.00000421,-0.000
 04623,-0.00000733,0.00000388,-0.00000866,-0.00000404,0.00002463,-0.000
 02678,0.00001714,0.00000091,-0.00000677,0.00000056,0.00001187,0.000006
 98,-0.00000608,0.00000179,-0.00000264,-0.00000644,-0.00000472,-0.00000
 405,0.00000003,-0.00000274,0.00000286,-0.00000548,0.00001225,0.0000000
 4,-0.00000229,-0.00000017,-0.00000360,-0.00000424,0.00000162,-0.000003
 37,-0.00000376,-0.00000289,0.00000235,-0.00000304,0.00000750,-0.000004
 48,0.00000219,-0.00003759,0.00004281,0.00005008,0.00007075,0.00003581,
 0.00008949,-0.00001620,0.00003371,0.00003972,0.00175133,-0.00034294,-0
 .00006056,-0.00603740,0.05949288,0.02471342,-0.00049677,0.00004946,-0.
 00017471,0.00052922,-0.00019280,0.00060096,0.00025615,0.00005237,0.000
 01564,0.00002918,-0.00002244,0.00007158,0.00008386,0.00009434,-0.00000
 904,0.00005200,-0.00009101,0.00013949,0.00012514,0.00015606,-0.0000454
 5,-0.00015685,-0.00017299,0.00017715,-0.00015634,-0.00008715,-0.000004
 54,-0.00006878,-0.00000276,-0.00010689,-0.00033971,0.00012196,-0.00034
 274,-0.00060198,0.00017906,-0.00060335,0.00185824,0.00053095,-0.000611
 27,-0.00314896,0.00421536,-0.00079017,0.00016302,0.00021489,-0.0005195
 7,0.01626834,0.01756349,-0.00519479,0.00306781,0.00259638,-0.00308628,
 -0.00158124,0.00110248,0.00105986,0.00002448,-0.00041655,-0.00022577,0
 .00026801,-0.00014812,0.00018399,-0.00041469,0.00000833,0.00000047,-0.
 00249521,-0.00202934,0.00053930,0.00068671,0.00157661,0.00011469,-0.00
 443095,0.00573949,0.00482580,0.00079799,-0.00121364,-0.00143018,-0.000
 53475,0.00137437,0.00036720,-0.00005641,-0.00064574,-0.00001039,-0.000
 37730,-0.00031349,0.00020833,0.00034390,0.00034448,-0.00045221,-0.0002
 9750,-0.00046122,0.00043051,0.00126330,-0.00046690,-0.00012819,-0.0004
 2883,0.00015761,0.00033007,0.00003760,-0.00002707,-0.00008792,-0.00000
 075,0.00003594,0.00001924,-0.00000342,0.00000594,-0.00002225,-0.000029
 60,0.00002662,-0.00002171,-0.00002169,-0.00006375,0.00016151,0.0010229
 4,0.00008259,-0.00008151,0.00210813,-0.00070378,-0.00140002,-0.2726520
 1,-0.23411362,0.07766722,-0.00002326,-0.00000795,-0.00004085,0.0000020
 1,-0.00001853,0.00001125,-0.00000693,-0.00000796,0.00000316,-0.0000221
 5,-0.00001084,-0.00001736,-0.00000510,-0.00000173,-0.00001132,-0.00002
 538,-0.00002484,0.00000942,-0.00000206,0.00000768,0.00000884,0.0000951
 4,0.00001011,-0.00005736,0.00005591,0.00001818,0.00001219,0.00002069,-
 0.00000522,0.00006977,0.00013488,-0.00019065,0.00046044,-0.00033120,0.
 00051993,-0.00019327,0.00000466,-0.00003636,0.00027455,-0.00057644,-0.
 00050328,0.00049678,-0.00065611,0.00170660,-0.00164888,-0.00017698,-0.
 00033088,-0.00010013,-0.00003211,-0.00004335,-0.00002070,-0.00005877,0
 .00005146,0.00001068,-0.00004117,-0.00003709,-0.00001829,0.00006437,0.
 00000625,-0.00003249,0.00007230,0.00008899,-0.00012395,0.00077793,-0.0
 0035949,-0.00083028,-0.00015304,-0.00002012,-0.00000019,0.00006865,-0.
 00007519,0.00002525,0.00000900,0.00002023,0.00001043,-0.00000382,-0.00
 015090,0.00005315,0.00005259,-0.00002575,-0.00003153,0.00047044,0.0002
 3383,-0.00012911,0.00002176,-0.00002542,-0.00004285,0.00004686,-0.0000
 0705,-0.00003664,0.00004940,-0.00002586,0.00003153,-0.00001309,0.00000
 128,0.00002445,0.00002669,-0.00002812,0.00002307,-0.00001253,0.0000083
 1,-0.00005463,-0.00002046,0.00004444,0.00001615,0.00001576,-0.00001719
 ,0.00000984,0.00001837,0.00000952,0.00000643,0.00000329,-0.00002396,-0
 .00001081,-0.00008045,0.00011651,-0.00012939,0.00002915,0.00012325,-0.
 00007087,0.00010634,0.00009315,-0.00028950,-0.00023537,-0.00021958,0.0
 0007357,0.00257663,-0.00224196,-0.00075345,0.25706130,-0.00031734,0.00
 007847,-0.00019920,0.00038551,-0.00017641,0.00054783,0.00015271,0.0000
 5334,-0.00001318,-0.00000668,-0.00000591,0.00010826,0.00006457,0.00007
 931,0.00000366,0.00006389,-0.00008924,0.00016685,0.00007190,0.00007996
 ,-0.00001484,-0.00009801,-0.00009050,0.00002846,-0.00009549,-0.0000883
 6,-0.00004651,-0.00001171,-0.00003914,-0.00014512,-0.00022129,0.000127
 60,-0.00033678,-0.00033952,0.00048327,-0.00072711,-0.00082365,-0.00039
 213,0.00079726,0.00367936,-0.00392635,0.00053844,-0.00003875,0.0012580
 9,-0.00141732,-0.02139100,-0.03273814,0.01161813,0.00060183,-0.0032325
 2,-0.00072245,-0.00044432,0.00174229,0.00003637,-0.00041407,-0.0003278
 8,0.00031881,0.00022595,-0.00010137,0.00003345,-0.00023987,0.00008804,
 -0.00006069,-0.00231089,0.00054055,0.00007163,0.00246684,0.00081036,0.
 00043384,-0.00089852,0.00373690,0.00311728,0.00080602,-0.00070832,-0.0
 0090896,0.00000191,0.00110390,0.00021121,-0.00052628,-0.00059745,-0.00
 003469,0.00017814,-0.00024908,0.00011945,0.00017610,0.00007572,-0.0001
 5308,-0.00028523,-0.00011291,0.00008958,0.00043007,-0.00032052,-0.0001
 0891,-0.00011921,0.00008434,0.00013102,0.00002116,-0.00001342,-0.00004
 061,-0.00000054,0.00002118,0.00000902,0.00000418,0.00000590,0.00000192
 ,0.00004052,-0.00001447,-0.00001482,-0.00009645,-0.00004203,-0.0000018
 0,0.00026900,-0.00034144,0.00001151,0.00342708,-0.00722807,-0.00215204
 ,-0.18803041,-0.23792634,0.07423775,-0.00001805,0.00004174,-0.00006789
 ,-0.00000078,-0.00000121,0.00002626,-0.00000632,-0.00000844,-0.0000022
 2,-0.00001947,-0.00000777,-0.00001860,-0.00000167,0.00000765,-0.000013
 17,-0.00001853,-0.00000995,-0.00000396,0.00000618,-0.00000359,0.000005
 32,0.00005242,0.00002460,0.00000045,0.00003516,0.00003414,0.00002616,0
 .00000124,0.00001312,0.00007292,0.00011144,-0.00020468,0.00049535,0.00
 014878,-0.00017952,-0.00005116,0.00015499,0.00012643,-0.00020002,-0.00
 027742,-0.00006830,0.00174619,-0.00096384,0.00273429,-0.00024304,-0.00
 010478,-0.00012879,0.00001707,0.00003927,-0.00001504,-0.00004909,-0.00
 002184,-0.00000580,-0.00000093,-0.00004122,0.00004847,-0.00003453,0.00
 004261,-0.00002106,-0.00000212,0.00010130,-0.00016388,-0.00006175,0.00
 032653,-0.00013440,-0.00041507,-0.00009823,-0.00002042,0.00001828,0.00
 002792,-0.00006489,0.00002497,-0.00004766,0.00004799,0.00003144,-0.000
 04979,-0.00003644,0.00000771,0.00006097,-0.00008618,-0.00005130,0.0002
 8020,0.00000179,-0.00001188,0.00001786,-0.00001751,-0.00002731,0.00001
 138,-0.00000985,-0.00000755,0.00001984,-0.00000711,0.00001547,-0.00001
 034,-0.00000664,0.00000698,0.00000439,-0.00001274,0.00000596,-0.000004
 16,0.00000951,-0.00001570,0.00000135,0.00001579,-0.00000367,-0.0000007
 0,-0.00000812,0.00000357,-0.00000119,0.00000732,-0.00000101,0.00000110
 ,-0.00001497,0.00000254,-0.00000064,0.00007479,-0.00003407,0.00015442,
 0.00010139,0.00009803,0.00005285,0.00003922,-0.00007151,-0.00017111,-0
 .00003201,0.00000549,-0.00247506,-0.00088221,-0.00051478,0.20632313,0.
 27721610,0.00008787,-0.00007878,0.00001559,-0.00012316,0.00009154,-0.0
 0008315,0.00002492,0.00008599,0.00001714,-0.00002155,0.00000705,-0.000
 03631,-0.00001030,0.00002646,0.00000611,-0.00002714,0.00004454,-0.0000
 3778,-0.00002406,0.00000348,0.00000887,0.00004914,-0.00001325,-0.00003
 895,0.00004408,-0.00004658,0.00001429,0.00001242,-0.00003858,0.0000382
 5,0.00001984,-0.00012508,0.00002585,0.00002495,-0.00049770,0.00017929,
 0.00113444,0.00078200,-0.00041276,-0.00181831,0.00361579,-0.00160263,-
 0.00062870,0.00037138,0.00013731,0.00804341,0.01222688,-0.00506917,-0.
 00142040,-0.00320223,0.00238641,0.00054467,-0.00004432,-0.00071244,0.0
 0000072,-0.00000527,-0.00001082,0.00004888,0.00005123,-0.00000659,0.00
 002127,-0.00000893,-0.00004781,-0.00055768,0.00157237,-0.00064851,0.00
 134745,-0.00002003,0.00097676,0.00123427,0.00066279,0.00009419,0.00010
 662,0.00000413,-0.00003449,0.00008163,0.00005009,0.00010635,-0.0001983
 8,-0.00001510,-0.00008565,0.00002360,0.00005739,-0.00012922,-0.0000043
 7,-0.00005942,0.00013898,0.00001699,0.00004566,-0.00018232,-0.00008502
 ,-0.00000321,-0.00005257,0.00002790,-0.00001033,-0.00000213,0.00000445
 ,-0.00000236,0.00000513,-0.00001145,0.00000521,-0.00000066,0.00000647,
 -0.00000366,0.00000803,-0.00002336,0.00000967,0.00000602,0.00001789,-0
 .00001348,-0.00006226,-0.00002531,-0.00005488,-0.00006700,-0.00061578,
 -0.00174705,-0.00419910,0.05999761,0.07158919,-0.03431053,0.00000133,-
 0.00007159,0.00003824,-0.00002886,-0.00001751,-0.00003335,0.00000030,-
 0.00001511,0.00001200,0.00000655,-0.00000762,0.00000918,-0.00000145,-0
 .00001014,0.00000674,0.00000392,0.00000120,0.00000273,0.00000381,-0.00
 000412,-0.00000767,-0.00004385,0.00002608,0.00000613,-0.00002042,0.000
 02016,-0.00002625,0.00000627,0.00002713,-0.00003111,0.00001407,0.00014
 675,-0.00007638,-0.00022601,0.00027952,-0.00007456,-0.00008217,-0.0000
 5771,0.00009531,0.00060289,0.00026871,0.00068073,0.00126439,0.00002986
 ,0.00029129,-0.00009505,-0.00013905,-0.00007380,0.00002408,0.00002107,
 0.00001831,0.00000328,-0.00001614,-0.00000591,-0.00001057,0.00001266,0
 .00000495,-0.00000712,-0.00000457,0.00001707,-0.00033989,0.00015522,-0
 .00016227,0.00047769,-0.00003793,-0.00031148,-0.00008830,0.00000216,-0
 .00004420,0.00000544,0.00000104,-0.00002421,0.00008282,-0.00001720,-0.
 00006806,-0.00000424,0.00001197,-0.00001734,-0.00000695,-0.00004320,-0
 .00000239,-0.00005902,-0.00000607,0.00005701,0.00000183,-0.00000514,0.
 00000368,0.00000002,0.00000553,0.00000147,-0.00000076,0.00000093,-0.00
 000400,-0.00000201,0.00000026,-0.00000362,-0.00000395,0.00000300,-0.00
 000434,0.00000802,-0.00000506,0.00000353,0.00000253,-0.00000369,-0.000
 00422,0.00000157,0.00000148,-0.00000327,-0.00000387,-0.00000225,-0.000
 00186,0.00000373,0.00000043,0.00000425,-0.00001770,-0.00000088,0.00004
 164,0.00002467,0.00001594,0.00006879,-0.00004181,0.00000167,0.00006672
 ,0.00005147,-0.00000101,0.00001567,-0.00028200,0.00036209,0.00020891,-
 0.06855120,-0.08624149,0.04299424\\-0.00000204,-0.00000726,-0.00000070
 ,-0.00000219,0.00000482,0.00000062,-0.00000263,-0.00000190,-0.00000333
 ,-0.00000051,0.00000016,-0.00000267,0.00000115,-0.00000444,-0.00000355
 ,0.00000276,0.00001244,-0.00000263,-0.00000460,0.00000155,0.00000242,-
 0.00000517,0.00000279,0.00000194,-0.00000138,0.00000406,0.00000121,0.0
 0000032,-0.00000428,0.00000246,0.00000447,0.00000196,0.00000068,-0.000
 00255,-0.00000340,0.00000743,0.00000604,0.00000450,-0.00000321,-0.0000
 0078,0.00000050,-0.00000144,-0.00000384,0.00000441,-0.00000361,0.00000
 291,0.00000699,-0.00000771,0.00000778,-0.00000238,0.00000696,-0.000002
 61,0.00000460,-0.00000434,0.00000391,-0.00000063,0.00001326,-0.0000065
 2,-0.00000114,-0.00000284,0.00000320,0.00000350,-0.00000046,-0.0000043
 1,0.00000197,-0.00000390,0.00000485,-0.00000399,0.00000274,0.00000808,
 0.00001078,0.00000531,-0.00000321,-0.00000364,-0.00000957,-0.00001681,
 -0.00000217,-0.00001016,0.00000503,0.00000493,-0.00000089,-0.00000648,
 0.00000150,0.00000061,-0.00000094,0.00000287,-0.00000302,-0.00000113,0
 .00000035,-0.00000440,0.00000270,0.00000351,0.00000629,0.00000240,0.00
 000033,-0.00000575,0.00000277,0.00000052,0.00000103,-0.00000132,-0.000
 00306,-0.00000210,0.00000545,-0.00000090,0.00000531,-0.00000360,0.0000
 0208,0.00000398,0.00000791,0.00000167,0.00002882,0.00000037,0.00000146
 ,0.00000367,-0.00000304,0.00000262,-0.00000167,0.00000841,0.00000374,-
 0.00000070,-0.00000042,-0.00000301,-0.00000119,0.00000173,0.00000157,0
 .00000101,-0.00000112,-0.00000183,-0.00000110,0.00000102,-0.00000008,-
 0.00000138,-0.00000140,-0.00000624,-0.00000289,0.00000104,0.00000066,-
 0.00000007,0.00000056,0.00000139,-0.00000236,0.00000547,-0.00001651,-0
 .00000774,0.00000088,-0.00000327,-0.00000145,0.00000289,-0.00000142,-0
 .00000091,0.00000286,-0.00000719,-0.00000053,-0.00000031,-0.00000262,0
 .00000192,0.,0.00000232,0.00000391,0.00000207,-0.00000275,0.00000278,0
 .00000246,0.00000076,0.00000110,-0.00000012,0.00000243,-0.00000275,-0.
 00000213,-0.00000077,-0.00000164,0.00000055,0.00000375,-0.00000199,0.0
 0000092,0.00000023,-0.00000116,-0.00000239,-0.00000052,0.00000139,-0.0
 0000443,0.00000194,0.00000596,-0.00000061,-0.00000086,0.00000347,0.000
 00112,0.00000119,0.00000243,0.00000375,-0.00000017,0.00000258,0.000000
 12,0.00000209,-0.00000096,-0.00000090,0.00000046,0.00000230,-0.0000013
 2,0.00000149,0.00000133,-0.00000090,-0.00000293,-0.00000118,-0.0000008
 3,-0.00000103,-0.00000106,-0.00000453,-0.00000043,0.00000246,0.0000002
 2,0.00000191,0.00000045,0.00000166,-0.00000025,0.00000268,-0.00000084,
 -0.00000351,-0.00000122,-0.00000019,-0.00000030,0.00000148,-0.00000148
 ,-0.00000043,-0.00000249,-0.00000014,-0.00000047,-0.00000197,0.0000010
 6,-0.00000361,0.00000058,0.00000276,-0.00000281,-0.00000186,-0.0000014
 0,-0.00000190,-0.00000402,-0.00001294,0.00000163,-0.00001077,0.0000054
 0,0.00000032,-0.00001052,-0.00000035,-0.00000031,0.00000290,-0.0000002
 4,-0.00000229,0.00000049,-0.00000441,-0.00000807,0.00000592\\\@


 THERE IS NO SCIENCE WITHOUT FANCY, NOR ART WITHOUT FACTS.
     -- VLADIMIR NABAKOV
 Job cpu time:      17 days 23 hours 50 minutes 25.9 seconds.
 File lengths (MBytes):  RWF=  17182 Int=      0 D2E=      0 Chk=     97 Scr=      1
 Normal termination of Gaussian 09 at Wed May 25 11:59:13 2016.
