 Entering Gaussian System, Link 0=g09
 Initial command:
 /share/apps//g09/l1.exe "/scratch/Gau-34515.inp" -scrdir="/scratch/"
 Entering Link 1 = /share/apps//g09/l1.exe PID=     34516.
  
 Copyright (c) 1988,1990,1992,1993,1995,1998,2003,2009,2013,
            Gaussian, Inc.  All Rights Reserved.
  
 This is part of the Gaussian(R) 09 program.  It is based on
 the Gaussian(R) 03 system (copyright 2003, Gaussian, Inc.),
 the Gaussian(R) 98 system (copyright 1998, Gaussian, Inc.),
 the Gaussian(R) 94 system (copyright 1995, Gaussian, Inc.),
 the Gaussian 92(TM) system (copyright 1992, Gaussian, Inc.),
 the Gaussian 90(TM) system (copyright 1990, Gaussian, Inc.),
 the Gaussian 88(TM) system (copyright 1988, Gaussian, Inc.),
 the Gaussian 86(TM) system (copyright 1986, Carnegie Mellon
 University), and the Gaussian 82(TM) system (copyright 1983,
 Carnegie Mellon University). Gaussian is a federally registered
 trademark of Gaussian, Inc.
  
 This software contains proprietary and confidential information,
 including trade secrets, belonging to Gaussian, Inc.
  
 This software is provided under written license and may be
 used, copied, transmitted, or stored only in accord with that
 written license.
  
 The following legend is applicable only to US Government
 contracts under FAR:
  
                    RESTRICTED RIGHTS LEGEND
  
 Use, reproduction and disclosure by the US Government is
 subject to restrictions as set forth in subparagraphs (a)
 and (c) of the Commercial Computer Software - Restricted
 Rights clause in FAR 52.227-19.
  
 Gaussian, Inc.
 340 Quinnipiac St., Bldg. 40, Wallingford CT 06492
  
  
 ---------------------------------------------------------------
 Warning -- This program may not be used in any manner that
 competes with the business of Gaussian, Inc. or will provide
 assistance to any competitor of Gaussian, Inc.  The licensee
 of this program is prohibited from giving any competitor of
 Gaussian, Inc. access to this program.  By using this program,
 the user acknowledges that Gaussian, Inc. is engaged in the
 business of creating and licensing software in the field of
 computational chemistry and represents and warrants to the
 licensee that it is not a competitor of Gaussian, Inc. and that
 it will not use this program in any manner prohibited above.
 ---------------------------------------------------------------
  

 Cite this work as:
 Gaussian 09, Revision D.01,
 M. J. Frisch, G. W. Trucks, H. B. Schlegel, G. E. Scuseria, 
 M. A. Robb, J. R. Cheeseman, G. Scalmani, V. Barone, B. Mennucci, 
 G. A. Petersson, H. Nakatsuji, M. Caricato, X. Li, H. P. Hratchian, 
 A. F. Izmaylov, J. Bloino, G. Zheng, J. L. Sonnenberg, M. Hada, 
 M. Ehara, K. Toyota, R. Fukuda, J. Hasegawa, M. Ishida, T. Nakajima, 
 Y. Honda, O. Kitao, H. Nakai, T. Vreven, J. A. Montgomery, Jr., 
 J. E. Peralta, F. Ogliaro, M. Bearpark, J. J. Heyd, E. Brothers, 
 K. N. Kudin, V. N. Staroverov, T. Keith, R. Kobayashi, J. Normand, 
 K. Raghavachari, A. Rendell, J. C. Burant, S. S. Iyengar, J. Tomasi, 
 M. Cossi, N. Rega, J. M. Millam, M. Klene, J. E. Knox, J. B. Cross, 
 V. Bakken, C. Adamo, J. Jaramillo, R. Gomperts, R. E. Stratmann, 
 O. Yazyev, A. J. Austin, R. Cammi, C. Pomelli, J. W. Ochterski, 
 R. L. Martin, K. Morokuma, V. G. Zakrzewski, G. A. Voth, 
 P. Salvador, J. J. Dannenberg, S. Dapprich, A. D. Daniels, 
 O. Farkas, J. B. Foresman, J. V. Ortiz, J. Cioslowski, 
 and D. J. Fox, Gaussian, Inc., Wallingford CT, 2013.
 
 ******************************************
 Gaussian 09:  EM64L-G09RevD.01 24-Apr-2013
                 6-Apr-2016 
 ******************************************
 %nproc=20
 Will use up to   20 processors via shared memory.
 %mem=80GB
 %chk=Tri_A131_of.chk
 ----------------------------------------------------------------------
 #P PBE1PBE/6-311+G(d,p) opt=ModRedundant freq optcyc=999 EmpiricalDisp
 ersion=GD3
 ----------------------------------------------------------------------
 1/6=999,14=-1,18=120,19=15,26=3,38=1/1,3;
 2/9=110,12=2,17=6,18=5,40=1/2;
 3/5=4,6=6,7=111,11=2,16=1,25=1,30=1,71=1,74=-13,124=31/1,2,3;
 4//1;
 5/5=2,38=5/2;
 6/7=2,8=2,9=2,10=2,28=1/1;
 7//1,2,3,16;
 1/6=999,14=-1,18=20,19=15,26=3/3(2);
 2/9=110/2;
 99//99;
 2/9=110/2;
 3/5=4,6=6,7=111,11=2,16=1,25=1,30=1,71=1,74=-13,124=31/1,2,3;
 4/5=5,16=3,69=1/1;
 5/5=2,38=5/2;
 7//1,2,3,16;
 1/6=999,14=-1,18=20,19=15,26=3/3(-5);
 2/9=110/2;
 6/7=2,8=2,9=2,10=2,19=2,28=1/1;
 99/9=1/99;
 Leave Link    1 at Wed Apr  6 15:55:04 2016, MaxMem= 10737418240 cpu:         2.1
 (Enter /share/apps//g09/l101.exe)
 -------
 disacch
 -------
 Symbolic Z-matrix:
 Charge =  1 Multiplicity = 1
 O                    -1.53927  -0.93187   4.644 
 C                    -2.17332  -1.4598    3.47059 
 C                    -1.76692  -0.64036   2.2404 
 C                    -0.24102  -0.54043   2.11095 
 C                     0.39561  -0.04207   3.41911 
 C                    -0.0844   -0.9194    4.57397 
 H                    -3.25431  -1.36351   3.66205 
 H                    -2.16836   0.3733    2.38918 
 H                     0.17202  -1.54583   1.88699 
 H                     1.49491  -0.17135   3.33278 
 H                     0.26737  -1.94997   4.38137 
 O                     0.06807   1.31167   3.68875 
 O                     0.12823   0.38306   1.09289 
 O                    -2.36384  -1.12881   1.04354 
 O                    -1.83018  -2.81822   3.23706 
 C                     0.44356  -0.49839   5.9419 
 H                     1.46577  -0.11046   5.82344 
 H                    -0.17361   0.31221   6.35428 
 O                     0.51077  -1.60839   6.85774 
 H                    -0.2982   -1.65472   7.43866 
 H                     0.19065   1.79338   2.8474 
 H                    -0.46442   0.23193   0.33211 
 H                    -2.19917  -2.09105   1.01048 
 O                    -2.11127  -6.14312   5.71654 
 C                    -2.65017  -4.96488   6.31744 
 C                    -2.23718  -3.69288   5.54447 
 C                    -2.5064   -3.82622   4.03228 
 C                    -1.96028  -5.16315   3.51461 
 C                    -2.53327  -6.30183   4.35599 
 H                    -3.75425  -5.03286   6.34052 
 H                    -1.14898  -3.55258   5.64665 
 H                    -3.59334  -3.76219   3.84075 
 H                    -2.25664  -5.30805   2.46293 
 H                    -3.63852  -6.26579   4.28942 
 O                    -0.52672  -5.21576   3.64343 
 O                    -2.94658  -2.61396   6.1618 
 O                    -2.27798  -4.94713   7.67222 
 C                    -2.07342  -7.68475   3.90207 
 H                    -0.97306  -7.74772   3.96578 
 H                    -2.51372  -8.43242   4.58354 
 O                    -2.53688  -7.83877   2.56184 
 H                    -2.30634  -8.73056   2.25402 
 H                    -0.16597  -4.54417   3.03991 
 H                    -2.51214  -1.79482   5.81485 
 O                     1.13878  -5.10882   9.06335 
 C                     0.96917  -4.30666   10.26728 
 C                     0.07079  -3.10105   9.98486 
 C                    -1.16642  -3.44876   9.14327 
 C                    -0.95741  -4.50514   8.05156 
 C                    -0.06975  -5.67342   8.49758 
 H                     0.54405  -4.94913   11.06295 
 H                     0.6878   -2.38241   9.41182 
 H                    -1.95121  -3.81997   9.8262 
 H                    -0.58015  -6.29754   9.25386 
 H                    -0.44028  -4.03867   7.20188 
 O                    -1.5946   -2.19991   8.55665 
 O                    -0.28765  -2.55266   11.24426 
 O                     2.22864  -3.82313   10.58167 
 C                     0.392    -6.56174   7.33806 
 H                     1.17083  -7.23838   7.72199 
 H                    -0.45634  -7.16041   6.98653 
 O                     0.96175  -5.79662   6.26375 
 H                     0.32605  -5.77534   5.5179 
 H                    -2.34009  -2.39357   7.93288 
 H                    -0.75139  -1.71104   11.08755 
 C                     3.13551  -4.77223   11.20617 
 H                     3.17087  -4.5385    12.28179 
 H                     2.74619  -5.79466   11.07802 
 C                     4.51574  -4.64554   10.57788 
 H                     5.19975  -5.24809   11.19457 
 H                     4.86048  -3.6045    10.69145 
 C                     4.61005  -5.10318   9.10109 
 H                     5.42548  -5.83437   9.00579 
 H                     3.69644  -5.6549    8.82558 
 C                     4.89497  -3.99375   8.0725 
 H                     5.81043  -3.45477   8.3651 
 H                     5.12746  -4.45557   7.09739 
 C                     3.81274  -2.93582   7.87075 
 H                     4.15958  -2.15575   7.17995 
 H                     3.52589  -2.45859   8.81709 
 N                     2.54697  -3.50968   7.30148 
 H                     1.84219  -2.76109   7.07646 
 H                     2.07572  -4.16073   7.98795 
 H                     2.69509  -4.07926   6.45745 
 
 The following ModRedundant input section has been read:
 B      45      83 B                                                           
 B      19      82 B                                                           
 B       1      44 B                                                           
 B      36      64 B                                                           
 B      20      56 B                                                           
 
 NAtoms=     84 NQM=       84 NQMF=       0 NMMI=      0 NMMIF=      0
                NMic=       0 NMicF=      0.
                    Isotopes and Nuclear Properties:
 (Nuclear quadrupole moments (NQMom) in fm**2, nuclear magnetic moments (NMagM)
  in nuclear magnetons)

  Atom         1           2           3           4           5           6           7           8           9          10
 IAtWgt=          16          12          12          12          12          12           1           1           1           1
 AtmWgt=  15.9949146  12.0000000  12.0000000  12.0000000  12.0000000  12.0000000   1.0078250   1.0078250   1.0078250   1.0078250
 NucSpn=           0           0           0           0           0           0           1           1           1           1
 AtZEff=   0.0000000   0.0000000   0.0000000   0.0000000   0.0000000   0.0000000   0.0000000   0.0000000   0.0000000   0.0000000
 NQMom=    0.0000000   0.0000000   0.0000000   0.0000000   0.0000000   0.0000000   0.0000000   0.0000000   0.0000000   0.0000000
 NMagM=    0.0000000   0.0000000   0.0000000   0.0000000   0.0000000   0.0000000   2.7928460   2.7928460   2.7928460   2.7928460
 AtZNuc=   8.0000000   6.0000000   6.0000000   6.0000000   6.0000000   6.0000000   1.0000000   1.0000000   1.0000000   1.0000000

  Atom        11          12          13          14          15          16          17          18          19          20
 IAtWgt=           1          16          16          16          16          12           1           1          16           1
 AtmWgt=   1.0078250  15.9949146  15.9949146  15.9949146  15.9949146  12.0000000   1.0078250   1.0078250  15.9949146   1.0078250
 NucSpn=           1           0           0           0           0           0           1           1           0           1
 AtZEff=   0.0000000   0.0000000   0.0000000   0.0000000   0.0000000   0.0000000   0.0000000   0.0000000   0.0000000   0.0000000
 NQMom=    0.0000000   0.0000000   0.0000000   0.0000000   0.0000000   0.0000000   0.0000000   0.0000000   0.0000000   0.0000000
 NMagM=    2.7928460   0.0000000   0.0000000   0.0000000   0.0000000   0.0000000   2.7928460   2.7928460   0.0000000   2.7928460
 AtZNuc=   1.0000000   8.0000000   8.0000000   8.0000000   8.0000000   6.0000000   1.0000000   1.0000000   8.0000000   1.0000000

  Atom        21          22          23          24          25          26          27          28          29          30
 IAtWgt=           1           1           1          16          12          12          12          12          12           1
 AtmWgt=   1.0078250   1.0078250   1.0078250  15.9949146  12.0000000  12.0000000  12.0000000  12.0000000  12.0000000   1.0078250
 NucSpn=           1           1           1           0           0           0           0           0           0           1
 AtZEff=   0.0000000   0.0000000   0.0000000   0.0000000   0.0000000   0.0000000   0.0000000   0.0000000   0.0000000   0.0000000
 NQMom=    0.0000000   0.0000000   0.0000000   0.0000000   0.0000000   0.0000000   0.0000000   0.0000000   0.0000000   0.0000000
 NMagM=    2.7928460   2.7928460   2.7928460   0.0000000   0.0000000   0.0000000   0.0000000   0.0000000   0.0000000   2.7928460
 AtZNuc=   1.0000000   1.0000000   1.0000000   8.0000000   6.0000000   6.0000000   6.0000000   6.0000000   6.0000000   1.0000000

  Atom        31          32          33          34          35          36          37          38          39          40
 IAtWgt=           1           1           1           1          16          16          16          12           1           1
 AtmWgt=   1.0078250   1.0078250   1.0078250   1.0078250  15.9949146  15.9949146  15.9949146  12.0000000   1.0078250   1.0078250
 NucSpn=           1           1           1           1           0           0           0           0           1           1
 AtZEff=   0.0000000   0.0000000   0.0000000   0.0000000   0.0000000   0.0000000   0.0000000   0.0000000   0.0000000   0.0000000
 NQMom=    0.0000000   0.0000000   0.0000000   0.0000000   0.0000000   0.0000000   0.0000000   0.0000000   0.0000000   0.0000000
 NMagM=    2.7928460   2.7928460   2.7928460   2.7928460   0.0000000   0.0000000   0.0000000   0.0000000   2.7928460   2.7928460
 AtZNuc=   1.0000000   1.0000000   1.0000000   1.0000000   8.0000000   8.0000000   8.0000000   6.0000000   1.0000000   1.0000000

  Atom        41          42          43          44          45          46          47          48          49          50
 IAtWgt=          16           1           1           1          16          12          12          12          12          12
 AtmWgt=  15.9949146   1.0078250   1.0078250   1.0078250  15.9949146  12.0000000  12.0000000  12.0000000  12.0000000  12.0000000
 NucSpn=           0           1           1           1           0           0           0           0           0           0
 AtZEff=   0.0000000   0.0000000   0.0000000   0.0000000   0.0000000   0.0000000   0.0000000   0.0000000   0.0000000   0.0000000
 NQMom=    0.0000000   0.0000000   0.0000000   0.0000000   0.0000000   0.0000000   0.0000000   0.0000000   0.0000000   0.0000000
 NMagM=    0.0000000   2.7928460   2.7928460   2.7928460   0.0000000   0.0000000   0.0000000   0.0000000   0.0000000   0.0000000
 AtZNuc=   8.0000000   1.0000000   1.0000000   1.0000000   8.0000000   6.0000000   6.0000000   6.0000000   6.0000000   6.0000000

  Atom        51          52          53          54          55          56          57          58          59          60
 IAtWgt=           1           1           1           1           1          16          16          16          12           1
 AtmWgt=   1.0078250   1.0078250   1.0078250   1.0078250   1.0078250  15.9949146  15.9949146  15.9949146  12.0000000   1.0078250
 NucSpn=           1           1           1           1           1           0           0           0           0           1
 AtZEff=   0.0000000   0.0000000   0.0000000   0.0000000   0.0000000   0.0000000   0.0000000   0.0000000   0.0000000   0.0000000
 NQMom=    0.0000000   0.0000000   0.0000000   0.0000000   0.0000000   0.0000000   0.0000000   0.0000000   0.0000000   0.0000000
 NMagM=    2.7928460   2.7928460   2.7928460   2.7928460   2.7928460   0.0000000   0.0000000   0.0000000   0.0000000   2.7928460
 AtZNuc=   1.0000000   1.0000000   1.0000000   1.0000000   1.0000000   8.0000000   8.0000000   8.0000000   6.0000000   1.0000000

  Atom        61          62          63          64          65          66          67          68          69          70
 IAtWgt=           1          16           1           1           1          12           1           1          12           1
 AtmWgt=   1.0078250  15.9949146   1.0078250   1.0078250   1.0078250  12.0000000   1.0078250   1.0078250  12.0000000   1.0078250
 NucSpn=           1           0           1           1           1           0           1           1           0           1
 AtZEff=   0.0000000   0.0000000   0.0000000   0.0000000   0.0000000   0.0000000   0.0000000   0.0000000   0.0000000   0.0000000
 NQMom=    0.0000000   0.0000000   0.0000000   0.0000000   0.0000000   0.0000000   0.0000000   0.0000000   0.0000000   0.0000000
 NMagM=    2.7928460   0.0000000   2.7928460   2.7928460   2.7928460   0.0000000   2.7928460   2.7928460   0.0000000   2.7928460
 AtZNuc=   1.0000000   8.0000000   1.0000000   1.0000000   1.0000000   6.0000000   1.0000000   1.0000000   6.0000000   1.0000000

  Atom        71          72          73          74          75          76          77          78          79          80
 IAtWgt=           1          12           1           1          12           1           1          12           1           1
 AtmWgt=   1.0078250  12.0000000   1.0078250   1.0078250  12.0000000   1.0078250   1.0078250  12.0000000   1.0078250   1.0078250
 NucSpn=           1           0           1           1           0           1           1           0           1           1
 AtZEff=   0.0000000   0.0000000   0.0000000   0.0000000   0.0000000   0.0000000   0.0000000   0.0000000   0.0000000   0.0000000
 NQMom=    0.0000000   0.0000000   0.0000000   0.0000000   0.0000000   0.0000000   0.0000000   0.0000000   0.0000000   0.0000000
 NMagM=    2.7928460   0.0000000   2.7928460   2.7928460   0.0000000   2.7928460   2.7928460   0.0000000   2.7928460   2.7928460
 AtZNuc=   1.0000000   6.0000000   1.0000000   1.0000000   6.0000000   1.0000000   1.0000000   6.0000000   1.0000000   1.0000000

  Atom        81          82          83          84
 IAtWgt=          14           1           1           1
 AtmWgt=  14.0030740   1.0078250   1.0078250   1.0078250
 NucSpn=           2           1           1           1
 AtZEff=   0.0000000   0.0000000   0.0000000   0.0000000
 NQMom=    2.0440000   0.0000000   0.0000000   0.0000000
 NMagM=    0.4037610   2.7928460   2.7928460   2.7928460
 AtZNuc=   7.0000000   1.0000000   1.0000000   1.0000000
 Leave Link  101 at Wed Apr  6 15:55:05 2016, MaxMem= 10737418240 cpu:         5.4
 (Enter /share/apps//g09/l103.exe)

 GradGradGradGradGradGradGradGradGradGradGradGradGradGradGradGradGradGrad
 Berny optimization.
 Initialization pass.
                           ----------------------------
                           !    Initial Parameters    !
                           ! (Angstroms and Degrees)  !
 --------------------------                            --------------------------
 ! Name  Definition              Value          Derivative Info.                !
 --------------------------------------------------------------------------------
 ! R1    R(1,2)                  1.4344         estimate D2E/DX2                !
 ! R2    R(1,6)                  1.4566         estimate D2E/DX2                !
 ! R3    R(1,44)                 1.7499         estimate D2E/DX2                !
 ! R4    R(2,3)                  1.533          estimate D2E/DX2                !
 ! R5    R(2,7)                  1.102          estimate D2E/DX2                !
 ! R6    R(2,15)                 1.4204         estimate D2E/DX2                !
 ! R7    R(3,4)                  1.5346         estimate D2E/DX2                !
 ! R8    R(3,8)                  1.1004         estimate D2E/DX2                !
 ! R9    R(3,14)                 1.4239         estimate D2E/DX2                !
 ! R10   R(4,5)                  1.5378         estimate D2E/DX2                !
 ! R11   R(4,9)                  1.1098         estimate D2E/DX2                !
 ! R12   R(4,13)                 1.4232         estimate D2E/DX2                !
 ! R13   R(5,6)                  1.5277         estimate D2E/DX2                !
 ! R14   R(5,10)                 1.1102         estimate D2E/DX2                !
 ! R15   R(5,12)                 1.4187         estimate D2E/DX2                !
 ! R16   R(6,11)                 1.1059         estimate D2E/DX2                !
 ! R17   R(6,16)                 1.5255         estimate D2E/DX2                !
 ! R18   R(12,21)                0.9772         estimate D2E/DX2                !
 ! R19   R(13,22)                0.9761         estimate D2E/DX2                !
 ! R20   R(14,23)                0.9768         estimate D2E/DX2                !
 ! R21   R(15,27)                1.4511         estimate D2E/DX2                !
 ! R22   R(16,17)                1.0997         estimate D2E/DX2                !
 ! R23   R(16,18)                1.0991         estimate D2E/DX2                !
 ! R24   R(16,19)                1.4406         estimate D2E/DX2                !
 ! R25   R(19,20)                0.997          estimate D2E/DX2                !
 ! R26   R(19,82)                1.7746         estimate D2E/DX2                !
 ! R27   R(20,56)                1.7966         estimate D2E/DX2                !
 ! R28   R(24,25)                1.4282         estimate D2E/DX2                !
 ! R29   R(24,29)                1.4333         estimate D2E/DX2                !
 ! R30   R(25,26)                1.5447         estimate D2E/DX2                !
 ! R31   R(25,30)                1.1064         estimate D2E/DX2                !
 ! R32   R(25,37)                1.4051         estimate D2E/DX2                !
 ! R33   R(26,27)                1.5417         estimate D2E/DX2                !
 ! R34   R(26,31)                1.102          estimate D2E/DX2                !
 ! R35   R(26,36)                1.4312         estimate D2E/DX2                !
 ! R36   R(27,28)                1.5341         estimate D2E/DX2                !
 ! R37   R(27,32)                1.1055         estimate D2E/DX2                !
 ! R38   R(28,29)                1.5274         estimate D2E/DX2                !
 ! R39   R(28,33)                1.1022         estimate D2E/DX2                !
 ! R40   R(28,35)                1.4403         estimate D2E/DX2                !
 ! R41   R(29,34)                1.1078         estimate D2E/DX2                !
 ! R42   R(29,38)                1.5264         estimate D2E/DX2                !
 ! R43   R(35,43)                0.9723         estimate D2E/DX2                !
 ! R44   R(36,44)                0.99           estimate D2E/DX2                !
 ! R45   R(36,64)                1.885          estimate D2E/DX2                !
 ! R46   R(37,49)                1.4433         estimate D2E/DX2                !
 ! R47   R(38,39)                1.104          estimate D2E/DX2                !
 ! R48   R(38,40)                1.1033         estimate D2E/DX2                !
 ! R49   R(38,41)                1.4264         estimate D2E/DX2                !
 ! R50   R(41,42)                0.9712         estimate D2E/DX2                !
 ! R51   R(45,46)                1.4566         estimate D2E/DX2                !
 ! R52   R(45,50)                1.4489         estimate D2E/DX2                !
 ! R53   R(45,83)                1.7127         estimate D2E/DX2                !
 ! R54   R(46,47)                1.5298         estimate D2E/DX2                !
 ! R55   R(46,51)                1.1075         estimate D2E/DX2                !
 ! R56   R(46,58)                1.3852         estimate D2E/DX2                !
 ! R57   R(47,48)                1.5362         estimate D2E/DX2                !
 ! R58   R(47,52)                1.107          estimate D2E/DX2                !
 ! R59   R(47,57)                1.4196         estimate D2E/DX2                !
 ! R60   R(48,49)                1.5334         estimate D2E/DX2                !
 ! R61   R(48,53)                1.1046         estimate D2E/DX2                !
 ! R62   R(48,56)                1.4447         estimate D2E/DX2                !
 ! R63   R(49,50)                1.5335         estimate D2E/DX2                !
 ! R64   R(49,55)                1.0986         estimate D2E/DX2                !
 ! R65   R(50,54)                1.1054         estimate D2E/DX2                !
 ! R66   R(50,59)                1.5319         estimate D2E/DX2                !
 ! R67   R(56,64)                0.9911         estimate D2E/DX2                !
 ! R68   R(57,65)                0.9736         estimate D2E/DX2                !
 ! R69   R(58,66)                1.4537         estimate D2E/DX2                !
 ! R70   R(59,60)                1.1008         estimate D2E/DX2                !
 ! R71   R(59,61)                1.0962         estimate D2E/DX2                !
 ! R72   R(59,62)                1.4367         estimate D2E/DX2                !
 ! R73   R(62,63)                0.9802         estimate D2E/DX2                !
 ! R74   R(66,67)                1.1013         estimate D2E/DX2                !
 ! R75   R(66,68)                1.1015         estimate D2E/DX2                !
 ! R76   R(66,69)                1.5218         estimate D2E/DX2                !
 ! R77   R(69,70)                1.1006         estimate D2E/DX2                !
 ! R78   R(69,71)                1.1025         estimate D2E/DX2                !
 ! R79   R(69,72)                1.5489         estimate D2E/DX2                !
 ! R80   R(72,73)                1.0994         estimate D2E/DX2                !
 ! R81   R(72,74)                1.1023         estimate D2E/DX2                !
 ! R82   R(72,75)                1.5395         estimate D2E/DX2                !
 ! R83   R(75,76)                1.1019         estimate D2E/DX2                !
 ! R84   R(75,77)                1.1037         estimate D2E/DX2                !
 ! R85   R(75,78)                1.5268         estimate D2E/DX2                !
 ! R86   R(78,79)                1.0982         estimate D2E/DX2                !
 ! R87   R(78,80)                1.098          estimate D2E/DX2                !
 ! R88   R(78,81)                1.5019         estimate D2E/DX2                !
 ! R89   R(81,82)                1.0525         estimate D2E/DX2                !
 ! R90   R(81,83)                1.057          estimate D2E/DX2                !
 ! R91   R(81,84)                1.029          estimate D2E/DX2                !
 ! A1    A(2,1,6)              113.9108         estimate D2E/DX2                !
 ! A2    A(2,1,44)              96.8979         estimate D2E/DX2                !
 ! A3    A(6,1,44)             126.2773         estimate D2E/DX2                !
 ! A4    A(1,2,3)              110.0317         estimate D2E/DX2                !
 ! A5    A(1,2,7)              105.0288         estimate D2E/DX2                !
 ! A6    A(1,2,15)             112.3141         estimate D2E/DX2                !
 ! A7    A(3,2,7)              110.6561         estimate D2E/DX2                !
 ! A8    A(3,2,15)             108.3748         estimate D2E/DX2                !
 ! A9    A(7,2,15)             110.4317         estimate D2E/DX2                !
 ! A10   A(2,3,4)              111.475          estimate D2E/DX2                !
 ! A11   A(2,3,8)              106.6905         estimate D2E/DX2                !
 ! A12   A(2,3,14)             112.336          estimate D2E/DX2                !
 ! A13   A(4,3,8)              108.3106         estimate D2E/DX2                !
 ! A14   A(4,3,14)             111.6092         estimate D2E/DX2                !
 ! A15   A(8,3,14)             106.0649         estimate D2E/DX2                !
 ! A16   A(3,4,5)              111.1597         estimate D2E/DX2                !
 ! A17   A(3,4,9)              109.1533         estimate D2E/DX2                !
 ! A18   A(3,4,13)             111.1343         estimate D2E/DX2                !
 ! A19   A(5,4,9)              108.1303         estimate D2E/DX2                !
 ! A20   A(5,4,13)             106.9059         estimate D2E/DX2                !
 ! A21   A(9,4,13)             110.2993         estimate D2E/DX2                !
 ! A22   A(4,5,6)              109.0789         estimate D2E/DX2                !
 ! A23   A(4,5,10)             107.8195         estimate D2E/DX2                !
 ! A24   A(4,5,12)             112.0451         estimate D2E/DX2                !
 ! A25   A(6,5,10)             107.6392         estimate D2E/DX2                !
 ! A26   A(6,5,12)             109.3769         estimate D2E/DX2                !
 ! A27   A(10,5,12)            110.7628         estimate D2E/DX2                !
 ! A28   A(1,6,5)              110.7992         estimate D2E/DX2                !
 ! A29   A(1,6,11)             108.5489         estimate D2E/DX2                !
 ! A30   A(1,6,16)             107.7535         estimate D2E/DX2                !
 ! A31   A(5,6,11)             107.6729         estimate D2E/DX2                !
 ! A32   A(5,6,16)             114.2443         estimate D2E/DX2                !
 ! A33   A(11,6,16)            107.6543         estimate D2E/DX2                !
 ! A34   A(5,12,21)            106.1279         estimate D2E/DX2                !
 ! A35   A(4,13,22)            107.4286         estimate D2E/DX2                !
 ! A36   A(3,14,23)            107.2003         estimate D2E/DX2                !
 ! A37   A(2,15,27)            117.4936         estimate D2E/DX2                !
 ! A38   A(6,16,17)            108.8109         estimate D2E/DX2                !
 ! A39   A(6,16,18)            110.2208         estimate D2E/DX2                !
 ! A40   A(6,16,19)            111.9352         estimate D2E/DX2                !
 ! A41   A(17,16,18)           107.5894         estimate D2E/DX2                !
 ! A42   A(17,16,19)           107.2718         estimate D2E/DX2                !
 ! A43   A(18,16,19)           110.8503         estimate D2E/DX2                !
 ! A44   A(16,19,20)           111.6146         estimate D2E/DX2                !
 ! A45   A(16,19,82)           127.8675         estimate D2E/DX2                !
 ! A46   A(20,19,82)           120.4481         estimate D2E/DX2                !
 ! A47   A(19,20,56)           164.1881         estimate D2E/DX2                !
 ! A48   A(25,24,29)           112.3113         estimate D2E/DX2                !
 ! A49   A(24,25,26)           111.5878         estimate D2E/DX2                !
 ! A50   A(24,25,30)           109.5496         estimate D2E/DX2                !
 ! A51   A(24,25,37)           108.4302         estimate D2E/DX2                !
 ! A52   A(26,25,30)           109.1374         estimate D2E/DX2                !
 ! A53   A(26,25,37)           113.6575         estimate D2E/DX2                !
 ! A54   A(30,25,37)           104.1814         estimate D2E/DX2                !
 ! A55   A(25,26,27)           111.8952         estimate D2E/DX2                !
 ! A56   A(25,26,31)           108.8123         estimate D2E/DX2                !
 ! A57   A(25,26,36)           105.8076         estimate D2E/DX2                !
 ! A58   A(27,26,31)           105.9263         estimate D2E/DX2                !
 ! A59   A(27,26,36)           113.6848         estimate D2E/DX2                !
 ! A60   A(31,26,36)           110.7014         estimate D2E/DX2                !
 ! A61   A(15,27,26)           113.3317         estimate D2E/DX2                !
 ! A62   A(15,27,28)           104.7465         estimate D2E/DX2                !
 ! A63   A(15,27,32)           108.8438         estimate D2E/DX2                !
 ! A64   A(26,27,28)           110.1312         estimate D2E/DX2                !
 ! A65   A(26,27,32)           109.6697         estimate D2E/DX2                !
 ! A66   A(28,27,32)           109.9988         estimate D2E/DX2                !
 ! A67   A(27,28,29)           109.2844         estimate D2E/DX2                !
 ! A68   A(27,28,33)           109.9264         estimate D2E/DX2                !
 ! A69   A(27,28,35)           110.8524         estimate D2E/DX2                !
 ! A70   A(29,28,33)           109.0711         estimate D2E/DX2                !
 ! A71   A(29,28,35)           107.2711         estimate D2E/DX2                !
 ! A72   A(33,28,35)           110.3748         estimate D2E/DX2                !
 ! A73   A(24,29,28)           109.2629         estimate D2E/DX2                !
 ! A74   A(24,29,34)           110.3145         estimate D2E/DX2                !
 ! A75   A(24,29,38)           107.0917         estimate D2E/DX2                !
 ! A76   A(28,29,34)           108.4767         estimate D2E/DX2                !
 ! A77   A(28,29,38)           113.4906         estimate D2E/DX2                !
 ! A78   A(34,29,38)           108.1894         estimate D2E/DX2                !
 ! A79   A(28,35,43)           106.7705         estimate D2E/DX2                !
 ! A80   A(26,36,44)           104.7777         estimate D2E/DX2                !
 ! A81   A(26,36,64)           109.5074         estimate D2E/DX2                !
 ! A82   A(44,36,64)            95.241          estimate D2E/DX2                !
 ! A83   A(25,37,49)           119.9765         estimate D2E/DX2                !
 ! A84   A(29,38,39)           109.5592         estimate D2E/DX2                !
 ! A85   A(29,38,40)           108.0624         estimate D2E/DX2                !
 ! A86   A(29,38,41)           106.2211         estimate D2E/DX2                !
 ! A87   A(39,38,40)           108.8724         estimate D2E/DX2                !
 ! A88   A(39,38,41)           111.8327         estimate D2E/DX2                !
 ! A89   A(40,38,41)           112.179          estimate D2E/DX2                !
 ! A90   A(38,41,42)           108.6521         estimate D2E/DX2                !
 ! A91   A(1,44,36)            152.4372         estimate D2E/DX2                !
 ! A92   A(46,45,50)           116.1172         estimate D2E/DX2                !
 ! A93   A(46,45,83)           106.131          estimate D2E/DX2                !
 ! A94   A(50,45,83)           115.2662         estimate D2E/DX2                !
 ! A95   A(45,46,47)           110.4746         estimate D2E/DX2                !
 ! A96   A(45,46,51)           108.6047         estimate D2E/DX2                !
 ! A97   A(45,46,58)           105.8992         estimate D2E/DX2                !
 ! A98   A(47,46,51)           111.3693         estimate D2E/DX2                !
 ! A99   A(47,46,58)           107.5022         estimate D2E/DX2                !
 ! A100  A(51,46,58)           112.8572         estimate D2E/DX2                !
 ! A101  A(46,47,48)           113.3106         estimate D2E/DX2                !
 ! A102  A(46,47,52)           106.2508         estimate D2E/DX2                !
 ! A103  A(46,47,57)           106.7938         estimate D2E/DX2                !
 ! A104  A(48,47,52)           108.1938         estimate D2E/DX2                !
 ! A105  A(48,47,57)           111.7219         estimate D2E/DX2                !
 ! A106  A(52,47,57)           110.437          estimate D2E/DX2                !
 ! A107  A(47,48,49)           115.8606         estimate D2E/DX2                !
 ! A108  A(47,48,53)           108.0329         estimate D2E/DX2                !
 ! A109  A(47,48,56)           105.3962         estimate D2E/DX2                !
 ! A110  A(49,48,53)           107.788          estimate D2E/DX2                !
 ! A111  A(49,48,56)           110.2933         estimate D2E/DX2                !
 ! A112  A(53,48,56)           109.3287         estimate D2E/DX2                !
 ! A113  A(37,49,48)           105.8647         estimate D2E/DX2                !
 ! A114  A(37,49,50)           111.8854         estimate D2E/DX2                !
 ! A115  A(37,49,55)           110.9425         estimate D2E/DX2                !
 ! A116  A(48,49,50)           113.3686         estimate D2E/DX2                !
 ! A117  A(48,49,55)           108.8002         estimate D2E/DX2                !
 ! A118  A(50,49,55)           106.0183         estimate D2E/DX2                !
 ! A119  A(45,50,49)           107.4278         estimate D2E/DX2                !
 ! A120  A(45,50,54)           109.7533         estimate D2E/DX2                !
 ! A121  A(45,50,59)           105.6701         estimate D2E/DX2                !
 ! A122  A(49,50,54)           111.2131         estimate D2E/DX2                !
 ! A123  A(49,50,59)           113.3336         estimate D2E/DX2                !
 ! A124  A(54,50,59)           109.2451         estimate D2E/DX2                !
 ! A125  A(20,56,48)           107.5259         estimate D2E/DX2                !
 ! A126  A(20,56,64)           102.1462         estimate D2E/DX2                !
 ! A127  A(48,56,64)           108.0335         estimate D2E/DX2                !
 ! A128  A(47,57,65)           108.1433         estimate D2E/DX2                !
 ! A129  A(46,58,66)           115.9            estimate D2E/DX2                !
 ! A130  A(50,59,60)           107.8            estimate D2E/DX2                !
 ! A131  A(50,59,61)           109.0349         estimate D2E/DX2                !
 ! A132  A(50,59,62)           112.1293         estimate D2E/DX2                !
 ! A133  A(60,59,61)           108.8855         estimate D2E/DX2                !
 ! A134  A(60,59,62)           107.9123         estimate D2E/DX2                !
 ! A135  A(61,59,62)           110.9742         estimate D2E/DX2                !
 ! A136  A(59,62,63)           108.865          estimate D2E/DX2                !
 ! A137  A(36,64,56)           148.8897         estimate D2E/DX2                !
 ! A138  A(58,66,67)           107.5206         estimate D2E/DX2                !
 ! A139  A(58,66,68)           109.6056         estimate D2E/DX2                !
 ! A140  A(58,66,69)           109.5174         estimate D2E/DX2                !
 ! A141  A(67,66,68)           108.782          estimate D2E/DX2                !
 ! A142  A(67,66,69)           110.8824         estimate D2E/DX2                !
 ! A143  A(68,66,69)           110.4752         estimate D2E/DX2                !
 ! A144  A(66,69,70)           106.6648         estimate D2E/DX2                !
 ! A145  A(66,69,71)           108.6438         estimate D2E/DX2                !
 ! A146  A(66,69,72)           115.1036         estimate D2E/DX2                !
 ! A147  A(70,69,71)           105.3616         estimate D2E/DX2                !
 ! A148  A(70,69,72)           109.5505         estimate D2E/DX2                !
 ! A149  A(71,69,72)           110.987          estimate D2E/DX2                !
 ! A150  A(69,72,73)           108.9237         estimate D2E/DX2                !
 ! A151  A(69,72,74)           109.6166         estimate D2E/DX2                !
 ! A152  A(69,72,75)           115.8085         estimate D2E/DX2                !
 ! A153  A(73,72,74)           105.0821         estimate D2E/DX2                !
 ! A154  A(73,72,75)           106.5055         estimate D2E/DX2                !
 ! A155  A(74,72,75)           110.3105         estimate D2E/DX2                !
 ! A156  A(72,75,76)           109.1983         estimate D2E/DX2                !
 ! A157  A(72,75,77)           109.1315         estimate D2E/DX2                !
 ! A158  A(72,75,78)           117.1578         estimate D2E/DX2                !
 ! A159  A(76,75,77)           105.3234         estimate D2E/DX2                !
 ! A160  A(76,75,78)           106.5619         estimate D2E/DX2                !
 ! A161  A(77,75,78)           108.8139         estimate D2E/DX2                !
 ! A162  A(75,78,79)           110.5755         estimate D2E/DX2                !
 ! A163  A(75,78,80)           111.867          estimate D2E/DX2                !
 ! A164  A(75,78,81)           112.5025         estimate D2E/DX2                !
 ! A165  A(79,78,80)           108.417          estimate D2E/DX2                !
 ! A166  A(79,78,81)           107.4076         estimate D2E/DX2                !
 ! A167  A(80,78,81)           105.8182         estimate D2E/DX2                !
 ! A168  A(78,81,82)           111.94           estimate D2E/DX2                !
 ! A169  A(78,81,83)           111.4043         estimate D2E/DX2                !
 ! A170  A(78,81,84)           113.6478         estimate D2E/DX2                !
 ! A171  A(82,81,83)           106.165          estimate D2E/DX2                !
 ! A172  A(82,81,84)           108.345          estimate D2E/DX2                !
 ! A173  A(83,81,84)           104.8306         estimate D2E/DX2                !
 ! A174  L(19,82,81,24,-1)     175.6502         estimate D2E/DX2                !
 ! A175  L(45,83,81,7,-1)      173.5744         estimate D2E/DX2                !
 ! A176  L(19,82,81,24,-2)     186.5385         estimate D2E/DX2                !
 ! A177  L(45,83,81,7,-2)      177.3336         estimate D2E/DX2                !
 ! D1    D(6,1,2,3)            -58.6545         estimate D2E/DX2                !
 ! D2    D(6,1,2,7)           -177.7758         estimate D2E/DX2                !
 ! D3    D(6,1,2,15)            62.1644         estimate D2E/DX2                !
 ! D4    D(44,1,2,3)           166.4676         estimate D2E/DX2                !
 ! D5    D(44,1,2,7)            47.3464         estimate D2E/DX2                !
 ! D6    D(44,1,2,15)          -72.7134         estimate D2E/DX2                !
 ! D7    D(2,1,6,5)             61.1723         estimate D2E/DX2                !
 ! D8    D(2,1,6,11)           -56.8617         estimate D2E/DX2                !
 ! D9    D(2,1,6,16)          -173.1775         estimate D2E/DX2                !
 ! D10   D(44,1,6,5)          -179.5937         estimate D2E/DX2                !
 ! D11   D(44,1,6,11)           62.3722         estimate D2E/DX2                !
 ! D12   D(44,1,6,16)          -53.9435         estimate D2E/DX2                !
 ! D13   D(2,1,44,36)           46.1433         estimate D2E/DX2                !
 ! D14   D(6,1,44,36)          -80.3855         estimate D2E/DX2                !
 ! D15   D(1,2,3,4)             53.5142         estimate D2E/DX2                !
 ! D16   D(1,2,3,8)            -64.5467         estimate D2E/DX2                !
 ! D17   D(1,2,3,14)           179.6347         estimate D2E/DX2                !
 ! D18   D(7,2,3,4)            169.135          estimate D2E/DX2                !
 ! D19   D(7,2,3,8)             51.0741         estimate D2E/DX2                !
 ! D20   D(7,2,3,14)           -64.7445         estimate D2E/DX2                !
 ! D21   D(15,2,3,4)           -69.6439         estimate D2E/DX2                !
 ! D22   D(15,2,3,8)           172.2951         estimate D2E/DX2                !
 ! D23   D(15,2,3,14)           56.4765         estimate D2E/DX2                !
 ! D24   D(1,2,15,27)           78.6196         estimate D2E/DX2                !
 ! D25   D(3,2,15,27)         -159.612          estimate D2E/DX2                !
 ! D26   D(7,2,15,27)          -38.2526         estimate D2E/DX2                !
 ! D27   D(2,3,4,5)            -52.2079         estimate D2E/DX2                !
 ! D28   D(2,3,4,9)             66.9794         estimate D2E/DX2                !
 ! D29   D(2,3,4,13)          -171.1505         estimate D2E/DX2                !
 ! D30   D(8,3,4,5)             64.8747         estimate D2E/DX2                !
 ! D31   D(8,3,4,9)           -175.938          estimate D2E/DX2                !
 ! D32   D(8,3,4,13)           -54.0678         estimate D2E/DX2                !
 ! D33   D(14,3,4,5)          -178.7273         estimate D2E/DX2                !
 ! D34   D(14,3,4,9)           -59.54           estimate D2E/DX2                !
 ! D35   D(14,3,4,13)           62.3302         estimate D2E/DX2                !
 ! D36   D(2,3,14,23)          -50.0727         estimate D2E/DX2                !
 ! D37   D(4,3,14,23)           75.9751         estimate D2E/DX2                !
 ! D38   D(8,3,14,23)         -166.2681         estimate D2E/DX2                !
 ! D39   D(3,4,5,6)             52.9055         estimate D2E/DX2                !
 ! D40   D(3,4,5,10)           169.5189         estimate D2E/DX2                !
 ! D41   D(3,4,5,12)           -68.3472         estimate D2E/DX2                !
 ! D42   D(9,4,5,6)            -66.892          estimate D2E/DX2                !
 ! D43   D(9,4,5,10)            49.7214         estimate D2E/DX2                !
 ! D44   D(9,4,5,12)           171.8553         estimate D2E/DX2                !
 ! D45   D(13,4,5,6)           174.3537         estimate D2E/DX2                !
 ! D46   D(13,4,5,10)          -69.0329         estimate D2E/DX2                !
 ! D47   D(13,4,5,12)           53.1009         estimate D2E/DX2                !
 ! D48   D(3,4,13,22)          -42.5103         estimate D2E/DX2                !
 ! D49   D(5,4,13,22)         -163.9745         estimate D2E/DX2                !
 ! D50   D(9,4,13,22)           78.6902         estimate D2E/DX2                !
 ! D51   D(4,5,6,1)            -56.2035         estimate D2E/DX2                !
 ! D52   D(4,5,6,11)            62.3626         estimate D2E/DX2                !
 ! D53   D(4,5,6,16)          -178.1276         estimate D2E/DX2                !
 ! D54   D(10,5,6,1)          -172.9317         estimate D2E/DX2                !
 ! D55   D(10,5,6,11)          -54.3656         estimate D2E/DX2                !
 ! D56   D(10,5,6,16)           65.1443         estimate D2E/DX2                !
 ! D57   D(12,5,6,1)            66.6602         estimate D2E/DX2                !
 ! D58   D(12,5,6,11)         -174.7737         estimate D2E/DX2                !
 ! D59   D(12,5,6,16)          -55.2639         estimate D2E/DX2                !
 ! D60   D(4,5,12,21)          -45.421          estimate D2E/DX2                !
 ! D61   D(6,5,12,21)         -166.5019         estimate D2E/DX2                !
 ! D62   D(10,5,12,21)          75.0173         estimate D2E/DX2                !
 ! D63   D(1,6,16,17)         -158.4113         estimate D2E/DX2                !
 ! D64   D(1,6,16,18)          -40.6567         estimate D2E/DX2                !
 ! D65   D(1,6,16,19)           83.2087         estimate D2E/DX2                !
 ! D66   D(5,6,16,17)          -34.8312         estimate D2E/DX2                !
 ! D67   D(5,6,16,18)           82.9235         estimate D2E/DX2                !
 ! D68   D(5,6,16,19)         -153.2112         estimate D2E/DX2                !
 ! D69   D(11,6,16,17)          84.6891         estimate D2E/DX2                !
 ! D70   D(11,6,16,18)        -157.5562         estimate D2E/DX2                !
 ! D71   D(11,6,16,19)         -33.6909         estimate D2E/DX2                !
 ! D72   D(2,15,27,26)         -61.8225         estimate D2E/DX2                !
 ! D73   D(2,15,27,28)         178.1036         estimate D2E/DX2                !
 ! D74   D(2,15,27,32)          60.49           estimate D2E/DX2                !
 ! D75   D(6,16,19,20)         -96.0725         estimate D2E/DX2                !
 ! D76   D(6,16,19,82)          86.9945         estimate D2E/DX2                !
 ! D77   D(17,16,19,20)        144.6369         estimate D2E/DX2                !
 ! D78   D(17,16,19,82)        -32.2961         estimate D2E/DX2                !
 ! D79   D(18,16,19,20)         27.4391         estimate D2E/DX2                !
 ! D80   D(18,16,19,82)       -149.4938         estimate D2E/DX2                !
 ! D81   D(16,19,20,56)        162.2985         estimate D2E/DX2                !
 ! D82   D(82,19,20,56)        -20.5099         estimate D2E/DX2                !
 ! D83   D(16,19,81,78)         65.8893         estimate D2E/DX2                !
 ! D84   D(16,19,81,83)       -174.256          estimate D2E/DX2                !
 ! D85   D(16,19,81,84)        -63.6231         estimate D2E/DX2                !
 ! D86   D(20,19,81,78)       -111.086          estimate D2E/DX2                !
 ! D87   D(20,19,81,83)          8.7687         estimate D2E/DX2                !
 ! D88   D(20,19,81,84)        119.4017         estimate D2E/DX2                !
 ! D89   D(19,20,56,48)         12.7113         estimate D2E/DX2                !
 ! D90   D(19,20,56,64)       -100.8696         estimate D2E/DX2                !
 ! D91   D(29,24,25,26)        -58.8656         estimate D2E/DX2                !
 ! D92   D(29,24,25,30)         62.1075         estimate D2E/DX2                !
 ! D93   D(29,24,25,37)        175.2093         estimate D2E/DX2                !
 ! D94   D(25,24,29,28)         65.1542         estimate D2E/DX2                !
 ! D95   D(25,24,29,34)        -54.0126         estimate D2E/DX2                !
 ! D96   D(25,24,29,38)       -171.5335         estimate D2E/DX2                !
 ! D97   D(24,25,26,27)         49.9347         estimate D2E/DX2                !
 ! D98   D(24,25,26,31)        -66.7665         estimate D2E/DX2                !
 ! D99   D(24,25,26,36)        174.2491         estimate D2E/DX2                !
 ! D100  D(30,25,26,27)        -71.2784         estimate D2E/DX2                !
 ! D101  D(30,25,26,31)        172.0205         estimate D2E/DX2                !
 ! D102  D(30,25,26,36)         53.036          estimate D2E/DX2                !
 ! D103  D(37,25,26,27)        172.9275         estimate D2E/DX2                !
 ! D104  D(37,25,26,31)         56.2264         estimate D2E/DX2                !
 ! D105  D(37,25,26,36)        -62.7581         estimate D2E/DX2                !
 ! D106  D(24,25,37,49)         80.1926         estimate D2E/DX2                !
 ! D107  D(26,25,37,49)        -44.515          estimate D2E/DX2                !
 ! D108  D(30,25,37,49)       -163.1915         estimate D2E/DX2                !
 ! D109  D(25,26,27,15)       -165.0481         estimate D2E/DX2                !
 ! D110  D(25,26,27,28)        -48.0888         estimate D2E/DX2                !
 ! D111  D(25,26,27,32)         73.0997         estimate D2E/DX2                !
 ! D112  D(31,26,27,15)        -46.6175         estimate D2E/DX2                !
 ! D113  D(31,26,27,28)         70.3418         estimate D2E/DX2                !
 ! D114  D(31,26,27,32)       -168.4697         estimate D2E/DX2                !
 ! D115  D(36,26,27,15)         75.158          estimate D2E/DX2                !
 ! D116  D(36,26,27,28)       -167.8828         estimate D2E/DX2                !
 ! D117  D(36,26,27,32)        -46.6943         estimate D2E/DX2                !
 ! D118  D(25,26,36,44)        166.478          estimate D2E/DX2                !
 ! D119  D(25,26,36,64)         65.3106         estimate D2E/DX2                !
 ! D120  D(27,26,36,44)        -70.333          estimate D2E/DX2                !
 ! D121  D(27,26,36,64)       -171.5004         estimate D2E/DX2                !
 ! D122  D(31,26,36,44)         48.7507         estimate D2E/DX2                !
 ! D123  D(31,26,36,64)        -52.4167         estimate D2E/DX2                !
 ! D124  D(15,27,28,29)        175.9399         estimate D2E/DX2                !
 ! D125  D(15,27,28,33)        -64.3871         estimate D2E/DX2                !
 ! D126  D(15,27,28,35)         57.9143         estimate D2E/DX2                !
 ! D127  D(26,27,28,29)         53.7535         estimate D2E/DX2                !
 ! D128  D(26,27,28,33)        173.4264         estimate D2E/DX2                !
 ! D129  D(26,27,28,35)        -64.2721         estimate D2E/DX2                !
 ! D130  D(32,27,28,29)        -67.2382         estimate D2E/DX2                !
 ! D131  D(32,27,28,33)         52.4347         estimate D2E/DX2                !
 ! D132  D(32,27,28,35)        174.7362         estimate D2E/DX2                !
 ! D133  D(27,28,29,24)        -61.8089         estimate D2E/DX2                !
 ! D134  D(27,28,29,34)         58.4908         estimate D2E/DX2                !
 ! D135  D(27,28,29,38)        178.7618         estimate D2E/DX2                !
 ! D136  D(33,28,29,24)        177.9923         estimate D2E/DX2                !
 ! D137  D(33,28,29,34)        -61.7081         estimate D2E/DX2                !
 ! D138  D(33,28,29,38)         58.5629         estimate D2E/DX2                !
 ! D139  D(35,28,29,24)         58.4372         estimate D2E/DX2                !
 ! D140  D(35,28,29,34)        178.7369         estimate D2E/DX2                !
 ! D141  D(35,28,29,38)        -60.9921         estimate D2E/DX2                !
 ! D142  D(27,28,35,43)        -66.0576         estimate D2E/DX2                !
 ! D143  D(29,28,35,43)        174.6988         estimate D2E/DX2                !
 ! D144  D(33,28,35,43)         55.9823         estimate D2E/DX2                !
 ! D145  D(24,29,38,39)        -60.7342         estimate D2E/DX2                !
 ! D146  D(24,29,38,40)         57.7509         estimate D2E/DX2                !
 ! D147  D(24,29,38,41)        178.3088         estimate D2E/DX2                !
 ! D148  D(28,29,38,39)         59.9278         estimate D2E/DX2                !
 ! D149  D(28,29,38,40)        178.4129         estimate D2E/DX2                !
 ! D150  D(28,29,38,41)        -61.0292         estimate D2E/DX2                !
 ! D151  D(34,29,38,39)       -179.6386         estimate D2E/DX2                !
 ! D152  D(34,29,38,40)        -61.1536         estimate D2E/DX2                !
 ! D153  D(34,29,38,41)         59.4044         estimate D2E/DX2                !
 ! D154  D(26,36,44,1)          20.6984         estimate D2E/DX2                !
 ! D155  D(64,36,44,1)         132.4756         estimate D2E/DX2                !
 ! D156  D(26,36,64,56)         60.4813         estimate D2E/DX2                !
 ! D157  D(44,36,64,56)        -47.2308         estimate D2E/DX2                !
 ! D158  D(25,37,49,48)        128.8306         estimate D2E/DX2                !
 ! D159  D(25,37,49,50)       -107.2147         estimate D2E/DX2                !
 ! D160  D(25,37,49,55)         10.959          estimate D2E/DX2                !
 ! D161  D(29,38,41,42)       -176.8128         estimate D2E/DX2                !
 ! D162  D(39,38,41,42)         63.7048         estimate D2E/DX2                !
 ! D163  D(40,38,41,42)        -58.953          estimate D2E/DX2                !
 ! D164  D(50,45,46,47)        -60.9233         estimate D2E/DX2                !
 ! D165  D(50,45,46,51)         61.4942         estimate D2E/DX2                !
 ! D166  D(50,45,46,58)       -177.0364         estimate D2E/DX2                !
 ! D167  D(83,45,46,47)         68.6184         estimate D2E/DX2                !
 ! D168  D(83,45,46,51)       -168.9641         estimate D2E/DX2                !
 ! D169  D(83,45,46,58)        -47.4947         estimate D2E/DX2                !
 ! D170  D(46,45,50,49)         63.7878         estimate D2E/DX2                !
 ! D171  D(46,45,50,54)        -57.2555         estimate D2E/DX2                !
 ! D172  D(46,45,50,59)       -174.9318         estimate D2E/DX2                !
 ! D173  D(83,45,50,49)        -61.2108         estimate D2E/DX2                !
 ! D174  D(83,45,50,54)        177.7459         estimate D2E/DX2                !
 ! D175  D(83,45,50,59)         60.0697         estimate D2E/DX2                !
 ! D176  D(46,45,81,78)         52.5361         estimate D2E/DX2                !
 ! D177  D(46,45,81,82)        -68.3249         estimate D2E/DX2                !
 ! D178  D(46,45,81,84)        178.3934         estimate D2E/DX2                !
 ! D179  D(50,45,81,78)       -179.1153         estimate D2E/DX2                !
 ! D180  D(50,45,81,82)         60.0236         estimate D2E/DX2                !
 ! D181  D(50,45,81,84)        -53.2581         estimate D2E/DX2                !
 ! D182  D(45,46,47,48)         43.6912         estimate D2E/DX2                !
 ! D183  D(45,46,47,52)        -74.9767         estimate D2E/DX2                !
 ! D184  D(45,46,47,57)        167.1263         estimate D2E/DX2                !
 ! D185  D(51,46,47,48)        -77.0918         estimate D2E/DX2                !
 ! D186  D(51,46,47,52)        164.2403         estimate D2E/DX2                !
 ! D187  D(51,46,47,57)         46.3433         estimate D2E/DX2                !
 ! D188  D(58,46,47,48)        158.801          estimate D2E/DX2                !
 ! D189  D(58,46,47,52)         40.1331         estimate D2E/DX2                !
 ! D190  D(58,46,47,57)        -77.7639         estimate D2E/DX2                !
 ! D191  D(45,46,58,66)        -76.853          estimate D2E/DX2                !
 ! D192  D(47,46,58,66)        165.0358         estimate D2E/DX2                !
 ! D193  D(51,46,58,66)         41.8368         estimate D2E/DX2                !
 ! D194  D(46,47,48,49)        -36.5229         estimate D2E/DX2                !
 ! D195  D(46,47,48,53)         84.4636         estimate D2E/DX2                !
 ! D196  D(46,47,48,56)       -158.7483         estimate D2E/DX2                !
 ! D197  D(52,47,48,49)         81.0171         estimate D2E/DX2                !
 ! D198  D(52,47,48,53)       -157.9964         estimate D2E/DX2                !
 ! D199  D(52,47,48,56)        -41.2083         estimate D2E/DX2                !
 ! D200  D(57,47,48,49)       -157.2079         estimate D2E/DX2                !
 ! D201  D(57,47,48,53)        -36.2214         estimate D2E/DX2                !
 ! D202  D(57,47,48,56)         80.5667         estimate D2E/DX2                !
 ! D203  D(46,47,57,65)        171.9022         estimate D2E/DX2                !
 ! D204  D(48,47,57,65)        -63.6835         estimate D2E/DX2                !
 ! D205  D(52,47,57,65)         56.7893         estimate D2E/DX2                !
 ! D206  D(47,48,49,37)        163.7376         estimate D2E/DX2                !
 ! D207  D(47,48,49,50)         40.7174         estimate D2E/DX2                !
 ! D208  D(47,48,49,55)        -76.9695         estimate D2E/DX2                !
 ! D209  D(53,48,49,37)         42.6197         estimate D2E/DX2                !
 ! D210  D(53,48,49,50)        -80.4005         estimate D2E/DX2                !
 ! D211  D(53,48,49,55)        161.9126         estimate D2E/DX2                !
 ! D212  D(56,48,49,37)        -76.6715         estimate D2E/DX2                !
 ! D213  D(56,48,49,50)        160.3083         estimate D2E/DX2                !
 ! D214  D(56,48,49,55)         42.6214         estimate D2E/DX2                !
 ! D215  D(47,48,56,20)         64.9771         estimate D2E/DX2                !
 ! D216  D(47,48,56,64)        174.5412         estimate D2E/DX2                !
 ! D217  D(49,48,56,20)        -60.7685         estimate D2E/DX2                !
 ! D218  D(49,48,56,64)         48.7956         estimate D2E/DX2                !
 ! D219  D(53,48,56,20)       -179.1195         estimate D2E/DX2                !
 ! D220  D(53,48,56,64)        -69.5555         estimate D2E/DX2                !
 ! D221  D(37,49,50,45)       -170.606          estimate D2E/DX2                !
 ! D222  D(37,49,50,54)        -50.4855         estimate D2E/DX2                !
 ! D223  D(37,49,50,59)         73.0525         estimate D2E/DX2                !
 ! D224  D(48,49,50,45)        -50.9697         estimate D2E/DX2                !
 ! D225  D(48,49,50,54)         69.1508         estimate D2E/DX2                !
 ! D226  D(48,49,50,59)       -167.3112         estimate D2E/DX2                !
 ! D227  D(55,49,50,45)         68.3246         estimate D2E/DX2                !
 ! D228  D(55,49,50,54)       -171.5548         estimate D2E/DX2                !
 ! D229  D(55,49,50,59)        -48.0169         estimate D2E/DX2                !
 ! D230  D(45,50,59,60)         51.6068         estimate D2E/DX2                !
 ! D231  D(45,50,59,61)        169.6662         estimate D2E/DX2                !
 ! D232  D(45,50,59,62)        -67.0312         estimate D2E/DX2                !
 ! D233  D(49,50,59,60)        168.9797         estimate D2E/DX2                !
 ! D234  D(49,50,59,61)        -72.9609         estimate D2E/DX2                !
 ! D235  D(49,50,59,62)         50.3417         estimate D2E/DX2                !
 ! D236  D(54,50,59,60)        -66.41           estimate D2E/DX2                !
 ! D237  D(54,50,59,61)         51.6493         estimate D2E/DX2                !
 ! D238  D(54,50,59,62)        174.952          estimate D2E/DX2                !
 ! D239  D(20,56,64,36)         10.1753         estimate D2E/DX2                !
 ! D240  D(48,56,64,36)       -103.0293         estimate D2E/DX2                !
 ! D241  D(46,58,66,67)       -103.0324         estimate D2E/DX2                !
 ! D242  D(46,58,66,68)         15.0577         estimate D2E/DX2                !
 ! D243  D(46,58,66,69)        136.405          estimate D2E/DX2                !
 ! D244  D(50,59,62,63)       -106.3019         estimate D2E/DX2                !
 ! D245  D(60,59,62,63)        135.1264         estimate D2E/DX2                !
 ! D246  D(61,59,62,63)         15.9032         estimate D2E/DX2                !
 ! D247  D(58,66,69,70)        170.3166         estimate D2E/DX2                !
 ! D248  D(58,66,69,71)         57.1856         estimate D2E/DX2                !
 ! D249  D(58,66,69,72)        -67.9483         estimate D2E/DX2                !
 ! D250  D(67,66,69,70)         51.8213         estimate D2E/DX2                !
 ! D251  D(67,66,69,71)        -61.3097         estimate D2E/DX2                !
 ! D252  D(67,66,69,72)        173.5563         estimate D2E/DX2                !
 ! D253  D(68,66,69,70)        -68.8623         estimate D2E/DX2                !
 ! D254  D(68,66,69,71)        178.0067         estimate D2E/DX2                !
 ! D255  D(68,66,69,72)         52.8728         estimate D2E/DX2                !
 ! D256  D(66,69,72,73)       -127.003          estimate D2E/DX2                !
 ! D257  D(66,69,72,74)        -12.5334         estimate D2E/DX2                !
 ! D258  D(66,69,72,75)        113.0357         estimate D2E/DX2                !
 ! D259  D(70,69,72,73)         -6.8418         estimate D2E/DX2                !
 ! D260  D(70,69,72,74)        107.6277         estimate D2E/DX2                !
 ! D261  D(70,69,72,75)       -126.8032         estimate D2E/DX2                !
 ! D262  D(71,69,72,73)        109.0908         estimate D2E/DX2                !
 ! D263  D(71,69,72,74)       -136.4397         estimate D2E/DX2                !
 ! D264  D(71,69,72,75)        -10.8706         estimate D2E/DX2                !
 ! D265  D(69,72,75,76)         54.7841         estimate D2E/DX2                !
 ! D266  D(69,72,75,77)        169.4281         estimate D2E/DX2                !
 ! D267  D(69,72,75,78)        -66.4052         estimate D2E/DX2                !
 ! D268  D(73,72,75,76)        -66.4828         estimate D2E/DX2                !
 ! D269  D(73,72,75,77)         48.1612         estimate D2E/DX2                !
 ! D270  D(73,72,75,78)        172.3279         estimate D2E/DX2                !
 ! D271  D(74,72,75,76)        179.9983         estimate D2E/DX2                !
 ! D272  D(74,72,75,77)        -65.3577         estimate D2E/DX2                !
 ! D273  D(74,72,75,78)         58.8091         estimate D2E/DX2                !
 ! D274  D(72,75,78,79)        175.3225         estimate D2E/DX2                !
 ! D275  D(72,75,78,80)         54.3736         estimate D2E/DX2                !
 ! D276  D(72,75,78,81)        -64.5852         estimate D2E/DX2                !
 ! D277  D(76,75,78,79)         52.7652         estimate D2E/DX2                !
 ! D278  D(76,75,78,80)        -68.1837         estimate D2E/DX2                !
 ! D279  D(76,75,78,81)        172.8575         estimate D2E/DX2                !
 ! D280  D(77,75,78,79)        -60.3504         estimate D2E/DX2                !
 ! D281  D(77,75,78,80)        178.7008         estimate D2E/DX2                !
 ! D282  D(77,75,78,81)         59.742          estimate D2E/DX2                !
 ! D283  D(75,78,81,82)       -174.3101         estimate D2E/DX2                !
 ! D284  D(75,78,81,83)         66.9868         estimate D2E/DX2                !
 ! D285  D(75,78,81,84)        -51.1623         estimate D2E/DX2                !
 ! D286  D(79,78,81,82)        -52.4029         estimate D2E/DX2                !
 ! D287  D(79,78,81,83)       -171.106          estimate D2E/DX2                !
 ! D288  D(79,78,81,84)         70.7449         estimate D2E/DX2                !
 ! D289  D(80,78,81,82)         63.2522         estimate D2E/DX2                !
 ! D290  D(80,78,81,83)        -55.4509         estimate D2E/DX2                !
 ! D291  D(80,78,81,84)       -173.6            estimate D2E/DX2                !
 --------------------------------------------------------------------------------
 Trust Radius=3.00D-01 FncErr=1.00D-07 GrdErr=1.00D-06
 Number of steps in this run=    504 maximum allowed number of steps=    504.
 GradGradGradGradGradGradGradGradGradGradGradGradGradGradGradGradGradGrad

 Leave Link  103 at Wed Apr  6 15:55:05 2016, MaxMem= 10737418240 cpu:         0.4
 (Enter /share/apps//g09/l202.exe)
 Stoichiometry    C23H44NO16(1+)
 Framework group  C1[X(C23H44NO16)]
 Deg. of freedom   246
 Full point group                 C1      NOp   1
 Largest Abelian subgroup         C1      NOp   1
 Largest concise Abelian subgroup C1      NOp   1
                         Standard orientation:                         
 ---------------------------------------------------------------------
 Center     Atomic      Atomic             Coordinates (Angstroms)
 Number     Number       Type             X           Y           Z
 ---------------------------------------------------------------------
      1          8           0        2.663053   -1.559593    1.148386
      2          6           0        3.798314   -0.756000    0.797616
      3          6           0        4.871872   -1.625397    0.133062
      4          6           0        4.300509   -2.415956   -1.051705
      5          6           0        3.042477   -3.199431   -0.641259
      6          6           0        2.050419   -2.241953    0.016674
      7          1           0        4.165435   -0.347509    1.753036
      8          1           0        5.213750   -2.342471    0.894456
      9          1           0        4.018795   -1.708852   -1.859313
     10          1           0        2.569263   -3.590989   -1.566125
     11          1           0        1.763773   -1.485316   -0.737145
     12          8           0        3.342585   -4.256255    0.256327
     13          8           0        5.241637   -3.367956   -1.535028
     14          8           0        6.020575   -0.873114   -0.243665
     15          8           0        3.459288    0.296437   -0.094025
     16          6           0        0.771087   -2.908761    0.512559
     17          1           0        0.503956   -3.721458   -0.178528
     18          1           0        0.935006   -3.355629    1.503249
     19          8           0       -0.338202   -1.990060    0.541629
     20          1           0       -0.464500   -1.595346    1.448435
     21          1           0        4.127088   -4.709182   -0.110214
     22          1           0        6.114877   -2.932124   -1.554057
     23          1           0        5.705425   -0.096093   -0.744699
     24          8           0        0.582334    3.281296    0.215081
     25          6           0        0.653159    2.465802    1.385422
     26          6           0        1.464315    1.176066    1.131191
     27          6           0        2.824676    1.473508    0.469431
     28          6           0        2.636508    2.423173   -0.720670
     29          6           0        1.878958    3.666484   -0.259013
     30          1           0        1.127164    3.036541    2.206228
     31          1           0        0.912315    0.544112    0.416884
     32          1           0        3.507876    1.927168    1.210816
     33          1           0        3.618775    2.726773   -1.117954
     34          1           0        2.457756    4.148892    0.553134
     35          8           0        1.848416    1.801125   -1.753347
     36          8           0        1.572908    0.526900    2.402098
     37          8           0       -0.654550    2.228718    1.841448
     38          6           0        1.664437    4.694527   -1.366749
     39          1           0        1.082854    4.238334   -2.186789
     40          1           0        1.088194    5.535909   -0.945682
     41          8           0        2.964498    5.094031   -1.796831
     42          1           0        2.869493    5.788090   -2.469473
     43          1           0        2.374902    1.061141   -2.100689
     44          1           0        1.890195   -0.387150    2.192473
     45          8           0       -3.455136    0.739072   -0.048871
     46          6           0       -4.167236    0.063765    1.027488
     47          6           0       -3.178798   -0.577531    2.003230
     48          6           0       -1.992964    0.333840    2.354038
     49          6           0       -1.463994    1.211961    1.213623
     50          6           0       -2.574774    1.819250    0.348106
     51          1           0       -4.817469    0.800829    1.537899
     52          1           0       -2.783820   -1.478972    1.496361
     53          1           0       -2.306314    1.001358    3.176423
     54          1           0       -3.147213    2.580988    0.908519
     55          1           0       -0.859762    0.590087    0.538974
     56          8           0       -0.954744   -0.552530    2.826833
     57          8           0       -3.920261   -0.942662    3.157444
     58          8           0       -4.882174   -0.959129    0.426274
     59          6           0       -2.059453    2.433939   -0.957043
     60          1           0       -2.931299    2.658517   -1.590502
     61          1           0       -1.535913    3.369714   -0.729248
     62          8           0       -1.207893    1.531350   -1.681159
     63          1           0       -0.279480    1.833907   -1.595331
     64          1           0       -0.137656   -0.013199    2.981227
     65          1           0       -3.340092   -1.467489    3.737010
     66          6           0       -6.091326   -0.561281   -0.275776
     67          1           0       -6.948033   -0.823522    0.364632
     68          1           0       -6.086105    0.529068   -0.432197
     69          6           0       -6.167955   -1.290033   -1.609523
     70          1           0       -7.171132   -1.095562   -2.018253
     71          1           0       -6.135069   -2.375687   -1.420359
     72          6           0       -5.095887   -0.875069   -2.647652
     73          1           0       -5.596591   -0.601812   -3.587478
     74          1           0       -4.593021    0.046613   -2.312073
     75          6           0       -4.055262   -1.952284   -3.003627
     76          1           0       -4.576895   -2.864159   -3.336140
     77          1           0       -3.470587   -1.615756   -3.877167
     78          6           0       -3.090311   -2.380568   -1.900638
     79          1           0       -2.453880   -3.207016   -2.244078
     80          1           0       -3.621288   -2.704524   -0.995814
     81          7           0       -2.183012   -1.265551   -1.465778
     82          1           0       -1.459302   -1.593885   -0.775723
     83          1           0       -2.722336   -0.495575   -0.982610
     84          1           0       -1.699338   -0.799259   -2.245123
 ---------------------------------------------------------------------
 Rotational constants (GHZ):      0.1165299      0.0647670      0.0536356
 Leave Link  202 at Wed Apr  6 15:55:07 2016, MaxMem= 10737418240 cpu:         4.5
 (Enter /share/apps//g09/l301.exe)
 Standard basis: 6-311+G(d,p) (5D, 7F)
 Ernie: Thresh=  0.10000D-02 Tol=  0.10000D-05 Strict=F.
 There are  1184 symmetry adapted cartesian basis functions of A   symmetry.
 There are  1144 symmetry adapted basis functions of A   symmetry.
  1144 basis functions,  1792 primitive gaussians,  1184 cartesian basis functions
   158 alpha electrons      158 beta electrons
       nuclear repulsion energy      5873.5225948423 Hartrees.
 IExCor= 1009 DFT=T Ex+Corr=PBE1PBE ExCW=0 ScaHFX=  0.250000
 ScaDFX=  0.750000  0.750000  1.000000  1.000000 ScalE2=  1.000000  1.000000
 IRadAn=      0 IRanWt=     -1 IRanGd=            0 ICorTp=0 IEmpDi=131
 NAtoms=   84 NActive=   84 NUniq=   84 SFac= 1.00D+00 NAtFMM=   60 NAOKFM=T Big=T
 Integral buffers will be    131072 words long.
 Raffenetti 2 integral format.
 Two-electron integral symmetry is turned on.
 R6Disp:  Grimme-D3 Dispersion energy=       -0.0864725809 Hartrees.
 Nuclear repulsion after empirical dispersion term =     5873.4361222614 Hartrees.
 Leave Link  301 at Wed Apr  6 15:55:08 2016, MaxMem= 10737418240 cpu:         3.2
 (Enter /share/apps//g09/l302.exe)
 NPDir=0 NMtPBC=     1 NCelOv=     1 NCel=       1 NClECP=     1 NCelD=      1
         NCelK=      1 NCelE2=     1 NClLst=     1 CellRange=     0.0.
 One-electron integrals computed using PRISM.
 NBasis=  1144 RedAO= T EigKep=  1.21D-06  NBF=  1144
 NBsUse=  1143 1.00D-06 EigRej=  9.58D-07 NBFU=  1143
 Precomputing XC quadrature grid using
 IXCGrd= 4 IRadAn=           0 IRanWt=          -1 IRanGd=           0 AccXCQ= 0.00D+00.
 Generated NRdTot=       0 NPtTot=           0 NUsed=           0 NTot=          32
 NSgBfM=  1039  1039  1043  1052  1056 MxSgAt=    84 MxSgA2=    84.
 Leave Link  302 at Wed Apr  6 15:55:15 2016, MaxMem= 10737418240 cpu:        75.1
 (Enter /share/apps//g09/l303.exe)
 DipDrv:  MaxL=1.
 Leave Link  303 at Wed Apr  6 15:55:17 2016, MaxMem= 10737418240 cpu:        32.2
 (Enter /share/apps//g09/l401.exe)
 ExpMin= 4.38D-02 ExpMax= 8.59D+03 ExpMxC= 1.30D+03 IAcc=2 IRadAn=         4 AccDes= 0.00D+00
 Harris functional with IExCor= 1009 and IRadAn=       4 diagonalized for initial guess.
 HarFok:  IExCor= 1009 AccDes= 0.00D+00 IRadAn=         4 IDoV= 1 UseB2=F ITyADJ=14
 ICtDFT=  3500011 ScaDFX=  1.000000  1.000000  1.000000  1.000000
 FoFCou: FMM=F IPFlag=           0 FMFlag=      100000 FMFlg1=        2001
         NFxFlg=           0 DoJE=T BraDBF=F KetDBF=T FulRan=T
         wScrn=  0.000000 ICntrl=     500 IOpCl=  0 I1Cent=   200000004 NGrid=           0
         NMat0=    1 NMatS0=      1 NMatT0=    0 NMatD0=    1 NMtDS0=    0 NMtDT0=    0
 Petite list used in FoFCou.
 Harris En= -2159.71339827807    
 JPrj=0 DoOrth=F DoCkMO=F.
 Leave Link  401 at Wed Apr  6 15:55:24 2016, MaxMem= 10737418240 cpu:       119.5
 (Enter /share/apps//g09/l502.exe)
 Closed shell SCF:
 Using DIIS extrapolation, IDIIS=  1040.
 Integral symmetry usage will be decided dynamically.
 IVT=     4256630 IEndB=     4256630 NGot= 10737418240 MDV= 10734581291
 LenX= 10734581291 LenY= 10733178251
 Requested convergence on RMS density matrix=1.00D-08 within 128 cycles.
 Requested convergence on MAX density matrix=1.00D-06.
 Requested convergence on             energy=1.00D-06.
 No special actions if energy rises.
 Fock matrices will be formed incrementally for  20 cycles.

 Cycle   1  Pass 1  IDiag  1:
 FoFJK:  IHMeth= 1 ICntrl=       0 DoSepK=F KAlg= 0 I1Cent=   0 FoldK=F
 IRaf= 780000000 NMat=   1 IRICut=       1 DoRegI=T DoRafI=F ISym2E= 0.
 FoFCou: FMM=T IPFlag=           0 FMFlag=      100000 FMFlg1=        2001
         NFxFlg=           0 DoJE=F BraDBF=F KetDBF=F FulRan=T
         wScrn=  0.000000 ICntrl=       0 IOpCl=  0 I1Cent=           0 NGrid=           0
         NMat0=    1 NMatS0=      1 NMatT0=    0 NMatD0=    1 NMtDS0=    0 NMtDT0=    0
 Symmetry not used in FoFCou.
 FMM levels:  10  Number of levels for PrismC:   9
 E= -2158.68458647573    
 DIIS: error= 1.49D-02 at cycle   1 NSaved=   1.
 NSaved= 1 IEnMin= 1 EnMin= -2158.68458647573     IErMin= 1 ErrMin= 1.49D-02
 ErrMax= 1.49D-02  0.00D+00 EMaxC= 1.00D-01 BMatC= 1.03D+00 BMatP= 1.03D+00
 IDIUse=3 WtCom= 8.51D-01 WtEn= 1.49D-01
 Coeff-Com:  0.100D+01
 Coeff-En:   0.100D+01
 Coeff:      0.100D+01
 Gap=     0.271 Goal=   None    Shift=    0.000
 GapD=    0.271 DampG=1.000 DampE=0.500 DampFc=0.5000 IDamp=-1.
 Damping current iteration by 5.00D-01
 RMSDP=1.38D-02 MaxDP=3.50D+00              OVMax= 1.47D-01

 Cycle   2  Pass 1  IDiag  1:
 RMSU=  6.59D-03    CP:  1.04D+00
 E= -2158.96545475020     Delta-E=       -0.280868274465 Rises=F Damp=T
 DIIS: error= 3.34D-03 at cycle   2 NSaved=   2.
 NSaved= 2 IEnMin= 2 EnMin= -2158.96545475020     IErMin= 2 ErrMin= 3.34D-03
 ErrMax= 3.34D-03  0.00D+00 EMaxC= 1.00D-01 BMatC= 8.34D-02 BMatP= 1.03D+00
 IDIUse=3 WtCom= 9.67D-01 WtEn= 3.34D-02
 Coeff-Com:  0.670D-01 0.933D+00
 Coeff-En:   0.170D+00 0.830D+00
 Coeff:      0.705D-01 0.930D+00
 Gap=     0.292 Goal=   None    Shift=    0.000
 RMSDP=6.33D-03 MaxDP=1.68D+00 DE=-2.81D-01 OVMax= 9.33D-02

 Cycle   3  Pass 1  IDiag  1:
 RMSU=  3.41D-03    CP:  9.34D-01  9.00D-01
 E= -2159.34255113783     Delta-E=       -0.377096387633 Rises=F Damp=F
 DIIS: error= 3.46D-03 at cycle   3 NSaved=   3.
 NSaved= 3 IEnMin= 3 EnMin= -2159.34255113783     IErMin= 2 ErrMin= 3.34D-03
 ErrMax= 3.46D-03  0.00D+00 EMaxC= 1.00D-01 BMatC= 4.53D-02 BMatP= 8.34D-02
 IDIUse=3 WtCom= 9.65D-01 WtEn= 3.46D-02
 Coeff-Com: -0.644D-01 0.405D+00 0.659D+00
 Coeff-En:   0.000D+00 0.000D+00 0.100D+01
 Coeff:     -0.622D-01 0.391D+00 0.671D+00
 Gap=     0.273 Goal=   None    Shift=    0.000
 RMSDP=1.31D-03 MaxDP=2.62D-01 DE=-3.77D-01 OVMax= 1.85D-02

 Cycle   4  Pass 1  IDiag  1:
 RMSU=  9.93D-04    CP:  9.39D-01  9.93D-01  8.46D-01
 E= -2159.37077117435     Delta-E=       -0.028220036516 Rises=F Damp=F
 DIIS: error= 1.13D-03 at cycle   4 NSaved=   4.
 NSaved= 4 IEnMin= 4 EnMin= -2159.37077117435     IErMin= 4 ErrMin= 1.13D-03
 ErrMax= 1.13D-03  0.00D+00 EMaxC= 1.00D-01 BMatC= 6.15D-03 BMatP= 4.53D-02
 IDIUse=3 WtCom= 9.89D-01 WtEn= 1.13D-02
 Coeff-Com: -0.358D-01 0.124D+00 0.344D+00 0.567D+00
 Coeff-En:   0.000D+00 0.000D+00 0.788D-01 0.921D+00
 Coeff:     -0.354D-01 0.123D+00 0.341D+00 0.571D+00
 Gap=     0.267 Goal=   None    Shift=    0.000
 RMSDP=1.04D-03 MaxDP=3.47D-01 DE=-2.82D-02 OVMax= 6.80D-03

 Cycle   5  Pass 1  IDiag  1:
 RMSU=  3.54D-04    CP:  9.22D-01  9.61D-01  8.58D-01  6.08D-01
 E= -2159.37596229978     Delta-E=       -0.005191125430 Rises=F Damp=F
 DIIS: error= 2.46D-04 at cycle   5 NSaved=   5.
 NSaved= 5 IEnMin= 5 EnMin= -2159.37596229978     IErMin= 5 ErrMin= 2.46D-04
 ErrMax= 2.46D-04  0.00D+00 EMaxC= 1.00D-01 BMatC= 2.76D-04 BMatP= 6.15D-03
 IDIUse=3 WtCom= 9.98D-01 WtEn= 2.46D-03
 Coeff-Com: -0.114D-01 0.268D-01 0.103D+00 0.250D+00 0.632D+00
 Coeff-En:   0.000D+00 0.000D+00 0.000D+00 0.000D+00 0.100D+01
 Coeff:     -0.114D-01 0.268D-01 0.103D+00 0.249D+00 0.633D+00
 Gap=     0.266 Goal=   None    Shift=    0.000
 RMSDP=1.99D-04 MaxDP=6.78D-02 DE=-5.19D-03 OVMax= 1.60D-03

 Cycle   6  Pass 1  IDiag  1:
 RMSU=  1.22D-04    CP:  9.24D-01  9.71D-01  8.79D-01  6.09D-01  7.21D-01
 E= -2159.37615913977     Delta-E=       -0.000196839990 Rises=F Damp=F
 DIIS: error= 8.81D-05 at cycle   6 NSaved=   6.
 NSaved= 6 IEnMin= 6 EnMin= -2159.37615913977     IErMin= 6 ErrMin= 8.81D-05
 ErrMax= 8.81D-05  0.00D+00 EMaxC= 1.00D-01 BMatC= 3.21D-05 BMatP= 2.76D-04
 IDIUse=1 WtCom= 1.00D+00 WtEn= 0.00D+00
 Coeff-Com: -0.414D-02 0.742D-02 0.364D-01 0.103D+00 0.342D+00 0.515D+00
 Coeff:     -0.414D-02 0.742D-02 0.364D-01 0.103D+00 0.342D+00 0.515D+00
 Gap=     0.267 Goal=   None    Shift=    0.000
 RMSDP=7.35D-05 MaxDP=2.75D-02 DE=-1.97D-04 OVMax= 5.46D-04

 Cycle   7  Pass 1  IDiag  1:
 RMSU=  2.56D-05    CP:  9.25D-01  9.71D-01  8.75D-01  6.28D-01  7.22D-01
                    CP:  6.06D-01
[...]
 .00003265,0.00002790,-0.00001508,0.00005208,-0.00032463,-0.00013270,0.
 00015110,0.00001460,-0.00030519,0.00033430,0.00173495,-0.00007210,0.00
 120263,-0.00001108,-0.00007074,-0.00011320,0.00002554,0.00000913,-0.00
 002468,-0.00002129,-0.00003682,0.00000328,0.00000988,0.00007776,0.0002
 2345,0.00001998,-0.00001576,-0.00003191,0.00017332,0.00005473,0.000052
 91,0.00020698,0.00026443,-0.00020710,0.00146662,0.00352805,-0.00935371
 ,0.00472685,0.00711726,0.00880112,-0.00076229,0.00062835,0.00006777,-0
 .00090577,0.00104240,-0.00005749,-0.00171406,0.00010729,0.00025239,-0.
 00686761,-0.00425612,-0.00262941,-0.00003143,-0.00113230,-0.00152288,-
 0.00004058,0.00038110,-0.00004569,0.00004857,-0.00015970,-0.00002491,0
 .00130986,0.00067861,0.00022686,-0.00018596,0.00046404,-0.00031724,0.0
 0032715,-0.00112105,0.00074924,0.00046123,-0.00106763,-0.00054031,-0.0
 0474394,-0.00053341,0.00040380,0.00058392,-0.00105554,-0.00125658,0.00
 000985,-0.00006021,-0.00008003,-0.00017946,0.00013107,0.00038255,-0.00
 118535,-0.00038296,0.00178756,-0.00017987,0.00018386,-0.00036351,-0.00
 017328,0.00009646,-0.00023139,0.00002475,0.00013547,-0.00010222,0.0012
 7981,-0.00034233,0.00004628,-0.00024670,0.00008320,0.00003998,0.000054
 51,-0.00013699,0.00001354,0.00003186,-0.00012321,-0.00055540,-0.000092
 56,0.00001616,0.00028867,-0.00006840,-0.00001755,0.00009684,-0.0006181
 9,-0.00067027,-0.00074182,0.00059097,0.00008624,0.00044121,-0.00007684
 ,0.00206781,-0.00081213,-0.00048989,0.00019666,0.00125526,0.00064136,-
 0.00016771,-0.00000541,-0.00022325,-0.00004566,0.00010241,-0.01473361,
 -0.01802002,0.01679524,-0.00259656,-0.00086498,-0.00206275,0.00187516,
 0.00067032,0.00037717,-0.10677006,-0.06347691,0.07641183,0.01714930,0.
 01136137,-0.01867003,0.11462750,-0.00057875,-0.00017091,-0.00019287,0.
 00014690,0.00039839,0.00028400,0.00008784,0.00001252,0.00001665,0.0000
 2960,0.00004186,0.00008796,0.00000880,-0.00013516,0.00003668,0.0004768
 5,0.00005000,0.00001083,-0.00003333,-0.00002424,-0.00003877,-0.0000004
 9,-0.00000997,0.00001508,0.00000965,0.00000825,0.00000220,-0.00006898,
 -0.00002063,0.00003469,0.00003803,0.00008249,0.00008474,-0.00010370,0.
 00011601,-0.00009806,-0.00007232,0.00001695,-0.00011229,-0.00011314,-0
 .00007013,-0.00007955,-0.00012008,-0.00048743,0.00008955,-0.00025855,-
 0.00040915,0.00062747,-0.00001024,-0.00008612,0.00000613,-0.00002217,0
 .00014173,-0.00014471,-0.00110205,0.00118409,-0.00079277,0.00080760,0.
 00034435,-0.00053816,0.00003376,-0.00001958,0.00003408,0.00002737,0.00
 000108,0.00001100,0.00003100,0.00003962,-0.00000929,0.00027170,-0.0001
 0811,0.00045232,-0.00015473,0.00024421,-0.00072881,0.00007315,0.000087
 85,0.00015679,0.00008196,0.00021444,-0.00021194,0.00011487,0.00002978,
 0.00001499,-0.00006589,-0.00000676,-0.00040719,0.00005388,-0.00002555,
 0.00010062,0.00006100,0.00009073,-0.00002620,-0.00002762,-0.00000482,0
 .00001284,-0.00001830,-0.00000564,0.00002253,0.00003596,-0.00001117,0.
 00005219,-0.00021804,-0.00023156,0.00012611,-0.00006980,-0.00031015,0.
 00011447,0.00088511,-0.00070721,0.00106186,-0.00007753,-0.00001851,-0.
 00011515,0.00004392,0.00000882,-0.00003926,-0.00002357,-0.00004280,0.0
 0000473,0.00004030,0.00002297,0.00019249,0.00000745,-0.00000988,-0.000
 03081,0.00015855,0.00008144,0.00009892,0.00020413,0.00018147,-0.000112
 04,0.00479200,-0.00658341,-0.00486461,0.00583673,0.00954843,0.00337754
 ,0.00079675,0.00175402,-0.00235975,-0.00024514,0.00055402,0.00004712,-
 0.00033668,0.00154846,-0.00102024,-0.00499511,-0.00259982,-0.00384377,
 0.00006380,-0.00148053,-0.00153238,-0.00007521,-0.00102233,0.00035458,
 -0.00019071,-0.00008795,0.00000944,0.00139392,0.00047308,0.00038062,0.
 00021707,0.00010437,0.00037419,0.00002490,-0.00089401,0.00051057,-0.00
 012103,-0.00117537,0.00067019,-0.00226187,-0.00179470,0.00041880,-0.00
 063552,-0.00103339,-0.00096841,0.00001335,-0.00050219,-0.00007533,-0.0
 0003446,0.00006101,0.00033032,-0.00000930,-0.00144030,0.00201774,-0.00
 003227,0.00078727,-0.00050595,-0.00002503,0.00007655,-0.00005110,0.000
 15906,-0.00003368,-0.00014034,0.00022876,0.00020236,0.00051982,0.00000
 371,-0.00011605,0.00001517,0.00002945,-0.00026942,0.00020281,-0.000077
 10,-0.00002265,0.00002896,-0.00007913,-0.00011737,0.00004416,-0.000186
 17,-0.00016693,-0.00023654,0.00099509,0.00145609,0.00005623,-0.0004505
 4,-0.00034713,-0.00004003,0.00082860,-0.00211718,0.00070977,0.00049531
 ,0.00168589,-0.00048746,0.00032007,-0.00062116,0.00025951,-0.00006769,
 -0.00006334,0.00007366,-0.00902211,-0.00792073,0.00267011,-0.00001044,
 0.00053171,-0.00055695,0.00044061,-0.00005226,0.00021717,-0.06503063,-
 0.15561787,0.11274858,-0.00908213,-0.01592892,0.01777520,0.06461304,0.
 16634909,0.00055436,0.00012712,0.00012613,-0.00013782,-0.00025418,-0.0
 0020959,-0.00008505,-0.00001380,-0.00001889,-0.00002701,-0.00000838,-0
 .00008864,-0.00002441,0.00014267,-0.00004299,-0.00047041,0.00003639,-0
 .00003410,0.00003780,0.00001659,0.00003550,-0.00000037,0.00000494,-0.0
 0000918,-0.00000266,-0.00001622,-0.00000831,0.00007156,0.00001525,-0.0
 0003689,-0.00001749,-0.00007738,-0.00008776,0.00010553,-0.00014455,0.0
 0008254,0.00006820,-0.00003856,0.00010998,0.00010814,0.00005190,0.0000
 7169,0.00014346,0.00031500,-0.00010512,0.00011351,0.00030329,-0.000587
 21,0.00000571,0.00014623,-0.00004318,0.00002749,-0.00014218,0.00014912
 ,0.00219075,-0.00129104,-0.00016737,-0.00070081,-0.00062702,0.00112832
 ,-0.00003452,0.00002687,-0.00003080,-0.00002814,0.00000710,-0.00001370
 ,-0.00003240,-0.00002415,0.00000213,0.00028556,-0.00015569,-0.00059107
 ,-0.00009295,0.00018389,0.00144546,-0.00022375,0.00003525,-0.00012550,
 -0.00005130,-0.00013096,0.00018866,-0.00036343,-0.00000607,-0.00000745
 ,0.00002198,-0.00004285,0.00026224,-0.00001532,-0.00001736,-0.00016226
 ,-0.00006971,-0.00002213,0.00003165,0.00003456,-0.00001556,-0.00000856
 ,0.00007326,-0.00000545,-0.00001238,0.00001192,0.00000930,-0.00002178,
 0.00044676,0.00009995,0.00009010,0.00012314,0.00009334,-0.00037261,-0.
 00121058,0.00050684,-0.00183869,-0.00010172,0.00000525,0.00002701,0.00
 001244,-0.00003760,-0.00000081,0.00003392,0.00003531,-0.00000477,0.000
 06150,0.00000753,-0.00007135,-0.00003142,-0.00001629,0.00000779,-0.000
 10897,-0.00003385,-0.00007364,-0.00019334,-0.00017433,0.00017149,-0.00
 900263,-0.00474420,-0.00436713,0.00228400,-0.00462878,-0.01078864,0.00
 077141,-0.00112229,0.00059603,0.00084190,-0.00052693,0.00051823,0.0002
 9817,-0.00147973,0.00150361,0.00443946,0.00171085,0.00864982,-0.000367
 00,0.00049983,0.00118368,0.00022449,-0.00006954,0.00013117,0.00001927,
 0.00002605,-0.00014660,-0.00224421,-0.00090202,-0.00103282,-0.00063229
 ,0.00032052,-0.00031549,-0.00040368,0.00093337,-0.00113641,-0.00075640
 ,0.00122426,0.00009508,0.00236872,0.00057002,0.00275554,-0.00189748,-0
 .00142977,0.00346812,-0.00001845,0.00026237,-0.00013555,0.00040848,0.0
 0009002,-0.00074890,0.00266957,0.00291753,-0.00059165,-0.00000829,0.00
 040645,-0.00034870,0.00011618,0.00002657,0.00033294,-0.00001866,-0.000
 08264,0.00018308,-0.00262629,0.00143125,-0.00153779,0.00042302,-0.0001
 9197,0.00027561,0.00010748,-0.00000417,-0.00003633,-0.00026645,-0.0001
 6102,-0.00004375,0.00022766,0.00000546,-0.00017591,0.00010851,0.000115
 56,0.00005178,-0.00036252,-0.00059071,0.00003233,0.00043732,0.00027870
 ,-0.00021908,-0.00074945,0.00127345,0.00009284,0.00033065,-0.00104206,
 0.00029684,-0.00023417,0.00047707,-0.00030313,0.00023487,0.00007850,-0
 .00030247,-0.00120363,-0.00963240,0.01775815,-0.00529058,-0.00207615,-
 0.00184839,-0.00066294,-0.00106460,0.00036413,0.07538097,0.10694853,-0
 .18812867,-0.00190695,0.00522424,-0.00459944,-0.07446714,-0.11028633,0
 .20125828,-0.00004461,-0.00017049,-0.00003129,-0.00003062,0.00024437,0
 .00001395,0.00000495,0.00000616,-0.00003990,0.00001582,0.00006067,-0.0
 0004024,0.00006922,0.00000666,-0.00007593,-0.00002307,0.00033420,0.000
 09888,-0.00000037,-0.00001253,-0.00001133,-0.00000176,-0.00000532,0.00
 001042,0.00001407,-0.00001216,-0.00001442,-0.00001915,-0.00000757,0.00
 000987,0.00001731,-0.00004108,-0.00008428,-0.00004635,-0.00008071,0.00
 002134,-0.00004341,-0.00005417,0.00005557,-0.00002388,-0.00003206,0.00
 003990,0.00002401,-0.00026576,0.00008608,-0.00017730,-0.00003618,0.000
 09946,0.00002182,-0.00003028,0.00001902,0.00000152,0.00002384,-0.00005
 004,-0.00088649,0.00057770,-0.00103624,0.00011057,0.00002938,-0.000015
 61,0.00002122,0.00000575,-0.00000138,0.00001337,0.00000827,-0.00001700
 ,0.00000814,0.00002458,-0.00003948,0.00037266,-0.00004056,0.00007315,-
 0.00021623,0.00018730,0.00014569,-0.00027326,0.00009697,0.00005133,0.0
 0005833,0.00011852,-0.00012847,-0.00032770,-0.00000344,0.00005732,-0.0
 0007577,-0.00008296,-0.00021543,0.00004093,-0.00001175,-0.00001168,-0.
 00000689,0.00011885,0.00000793,0.00001433,-0.00002569,0.00002152,0.000
 07792,-0.00001394,0.00002465,0.00004337,0.00000651,0.00002132,0.000397
 44,0.00007614,0.00030340,0.00013945,-0.00024468,-0.00006979,0.00009480
 ,-0.00005610,-0.00017854,-0.00010815,-0.00005423,-0.00010967,0.0000410
 9,-0.00003321,-0.00002560,0.00000926,-0.00000423,0.00000206,0.00006540
 ,0.00007668,0.00016189,-0.00000223,-0.00002840,-0.00003144,0.00000887,
 0.00000390,-0.00014909,0.00003943,0.00008931,-0.00002720,-0.00101470,-
 0.00155632,-0.00015630,0.00043904,0.00052451,-0.00000220,0.00033825,0.
 00035177,-0.00030678,0.00016565,0.00021410,0.00009436,-0.00028404,-0.0
 0015826,0.00021698,0.00041215,0.00029848,0.00052912,0.00000950,-0.0000
 7252,0.00000598,-0.00014441,-0.00023753,0.00008580,-0.00003079,-0.0000
 6104,-0.00005391,-0.00009698,-0.00010243,-0.00018642,-0.00039521,0.000
 31491,0.00013780,-0.00008353,-0.00019792,-0.00008937,-0.00020967,-0.00
 010412,0.00012642,-0.00034503,-0.00003283,-0.00002739,-0.00016469,-0.0
 0061870,0.00259694,0.00003808,0.00017367,-0.00027833,0.00025638,0.0003
 1265,-0.00054665,0.00093552,0.00199099,-0.00206164,-0.00052689,-0.0002
 5054,-0.00065321,0.00000053,0.00006882,0.00009944,0.00006358,0.0000104
 6,0.00001045,0.00024554,-0.00006272,0.00019173,-0.00007757,0.00000730,
 0.00003299,0.00001261,-0.00000333,-0.00001352,-0.00019781,-0.00036045,
 -0.00003977,0.00000049,0.00006841,0.00009516,0.00005574,0.00008222,0.0
 0002638,-0.00000724,0.00055250,0.00005677,0.00001108,0.00005631,-0.000
 01096,0.00003977,0.00002741,-0.00007373,0.00229166,-0.00091217,-0.0017
 4728,0.00022703,0.00002271,0.00074945,-0.00093902,0.00104218,0.0013098
 9,0.00789529,-0.01742369,-0.02764084,0.00067106,-0.00019680,0.00050076
 ,-0.00573274,-0.00240687,-0.00151217,-0.06580076,0.03056314,0.03848386
 ,-0.00080407,0.00927649,0.02291513,-0.00140897,0.01112596,0.01091910,0
 .06473708,-0.00048897,-0.00006529,-0.00014886,0.00012446,0.00030583,0.
 00024842,0.00007509,0.00001008,0.00001793,-0.00000147,0.00002019,0.000
 08670,0.00007296,-0.00010317,0.00007435,0.00039483,-0.00021963,-0.0000
 2045,-0.00002119,-0.00002222,-0.00002731,-0.00000158,-0.00000856,0.000
 01116,0.00000941,0.00000828,0.00000400,-0.00007321,-0.00002197,0.00003
 242,0.00005435,0.00014864,0.00012396,-0.00008807,0.00013045,-0.0000790
 1,-0.00004400,0.00001649,-0.00009222,-0.00008570,-0.00005512,-0.000075
 73,-0.00006772,-0.00037694,0.00000509,0.00029511,-0.00012647,0.0001019
 7,-0.00008334,-0.00011999,-0.00001810,-0.00005778,0.00001424,0.0000021
 8,-0.00024687,-0.00017436,0.00082571,0.00030190,0.00031243,-0.00023579
 ,0.00002425,-0.00001011,0.00003199,0.00001607,0.00000288,0.00001394,0.
 00001898,0.00003337,0.00000120,0.00042810,-0.00022465,0.00004569,-0.00
 022739,0.00043704,0.00018617,0.00002153,0.00006551,0.00006441,0.000076
 17,0.00019412,-0.00010490,-0.00013571,0.00001146,0.00002272,-0.0000431
 7,-0.00001250,-0.00020483,0.00003224,-0.00004848,-0.00000755,0.0000240
 8,0.00007068,-0.00002145,-0.00001405,-0.00002198,0.00000188,0.00003076
 ,-0.00000378,0.00001331,0.00004272,-0.00000726,0.00003348,0.00011161,-
 0.00023466,0.00012689,-0.00003640,-0.00023042,-0.00001907,-0.00006338,
 -0.00020571,-0.00007328,-0.00017060,-0.00000851,-0.00008948,0.00005044
 ,-0.00001583,-0.00003488,0.00000411,-0.00002208,0.00000095,0.00009212,
 0.00001483,0.00013351,-0.00002157,-0.00001866,-0.00002405,0.00008817,0
 .00013972,0.00009194,0.00012604,0.00010400,-0.00005811,-0.00152635,-0.
 00237097,0.00036338,0.00055869,0.00038103,-0.00032924,0.00018471,0.000
 12827,-0.00016735,0.00006165,0.00018305,0.00005346,-0.00001668,0.00010
 392,-0.00025855,0.00047551,0.00053882,0.00061520,-0.00003696,-0.000061
 48,0.00004015,-0.00002506,-0.00012700,0.00002241,-0.00002318,-0.000034
 76,0.00000040,-0.00013725,-0.00017467,-0.00018176,-0.00004121,0.000210
 47,0.00011628,-0.00011213,-0.00027234,0.00009119,-0.00010687,-0.000081
 22,0.00006614,-0.00009300,-0.00023366,0.00047616,-0.00016051,-0.000825
 49,0.00245948,-0.00005317,-0.00002383,-0.00013705,0.00025628,0.0002267
 7,-0.00050850,0.00119992,-0.00054143,-0.00123001,-0.00001314,0.0007758
 6,-0.00092590,0.00002345,0.00005142,0.00002887,0.00003630,0.00001264,-
 0.00001284,-0.00025379,0.00020191,-0.00014092,0.00004389,-0.00003613,0
 .00002321,-0.00000435,-0.00004102,0.00003817,-0.00008098,-0.00003716,-
 0.00000397,0.00001116,-0.00003469,-0.00001612,-0.00003729,-0.00005857,
 -0.00008832,0.00038823,0.00014044,-0.00013417,0.00002025,-0.00010616,0
 .00005779,-0.00027970,-0.00008439,0.00015069,0.00037085,0.00187371,0.0
 0193504,0.00029838,-0.00048676,0.00006356,-0.00026826,0.00036887,-0.00
 069672,-0.00051583,-0.00674142,-0.00885280,0.00016948,-0.00071380,-0.0
 0002166,-0.00139900,-0.00001260,0.00071235,0.03300923,-0.17037662,-0.1
 6551310,0.00179136,-0.01243383,-0.02326414,-0.00118292,0.01639275,0.01
 634030,-0.03307501,0.17463816,0.00014846,-0.00009579,-0.00012768,-0.00
 001985,0.00008879,0.00003585,-0.00002394,-0.00002275,-0.00000114,-0.00
 000697,0.00012252,-0.00001825,-0.00011577,0.00006132,-0.00003724,-0.00
 013850,0.00033521,0.00013176,0.00000804,-0.00000651,-0.00000402,0.0000
 0870,-0.00000300,0.00000152,-0.00000109,-0.00003640,-0.00002104,0.0000
 4903,0.00001870,-0.00000265,-0.00003432,-0.00011161,-0.00005003,0.0000
 3874,-0.00013112,-0.00002621,0.00001766,-0.00006348,0.00000503,0.00002
 945,-0.00000055,-0.00000309,0.00007791,-0.00004258,-0.00005447,-0.0002
 3453,-0.00029487,0.00048445,0.00006085,0.00003322,0.00002081,0.0000143
 7,0.00006942,-0.00010419,-0.00097418,0.00095682,-0.00092163,0.00003935
 ,0.00004536,-0.00007099,-0.00000350,0.00000893,-0.00000244,-0.00001269
 ,0.00001525,-0.00000890,-0.00001931,0.00000528,-0.00000091,-0.00000058
 ,-0.00006243,-0.00022561,0.00000653,0.00005505,0.00035643,-0.00006305,
 0.00005100,0.00001068,-0.00000388,-0.00000967,0.00006221,-0.00041336,0
 .00001028,0.00004551,0.00002958,-0.00003081,0.00017084,-0.00000774,-0.
 00000029,-0.00002610,-0.00001624,0.00003687,0.00006643,0.00002007,-0.0
 0002683,-0.00001432,0.00007612,-0.00000576,0.00000054,0.00000911,0.000
 01564,-0.00003497,0.00065315,0.00013741,-0.00002642,0.00003399,-0.0000
 5533,-0.00016421,-0.00026773,-0.00004934,-0.00025705,-0.00004583,-0.00
 000580,0.00000596,0.00000139,-0.00002406,0.00002111,0.00002077,0.00001
 594,-0.00000514,0.00004218,0.00001893,-0.00002966,-0.00002492,-0.00001
 633,0.00000024,-0.00028973,0.00003762,-0.00016474,-0.00000172,-0.00001
 662,0.00007689,-0.00009912,0.00067522,0.00048425,-0.00025064,-0.000327
 10,-0.00004305,0.00009173,-0.00004016,-0.00000635,0.00007866,-0.000048
 39,0.00002683,0.00017727,0.00005703,-0.00001610,0.00051038,0.00039487,
 -0.00003859,-0.00001186,0.00005127,0.00008146,0.00004760,-0.00005275,-
 0.00007521,-0.00001490,0.00000481,0.00000032,-0.00004251,-0.00003892,-
 0.00001098,0.00007695,-0.00000490,0.00014233,-0.00015998,0.00003398,-0
 .00006803,-0.00011643,0.00008034,0.00008122,-0.00015142,0.00000951,-0.
 00009728,0.00047431,0.00007537,0.00047237,-0.00000823,0.00011175,-0.00
 004347,-0.00000006,0.00003463,-0.00011153,-0.00115156,-0.00059505,-0.0
 0282497,-0.00071008,-0.00070510,0.00041191,0.00007369,0.00000626,0.000
 10578,0.00003262,-0.00000764,-0.00000204,0.00012084,-0.00007963,-0.000
 06210,-0.00003473,0.00004225,0.00001870,-0.00000249,0.00001371,-0.0000
 2524,0.00014529,0.00000071,-0.00002530,-0.00000233,0.00002887,0.000079
 04,0.00002114,0.00000957,0.00005649,-0.00024708,-0.00013811,-0.0002991
 8,0.00012232,-0.00000811,0.00011745,0.00014925,0.00031011,-0.00021796,
 -0.00009625,0.00090048,0.00076154,0.00036526,-0.00011640,0.00032719,-0
 .00066722,0.00023007,-0.00019390,-0.00078186,-0.00441320,-0.00729195,0
 .00036073,0.00058676,0.00073958,-0.00139877,-0.00036476,0.00101021,0.0
 4175322,-0.16408822,-0.29183707,0.00107162,0.00539837,0.01041721,0.004
 31337,-0.01691714,-0.02189559,-0.04270473,0.17786203,0.31075884\\-0.00
 002094,-0.00002810,-0.00002324,0.00001207,0.00000602,0.00000329,0.0000
 1677,0.00000588,0.00001915,-0.00001720,0.00000008,0.00000748,-0.000002
 28,-0.00001013,0.00000598,0.00002437,0.00000419,0.00000026,0.00000408,
 -0.00000075,-0.00000169,0.00000304,-0.00000468,-0.00000074,-0.00000148
 ,0.00000907,0.00000024,-0.00000502,0.00000132,0.00000049,-0.00000685,0
 .00000603,0.00000327,-0.00000013,-0.00000010,-0.00001879,-0.00000549,-
 0.00001133,-0.00001757,0.00000232,-0.00001825,-0.00000632,-0.00000110,
 0.00002701,-0.00000671,0.00000873,0.00001699,-0.00001559,-0.00000460,-
 0.00000112,0.00000012,0.00000525,-0.00000806,-0.00000049,-0.00001604,-
 0.00006285,0.00002413,-0.00000246,0.00004917,0.00000158,0.00000053,-0.
 00000510,0.00001493,0.00000851,0.00000530,0.00001185,-0.00000717,0.000
 01865,0.00000179,-0.00000411,0.00000751,0.00001075,0.00000588,-0.00000
 434,0.00000727,-0.00000470,-0.00000095,-0.00000490,-0.00000850,-0.0000
 1604,0.00002800,-0.00001868,-0.00001388,0.00001250,0.00000036,0.000001
 27,-0.00002210,0.00000564,0.00000263,-0.00000138,-0.00000969,0.0000000
 4,-0.00000262,0.00000939,0.00000596,-0.00000021,0.00000234,0.00000246,
 0.00000643,0.00000483,-0.00000057,0.00000580,0.00001026,0.00001366,-0.
 00001065,0.00001545,0.00000286,-0.00001330,-0.00002664,-0.00000152,-0.
 00002315,0.00000324,0.00000227,0.00003144,-0.00001372,0.00000229,-0.00
 000611,-0.00000339,0.00000688,-0.00000761,0.00000057,-0.00001424,-0.00
 001224,-0.00001056,0.00001571,0.00000643,-0.00000645,-0.00000902,0.000
 00946,-0.00000705,0.00001472,0.00003647,-0.00000166,0.00000918,0.00003
 360,0.00001554,0.00000675,0.00000081,0.00000769,-0.00002410,-0.0000221
 2,0.00001006,-0.00000241,0.00001891,0.00005103,-0.00000665,0.00002810,
 -0.00002304,0.00002225,-0.00002905,0.00000040,0.00000711,-0.00000393,-
 0.00000793,-0.00000191,0.00000604,0.00000741,0.00000430,-0.00000897,0.
 00000342,-0.00000014,-0.00000700,-0.00001059,-0.00000186,0.00000792,-0
 .00000976,-0.00000485,-0.00001741,-0.00001725,0.00001505,0.00000730,-0
 .00002824,0.00001390,-0.00001029,-0.00000928,-0.00001060,0.00000210,-0
 .00000452,0.00000859,0.00000088,0.00000615,0.00000355,-0.00000708,-0.0
 0001829,-0.00001382,-0.00001425,0.00000365,0.00000479,0.00001595,0.000
 02321,0.00000306,-0.00001859,0.00002113,-0.00000681,0.00000652,0.00003
 384,-0.00003660,0.00001567,-0.00000068,0.00000358,-0.00001262,0.000000
 52,0.00000976,-0.00000303,-0.00001431,-0.00000232,-0.00000737,-0.00000
 107,-0.00000029,-0.00000294,0.00000259,-0.00000623,-0.00000239,0.00000
 647,-0.00000478,0.00000055,-0.00000454,0.00000012,0.00000025,0.0000072
 8,-0.00000007,0.00000335,-0.00000012,-0.00000068,-0.00000088,-0.000001
 74,-0.00000725,-0.00000414,-0.00000064,0.00000126,0.00000068,-0.000002
 78,-0.00000228,-0.00000363,-0.00000047,-0.00000530,0.00000090,0.000002
 18,-0.00000540,-0.00000659,0.00000447,0.00000196,0.00000540,0.00000756
 ,0.00000228,-0.00000794,0.00000638,0.00000655,-0.00002577,-0.00000347,
 0.00000333,0.00000743\\\@


 KEEP CLOSE TO NATURES HEART, YOURSELF;
 AND BREAK CLEAR AWAY, ONCE IN A WHILE, AND
 CLIMB A MOUNTAIN OR SPEND A WEEK IN THE
 WOODS.  WASH YOUR SPIRIT CLEAN...
                                         -- JOHN MUIR
 Job cpu time:      17 days 10 hours 25 minutes 15.9 seconds.
 File lengths (MBytes):  RWF=  17371 Int=      0 D2E=      0 Chk=     98 Scr=      1
 Normal termination of Gaussian 09 at Fri Apr  8 11:58:24 2016.
