 Entering Gaussian System, Link 0=g09
 Initial command:
 /share/apps//g09/l1.exe "/scratch/Gau-23048.inp" -scrdir="/scratch/"
 Entering Link 1 = /share/apps//g09/l1.exe PID=     23049.
  
 Copyright (c) 1988,1990,1992,1993,1995,1998,2003,2009,2013,
            Gaussian, Inc.  All Rights Reserved.
  
 This is part of the Gaussian(R) 09 program.  It is based on
 the Gaussian(R) 03 system (copyright 2003, Gaussian, Inc.),
 the Gaussian(R) 98 system (copyright 1998, Gaussian, Inc.),
 the Gaussian(R) 94 system (copyright 1995, Gaussian, Inc.),
 the Gaussian 92(TM) system (copyright 1992, Gaussian, Inc.),
 the Gaussian 90(TM) system (copyright 1990, Gaussian, Inc.),
 the Gaussian 88(TM) system (copyright 1988, Gaussian, Inc.),
 the Gaussian 86(TM) system (copyright 1986, Carnegie Mellon
 University), and the Gaussian 82(TM) system (copyright 1983,
 Carnegie Mellon University). Gaussian is a federally registered
 trademark of Gaussian, Inc.
  
 This software contains proprietary and confidential information,
 including trade secrets, belonging to Gaussian, Inc.
  
 This software is provided under written license and may be
 used, copied, transmitted, or stored only in accord with that
 written license.
  
 The following legend is applicable only to US Government
 contracts under FAR:
  
                    RESTRICTED RIGHTS LEGEND
  
 Use, reproduction and disclosure by the US Government is
 subject to restrictions as set forth in subparagraphs (a)
 and (c) of the Commercial Computer Software - Restricted
 Rights clause in FAR 52.227-19.
  
 Gaussian, Inc.
 340 Quinnipiac St., Bldg. 40, Wallingford CT 06492
  
  
 ---------------------------------------------------------------
 Warning -- This program may not be used in any manner that
 competes with the business of Gaussian, Inc. or will provide
 assistance to any competitor of Gaussian, Inc.  The licensee
 of this program is prohibited from giving any competitor of
 Gaussian, Inc. access to this program.  By using this program,
 the user acknowledges that Gaussian, Inc. is engaged in the
 business of creating and licensing software in the field of
 computational chemistry and represents and warrants to the
 licensee that it is not a competitor of Gaussian, Inc. and that
 it will not use this program in any manner prohibited above.
 ---------------------------------------------------------------
  

 Cite this work as:
 Gaussian 09, Revision D.01,
 M. J. Frisch, G. W. Trucks, H. B. Schlegel, G. E. Scuseria, 
 M. A. Robb, J. R. Cheeseman, G. Scalmani, V. Barone, B. Mennucci, 
 G. A. Petersson, H. Nakatsuji, M. Caricato, X. Li, H. P. Hratchian, 
 A. F. Izmaylov, J. Bloino, G. Zheng, J. L. Sonnenberg, M. Hada, 
 M. Ehara, K. Toyota, R. Fukuda, J. Hasegawa, M. Ishida, T. Nakajima, 
 Y. Honda, O. Kitao, H. Nakai, T. Vreven, J. A. Montgomery, Jr., 
 J. E. Peralta, F. Ogliaro, M. Bearpark, J. J. Heyd, E. Brothers, 
 K. N. Kudin, V. N. Staroverov, T. Keith, R. Kobayashi, J. Normand, 
 K. Raghavachari, A. Rendell, J. C. Burant, S. S. Iyengar, J. Tomasi, 
 M. Cossi, N. Rega, J. M. Millam, M. Klene, J. E. Knox, J. B. Cross, 
 V. Bakken, C. Adamo, J. Jaramillo, R. Gomperts, R. E. Stratmann, 
 O. Yazyev, A. J. Austin, R. Cammi, C. Pomelli, J. W. Ochterski, 
 R. L. Martin, K. Morokuma, V. G. Zakrzewski, G. A. Voth, 
 P. Salvador, J. J. Dannenberg, S. Dapprich, A. D. Daniels, 
 O. Farkas, J. B. Foresman, J. V. Ortiz, J. Cioslowski, 
 and D. J. Fox, Gaussian, Inc., Wallingford CT, 2013.
 
 ******************************************
 Gaussian 09:  EM64L-G09RevD.01 24-Apr-2013
                27-Apr-2016 
 ******************************************
 %nproc=20
 Will use up to   20 processors via shared memory.
 %mem=80GB
 %chk=Tri_A131_of.chk
 ----------------------------------------------------------------------
 #P PBE1PBE/6-311+G(d,p) opt=ModRedundant freq optcyc=999 EmpiricalDisp
 ersion=GD3
 ----------------------------------------------------------------------
 1/6=999,14=-1,18=120,19=15,26=3,38=1/1,3;
 2/9=110,12=2,17=6,18=5,40=1/2;
 3/5=4,6=6,7=111,11=2,16=1,25=1,30=1,71=1,74=-13,124=31/1,2,3;
 4//1;
 5/5=2,38=5/2;
 6/7=2,8=2,9=2,10=2,28=1/1;
 7//1,2,3,16;
 1/6=999,14=-1,18=20,19=15,26=3/3(2);
 2/9=110/2;
 99//99;
 2/9=110/2;
 3/5=4,6=6,7=111,11=2,16=1,25=1,30=1,71=1,74=-13,124=31/1,2,3;
 4/5=5,16=3,69=1/1;
 5/5=2,38=5/2;
 7//1,2,3,16;
 1/6=999,14=-1,18=20,19=15,26=3/3(-5);
 2/9=110/2;
 6/7=2,8=2,9=2,10=2,19=2,28=1/1;
 99/9=1/99;
 Leave Link    1 at Wed Apr 27 16:46:03 2016, MaxMem= 10737418240 cpu:         2.0
 (Enter /share/apps//g09/l101.exe)
 -----
 trich
 -----
 Symbolic Z-matrix:
 Charge =  1 Multiplicity = 1
 O                     0.87362  -6.44618   9.42767 
 C                    -0.33801  -5.72063   9.27652 
 C                    -0.57746  -4.84421   10.51855 
 C                     0.66531  -4.05335   10.97165 
 C                     1.93828  -4.9232    10.96853 
 C                     2.02126  -5.56135   9.58572 
 H                    -1.12003  -6.49448   9.18865 
 H                    -0.86246  -5.53642   11.33052 
 H                     0.82374  -3.21745   10.26884 
 H                     2.80661  -4.26982   11.14904 
 H                     1.95162  -4.7501    8.8412 
 O                     1.92644  -5.86614   12.04453 
 O                     0.40352  -3.46558   12.24141 
 O                    -1.67788  -3.94297   10.278 
 O                    -0.31768  -4.88131   8.1391 
 C                     3.26513  -6.35916   9.25613 
 H                     4.15188  -5.80777   9.61027 
 H                     3.24147  -7.34647   9.74372 
 O                     3.2933   -6.50323   7.81772 
 H                     4.04844  -7.0657    7.57755 
 H                     1.42177  -6.64742   11.74497 
 H                     0.66748  -4.12971   12.91171 
 H                    -1.79951  -3.45702   11.1178 
 O                    -0.41721  -5.53347   3.99662 
 C                     0.82483  -5.10823   4.55047 
 C                     0.68013  -4.61493   6.00326 
 C                    -0.13872  -5.56048   6.87438 
 C                    -1.48859  -5.8412    6.20305 
 C                    -1.25198  -6.38991   4.78245 
 H                     1.57465  -5.92219   4.49552 
 H                     0.13056  -3.66591   5.95475 
 H                     0.40044  -6.50917   7.04157 
 H                    -2.0323   -6.61556   6.77678 
 H                    -0.80026  -7.3989    4.87496 
 O                    -2.27146  -4.63617   6.18131 
 O                     1.94987  -4.2712    6.54744 
 O                     1.33621  -4.105     3.70825 
 C                    -2.55288  -6.50586   3.97609 
 H                    -2.32432  -6.91034   2.97815 
 H                    -3.24381  -7.19896   4.47843 
 O                    -3.21847  -5.23966   3.86579 
 H                    -2.74937  -4.69368   3.16615 
 H                    -2.79445  -4.66738   5.31461 
 H                     2.47718  -5.08073   6.73947 
 O                    -0.03847  -1.46793   1.5483 
 C                    -0.51702  -0.58922   2.52605 
 C                     0.50119  -0.37628   3.66147 
 C                     1.18968  -1.69536   4.08504 
 C                     0.49265  -2.93935   3.51098 
 C                     0.28245  -2.8224    1.98695 
 H                    -0.68826   0.36656   2.00364 
 H                    -0.02716   0.01233   4.54504 
 H                     2.21969  -1.67863   3.68453 
 H                     1.24277  -3.06516   1.50241 
 H                    -0.47794  -3.08931   4.00569 
 O                     1.23343  -1.70426   5.5188 
 O                     1.43477   0.6423    3.31615 
 O                    -1.7714   -1.08982   3.04474 
 C                    -0.77026  -3.7792    1.42531 
 H                    -0.84869  -3.59562   0.34123 
 H                    -0.44397  -4.8142    1.5884 
 O                    -2.06382  -3.64232   2.03387 
 H                    -2.20039  -2.68383   2.2249 
 H                     1.87604  -2.38945   5.80049 
 H                     1.89898   0.36944   2.50234 
 C                    -2.72196  -0.0686    3.41103 
 H                    -2.2363    0.67412   4.06832 
 H                    -3.06204   0.45953   2.50344 
 C                    -3.89469  -0.74242   4.10968 
 H                    -4.39024  -1.4189    3.39569 
 H                    -4.63389   0.03725   4.35637 
 C                    -3.52042  -1.5394    5.36858 
 H                    -4.41365  -2.08911   5.70776 
 H                    -2.77467  -2.29832   5.08623 
 C                    -2.98827  -0.68118   6.52482 
 H                    -2.0248   -0.21375   6.25926 
 H                    -3.68314   0.15255   6.71763 
 C                    -2.82707  -1.42588   7.8471 
 H                    -3.76025  -1.92695   8.14081 
 H                    -2.54568  -0.73387   8.65218 
 N                    -1.77419  -2.49356   7.79116 
 H                    -2.01531  -3.28643   7.12496 
 H                    -1.64155  -2.9599    8.72085 
 H                    -0.86677  -2.11155   7.4882 
 
 The following ModRedundant input section has been read:
 B      45      84 B                                                           
 B      58      84 B                                                           
 B      56      84 B                                                           
 B      41      82 B                                                           
 B      62      82 B                                                           
 B      35      82 B                                                           
 B      13      83 B                                                           
 B      19      83 B                                                           
 B      14      83 B                                                           
 
 NAtoms=     84 NQM=       84 NQMF=       0 NMMI=      0 NMMIF=      0
                NMic=       0 NMicF=      0.
                    Isotopes and Nuclear Properties:
 (Nuclear quadrupole moments (NQMom) in fm**2, nuclear magnetic moments (NMagM)
  in nuclear magnetons)

  Atom         1           2           3           4           5           6           7           8           9          10
 IAtWgt=          16          12          12          12          12          12           1           1           1           1
 AtmWgt=  15.9949146  12.0000000  12.0000000  12.0000000  12.0000000  12.0000000   1.0078250   1.0078250   1.0078250   1.0078250
 NucSpn=           0           0           0           0           0           0           1           1           1           1
 AtZEff=   0.0000000   0.0000000   0.0000000   0.0000000   0.0000000   0.0000000   0.0000000   0.0000000   0.0000000   0.0000000
 NQMom=    0.0000000   0.0000000   0.0000000   0.0000000   0.0000000   0.0000000   0.0000000   0.0000000   0.0000000   0.0000000
 NMagM=    0.0000000   0.0000000   0.0000000   0.0000000   0.0000000   0.0000000   2.7928460   2.7928460   2.7928460   2.7928460
 AtZNuc=   8.0000000   6.0000000   6.0000000   6.0000000   6.0000000   6.0000000   1.0000000   1.0000000   1.0000000   1.0000000

  Atom        11          12          13          14          15          16          17          18          19          20
 IAtWgt=           1          16          16          16          16          12           1           1          16           1
 AtmWgt=   1.0078250  15.9949146  15.9949146  15.9949146  15.9949146  12.0000000   1.0078250   1.0078250  15.9949146   1.0078250
 NucSpn=           1           0           0           0           0           0           1           1           0           1
 AtZEff=   0.0000000   0.0000000   0.0000000   0.0000000   0.0000000   0.0000000   0.0000000   0.0000000   0.0000000   0.0000000
 NQMom=    0.0000000   0.0000000   0.0000000   0.0000000   0.0000000   0.0000000   0.0000000   0.0000000   0.0000000   0.0000000
 NMagM=    2.7928460   0.0000000   0.0000000   0.0000000   0.0000000   0.0000000   2.7928460   2.7928460   0.0000000   2.7928460
 AtZNuc=   1.0000000   8.0000000   8.0000000   8.0000000   8.0000000   6.0000000   1.0000000   1.0000000   8.0000000   1.0000000

  Atom        21          22          23          24          25          26          27          28          29          30
 IAtWgt=           1           1           1          16          12          12          12          12          12           1
 AtmWgt=   1.0078250   1.0078250   1.0078250  15.9949146  12.0000000  12.0000000  12.0000000  12.0000000  12.0000000   1.0078250
 NucSpn=           1           1           1           0           0           0           0           0           0           1
 AtZEff=   0.0000000   0.0000000   0.0000000   0.0000000   0.0000000   0.0000000   0.0000000   0.0000000   0.0000000   0.0000000
 NQMom=    0.0000000   0.0000000   0.0000000   0.0000000   0.0000000   0.0000000   0.0000000   0.0000000   0.0000000   0.0000000
 NMagM=    2.7928460   2.7928460   2.7928460   0.0000000   0.0000000   0.0000000   0.0000000   0.0000000   0.0000000   2.7928460
 AtZNuc=   1.0000000   1.0000000   1.0000000   8.0000000   6.0000000   6.0000000   6.0000000   6.0000000   6.0000000   1.0000000

  Atom        31          32          33          34          35          36          37          38          39          40
 IAtWgt=           1           1           1           1          16          16          16          12           1           1
 AtmWgt=   1.0078250   1.0078250   1.0078250   1.0078250  15.9949146  15.9949146  15.9949146  12.0000000   1.0078250   1.0078250
 NucSpn=           1           1           1           1           0           0           0           0           1           1
 AtZEff=   0.0000000   0.0000000   0.0000000   0.0000000   0.0000000   0.0000000   0.0000000   0.0000000   0.0000000   0.0000000
 NQMom=    0.0000000   0.0000000   0.0000000   0.0000000   0.0000000   0.0000000   0.0000000   0.0000000   0.0000000   0.0000000
 NMagM=    2.7928460   2.7928460   2.7928460   2.7928460   0.0000000   0.0000000   0.0000000   0.0000000   2.7928460   2.7928460
 AtZNuc=   1.0000000   1.0000000   1.0000000   1.0000000   8.0000000   8.0000000   8.0000000   6.0000000   1.0000000   1.0000000

  Atom        41          42          43          44          45          46          47          48          49          50
 IAtWgt=          16           1           1           1          16          12          12          12          12          12
 AtmWgt=  15.9949146   1.0078250   1.0078250   1.0078250  15.9949146  12.0000000  12.0000000  12.0000000  12.0000000  12.0000000
 NucSpn=           0           1           1           1           0           0           0           0           0           0
 AtZEff=   0.0000000   0.0000000   0.0000000   0.0000000   0.0000000   0.0000000   0.0000000   0.0000000   0.0000000   0.0000000
 NQMom=    0.0000000   0.0000000   0.0000000   0.0000000   0.0000000   0.0000000   0.0000000   0.0000000   0.0000000   0.0000000
 NMagM=    0.0000000   2.7928460   2.7928460   2.7928460   0.0000000   0.0000000   0.0000000   0.0000000   0.0000000   0.0000000
 AtZNuc=   8.0000000   1.0000000   1.0000000   1.0000000   8.0000000   6.0000000   6.0000000   6.0000000   6.0000000   6.0000000

  Atom        51          52          53          54          55          56          57          58          59          60
 IAtWgt=           1           1           1           1           1          16          16          16          12           1
 AtmWgt=   1.0078250   1.0078250   1.0078250   1.0078250   1.0078250  15.9949146  15.9949146  15.9949146  12.0000000   1.0078250
 NucSpn=           1           1           1           1           1           0           0           0           0           1
 AtZEff=   0.0000000   0.0000000   0.0000000   0.0000000   0.0000000   0.0000000   0.0000000   0.0000000   0.0000000   0.0000000
 NQMom=    0.0000000   0.0000000   0.0000000   0.0000000   0.0000000   0.0000000   0.0000000   0.0000000   0.0000000   0.0000000
 NMagM=    2.7928460   2.7928460   2.7928460   2.7928460   2.7928460   0.0000000   0.0000000   0.0000000   0.0000000   2.7928460
 AtZNuc=   1.0000000   1.0000000   1.0000000   1.0000000   1.0000000   8.0000000   8.0000000   8.0000000   6.0000000   1.0000000

  Atom        61          62          63          64          65          66          67          68          69          70
 IAtWgt=           1          16           1           1           1          12           1           1          12           1
 AtmWgt=   1.0078250  15.9949146   1.0078250   1.0078250   1.0078250  12.0000000   1.0078250   1.0078250  12.0000000   1.0078250
 NucSpn=           1           0           1           1           1           0           1           1           0           1
 AtZEff=   0.0000000   0.0000000   0.0000000   0.0000000   0.0000000   0.0000000   0.0000000   0.0000000   0.0000000   0.0000000
 NQMom=    0.0000000   0.0000000   0.0000000   0.0000000   0.0000000   0.0000000   0.0000000   0.0000000   0.0000000   0.0000000
 NMagM=    2.7928460   0.0000000   2.7928460   2.7928460   2.7928460   0.0000000   2.7928460   2.7928460   0.0000000   2.7928460
 AtZNuc=   1.0000000   8.0000000   1.0000000   1.0000000   1.0000000   6.0000000   1.0000000   1.0000000   6.0000000   1.0000000

  Atom        71          72          73          74          75          76          77          78          79          80
 IAtWgt=           1          12           1           1          12           1           1          12           1           1
 AtmWgt=   1.0078250  12.0000000   1.0078250   1.0078250  12.0000000   1.0078250   1.0078250  12.0000000   1.0078250   1.0078250
 NucSpn=           1           0           1           1           0           1           1           0           1           1
 AtZEff=   0.0000000   0.0000000   0.0000000   0.0000000   0.0000000   0.0000000   0.0000000   0.0000000   0.0000000   0.0000000
 NQMom=    0.0000000   0.0000000   0.0000000   0.0000000   0.0000000   0.0000000   0.0000000   0.0000000   0.0000000   0.0000000
 NMagM=    2.7928460   0.0000000   2.7928460   2.7928460   0.0000000   2.7928460   2.7928460   0.0000000   2.7928460   2.7928460
 AtZNuc=   1.0000000   6.0000000   1.0000000   1.0000000   6.0000000   1.0000000   1.0000000   6.0000000   1.0000000   1.0000000

  Atom        81          82          83          84
 IAtWgt=          14           1           1           1
 AtmWgt=  14.0030740   1.0078250   1.0078250   1.0078250
 NucSpn=           2           1           1           1
 AtZEff=   0.0000000   0.0000000   0.0000000   0.0000000
 NQMom=    2.0440000   0.0000000   0.0000000   0.0000000
 NMagM=    0.4037610   2.7928460   2.7928460   2.7928460
 AtZNuc=   7.0000000   1.0000000   1.0000000   1.0000000
 Leave Link  101 at Wed Apr 27 16:46:04 2016, MaxMem= 10737418240 cpu:         4.9
 (Enter /share/apps//g09/l103.exe)

 GradGradGradGradGradGradGradGradGradGradGradGradGradGradGradGradGradGrad
 Berny optimization.
 Initialization pass.
                           ----------------------------
                           !    Initial Parameters    !
                           ! (Angstroms and Degrees)  !
 --------------------------                            --------------------------
 ! Name  Definition              Value          Derivative Info.                !
 --------------------------------------------------------------------------------
 ! R1    R(1,2)                  1.4203         estimate D2E/DX2                !
 ! R2    R(1,6)                  1.4577         estimate D2E/DX2                !
 ! R3    R(2,3)                  1.5389         estimate D2E/DX2                !
 ! R4    R(2,7)                  1.1037         estimate D2E/DX2                !
 ! R5    R(2,15)                 1.4137         estimate D2E/DX2                !
 ! R6    R(3,4)                  1.5412         estimate D2E/DX2                !
 ! R7    R(3,8)                  1.1044         estimate D2E/DX2                !
 ! R8    R(3,14)                 1.4426         estimate D2E/DX2                !
 ! R9    R(4,5)                  1.5418         estimate D2E/DX2                !
 ! R10   R(4,9)                  1.1035         estimate D2E/DX2                !
 ! R11   R(4,13)                 1.4235         estimate D2E/DX2                !
 ! R12   R(5,6)                  1.5252         estimate D2E/DX2                !
 ! R13   R(5,10)                 1.1016         estimate D2E/DX2                !
 ! R14   R(5,12)                 1.4308         estimate D2E/DX2                !
 ! R15   R(6,11)                 1.1033         estimate D2E/DX2                !
 ! R16   R(6,16)                 1.514          estimate D2E/DX2                !
 ! R17   R(12,21)                0.9772         estimate D2E/DX2                !
 ! R18   R(13,22)                0.9798         estimate D2E/DX2                !
 ! R19   R(13,83)                4.1027         estimate D2E/DX2                !
 ! R20   R(14,23)                0.9779         estimate D2E/DX2                !
 ! R21   R(14,83)                1.8419         estimate D2E/DX2                !
 ! R22   R(15,27)                1.4467         estimate D2E/DX2                !
 ! R23   R(16,17)                1.1026         estimate D2E/DX2                !
 ! R24   R(16,18)                1.1014         estimate D2E/DX2                !
 ! R25   R(16,19)                1.4459         estimate D2E/DX2                !
 ! R26   R(19,20)                0.9717         estimate D2E/DX2                !
 ! R27   R(19,83)                6.142          estimate D2E/DX2                !
 ! R28   R(24,25)                1.4249         estimate D2E/DX2                !
 ! R29   R(24,29)                1.431          estimate D2E/DX2                !
 ! R30   R(25,26)                1.5411         estimate D2E/DX2                !
 ! R31   R(25,30)                1.1081         estimate D2E/DX2                !
 ! R32   R(25,37)                1.4062         estimate D2E/DX2                !
 ! R33   R(26,27)                1.5243         estimate D2E/DX2                !
 ! R34   R(26,31)                1.0977         estimate D2E/DX2                !
 ! R35   R(26,36)                1.4236         estimate D2E/DX2                !
 ! R36   R(27,28)                1.5335         estimate D2E/DX2                !
 ! R37   R(27,32)                1.1039         estimate D2E/DX2                !
 ! R38   R(28,29)                1.5412         estimate D2E/DX2                !
 ! R39   R(28,33)                1.1065         estimate D2E/DX2                !
 ! R40   R(28,35)                1.4372         estimate D2E/DX2                !
 ! R41   R(29,34)                1.1094         estimate D2E/DX2                !
 ! R42   R(29,38)                1.5349         estimate D2E/DX2                !
 ! R43   R(35,43)                1.0127         estimate D2E/DX2                !
 ! R44   R(35,82)                1.6667         estimate D2E/DX2                !
 ! R45   R(36,44)                0.985          estimate D2E/DX2                !
 ! R46   R(37,49)                1.4523         estimate D2E/DX2                !
 ! R47   R(38,39)                1.1008         estimate D2E/DX2                !
 ! R48   R(38,40)                1.1001         estimate D2E/DX2                !
 ! R49   R(38,41)                1.4347         estimate D2E/DX2                !
 ! R50   R(41,42)                1.0038         estimate D2E/DX2                !
 ! R51   R(41,82)                3.9856         estimate D2E/DX2                !
 ! R52   R(45,46)                1.399          estimate D2E/DX2                !
 ! R53   R(45,50)                1.4594         estimate D2E/DX2                !
 ! R54   R(45,84)                6.0318         estimate D2E/DX2                !
 ! R55   R(46,47)                1.5399         estimate D2E/DX2                !
 ! R56   R(46,51)                1.1026         estimate D2E/DX2                !
 ! R57   R(46,58)                1.4468         estimate D2E/DX2                !
 ! R58   R(47,48)                1.5471         estimate D2E/DX2                !
 ! R59   R(47,52)                1.1004         estimate D2E/DX2                !
 ! R60   R(47,57)                1.4242         estimate D2E/DX2                !
 ! R61   R(48,49)                1.5372         estimate D2E/DX2                !
 ! R62   R(48,53)                1.1053         estimate D2E/DX2                !
 ! R63   R(48,56)                1.4345         estimate D2E/DX2                !
 ! R64   R(49,50)                1.5429         estimate D2E/DX2                !
 ! R65   R(49,55)                1.0997         estimate D2E/DX2                !
 ! R66   R(50,54)                1.1027         estimate D2E/DX2                !
 ! R67   R(50,59)                1.5294         estimate D2E/DX2                !
 ! R68   R(56,64)                0.9807         estimate D2E/DX2                !
 ! R69   R(56,84)                2.9078         estimate D2E/DX2                !
 ! R70   R(57,65)                0.9758         estimate D2E/DX2                !
 ! R71   R(58,66)                1.4424         estimate D2E/DX2                !
 ! R72   R(58,84)                4.6483         estimate D2E/DX2                !
 ! R73   R(59,60)                1.1023         estimate D2E/DX2                !
 ! R74   R(59,61)                1.0974         estimate D2E/DX2                !
 ! R75   R(59,62)                1.4361         estimate D2E/DX2                !
 ! R76   R(62,63)                0.9868         estimate D2E/DX2                !
 ! R77   R(62,82)                5.1037         estimate D2E/DX2                !
 ! R78   R(66,67)                1.1043         estimate D2E/DX2                !
 ! R79   R(66,68)                1.1038         estimate D2E/DX2                !
 ! R80   R(66,69)                1.5223         estimate D2E/DX2                !
 ! R81   R(69,70)                1.1014         estimate D2E/DX2                !
 ! R82   R(69,71)                1.1023         estimate D2E/DX2                !
 ! R83   R(69,72)                1.5363         estimate D2E/DX2                !
 ! R84   R(72,73)                1.1023         estimate D2E/DX2                !
 ! R85   R(72,74)                1.1008         estimate D2E/DX2                !
 ! R86   R(72,75)                1.5351         estimate D2E/DX2                !
 ! R87   R(75,76)                1.1033         estimate D2E/DX2                !
 ! R88   R(75,77)                1.1023         estimate D2E/DX2                !
 ! R89   R(75,78)                1.5261         estimate D2E/DX2                !
 ! R90   R(78,79)                1.0992         estimate D2E/DX2                !
 ! R91   R(78,80)                1.0983         estimate D2E/DX2                !
 ! R92   R(78,81)                1.5005         estimate D2E/DX2                !
 ! R93   R(81,82)                1.0633         estimate D2E/DX2                !
 ! R94   R(81,83)                1.0485         estimate D2E/DX2                !
 ! R95   R(81,84)                1.0301         estimate D2E/DX2                !
 ! A1    A(2,1,6)              111.9049         estimate D2E/DX2                !
 ! A2    A(1,2,3)              109.7417         estimate D2E/DX2                !
 ! A3    A(1,2,7)              104.7584         estimate D2E/DX2                !
 ! A4    A(1,2,15)             112.1254         estimate D2E/DX2                !
 ! A5    A(3,2,7)              110.6911         estimate D2E/DX2                !
 ! A6    A(3,2,15)             108.2691         estimate D2E/DX2                !
 ! A7    A(7,2,15)             111.248          estimate D2E/DX2                !
 ! A8    A(2,3,4)              113.8326         estimate D2E/DX2                !
 ! A9    A(2,3,8)              106.0569         estimate D2E/DX2                !
 ! A10   A(2,3,14)             109.8719         estimate D2E/DX2                !
 ! A11   A(4,3,8)              108.2749         estimate D2E/DX2                !
 ! A12   A(4,3,14)             110.0934         estimate D2E/DX2                !
 ! A13   A(8,3,14)             108.5011         estimate D2E/DX2                !
 ! A14   A(3,4,5)              112.066          estimate D2E/DX2                !
 ! A15   A(3,4,9)              108.4957         estimate D2E/DX2                !
 ! A16   A(3,4,13)             109.0161         estimate D2E/DX2                !
 ! A17   A(5,4,9)              107.9107         estimate D2E/DX2                !
 ! A18   A(5,4,13)             112.7435         estimate D2E/DX2                !
 ! A19   A(9,4,13)             106.3636         estimate D2E/DX2                !
 ! A20   A(4,5,6)              106.4279         estimate D2E/DX2                !
 ! A21   A(4,5,10)             108.4125         estimate D2E/DX2                !
 ! A22   A(4,5,12)             111.3136         estimate D2E/DX2                !
 ! A23   A(6,5,10)             110.7226         estimate D2E/DX2                !
 ! A24   A(6,5,12)             113.9875         estimate D2E/DX2                !
 ! A25   A(10,5,12)            105.9138         estimate D2E/DX2                !
 ! A26   A(1,6,5)              108.025          estimate D2E/DX2                !
 ! A27   A(1,6,11)             108.8722         estimate D2E/DX2                !
 ! A28   A(1,6,16)             107.6584         estimate D2E/DX2                !
 ! A29   A(5,6,11)             107.5011         estimate D2E/DX2                !
 ! A30   A(5,6,16)             117.5505         estimate D2E/DX2                !
 ! A31   A(11,6,16)            107.0023         estimate D2E/DX2                !
 ! A32   A(5,12,21)            107.4976         estimate D2E/DX2                !
 ! A33   A(4,13,22)            106.3086         estimate D2E/DX2                !
 ! A34   A(4,13,83)             51.4739         estimate D2E/DX2                !
 ! A35   A(22,13,83)           143.5968         estimate D2E/DX2                !
 ! A36   A(3,14,23)            105.1973         estimate D2E/DX2                !
 ! A37   A(3,14,83)            117.3469         estimate D2E/DX2                !
 ! A38   A(23,14,83)           117.5985         estimate D2E/DX2                !
 ! A39   A(2,15,27)            115.2411         estimate D2E/DX2                !
 ! A40   A(6,16,17)            109.1041         estimate D2E/DX2                !
 ! A41   A(6,16,18)            110.998          estimate D2E/DX2                !
 ! A42   A(6,16,19)            106.5633         estimate D2E/DX2                !
 ! A43   A(17,16,18)           108.8663         estimate D2E/DX2                !
 ! A44   A(17,16,19)           110.7126         estimate D2E/DX2                !
 ! A45   A(18,16,19)           110.5797         estimate D2E/DX2                !
 ! A46   A(16,19,20)           108.5838         estimate D2E/DX2                !
 ! A47   A(16,19,83)            77.325          estimate D2E/DX2                !
 ! A48   A(25,24,29)           118.2712         estimate D2E/DX2                !
 ! A49   A(24,25,26)           112.3412         estimate D2E/DX2                !
 ! A50   A(24,25,30)           110.5708         estimate D2E/DX2                !
 ! A51   A(24,25,37)           107.2845         estimate D2E/DX2                !
 ! A52   A(26,25,30)           110.2083         estimate D2E/DX2                !
 ! A53   A(26,25,37)           111.7407         estimate D2E/DX2                !
 ! A54   A(30,25,37)           104.3765         estimate D2E/DX2                !
 ! A55   A(25,26,27)           112.9939         estimate D2E/DX2                !
 ! A56   A(25,26,31)           106.3848         estimate D2E/DX2                !
 ! A57   A(25,26,36)           110.7267         estimate D2E/DX2                !
 ! A58   A(27,26,31)           107.0135         estimate D2E/DX2                !
 ! A59   A(27,26,36)           114.2348         estimate D2E/DX2                !
 ! A60   A(31,26,36)           104.7553         estimate D2E/DX2                !
 ! A61   A(15,27,26)           105.9531         estimate D2E/DX2                !
 ! A62   A(15,27,28)           111.0859         estimate D2E/DX2                !
 ! A63   A(15,27,32)           109.3581         estimate D2E/DX2                !
 ! A64   A(26,27,28)           109.6482         estimate D2E/DX2                !
 ! A65   A(26,27,32)           110.9329         estimate D2E/DX2                !
 ! A66   A(28,27,32)           109.81           estimate D2E/DX2                !
 ! A67   A(27,28,29)           109.4851         estimate D2E/DX2                !
 ! A68   A(27,28,33)           109.4901         estimate D2E/DX2                !
 ! A69   A(27,28,35)           109.4287         estimate D2E/DX2                !
 ! A70   A(29,28,33)           107.7108         estimate D2E/DX2                !
 ! A71   A(29,28,35)           111.6056         estimate D2E/DX2                !
 ! A72   A(33,28,35)           109.0839         estimate D2E/DX2                !
 ! A73   A(24,29,28)           112.4983         estimate D2E/DX2                !
 ! A74   A(24,29,34)           110.6461         estimate D2E/DX2                !
 ! A75   A(24,29,38)           104.5438         estimate D2E/DX2                !
 ! A76   A(28,29,34)           108.0275         estimate D2E/DX2                !
 ! A77   A(28,29,38)           112.397          estimate D2E/DX2                !
 ! A78   A(34,29,38)           108.6756         estimate D2E/DX2                !
 ! A79   A(28,35,43)           105.5696         estimate D2E/DX2                !
 ! A80   A(28,35,82)           125.9259         estimate D2E/DX2                !
 ! A81   A(43,35,82)           126.0755         estimate D2E/DX2                !
 ! A82   A(26,36,44)           110.7057         estimate D2E/DX2                !
 ! A83   A(25,37,49)           116.2791         estimate D2E/DX2                !
 ! A84   A(29,38,39)           109.1499         estimate D2E/DX2                !
 ! A85   A(29,38,40)           109.8783         estimate D2E/DX2                !
 ! A86   A(29,38,41)           111.5247         estimate D2E/DX2                !
 ! A87   A(39,38,40)           108.2332         estimate D2E/DX2                !
 ! A88   A(39,38,41)           110.5432         estimate D2E/DX2                !
 ! A89   A(40,38,41)           107.4444         estimate D2E/DX2                !
 ! A90   A(38,41,42)           108.4698         estimate D2E/DX2                !
 ! A91   A(38,41,82)           103.2733         estimate D2E/DX2                !
 ! A92   A(42,41,82)            99.3417         estimate D2E/DX2                !
 ! A93   A(46,45,50)           116.6209         estimate D2E/DX2                !
 ! A94   A(46,45,84)            48.0713         estimate D2E/DX2                !
 ! A95   A(50,45,84)            68.604          estimate D2E/DX2                !
 ! A96   A(45,46,47)           112.0861         estimate D2E/DX2                !
 ! A97   A(45,46,51)           105.4534         estimate D2E/DX2                !
 ! A98   A(45,46,58)           109.2579         estimate D2E/DX2                !
 ! A99   A(47,46,51)           109.4004         estimate D2E/DX2                !
 ! A100  A(47,46,58)           110.9035         estimate D2E/DX2                !
 ! A101  A(51,46,58)           109.5816         estimate D2E/DX2                !
 ! A102  A(46,47,48)           112.2244         estimate D2E/DX2                !
 ! A103  A(46,47,52)           108.8688         estimate D2E/DX2                !
 ! A104  A(46,47,57)           110.7052         estimate D2E/DX2                !
 ! A105  A(48,47,52)           107.1546         estimate D2E/DX2                !
 ! A106  A(48,47,57)           112.6105         estimate D2E/DX2                !
 ! A107  A(52,47,57)           104.8837         estimate D2E/DX2                !
 ! A108  A(47,48,49)           112.7038         estimate D2E/DX2                !
 ! A109  A(47,48,53)           107.6145         estimate D2E/DX2                !
 ! A110  A(47,48,56)           107.0089         estimate D2E/DX2                !
 ! A111  A(49,48,53)           107.4275         estimate D2E/DX2                !
 ! A112  A(49,48,56)           112.4625         estimate D2E/DX2                !
 ! A113  A(53,48,56)           109.5033         estimate D2E/DX2                !
 ! A114  A(37,49,48)           109.5983         estimate D2E/DX2                !
 ! A115  A(37,49,50)           105.9106         estimate D2E/DX2                !
 ! A116  A(37,49,55)           110.0048         estimate D2E/DX2                !
 ! A117  A(48,49,50)           111.6737         estimate D2E/DX2                !
 ! A118  A(48,49,55)           110.0339         estimate D2E/DX2                !
 ! A119  A(50,49,55)           109.5398         estimate D2E/DX2                !
 ! A120  A(45,50,49)           113.4025         estimate D2E/DX2                !
 ! A121  A(45,50,54)           105.2925         estimate D2E/DX2                !
 ! A122  A(45,50,59)           108.5948         estimate D2E/DX2                !
 ! A123  A(49,50,54)           107.38           estimate D2E/DX2                !
 ! A124  A(49,50,59)           114.1476         estimate D2E/DX2                !
 ! A125  A(54,50,59)           107.4785         estimate D2E/DX2                !
 ! A126  A(48,56,64)           108.1444         estimate D2E/DX2                !
 ! A127  A(48,56,84)           130.98           estimate D2E/DX2                !
 ! A128  A(64,56,84)           100.4203         estimate D2E/DX2                !
 ! A129  A(47,57,65)           108.3043         estimate D2E/DX2                !
 ! A130  A(46,58,66)           114.6729         estimate D2E/DX2                !
 ! A131  A(46,58,84)           104.4799         estimate D2E/DX2                !
 ! A132  A(66,58,84)            92.3568         estimate D2E/DX2                !
 ! A133  A(50,59,60)           107.8147         estimate D2E/DX2                !
 ! A134  A(50,59,61)           109.3171         estimate D2E/DX2                !
 ! A135  A(50,59,62)           113.8754         estimate D2E/DX2                !
 ! A136  A(60,59,61)           108.9283         estimate D2E/DX2                !
 ! A137  A(60,59,62)           109.6814         estimate D2E/DX2                !
 ! A138  A(61,59,62)           107.1417         estimate D2E/DX2                !
 ! A139  A(59,62,63)           107.4133         estimate D2E/DX2                !
 ! A140  A(59,62,82)           114.8847         estimate D2E/DX2                !
 ! A141  A(63,62,82)            74.959          estimate D2E/DX2                !
 ! A142  A(58,66,67)           109.7239         estimate D2E/DX2                !
 ! A143  A(58,66,68)           109.4506         estimate D2E/DX2                !
 ! A144  A(58,66,69)           108.1094         estimate D2E/DX2                !
 ! A145  A(67,66,68)           107.6443         estimate D2E/DX2                !
 ! A146  A(67,66,69)           111.3044         estimate D2E/DX2                !
 ! A147  A(68,66,69)           110.5978         estimate D2E/DX2                !
 ! A148  A(66,69,70)           108.7217         estimate D2E/DX2                !
 ! A149  A(66,69,71)           107.8317         estimate D2E/DX2                !
 ! A150  A(66,69,72)           114.7103         estimate D2E/DX2                !
 ! A151  A(70,69,71)           106.1283         estimate D2E/DX2                !
 ! A152  A(70,69,72)           108.7968         estimate D2E/DX2                !
 ! A153  A(71,69,72)           110.2984         estimate D2E/DX2                !
 ! A154  A(69,72,73)           108.2668         estimate D2E/DX2                !
 ! A155  A(69,72,74)           108.2106         estimate D2E/DX2                !
 ! A156  A(69,72,75)           114.3074         estimate D2E/DX2                !
 ! A157  A(73,72,74)           106.5034         estimate D2E/DX2                !
 ! A158  A(73,72,75)           109.1437         estimate D2E/DX2                !
 ! A159  A(74,72,75)           110.1065         estimate D2E/DX2                !
 ! A160  A(72,75,76)           110.9943         estimate D2E/DX2                !
 ! A161  A(72,75,77)           109.6369         estimate D2E/DX2                !
 ! A162  A(72,75,78)           114.6079         estimate D2E/DX2                !
 ! A163  A(76,75,77)           105.7917         estimate D2E/DX2                !
 ! A164  A(76,75,78)           108.8471         estimate D2E/DX2                !
 ! A165  A(77,75,78)           106.5055         estimate D2E/DX2                !
 ! A166  A(75,78,79)           111.3643         estimate D2E/DX2                !
 ! A167  A(75,78,80)           110.7771         estimate D2E/DX2                !
 ! A168  A(75,78,81)           112.8938         estimate D2E/DX2                !
 ! A169  A(79,78,80)           107.9916         estimate D2E/DX2                !
 ! A170  A(79,78,81)           106.3383         estimate D2E/DX2                !
 ! A171  A(80,78,81)           107.2102         estimate D2E/DX2                !
 ! A172  A(78,81,82)           113.2541         estimate D2E/DX2                !
 ! A173  A(78,81,83)           111.8494         estimate D2E/DX2                !
 ! A174  A(78,81,84)           111.4195         estimate D2E/DX2                !
 ! A175  A(82,81,83)           104.63           estimate D2E/DX2                !
 ! A176  A(82,81,84)           106.9787         estimate D2E/DX2                !
 ! A177  A(83,81,84)           108.3171         estimate D2E/DX2                !
 ! A178  A(35,82,41)            25.0069         estimate D2E/DX2                !
 ! A179  A(35,82,62)            51.486          estimate D2E/DX2                !
 ! A180  A(41,82,62)            31.4875         estimate D2E/DX2                !
 ! A181  A(41,82,81)           161.1266         estimate D2E/DX2                !
 ! A182  A(62,82,81)           132.7764         estimate D2E/DX2                !
 ! A183  A(13,83,14)            38.61           estimate D2E/DX2                !
 ! A184  A(13,83,19)            69.792          estimate D2E/DX2                !
 ! A185  A(13,83,81)           151.4896         estimate D2E/DX2                !
 ! A186  A(14,83,19)            80.3427         estimate D2E/DX2                !
 ! A187  A(19,83,81)           103.1704         estimate D2E/DX2                !
 ! A188  A(45,84,56)            38.6393         estimate D2E/DX2                !
 ! A189  A(45,84,58)            20.2656         estimate D2E/DX2                !
 ! A190  A(45,84,81)           116.7539         estimate D2E/DX2                !
 ! A191  A(56,84,58)            57.4754         estimate D2E/DX2                !
 ! A192  A(56,84,81)           152.5454         estimate D2E/DX2                !
 ! A193  A(58,84,81)           101.0241         estimate D2E/DX2                !
 ! A194  L(20,19,83,16,-1)     185.9088         estimate D2E/DX2                !
 ! A195  L(35,82,81,41,-1)     186.1335         estimate D2E/DX2                !
 ! A196  L(14,83,81,13,-1)     190.0996         estimate D2E/DX2                !
 ! A197  L(20,19,83,16,-2)     180.5815         estimate D2E/DX2                !
 ! A198  L(35,82,81,41,-2)     186.2998         estimate D2E/DX2                !
 ! A199  L(14,83,81,13,-2)     180.3191         estimate D2E/DX2                !
 ! D1    D(6,1,2,3)            -59.9938         estimate D2E/DX2                !
 ! D2    D(6,1,2,7)           -178.8583         estimate D2E/DX2                !
 ! D3    D(6,1,2,15)            60.3667         estimate D2E/DX2                !
 ! D4    D(2,1,6,5)             71.5581         estimate D2E/DX2                !
 ! D5    D(2,1,6,11)           -44.8936         estimate D2E/DX2                !
 ! D6    D(2,1,6,16)          -160.5595         estimate D2E/DX2                !
 ! D7    D(1,2,3,4)             46.4193         estimate D2E/DX2                !
 ! D8    D(1,2,3,8)            -72.5188         estimate D2E/DX2                !
 ! D9    D(1,2,3,14)           170.4072         estimate D2E/DX2                !
 ! D10   D(7,2,3,4)            161.5608         estimate D2E/DX2                !
 ! D11   D(7,2,3,8)             42.6227         estimate D2E/DX2                !
 ! D12   D(7,2,3,14)           -74.4513         estimate D2E/DX2                !
 ! D13   D(15,2,3,4)           -76.2552         estimate D2E/DX2                !
 ! D14   D(15,2,3,8)           164.8067         estimate D2E/DX2                !
 ! D15   D(15,2,3,14)           47.7327         estimate D2E/DX2                !
 ! D16   D(1,2,15,27)           60.4751         estimate D2E/DX2                !
 ! D17   D(3,2,15,27)         -178.313          estimate D2E/DX2                !
 ! D18   D(7,2,15,27)          -56.4704         estimate D2E/DX2                !
 ! D19   D(2,3,4,5)            -44.6369         estimate D2E/DX2                !
 ! D20   D(2,3,4,9)             74.4093         estimate D2E/DX2                !
 ! D21   D(2,3,4,13)          -170.1542         estimate D2E/DX2                !
 ! D22   D(8,3,4,5)             73.0288         estimate D2E/DX2                !
 ! D23   D(8,3,4,9)           -167.9251         estimate D2E/DX2                !
 ! D24   D(8,3,4,13)           -52.4885         estimate D2E/DX2                !
 ! D25   D(14,3,4,5)          -168.505          estimate D2E/DX2                !
 ! D26   D(14,3,4,9)           -49.4588         estimate D2E/DX2                !
 ! D27   D(14,3,4,13)           65.9778         estimate D2E/DX2                !
 ! D28   D(2,3,14,23)          177.1393         estimate D2E/DX2                !
 ! D29   D(2,3,14,83)          -49.9429         estimate D2E/DX2                !
 ! D30   D(4,3,14,23)          -56.7238         estimate D2E/DX2                !
 ! D31   D(4,3,14,83)           76.1941         estimate D2E/DX2                !
 ! D32   D(8,3,14,23)           61.6034         estimate D2E/DX2                !
 ! D33   D(8,3,14,83)         -165.4788         estimate D2E/DX2                !
 ! D34   D(3,4,5,6)             52.2981         estimate D2E/DX2                !
 ! D35   D(3,4,5,10)           171.4391         estimate D2E/DX2                !
 ! D36   D(3,4,5,12)           -72.4516         estimate D2E/DX2                !
 ! D37   D(9,4,5,6)            -67.0921         estimate D2E/DX2                !
 ! D38   D(9,4,5,10)            52.049          estimate D2E/DX2                !
 ! D39   D(9,4,5,12)           168.1582         estimate D2E/DX2                !
 ! D40   D(13,4,5,6)           175.7447         estimate D2E/DX2                !
 ! D41   D(13,4,5,10)          -65.1143         estimate D2E/DX2                !
 ! D42   D(13,4,5,12)           50.9949         estimate D2E/DX2                !
 ! D43   D(3,4,13,22)           88.6765         estimate D2E/DX2                !
 ! D44   D(3,4,13,83)          -58.357          estimate D2E/DX2                !
 ! D45   D(5,4,13,22)          -36.4466         estimate D2E/DX2                !
 ! D46   D(5,4,13,83)          176.5199         estimate D2E/DX2                !
 ! D47   D(9,4,13,22)         -154.5216         estimate D2E/DX2                !
 ! D48   D(9,4,13,83)           58.4448         estimate D2E/DX2                !
 ! D49   D(4,5,6,1)            -64.3482         estimate D2E/DX2                !
 ! D50   D(4,5,6,11)            52.9916         estimate D2E/DX2                !
 ! D51   D(4,5,6,16)           173.6764         estimate D2E/DX2                !
 ! D52   D(10,5,6,1)           178.0307         estimate D2E/DX2                !
 ! D53   D(10,5,6,11)          -64.6296         estimate D2E/DX2                !
 ! D54   D(10,5,6,16)           56.0553         estimate D2E/DX2                !
 ! D55   D(12,5,6,1)            58.7421         estimate D2E/DX2                !
 ! D56   D(12,5,6,11)          176.0818         estimate D2E/DX2                !
 ! D57   D(12,5,6,16)          -63.2333         estimate D2E/DX2                !
 ! D58   D(4,5,12,21)           84.5755         estimate D2E/DX2                !
 ! D59   D(6,5,12,21)          -35.8139         estimate D2E/DX2                !
 ! D60   D(10,5,12,21)        -157.792          estimate D2E/DX2                !
 ! D61   D(1,6,16,17)         -165.6291         estimate D2E/DX2                !
 ! D62   D(1,6,16,18)          -45.6628         estimate D2E/DX2                !
 ! D63   D(1,6,16,19)           74.7993         estimate D2E/DX2                !
 ! D64   D(5,6,16,17)          -43.4654         estimate D2E/DX2                !
 ! D65   D(5,6,16,18)           76.5009         estimate D2E/DX2                !
 ! D66   D(5,6,16,19)         -163.037          estimate D2E/DX2                !
 ! D67   D(11,6,16,17)          77.4791         estimate D2E/DX2                !
 ! D68   D(11,6,16,18)        -162.5546         estimate D2E/DX2                !
 ! D69   D(11,6,16,19)         -42.0925         estimate D2E/DX2                !
 ! D70   D(4,13,83,14)          95.955          estimate D2E/DX2                !
 ! D71   D(4,13,83,19)          -4.0925         estimate D2E/DX2                !
 ! D72   D(4,13,83,81)         -84.3641         estimate D2E/DX2                !
 ! D73   D(22,13,83,14)         34.3116         estimate D2E/DX2                !
 ! D74   D(22,13,83,19)        -65.7359         estimate D2E/DX2                !
 ! D75   D(22,13,83,81)       -146.0075         estimate D2E/DX2                !
 ! D76   D(3,14,83,13)         -64.1852         estimate D2E/DX2                !
 ! D77   D(3,14,83,19)           5.4236         estimate D2E/DX2                !
 ! D78   D(23,14,83,13)         62.9267         estimate D2E/DX2                !
 ! D79   D(23,14,83,19)        132.5355         estimate D2E/DX2                !
 ! D80   D(2,15,27,26)        -145.7192         estimate D2E/DX2                !
 ! D81   D(2,15,27,28)          95.2662         estimate D2E/DX2                !
 ! D82   D(2,15,27,32)         -26.0966         estimate D2E/DX2                !
 ! D83   D(6,16,19,20)        -176.0606         estimate D2E/DX2                !
 ! D84   D(6,16,19,83)           3.3579         estimate D2E/DX2                !
 ! D85   D(17,16,19,20)         65.4168         estimate D2E/DX2                !
 ! D86   D(17,16,19,83)       -115.1648         estimate D2E/DX2                !
 ! D87   D(18,16,19,20)        -55.3299         estimate D2E/DX2                !
 ! D88   D(18,16,19,83)        124.0885         estimate D2E/DX2                !
 ! D89   D(16,19,83,13)          7.6296         estimate D2E/DX2                !
 ! D90   D(16,19,83,14)        -30.9264         estimate D2E/DX2                !
 ! D91   D(16,19,83,81)        158.7374         estimate D2E/DX2                !
 ! D92   D(29,24,25,26)        -46.4823         estimate D2E/DX2                !
 ! D93   D(29,24,25,30)         77.1002         estimate D2E/DX2                !
 ! D94   D(29,24,25,37)       -169.6635         estimate D2E/DX2                !
 ! D95   D(25,24,29,28)         51.0091         estimate D2E/DX2                !
 ! D96   D(25,24,29,34)        -69.9226         estimate D2E/DX2                !
 ! D97   D(25,24,29,38)        173.2523         estimate D2E/DX2                !
 ! D98   D(24,25,26,27)         47.0858         estimate D2E/DX2                !
 ! D99   D(24,25,26,31)        -70.0483         estimate D2E/DX2                !
 ! D100  D(24,25,26,36)        176.6793         estimate D2E/DX2                !
 ! D101  D(30,25,26,27)        -76.6989         estimate D2E/DX2                !
 ! D102  D(30,25,26,31)        166.167          estimate D2E/DX2                !
 ! D103  D(30,25,26,36)         52.8946         estimate D2E/DX2                !
 ! D104  D(37,25,26,27)        167.7305         estimate D2E/DX2                !
 ! D105  D(37,25,26,31)         50.5963         estimate D2E/DX2                !
 ! D106  D(37,25,26,36)        -62.6761         estimate D2E/DX2                !
 ! D107  D(24,25,37,49)         58.203          estimate D2E/DX2                !
 ! D108  D(26,25,37,49)        -65.3474         estimate D2E/DX2                !
 ! D109  D(30,25,37,49)        175.5666         estimate D2E/DX2                !
 ! D110  D(25,26,27,15)       -173.1033         estimate D2E/DX2                !
 ! D111  D(25,26,27,28)        -53.1447         estimate D2E/DX2                !
 ! D112  D(25,26,27,32)         68.312          estimate D2E/DX2                !
 ! D113  D(31,26,27,15)        -56.3401         estimate D2E/DX2                !
 ! D114  D(31,26,27,28)         63.6184         estimate D2E/DX2                !
 ! D115  D(31,26,27,32)       -174.9248         estimate D2E/DX2                !
 ! D116  D(36,26,27,15)         59.1166         estimate D2E/DX2                !
 ! D117  D(36,26,27,28)        179.0751         estimate D2E/DX2                !
 ! D118  D(36,26,27,32)        -59.4681         estimate D2E/DX2                !
 ! D119  D(25,26,36,44)        -73.0753         estimate D2E/DX2                !
 ! D120  D(27,26,36,44)         55.8544         estimate D2E/DX2                !
 ! D121  D(31,26,36,44)        172.6222         estimate D2E/DX2                !
 ! D122  D(15,27,28,29)        172.4536         estimate D2E/DX2                !
 ! D123  D(15,27,28,33)        -69.6718         estimate D2E/DX2                !
 ! D124  D(15,27,28,35)         49.84           estimate D2E/DX2                !
 ! D125  D(26,27,28,29)         55.6809         estimate D2E/DX2                !
 ! D126  D(26,27,28,33)        173.5554         estimate D2E/DX2                !
 ! D127  D(26,27,28,35)        -66.9327         estimate D2E/DX2                !
 ! D128  D(32,27,28,29)        -66.4487         estimate D2E/DX2                !
 ! D129  D(32,27,28,33)         51.4259         estimate D2E/DX2                !
 ! D130  D(32,27,28,35)        170.9378         estimate D2E/DX2                !
 ! D131  D(27,28,29,24)        -54.1357         estimate D2E/DX2                !
 ! D132  D(27,28,29,34)         68.2855         estimate D2E/DX2                !
 ! D133  D(27,28,29,38)       -171.8246         estimate D2E/DX2                !
 ! D134  D(33,28,29,24)       -173.1165         estimate D2E/DX2                !
 ! D135  D(33,28,29,34)        -50.6953         estimate D2E/DX2                !
 ! D136  D(33,28,29,38)         69.1946         estimate D2E/DX2                !
 ! D137  D(35,28,29,24)         67.172          estimate D2E/DX2                !
 ! D138  D(35,28,29,34)       -170.4068         estimate D2E/DX2                !
 ! D139  D(35,28,29,38)        -50.5168         estimate D2E/DX2                !
 ! D140  D(27,28,35,43)        145.1554         estimate D2E/DX2                !
 ! D141  D(27,28,35,82)        -17.9351         estimate D2E/DX2                !
 ! D142  D(29,28,35,43)         23.8149         estimate D2E/DX2                !
 ! D143  D(29,28,35,82)       -139.2756         estimate D2E/DX2                !
 ! D144  D(33,28,35,43)        -95.0829         estimate D2E/DX2                !
 ! D145  D(33,28,35,82)        101.8267         estimate D2E/DX2                !
 ! D146  D(24,29,38,39)         58.2314         estimate D2E/DX2                !
 ! D147  D(24,29,38,40)        176.7702         estimate D2E/DX2                !
 ! D148  D(24,29,38,41)        -64.1992         estimate D2E/DX2                !
 ! D149  D(28,29,38,39)       -179.4591         estimate D2E/DX2                !
 ! D150  D(28,29,38,40)        -60.9203         estimate D2E/DX2                !
 ! D151  D(28,29,38,41)         58.1102         estimate D2E/DX2                !
 ! D152  D(34,29,38,39)        -59.946          estimate D2E/DX2                !
 ! D153  D(34,29,38,40)         58.5927         estimate D2E/DX2                !
 ! D154  D(34,29,38,41)        177.6233         estimate D2E/DX2                !
 ! D155  D(28,35,82,41)        150.3973         estimate D2E/DX2                !
 ! D156  D(28,35,82,62)        121.0875         estimate D2E/DX2                !
 ! D157  D(43,35,82,41)         -9.3193         estimate D2E/DX2                !
 ! D158  D(43,35,82,62)        -38.6291         estimate D2E/DX2                !
 ! D159  D(25,37,49,48)        115.9849         estimate D2E/DX2                !
 ! D160  D(25,37,49,50)       -123.4083         estimate D2E/DX2                !
 ! D161  D(25,37,49,55)         -5.1208         estimate D2E/DX2                !
 ! D162  D(29,38,41,42)         77.7484         estimate D2E/DX2                !
 ! D163  D(29,38,41,82)        -27.0031         estimate D2E/DX2                !
 ! D164  D(39,38,41,42)        -43.8783         estimate D2E/DX2                !
 ! D165  D(39,38,41,82)       -148.6298         estimate D2E/DX2                !
 ! D166  D(40,38,41,42)       -161.7827         estimate D2E/DX2                !
 ! D167  D(40,38,41,82)         93.4658         estimate D2E/DX2                !
 ! D168  D(38,41,82,35)        -17.7694         estimate D2E/DX2                !
 ! D169  D(38,41,82,62)        115.0628         estimate D2E/DX2                !
 ! D170  D(38,41,82,81)        155.9308         estimate D2E/DX2                !
 ! D171  D(42,41,82,35)       -129.4037         estimate D2E/DX2                !
 ! D172  D(42,41,82,62)          3.4285         estimate D2E/DX2                !
 ! D173  D(42,41,82,81)         44.2965         estimate D2E/DX2                !
 ! D174  D(50,45,46,47)         60.5608         estimate D2E/DX2                !
 ! D175  D(50,45,46,51)        179.5139         estimate D2E/DX2                !
 ! D176  D(50,45,46,58)        -62.7815         estimate D2E/DX2                !
 ! D177  D(84,45,46,47)         57.6088         estimate D2E/DX2                !
 ! D178  D(84,45,46,51)        176.5619         estimate D2E/DX2                !
 ! D179  D(84,45,46,58)        -65.7335         estimate D2E/DX2                !
 ! D180  D(46,45,50,49)        -19.3468         estimate D2E/DX2                !
 ! D181  D(46,45,50,54)       -136.4612         estimate D2E/DX2                !
 ! D182  D(46,45,50,59)        108.6717         estimate D2E/DX2                !
 ! D183  D(84,45,50,49)        -16.9884         estimate D2E/DX2                !
 ! D184  D(84,45,50,54)       -134.1027         estimate D2E/DX2                !
 ! D185  D(84,45,50,59)        111.0302         estimate D2E/DX2                !
 ! D186  D(46,45,84,56)       -103.7623         estimate D2E/DX2                !
 ! D187  D(46,45,84,58)         50.6557         estimate D2E/DX2                !
 ! D188  D(46,45,84,81)         92.3163         estimate D2E/DX2                !
 ! D189  D(50,45,84,56)         79.0721         estimate D2E/DX2                !
 ! D190  D(50,45,84,58)       -126.51           estimate D2E/DX2                !
 ! D191  D(50,45,84,81)        -84.8493         estimate D2E/DX2                !
 ! D192  D(45,46,47,48)        -41.8814         estimate D2E/DX2                !
 ! D193  D(45,46,47,52)       -160.3292         estimate D2E/DX2                !
 ! D194  D(45,46,47,57)         84.8762         estimate D2E/DX2                !
 ! D195  D(51,46,47,48)       -158.4817         estimate D2E/DX2                !
 ! D196  D(51,46,47,52)         83.0704         estimate D2E/DX2                !
 ! D197  D(51,46,47,57)        -31.7242         estimate D2E/DX2                !
 ! D198  D(58,46,47,48)         80.5301         estimate D2E/DX2                !
 ! D199  D(58,46,47,52)        -37.9177         estimate D2E/DX2                !
 ! D200  D(58,46,47,57)       -152.7123         estimate D2E/DX2                !
 ! D201  D(45,46,58,66)       -145.847          estimate D2E/DX2                !
 ! D202  D(45,46,58,84)        114.6343         estimate D2E/DX2                !
 ! D203  D(47,46,58,66)         90.1122         estimate D2E/DX2                !
 ! D204  D(47,46,58,84)         -9.4065         estimate D2E/DX2                !
 ! D205  D(51,46,58,66)        -30.769          estimate D2E/DX2                !
 ! D206  D(51,46,58,84)       -130.2876         estimate D2E/DX2                !
 ! D207  D(46,47,48,49)        -12.7011         estimate D2E/DX2                !
 ! D208  D(46,47,48,53)        105.5582         estimate D2E/DX2                !
 ! D209  D(46,47,48,56)       -136.8331         estimate D2E/DX2                !
 ! D210  D(52,47,48,49)        106.7543         estimate D2E/DX2                !
 ! D211  D(52,47,48,53)       -134.9864         estimate D2E/DX2                !
 ! D212  D(52,47,48,56)        -17.3777         estimate D2E/DX2                !
 ! D213  D(57,47,48,49)       -138.4264         estimate D2E/DX2                !
 ! D214  D(57,47,48,53)        -20.1671         estimate D2E/DX2                !
 ! D215  D(57,47,48,56)         97.4416         estimate D2E/DX2                !
 ! D216  D(46,47,57,65)        -59.5494         estimate D2E/DX2                !
 ! D217  D(48,47,57,65)         66.994          estimate D2E/DX2                !
 ! D218  D(52,47,57,65)       -176.8199         estimate D2E/DX2                !
 ! D219  D(47,48,49,37)        168.1502         estimate D2E/DX2                !
 ! D220  D(47,48,49,50)         51.1088         estimate D2E/DX2                !
 ! D221  D(47,48,49,55)        -70.7617         estimate D2E/DX2                !
 ! D222  D(53,48,49,37)         49.7813         estimate D2E/DX2                !
 ! D223  D(53,48,49,50)        -67.2601         estimate D2E/DX2                !
 ! D224  D(53,48,49,55)        170.8694         estimate D2E/DX2                !
 ! D225  D(56,48,49,37)        -70.7785         estimate D2E/DX2                !
 ! D226  D(56,48,49,50)        172.1802         estimate D2E/DX2                !
 ! D227  D(56,48,49,55)         50.3097         estimate D2E/DX2                !
 ! D228  D(47,48,56,64)       -164.3138         estimate D2E/DX2                !
 ! D229  D(47,48,56,84)         73.221          estimate D2E/DX2                !
 ! D230  D(49,48,56,64)         71.4066         estimate D2E/DX2                !
 ! D231  D(49,48,56,84)        -51.0586         estimate D2E/DX2                !
 ! D232  D(53,48,56,64)        -47.9505         estimate D2E/DX2                !
 ! D233  D(53,48,56,84)       -170.4157         estimate D2E/DX2                !
 ! D234  D(37,49,50,45)       -155.7241         estimate D2E/DX2                !
 ! D235  D(37,49,50,54)        -39.837          estimate D2E/DX2                !
 ! D236  D(37,49,50,59)         79.19           estimate D2E/DX2                !
 ! D237  D(48,49,50,45)        -36.4751         estimate D2E/DX2                !
 ! D238  D(48,49,50,54)         79.412          estimate D2E/DX2                !
 ! D239  D(48,49,50,59)       -161.561          estimate D2E/DX2                !
 ! D240  D(55,49,50,45)         85.6798         estimate D2E/DX2                !
 ! D241  D(55,49,50,54)       -158.4331         estimate D2E/DX2                !
 ! D242  D(55,49,50,59)        -39.4062         estimate D2E/DX2                !
 ! D243  D(45,50,59,60)         51.3681         estimate D2E/DX2                !
 ! D244  D(45,50,59,61)        169.6421         estimate D2E/DX2                !
 ! D245  D(45,50,59,62)        -70.5761         estimate D2E/DX2                !
 ! D246  D(49,50,59,60)        178.9635         estimate D2E/DX2                !
 ! D247  D(49,50,59,61)        -62.7625         estimate D2E/DX2                !
 ! D248  D(49,50,59,62)         57.0194         estimate D2E/DX2                !
 ! D249  D(54,50,59,60)        -62.0654         estimate D2E/DX2                !
 ! D250  D(54,50,59,61)         56.2087         estimate D2E/DX2                !
 ! D251  D(54,50,59,62)        175.9905         estimate D2E/DX2                !
 ! D252  D(48,56,84,45)         -6.3293         estimate D2E/DX2                !
 ! D253  D(48,56,84,58)        -16.5468         estimate D2E/DX2                !
 ! D254  D(48,56,84,81)         26.1099         estimate D2E/DX2                !
 ! D255  D(64,56,84,45)       -131.7213         estimate D2E/DX2                !
 ! D256  D(64,56,84,58)       -141.9388         estimate D2E/DX2                !
 ! D257  D(64,56,84,81)        -99.2821         estimate D2E/DX2                !
 ! D258  D(46,58,66,67)        -50.7243         estimate D2E/DX2                !
 ! D259  D(46,58,66,68)         67.1867         estimate D2E/DX2                !
 ! D260  D(46,58,66,69)       -172.2803         estimate D2E/DX2                !
 ! D261  D(84,58,66,67)         56.3913         estimate D2E/DX2                !
 ! D262  D(84,58,66,68)        174.3022         estimate D2E/DX2                !
 ! D263  D(84,58,66,69)        -65.1648         estimate D2E/DX2                !
 ! D264  D(46,58,84,45)        -35.0719         estimate D2E/DX2                !
 ! D265  D(46,58,84,56)        -16.4224         estimate D2E/DX2                !
 ! D266  D(46,58,84,81)       -177.8635         estimate D2E/DX2                !
 ! D267  D(66,58,84,45)       -151.3115         estimate D2E/DX2                !
 ! D268  D(66,58,84,56)       -132.662          estimate D2E/DX2                !
 ! D269  D(66,58,84,81)         65.897          estimate D2E/DX2                !
 ! D270  D(50,59,62,63)         36.1448         estimate D2E/DX2                !
 ! D271  D(50,59,62,82)        -44.9774         estimate D2E/DX2                !
 ! D272  D(60,59,62,63)        -84.7623         estimate D2E/DX2                !
 ! D273  D(60,59,62,82)       -165.8845         estimate D2E/DX2                !
 ! D274  D(61,59,62,63)        157.1483         estimate D2E/DX2                !
 ! D275  D(61,59,62,82)         76.0261         estimate D2E/DX2                !
 ! D276  D(59,62,82,35)        -96.7437         estimate D2E/DX2                !
 ! D277  D(59,62,82,41)       -120.0844         estimate D2E/DX2                !
 ! D278  D(59,62,82,81)         76.6753         estimate D2E/DX2                !
 ! D279  D(63,62,82,35)        160.7265         estimate D2E/DX2                !
 ! D280  D(63,62,82,41)        137.3859         estimate D2E/DX2                !
 ! D281  D(63,62,82,81)        -25.8544         estimate D2E/DX2                !
 ! D282  D(58,66,69,70)        -63.4227         estimate D2E/DX2                !
 ! D283  D(58,66,69,71)       -178.0761         estimate D2E/DX2                !
 ! D284  D(58,66,69,72)         58.6137         estimate D2E/DX2                !
 ! D285  D(67,66,69,70)        176.0029         estimate D2E/DX2                !
 ! D286  D(67,66,69,71)         61.3496         estimate D2E/DX2                !
 ! D287  D(67,66,69,72)        -61.9606         estimate D2E/DX2                !
 ! D288  D(68,66,69,70)         56.3911         estimate D2E/DX2                !
 ! D289  D(68,66,69,71)        -58.2622         estimate D2E/DX2                !
 ! D290  D(68,66,69,72)        178.4275         estimate D2E/DX2                !
 ! D291  D(66,69,72,73)       -172.4444         estimate D2E/DX2                !
 ! D292  D(66,69,72,74)        -57.3879         estimate D2E/DX2                !
 ! D293  D(66,69,72,75)         65.6839         estimate D2E/DX2                !
 ! D294  D(70,69,72,73)        -50.4487         estimate D2E/DX2                !
 ! D295  D(70,69,72,74)         64.6077         estimate D2E/DX2                !
 ! D296  D(70,69,72,75)       -172.3205         estimate D2E/DX2                !
 ! D297  D(71,69,72,73)         65.5762         estimate D2E/DX2                !
 ! D298  D(71,69,72,74)       -179.3673         estimate D2E/DX2                !
 ! D299  D(71,69,72,75)        -56.2955         estimate D2E/DX2                !
 ! D300  D(69,72,75,76)        -65.5802         estimate D2E/DX2                !
 ! D301  D(69,72,75,77)         50.9338         estimate D2E/DX2                !
 ! D302  D(69,72,75,78)        170.617          estimate D2E/DX2                !
 ! D303  D(73,72,75,76)        173.0301         estimate D2E/DX2                !
 ! D304  D(73,72,75,77)        -70.4559         estimate D2E/DX2                !
 ! D305  D(73,72,75,78)         49.2273         estimate D2E/DX2                !
 ! D306  D(74,72,75,76)         56.4599         estimate D2E/DX2                !
 ! D307  D(74,72,75,77)        172.9739         estimate D2E/DX2                !
 ! D308  D(74,72,75,78)        -67.3429         estimate D2E/DX2                !
 ! D309  D(72,75,78,79)        -53.8401         estimate D2E/DX2                !
 ! D310  D(72,75,78,80)       -174.049          estimate D2E/DX2                !
 ! D311  D(72,75,78,81)         65.7034         estimate D2E/DX2                !
 ! D312  D(76,75,78,79)       -178.7807         estimate D2E/DX2                !
 ! D313  D(76,75,78,80)         61.0104         estimate D2E/DX2                !
 ! D314  D(76,75,78,81)        -59.2372         estimate D2E/DX2                !
 ! D315  D(77,75,78,79)         67.5746         estimate D2E/DX2                !
 ! D316  D(77,75,78,80)        -52.6342         estimate D2E/DX2                !
 ! D317  D(77,75,78,81)       -172.8818         estimate D2E/DX2                !
 ! D318  D(75,78,81,82)        -65.0869         estimate D2E/DX2                !
 ! D319  D(75,78,81,83)        176.9768         estimate D2E/DX2                !
 ! D320  D(75,78,81,84)         55.5763         estimate D2E/DX2                !
 ! D321  D(79,78,81,82)         57.3168         estimate D2E/DX2                !
 ! D322  D(79,78,81,83)        -60.6196         estimate D2E/DX2                !
 ! D323  D(79,78,81,84)        177.98           estimate D2E/DX2                !
 ! D324  D(80,78,81,82)        172.6426         estimate D2E/DX2                !
 ! D325  D(80,78,81,83)         54.7062         estimate D2E/DX2                !
 ! D326  D(80,78,81,84)        -66.6942         estimate D2E/DX2                !
 ! D327  D(78,81,82,41)         46.0638         estimate D2E/DX2                !
 ! D328  D(78,81,82,62)         73.8132         estimate D2E/DX2                !
 ! D329  D(83,81,82,41)        168.1249         estimate D2E/DX2                !
 ! D330  D(83,81,82,62)       -164.1257         estimate D2E/DX2                !
 ! D331  D(84,81,82,41)        -77.084          estimate D2E/DX2                !
 ! D332  D(84,81,82,62)        -49.3346         estimate D2E/DX2                !
 ! D333  D(78,81,83,13)       -100.197          estimate D2E/DX2                !
 ! D334  D(78,81,83,19)       -171.9904         estimate D2E/DX2                !
 ! D335  D(82,81,83,13)        136.8269         estimate D2E/DX2                !
 ! D336  D(82,81,83,19)         65.0335         estimate D2E/DX2                !
 ! D337  D(84,81,83,13)         22.978          estimate D2E/DX2                !
 ! D338  D(84,81,83,19)        -48.8154         estimate D2E/DX2                !
 ! D339  D(78,81,84,45)        -82.5869         estimate D2E/DX2                !
 ! D340  D(78,81,84,56)       -104.6171         estimate D2E/DX2                !
 ! D341  D(78,81,84,58)        -69.0207         estimate D2E/DX2                !
 ! D342  D(82,81,84,45)         41.6907         estimate D2E/DX2                !
 ! D343  D(82,81,84,56)         19.6606         estimate D2E/DX2                !
 ! D344  D(82,81,84,58)         55.2569         estimate D2E/DX2                !
 ! D345  D(83,81,84,45)        153.9785         estimate D2E/DX2                !
 ! D346  D(83,81,84,56)        131.9484         estimate D2E/DX2                !
 ! D347  D(83,81,84,58)        167.5447         estimate D2E/DX2                !
 --------------------------------------------------------------------------------
 Trust Radius=3.00D-01 FncErr=1.00D-07 GrdErr=1.00D-06
 Number of steps in this run=    504 maximum allowed number of steps=    504.
 GradGradGradGradGradGradGradGradGradGradGradGradGradGradGradGradGradGrad

 Leave Link  103 at Wed Apr 27 16:46:04 2016, MaxMem= 10737418240 cpu:         0.5
 (Enter /share/apps//g09/l202.exe)
 Stoichiometry    C23H44NO16(1+)
 Framework group  C1[X(C23H44NO16)]
 Deg. of freedom   246
 Full point group                 C1      NOp   1
 Largest Abelian subgroup         C1      NOp   1
 Largest concise Abelian subgroup C1      NOp   1
                         Standard orientation:                         
 ---------------------------------------------------------------------
 Center     Atomic      Atomic             Coordinates (Angstroms)
 Number     Number       Type             X           Y           Z
 ---------------------------------------------------------------------
      1          8           0        4.327881   -0.914398    0.640572
      2          6           0        3.572455    0.193413    1.108976
      3          6           0        4.229453    1.504748    0.643313
      4          6           0        4.632405    1.505406   -0.844258
      5          6           0        5.329290    0.193233   -1.256150
      6          6           0        4.409639   -0.940604   -0.814629
      7          1           0        3.604326    0.110473    2.209078
      8          1           0        5.144954    1.620023    1.250145
      9          1           0        3.718891    1.610513   -1.454353
     10          1           0        5.450842    0.192638   -2.351006
     11          1           0        3.408707   -0.737601   -1.232015
     12          8           0        6.651250    0.114296   -0.714632
     13          8           0        5.426307    2.656843   -1.109230
     14          8           0        3.353737    2.617204    0.920052
     15          8           0        2.241904    0.170522    0.631790
     16          6           0        4.784712   -2.347925   -1.228285
     17          1           0        5.104403   -2.340795   -2.283518
     18          1           0        5.609235   -2.734817   -0.608960
     19          8           0        3.598657   -3.157306   -1.058734
     20          1           0        3.823591   -4.081658   -1.256896
     21          1           0        6.576252   -0.239517    0.193123
     22          1           0        6.354237    2.398534   -0.929595
     23          1           0        3.852651    3.411269    0.643015
     24          8           0       -1.124716   -2.207494    1.410421
     25          6           0       -0.483792   -2.393658    0.151532
     26          6           0        0.539833   -1.283087   -0.154577
     27          6           0        1.467755   -0.988818    1.018367
     28          6           0        0.636100   -0.703005    2.274670
     29          6           0       -0.312017   -1.887771    2.544068
     30          1           0        0.004506   -3.387293    0.106411
     31          1           0       -0.040383   -0.370261   -0.341977
     32          1           0        2.148413   -1.837576    1.205375
     33          1           0        1.308428   -0.604575    3.148000
     34          1           0        0.304925   -2.760405    2.841663
     35          8           0       -0.088753    0.525466    2.098877
     36          8           0        1.213304   -1.542915   -1.381544
     37          8           0       -1.492817   -2.455791   -0.825874
     38          6           0       -1.315925   -1.589967    3.666336
     39          1           0       -1.957392   -2.471194    3.820242
     40          1           0       -0.778733   -1.387183    4.604643
     41          8           0       -2.111595   -0.434015    3.367802
     42          1           0       -2.819671   -0.697398    2.706816
     43          1           0       -0.971236    0.391230    2.577278
     44          1           0        1.855168   -2.282697   -1.276646
     45          8           0       -4.828113   -0.994071   -1.324316
     46          6           0       -4.466441    0.330785   -1.590939
     47          6           0       -3.291709    0.421962   -2.582384
     48          6           0       -2.195272   -0.629237   -2.288770
     49          6           0       -2.370653   -1.302466   -0.918036
     50          6           0       -3.802662   -1.844655   -0.728539
     51          1           0       -5.360646    0.794974   -2.038909
     52          1           0       -2.823816    1.413588   -2.489531
     53          1           0       -2.274482   -1.418946   -3.057986
     54          1           0       -3.867022   -2.801942   -1.272034
     55          1           0       -2.138630   -0.587966   -0.114963
     56          8           0       -0.931027    0.036742   -2.414547
     57          8           0       -3.760890    0.363195   -3.925790
     58          8           0       -4.145469    0.997248   -0.347591
     59          6           0       -4.180863   -2.117106    0.728114
     60          1           0       -5.221700   -2.479711    0.744137
     61          1           0       -3.525417   -2.898455    1.133297
     62          8           0       -4.054385   -0.971949    1.585434
     63          1           0       -4.318974   -0.179341    1.060446
     64          1           0       -0.231266   -0.646878   -2.483680
     65          1           0       -4.232858   -0.481982   -4.048884
     66          6           0       -4.501741    2.394309   -0.303843
     67          1           0       -4.104391    2.908403   -1.196788
     68          1           0       -5.600842    2.494067   -0.321741
     69          6           0       -3.930837    2.988367    0.976237
     70          1           0       -4.407480    2.495312    1.838029
     71          1           0       -4.235168    4.046871    1.022176
     72          6           0       -2.405955    2.865671    1.116824
     73          1           0       -2.124180    3.200705    2.128476
     74          1           0       -2.139464    1.799377    1.054990
     75          6           0       -1.609044    3.669777    0.080021
     76          1           0       -1.773988    3.276083   -0.937371
     77          1           0       -1.970644    4.710937    0.061074
     78          6           0       -0.107667    3.736990    0.345232
     79          1           0        0.103768    4.104828    1.359210
     80          1           0        0.384433    4.410328   -0.369378
     81          7           0        0.565510    2.400709    0.232042
     82          1           0        0.246682    1.706075    0.971255
     83          1           0        1.602749    2.473615    0.366980
     84          1           0        0.388082    1.966583   -0.685118
 ---------------------------------------------------------------------
 Rotational constants (GHZ):      0.1397928      0.0608375      0.0576711
 Leave Link  202 at Wed Apr 27 16:46:04 2016, MaxMem= 10737418240 cpu:         0.6
 (Enter /share/apps//g09/l301.exe)
 Standard basis: 6-311+G(d,p) (5D, 7F)
 Ernie: Thresh=  0.10000D-02 Tol=  0.10000D-05 Strict=F.
 There are  1184 symmetry adapted cartesian basis functions of A   symmetry.
 There are  1144 symmetry adapted basis functions of A   symmetry.
  1144 basis functions,  1792 primitive gaussians,  1184 cartesian basis functions
   158 alpha electrons      158 beta electrons
       nuclear repulsion energy      5938.1913060284 Hartrees.
 IExCor= 1009 DFT=T Ex+Corr=PBE1PBE ExCW=0 ScaHFX=  0.250000
 ScaDFX=  0.750000  0.750000  1.000000  1.000000 ScalE2=  1.000000  1.000000
 IRadAn=      0 IRanWt=     -1 IRanGd=            0 ICorTp=0 IEmpDi=131
 NAtoms=   84 NActive=   84 NUniq=   84 SFac= 1.00D+00 NAtFMM=   60 NAOKFM=T Big=T
 Integral buffers will be    131072 words long.
 Raffenetti 2 integral format.
[...]
 987,-0.00001464,0.00012658,-0.00020008,0.00003246,0.00001963,-0.000195
 99,-0.00034479,-0.00000235,0.00001946,-0.00002082,-0.00002064,0.000041
 88,0.00005647,-0.00025906,0.00041666,0.00061393,-0.00006781,-0.0000040
 3,-0.00038659,-0.00006952,0.00020153,-0.00019265,0.00013294,-0.0001272
 7,-0.00003316,-0.00003330,0.00000964,-0.00001266,-0.00000123,-0.000001
 24,-0.00000522,-0.00004116,0.00013714,0.00011318,0.00001253,0.00000453
 ,-0.00000968,-0.00011438,0.00008211,-0.00017903,-0.00004932,0.00000625
 ,0.00005898,-0.00002708,0.00006464,0.00002914,0.00004717,-0.00001209,-
 0.00007888,0.00007946,0.00000470,-0.00006682,-0.00008802,0.00001495,-0
 .00017469,0.00014904,-0.00013576,0.00001449,0.00000089,-0.00001652,0.0
 0000699,-0.00000146,-0.00000106,0.00000489,-0.00001081,0.00005155,0.00
 000406,-0.00001055,-0.00000680,0.00007965,-0.00000745,-0.00000096,0.00
 001040,-0.00002551,-0.00001613,-0.00001661,-0.00056620,0.00012117,0.00
 017081,-0.00005628,-0.00002063,0.00003442,-0.00002451,-0.00001063,0.00
 007011,0.00003016,-0.00001663,-0.00000962,-0.00000293,0.00000315,0.000
 00344,0.00000027,0.00000572,0.00000830,-0.00003466,0.00002590,0.000025
 60,0.00000508,-0.00002524,-0.00002250,-0.00000758,-0.00017972,0.000304
 35,0.00000575,-0.00000029,-0.00000239,0.00000338,-0.00000173,0.0000019
 4,-0.00001038,0.00000814,-0.00000211,-0.00000628,-0.00000469,0.0000131
 4,-0.00006033,0.00002950,-0.00003203,0.00001618,-0.00001504,-0.0000050
 0,0.00003293,-0.00002630,0.00000278,0.00023605,0.00006100,0.00038755,-
 0.00004511,-0.00004501,-0.00003300,-0.00002296,-0.00006857,-0.00001662
 ,-0.00343992,0.00282723,0.00211684,0.00020280,0.00009342,0.00010141,0.
 00007482,0.00064897,-0.00115193,-0.00428261,0.00944123,-0.02262999,-0.
 00068131,-0.00032853,-0.00049424,0.00112127,-0.00051290,0.00027373,-0.
 07324037,0.02238406,-0.04952558,-0.00198560,0.00466320,-0.01130761,0.0
 7922107,-0.00159483,0.00074601,-0.00010826,0.00143233,-0.00286897,0.00
 153785,0.00290165,-0.00351222,0.00168520,0.00044010,0.00119529,0.00001
 524,-0.00014529,-0.00041218,-0.00002777,0.00062090,0.00042700,-0.00003
 172,0.00000205,0.00009128,-0.00016242,-0.00049040,0.00044195,-0.000350
 42,-0.00008950,0.00005146,0.00011551,-0.00017851,0.00007649,-0.0000578
 6,0.00007106,0.00001000,-0.00006647,-0.00021800,0.00010434,-0.00011456
 ,-0.00057345,-0.00038386,-0.00046071,0.00058372,-0.00565725,-0.0038160
 0,-0.00065036,-0.00056371,0.00293914,0.00009850,-0.00011066,-0.0002441
 7,-0.00005713,0.00001114,0.00003143,0.00001631,0.00000247,0.00004096,-
 0.00015468,-0.00000414,0.00030292,0.00004562,-0.00001036,-0.00004051,0
 .00016209,-0.00013821,0.00010936,0.00009622,0.00000298,0.00017060,-0.0
 0037981,0.00402054,-0.00201797,-0.00010101,-0.00019666,0.00023173,0.00
 004467,0.00010552,-0.00045505,-0.00000124,0.00066822,-0.00005572,-0.00
 000674,-0.00020960,-0.00336319,-0.00115824,0.00070191,-0.00039269,0.00
 053017,-0.00012543,-0.00010893,0.00003089,-0.00005694,-0.00001984,-0.0
 0016577,0.00014495,0.00012158,-0.00009267,0.00035102,0.00060223,0.0000
 2465,-0.00031713,-0.00000361,0.00004826,-0.00009236,-0.00008497,0.0005
 9889,-0.00370192,0.00013313,0.00002672,-0.00049037,0.00044797,0.000080
 40,-0.00054927,0.00042802,-0.00025208,0.00027818,0.00002462,0.00006726
 ,-0.00002270,0.00004162,-0.00001868,-0.00002776,0.00000316,0.00010925,
 -0.00035519,0.00008514,0.00003550,0.00017269,-0.00007840,-0.00007244,0
 .00022488,0.00004882,0.00005642,0.00013080,-0.00025938,0.00012896,-0.0
 0026295,-0.00013336,-0.00027676,0.00006560,0.00030196,-0.00016424,-0.0
 0000207,0.00009174,0.00008145,-0.00001110,0.00032260,-0.00029047,0.000
 33386,-0.00004759,-0.00002601,0.00011309,-0.00001973,0.00001189,0.0000
 0118,-0.00001236,0.00002304,-0.00007504,-0.00002155,0.00002765,0.00001
 102,-0.00009867,0.00001834,-0.00000545,-0.00002077,0.00003473,0.000063
 25,0.00003762,0.00032496,-0.00022625,-0.00046257,0.00013542,0.00003450
 ,-0.00008099,0.00029674,-0.00005899,-0.00030842,-0.00005951,0.00004212
 ,0.00002646,0.00000229,-0.00000595,-0.00000969,0.00000786,-0.00001924,
 -0.00002152,0.00004712,-0.00018668,-0.00004965,-0.00002948,0.00015139,
 0.00012498,-0.00011775,0.00033692,-0.00008400,-0.00002452,-0.00000356,
 0.00001711,-0.00016663,0.00008557,0.00011630,-0.00000635,-0.00006694,0
 .00001596,0.00003987,-0.00000429,-0.00007117,-0.00008985,-0.00004190,0
 .00021919,-0.00003724,0.00003077,-0.00010328,-0.00001976,0.00009116,-0
 .00009518,0.00021850,0.00011007,-0.00057421,-0.00002572,0.00003639,0.0
 0005989,-0.00019392,0.00028897,0.00034210,0.00263739,-0.00243291,-0.00
 171022,-0.00002069,0.00012059,-0.00030846,0.00015394,-0.00015606,0.000
 81986,0.00631363,-0.01200788,0.01908847,-0.00071742,0.00115654,-0.0001
 5736,-0.00092772,-0.00009606,0.00017352,0.02028916,-0.11043276,0.11518
 294,-0.00364077,0.01790457,-0.02242023,-0.02807634,0.12098904,0.000397
 31,-0.00013765,-0.00200745,-0.00044164,0.00042082,0.00537002,-0.007963
 48,0.00597344,0.00084253,-0.00004651,-0.00098629,-0.00060973,-0.000183
 27,0.00098411,0.00043408,-0.00017088,-0.00013744,0.00055545,0.00003571
 ,0.00021816,-0.00037561,0.00172708,-0.00183354,0.00049058,-0.00035464,
 -0.00000735,0.00011756,0.00030101,-0.00016251,0.00001527,0.00008107,-0
 .00001370,0.00023500,0.00061979,-0.00067654,-0.00006185,0.00105854,-0.
 00002648,0.00052904,0.00217811,-0.00645751,0.00442222,-0.00080172,0.00
 266404,-0.00429277,-0.00022743,0.00016295,0.00045624,-0.00001235,-0.00
 001780,-0.00005409,-0.00001442,0.00001177,-0.00005510,0.00010021,-0.00
 003956,-0.00069881,-0.00002652,0.00002093,0.00002385,-0.00029389,0.000
 35066,0.00011302,-0.00024532,0.00001172,-0.00032842,0.00088958,-0.0022
 5840,-0.00162230,-0.00004242,0.00016828,-0.00007132,0.00001747,-0.0000
 3072,-0.00002601,0.00066237,-0.00064552,0.00017301,0.00018707,-0.00002
 601,0.00035301,0.00088338,-0.00152464,0.00034815,-0.00022906,0.0001215
 9,-0.00007989,-0.00004694,0.00008527,0.00009168,0.00006462,0.00011678,
 -0.00037223,-0.00005478,0.00010147,0.00011128,0.00002216,0.00030621,-0
 .00001919,-0.00007390,0.00009884,0.00011675,0.00020389,0.00218046,0.00
 151974,-0.00059288,0.00045995,-0.00057373,-0.00013118,0.00027322,-0.00
 010881,0.00012056,-0.00037381,-0.00000512,-0.00004020,0.00003626,0.000
 01602,0.00001267,0.00002088,-0.00002477,0.00005347,0.00046724,0.000402
 11,-0.00000263,-0.00005500,-0.00006687,-0.00043189,0.00013764,-0.00057
 582,0.00018666,-0.00025313,0.00041324,-0.00014127,0.00020508,0.0002013
 5,0.00034755,-0.00001538,-0.00036876,0.00025710,0.00009260,-0.00017015
 ,-0.00007450,0.00000969,-0.00041117,0.00023671,-0.00018372,0.00000440,
 0.00001801,-0.00007074,-0.00002813,-0.00000363,-0.00001227,0.00001647,
 -0.00000777,0.00010070,0.00003169,-0.00004388,-0.00000347,0.00013885,-
 0.00002293,0.00000593,0.00002284,-0.00005215,-0.00005507,-0.00003967,-
 0.00053135,0.00000753,0.00061211,-0.00024503,-0.00015386,0.00013530,-0
 .00038017,0.00002359,0.00038123,0.00010575,-0.00004478,-0.00007868,-0.
 00000312,-0.00000560,0.00003308,-0.00000735,0.00001551,-0.00000853,-0.
 00009437,0.00013873,0.00017506,0.00001831,-0.00013730,-0.00015461,0.00
 025120,-0.00016194,0.00012903,0.00004653,0.00002847,-0.00003251,0.0001
 9367,-0.00011378,-0.00017849,0.00003609,0.00010816,-0.00004538,-0.0000
 4047,0.00000889,0.00011007,-0.00002137,0.00022027,-0.00005322,0.000022
 46,-0.00001647,0.00018157,-0.00004142,-0.00004933,-0.00001836,-0.00016
 680,-0.00036557,-0.00016149,0.00000736,0.00003834,0.00001274,-0.000001
 50,0.00005297,-0.00010346,0.00284092,-0.00248205,-0.00097603,-0.000121
 09,0.00023187,-0.00019671,0.00052593,-0.00074416,0.00108974,-0.0037187
 7,-0.00044139,0.01216354,0.00065981,-0.00023284,0.00023098,0.00042197,
 -0.00109674,0.00046175,-0.04573176,0.11643030,-0.29926503,-0.00428131,
 0.00539446,-0.02211107,0.05333482,-0.11753543,0.31011947,-0.00038808,0
 .00003783,0.00006252,0.00027925,-0.00025277,-0.00000966,0.00075263,-0.
 00054345,-0.00002371,0.00012419,0.00028210,-0.00019396,-0.00003110,-0.
 00005080,-0.00008353,0.00017949,0.00020883,-0.00007802,-0.00001634,-0.
 00005361,0.00002437,-0.00016438,0.00012774,-0.00005439,0.00002193,-0.0
 0006268,-0.00000527,-0.00005168,0.00001710,-0.00002344,-0.00000604,0.0
 0005408,-0.00005735,-0.00006848,-0.00003189,0.00008738,-0.00017793,-0.
 00003929,0.00008134,-0.00058529,0.00106262,-0.00135294,-0.00053937,0.0
 0001507,0.00018668,0.00001378,-0.00002444,-0.00008899,-0.00001720,0.00
 001312,0.00000632,0.00001100,-0.00001964,0.00001671,-0.00000868,-0.000
 10256,0.00013926,0.00000941,0.00002290,0.00000991,0.00004800,-0.000016
 34,-0.00000601,0.00002301,0.00000208,0.00002455,-0.00000357,0.00010527
 ,0.00002106,-0.00051902,-0.00028381,-0.00000653,0.00050611,0.00026896,
 0.00011599,0.00033587,0.00048747,0.00026756,0.00027283,-0.00012805,-0.
 00029730,0.00064021,-0.00062105,0.00019389,0.00014186,0.00026254,-0.00
 026936,-0.00003177,-0.00002264,-0.00004380,0.00062600,0.00089784,0.000
 35054,-0.00008630,-0.00000573,0.00004864,-0.00011670,0.00011837,-0.000
 02623,-0.00004079,0.00000523,0.00007674,-0.00011897,0.00131424,0.00066
 375,-0.00021364,-0.00064792,-0.00000877,-0.00023980,-0.00032190,0.0000
 3554,0.00007020,-0.00017027,0.00002985,-0.00000819,0.00002953,0.000016
 81,-0.00002463,-0.00000426,-0.00001284,-0.00007428,0.00014931,0.000271
 42,0.00011271,0.00009301,-0.00012662,-0.00013151,-0.00002851,-0.000391
 33,-0.00019406,0.00006668,-0.00022676,-0.00026460,0.00004844,-0.000009
 47,0.00077405,0.00025270,-0.00011740,0.00012023,-0.00039673,-0.0000859
 9,0.00149273,-0.00011397,0.00228992,0.00025564,0.00039591,-0.00027124,
 -0.00002339,-0.00028582,0.00012313,-0.00008439,-0.00001632,-0.00005864
 ,0.00010188,-0.00000346,0.00011876,-0.00002628,0.00002599,-0.00076641,
 -0.00001902,0.00001169,0.00001857,0.00001324,-0.00006719,-0.00000821,-
 0.00094657,0.00041834,-0.00411919,-0.00018118,0.00025170,-0.00017439,-
 0.00074659,0.00001854,0.00036398,0.00024685,0.00006434,-0.00017009,-0.
 00006877,-0.00003226,-0.00000944,0.00000042,0.00001583,0.00001550,-0.0
 0029803,-0.00000042,0.00011556,0.00009134,-0.00005842,-0.00006415,-0.0
 0090852,0.00048226,0.00040008,0.00003663,-0.00009352,0.00010852,0.0003
 4738,-0.00019837,-0.00019692,0.00002133,0.00006445,-0.00004055,-0.0000
 5331,0.00002531,0.00007009,0.00010717,0.00008692,-0.00014062,0.0000211
 2,-0.00003065,0.00011533,-0.00002812,-0.00005185,0.00006376,-0.0003232
 6,-0.00013434,-0.00006218,0.00012845,0.00001337,0.00010747,-0.00004045
 ,-0.00003629,-0.00026465,0.00111112,-0.00099559,-0.00061106,0.00000824
 ,0.00085228,-0.00098917,0.00058254,-0.00019788,0.00048056,-0.02134509,
 -0.00678346,0.00787184,-0.00094998,0.00373468,0.00023168,0.00122628,-0
 .00037740,0.00010086,-0.30915833,-0.11365354,0.10589740,-0.00866003,-0
 .00469338,0.00301020,0.01008742,0.00239541,-0.00096694,0.32704117,-0.0
 0030200,0.00019453,-0.00035768,-0.00000199,-0.00024681,0.00111711,-0.0
 0027656,0.00014138,0.00017718,0.00001397,-0.00001322,0.00017816,0.0000
 3221,0.00002309,0.00007993,0.00012002,0.00000644,0.00012113,0.00002185
 ,0.00014842,-0.00014945,0.00005111,-0.00005716,-0.00003525,0.00005756,
 0.00010765,0.00003844,-0.00001045,0.00000037,-0.00001613,0.00007451,-0
 .00003728,0.00005999,-0.00000531,0.00000404,-0.00011483,-0.00000089,-0
 .00009125,-0.00019960,0.00031365,-0.00025811,0.00037532,0.00045308,0.0
 0121580,-0.00099222,0.00002508,0.00001775,0.00003946,-0.00001991,-0.00
 000507,-0.00000931,-0.00000333,0.00001288,-0.00000669,-0.00008244,0.00
 006701,-0.00007881,0.00001805,-0.00000322,-0.00002813,0.00000150,-0.00
 000706,0.00005940,0.00001254,0.00000802,0.00001241,0.00006143,-0.00001
 503,0.00006826,0.00016528,0.00005192,0.00024833,-0.00036926,0.00067754
 ,-0.00107111,0.00104372,-0.00137613,0.00087761,-0.00016121,-0.00055755
 ,-0.00033979,-0.00030599,0.00001328,-0.00026520,0.00007828,-0.00023011
 ,0.00001808,-0.00001719,0.00003363,0.00029421,0.00029679,-0.00003387,-
 0.00148771,0.00006004,0.00014917,-0.00000926,0.00004480,0.00002704,0.0
 0001378,0.00001125,-0.00001554,-0.00003869,0.00073483,-0.00068016,-0.0
 0062492,-0.00057368,0.00013642,-0.00003975,0.00006887,-0.00056420,0.00
 041458,-0.00011962,0.00009347,-0.00002854,0.00002036,-0.00000691,0.000
 02053,0.00000681,-0.00001099,0.00000056,0.00006687,-0.00013996,0.00011
 492,0.00000715,0.00011618,-0.00009560,-0.00000802,0.00000825,-0.000232
 31,0.00004272,-0.00017115,0.00009689,0.00004416,-0.00033054,-0.0001291
 5,0.00007737,0.00015969,0.00025481,-0.00029744,0.00015995,0.00026662,0
 .00036877,-0.00018360,0.00044867,0.00005152,0.00044353,-0.00026583,-0.
 00014415,0.00012567,-0.00006135,-0.00000354,-0.00001654,-0.00000484,0.
 00011886,-0.00016042,0.00006532,-0.00001251,-0.00002754,-0.00017284,0.
 00001421,-0.00000898,0.00001865,-0.00009952,0.00001291,-0.00004423,0.0
 0000529,-0.00147871,-0.00031063,0.00009286,-0.00004973,-0.00015373,0.0
 0001126,-0.00015836,-0.00014744,0.00000377,0.00001996,-0.00003822,-0.0
 0000203,-0.00001017,0.00000842,-0.00000315,-0.00002131,-0.00002924,0.0
 0001002,-0.00013348,0.00004121,-0.00002066,0.00012824,0.00003896,0.000
 55193,0.00070295,-0.00068304,0.00000842,0.00000965,0.00001534,0.000021
 69,0.00014107,0.00011015,-0.00002171,-0.00007969,-0.00001400,-0.000011
 03,-0.00003022,-0.00003000,0.00004985,-0.00007138,0.00000359,-0.000015
 86,-0.00000349,-0.00003017,0.00001969,-0.00001030,0.00002403,-0.000309
 71,0.00007528,0.00046925,-0.00013003,-0.00017781,-0.00020936,-0.000038
 23,-0.00010253,-0.00020883,0.00081476,0.00214519,-0.00108113,-0.000925
 71,-0.00097164,0.00094984,-0.00051413,-0.00013095,-0.00009228,0.024768
 80,0.01400412,-0.01063459,0.00408291,-0.00425581,-0.00040250,-0.000136
 30,0.00043644,-0.00062824,-0.11256967,-0.11117234,0.04952710,-0.021592
 90,-0.00731888,0.01382049,-0.01276668,-0.00602275,0.00107970,0.1168523
 6,0.11562905,0.00014855,-0.00017983,-0.00005452,-0.00008262,0.00012345
 ,-0.00019495,0.00012760,0.00023011,-0.00025835,0.00024335,0.00044530,-
 0.00048983,-0.00019730,0.00015214,0.00002936,0.00000086,0.00002694,0.0
 0001027,-0.00001546,-0.00006687,0.00004335,-0.00009757,-0.00001781,-0.
 00000189,-0.00023051,-0.00011765,0.00003037,-0.00000672,0.00000539,0.0
 0000242,-0.00006551,0.00004904,0.00011348,0.00011279,-0.00023785,0.000
 06184,0.00002394,-0.00015548,0.00025305,-0.00063338,0.00004195,-0.0007
 0569,0.00012352,-0.00099476,-0.00050973,-0.00008579,0.00004210,0.00021
 126,-0.00000648,-0.00000290,-0.00002143,0.00000958,-0.00001003,-0.0000
 3505,0.00002446,0.00002702,-0.00026440,-0.00000859,0.00000125,0.000013
 93,-0.00001497,0.00004711,0.00001221,-0.00005223,0.00002160,-0.0000242
 2,0.00009653,0.00020743,-0.00020412,0.00042199,0.00038681,-0.00011163,
 -0.00051339,-0.00033816,0.00001542,0.00080239,-0.00081650,0.00051011,-
 0.00044867,0.00021637,0.00102304,-0.00026423,0.00012187,-0.00047762,-0
 .00022161,-0.00037489,0.00031100,-0.00001108,0.00008700,0.00010184,0.0
 0019010,-0.00119819,-0.00041908,0.00012252,0.00000003,-0.00018055,0.00
 006757,0.00000467,0.00000826,0.00002809,0.00001972,-0.00008555,0.00049
 868,-0.00128305,-0.00141449,-0.00036602,0.00050242,-0.00064101,-0.0000
 1736,0.00057803,-0.00016895,0.00004222,0.00001087,-0.00000897,-0.00002
 094,-0.00001345,-0.00001890,0.00002941,0.00001561,0.00000281,0.0000033
 1,0.00005668,-0.00029410,-0.00013051,-0.00017409,0.00014335,0.00012343
 ,-0.00019808,0.00028373,0.00004988,-0.00013236,0.00017722,0.00010567,0
 .00009173,0.00016523,-0.00029004,-0.00012812,-0.00022866,0.00023135,0.
 00032934,-0.00022750,-0.00070110,0.00006510,-0.00198376,0.00040124,-0.
 00040820,0.00002209,-0.00007909,0.00013808,-0.00013650,0.00004637,-0.0
 0000960,0.00006365,-0.00009527,0.00020459,-0.00000853,-0.00004237,-0.0
 0003482,0.00062099,-0.00000070,-0.00000780,0.00004150,-0.00021408,-0.0
 0014642,-0.00014495,-0.00195320,0.00018735,0.00173094,-0.00012847,-0.0
 0031191,0.00026714,0.00043366,-0.00010268,0.00012809,-0.00013576,-0.00
 008794,0.00006270,0.00005205,0.00002390,0.00002631,-0.00000936,-0.0000
 0423,-0.00000682,0.00022026,0.00013867,0.00000675,-0.00008670,-0.00007
 257,-0.00008435,0.00024386,-0.00054620,0.00104351,-0.00000753,0.000064
 87,-0.00008898,-0.00032492,0.00021848,0.00002413,0.00000431,0.00002013
 ,0.00000205,0.00004888,-0.00001944,0.00001572,0.00009825,-0.00012140,-
 0.00009697,-0.00000688,0.00002107,-0.00002983,0.00003920,-0.00002826,0
 .00004147,-0.00017436,0.00035135,-0.00008647,0.00028610,-0.00002287,0.
 00003649,-0.00014152,-0.00025847,-0.00006539,-0.00209111,-0.00081300,0
 .00122950,0.00061463,0.00034522,0.00001859,0.00024770,0.00015640,-0.00
 036374,0.00195836,-0.00139883,-0.00063840,-0.00071931,-0.00003502,0.00
 039951,0.00052752,-0.00002496,-0.00062967,0.10398348,0.04919658,-0.103
 96045,-0.02078345,-0.00471336,0.01230495,0.03036304,0.01061012,-0.0069
 6976,-0.11172051,-0.04997584,0.10072614\\-0.00000624,0.00000556,-0.000
 01196,-0.00000115,-0.00001733,0.00003939,0.00000776,-0.00002129,0.0000
 0155,0.00000779,-0.00001178,-0.00000284,-0.00001059,0.00000356,0.00000
 191,0.00000728,0.00000438,0.00000594,0.00000573,0.00000151,-0.00000769
 ,-0.00000015,0.00000431,-0.00000061,-0.00000584,-0.00000491,0.00000538
 ,-0.00000045,-0.00000672,-0.00000626,-0.00000034,-0.00000863,-0.000000
 56,-0.00001452,-0.00001033,-0.00000709,-0.00001093,-0.00002314,0.00000
 116,-0.00000166,0.00001583,0.00000278,0.00000810,-0.00000447,-0.000024
 05,0.00000099,-0.00000474,0.00002856,-0.00000504,-0.00000145,-0.000005
 03,-0.00000197,0.00000387,-0.00001039,-0.00000366,-0.00001369,-0.00001
 471,-0.00000371,0.00001073,-0.00000141,0.00000844,-0.00000129,0.000002
 41,-0.00000602,0.00000819,-0.00000529,-0.00000242,-0.00001678,0.000000
 55,-0.00001508,0.00002053,0.00000610,0.00002474,-0.00002290,0.00002332
 ,0.00000662,0.00000725,-0.00000827,-0.00000950,0.00001839,-0.00000425,
 0.00004192,-0.00004333,-0.00000045,-0.00000251,-0.00001104,0.00000038,
 -0.00001051,0.00000402,-0.00000404,0.00000186,-0.00000638,-0.00000369,
 -0.00000116,0.00000021,-0.00000815,-0.00000056,0.00001301,-0.00000273,
 0.00000233,0.00000677,-0.00000474,-0.00003254,0.00005280,-0.00000333,-
 0.00000301,-0.00000954,-0.00000353,0.00001126,-0.00000045,0.00000257,0
 .00001526,0.00000624,-0.00000097,-0.00000501,-0.00000024,-0.00000015,0
 .00000418,0.00000434,-0.00000146,-0.00000836,-0.00002396,-0.00001311,0
 .00001343,0.00002157,0.00001088,-0.00000379,-0.00000829,-0.00000487,0.
 00000433,0.00000663,0.00000578,-0.00001052,-0.00001652,-0.00001361,-0.
 00000271,0.00002947,0.00003209,-0.00000352,-0.00001394,-0.00000092,0.0
 0001016,0.00000479,-0.00004181,-0.00000909,0.00002294,-0.00000950,0.00
 000696,0.00001887,0.00001348,0.00000425,-0.00000114,0.00000542,0.00000
 179,-0.00000442,-0.00000023,-0.00000887,-0.00000356,0.00001361,-0.0000
 0019,0.00000102,0.00000513,0.00000952,0.00000637,-0.00000169,-0.000011
 92,-0.00001199,0.00003609,0.00000090,0.00001228,-0.00001873,0.00001415
 ,-0.00000110,-0.00003257,0.00002233,0.00000139,0.00000123,0.00000155,0
 .00000305,0.00000463,-0.00000351,0.00000910,-0.00000287,-0.00000623,0.
 00001423,0.00001518,-0.00000056,-0.00000345,-0.00001672,-0.00000463,0.
 00001001,-0.00000743,0.00000237,0.00000669,0.00001994,-0.00000956,0.00
 000757,0.00002161,-0.00000209,-0.00000221,0.00000133,0.00000155,-0.000
 00304,0.00000651,0.00000180,0.00000159,-0.00000239,0.00000346,0.000003
 15,0.00000292,0.00000132,-0.00000169,0.00000285,-0.00000121,0.00000227
 ,0.00000130,0.00000181,0.00000148,-0.00000309,-0.00000270,0.00000255,0
 .00000102,0.,-0.00000558,-0.00000132,-0.00000383,-0.00000151,0.0000039
 8,0.00000007,-0.00000320,0.00000065,-0.00000924,0.00000990,0.00000665,
 0.00000198,-0.00000126,-0.00000315,-0.00000354,-0.00000625,-0.00000107
 ,0.00001611,-0.00002167,0.00002455,-0.00000508,-0.00002315,-0.00002804
 ,0.00000675,0.00001445,-0.00002261,-0.00001510,-0.00000451,0.00001052\
 \\@


 We find comfort among those who agree with us -- growth among those who don't.
 -- Frank A. Clark
 Job cpu time:      21 days  2 hours  0 minutes 34.8 seconds.
 File lengths (MBytes):  RWF=  23804 Int=      0 D2E=      0 Chk=     99 Scr=      1
 Normal termination of Gaussian 09 at Sat Apr 30 05:40:43 2016.
