 Entering Gaussian System, Link 0=g09
 Initial command:
 /share/apps//g09/l1.exe "/scratch/Gau-12333.inp" -scrdir="/scratch/"
 Entering Link 1 = /share/apps//g09/l1.exe PID=     12334.
  
 Copyright (c) 1988,1990,1992,1993,1995,1998,2003,2009,2013,
            Gaussian, Inc.  All Rights Reserved.
  
 This is part of the Gaussian(R) 09 program.  It is based on
 the Gaussian(R) 03 system (copyright 2003, Gaussian, Inc.),
 the Gaussian(R) 98 system (copyright 1998, Gaussian, Inc.),
 the Gaussian(R) 94 system (copyright 1995, Gaussian, Inc.),
 the Gaussian 92(TM) system (copyright 1992, Gaussian, Inc.),
 the Gaussian 90(TM) system (copyright 1990, Gaussian, Inc.),
 the Gaussian 88(TM) system (copyright 1988, Gaussian, Inc.),
 the Gaussian 86(TM) system (copyright 1986, Carnegie Mellon
 University), and the Gaussian 82(TM) system (copyright 1983,
 Carnegie Mellon University). Gaussian is a federally registered
 trademark of Gaussian, Inc.
  
 This software contains proprietary and confidential information,
 including trade secrets, belonging to Gaussian, Inc.
  
 This software is provided under written license and may be
 used, copied, transmitted, or stored only in accord with that
 written license.
  
 The following legend is applicable only to US Government
 contracts under FAR:
  
                    RESTRICTED RIGHTS LEGEND
  
 Use, reproduction and disclosure by the US Government is
 subject to restrictions as set forth in subparagraphs (a)
 and (c) of the Commercial Computer Software - Restricted
 Rights clause in FAR 52.227-19.
  
 Gaussian, Inc.
 340 Quinnipiac St., Bldg. 40, Wallingford CT 06492
  
  
 ---------------------------------------------------------------
 Warning -- This program may not be used in any manner that
 competes with the business of Gaussian, Inc. or will provide
 assistance to any competitor of Gaussian, Inc.  The licensee
 of this program is prohibited from giving any competitor of
 Gaussian, Inc. access to this program.  By using this program,
 the user acknowledges that Gaussian, Inc. is engaged in the
 business of creating and licensing software in the field of
 computational chemistry and represents and warrants to the
 licensee that it is not a competitor of Gaussian, Inc. and that
 it will not use this program in any manner prohibited above.
 ---------------------------------------------------------------
  

 Cite this work as:
 Gaussian 09, Revision D.01,
 M. J. Frisch, G. W. Trucks, H. B. Schlegel, G. E. Scuseria, 
 M. A. Robb, J. R. Cheeseman, G. Scalmani, V. Barone, B. Mennucci, 
 G. A. Petersson, H. Nakatsuji, M. Caricato, X. Li, H. P. Hratchian, 
 A. F. Izmaylov, J. Bloino, G. Zheng, J. L. Sonnenberg, M. Hada, 
 M. Ehara, K. Toyota, R. Fukuda, J. Hasegawa, M. Ishida, T. Nakajima, 
 Y. Honda, O. Kitao, H. Nakai, T. Vreven, J. A. Montgomery, Jr., 
 J. E. Peralta, F. Ogliaro, M. Bearpark, J. J. Heyd, E. Brothers, 
 K. N. Kudin, V. N. Staroverov, T. Keith, R. Kobayashi, J. Normand, 
 K. Raghavachari, A. Rendell, J. C. Burant, S. S. Iyengar, J. Tomasi, 
 M. Cossi, N. Rega, J. M. Millam, M. Klene, J. E. Knox, J. B. Cross, 
 V. Bakken, C. Adamo, J. Jaramillo, R. Gomperts, R. E. Stratmann, 
 O. Yazyev, A. J. Austin, R. Cammi, C. Pomelli, J. W. Ochterski, 
 R. L. Martin, K. Morokuma, V. G. Zakrzewski, G. A. Voth, 
 P. Salvador, J. J. Dannenberg, S. Dapprich, A. D. Daniels, 
 O. Farkas, J. B. Foresman, J. V. Ortiz, J. Cioslowski, 
 and D. J. Fox, Gaussian, Inc., Wallingford CT, 2013.
 
 ******************************************
 Gaussian 09:  EM64L-G09RevD.01 24-Apr-2013
                27-Apr-2016 
 ******************************************
 %nproc=20
 Will use up to   20 processors via shared memory.
 %mem=80GB
 %chk=Tri_A131_of.chk
 ----------------------------------------------------------------------
 #P PBE1PBE/6-311+G(d,p) opt=ModRedundant freq optcyc=999 EmpiricalDisp
 ersion=GD3
 ----------------------------------------------------------------------
 1/6=999,14=-1,18=120,19=15,26=3,38=1/1,3;
 2/9=110,12=2,17=6,18=5,40=1/2;
 3/5=4,6=6,7=111,11=2,16=1,25=1,30=1,71=1,74=-13,124=31/1,2,3;
 4//1;
 5/5=2,38=5/2;
 6/7=2,8=2,9=2,10=2,28=1/1;
 7//1,2,3,16;
 1/6=999,14=-1,18=20,19=15,26=3/3(2);
 2/9=110/2;
 99//99;
 2/9=110/2;
 3/5=4,6=6,7=111,11=2,16=1,25=1,30=1,71=1,74=-13,124=31/1,2,3;
 4/5=5,16=3,69=1/1;
 5/5=2,38=5/2;
 7//1,2,3,16;
 1/6=999,14=-1,18=20,19=15,26=3/3(-5);
 2/9=110/2;
 6/7=2,8=2,9=2,10=2,19=2,28=1/1;
 99/9=1/99;
 Leave Link    1 at Wed Apr 27 22:00:18 2016, MaxMem= 10737418240 cpu:         2.2
 (Enter /share/apps//g09/l101.exe)
 -----
 trich
 -----
 Symbolic Z-matrix:
 Charge =  1 Multiplicity = 1
 O                    -0.56816  -0.31749   7.44326 
 C                    -1.19824  -0.90018   6.32931 
 C                    -0.25552  -1.05081   5.12557 
 C                     0.98969  -1.84203   5.54502 
 C                     1.64274  -1.20207   6.77473 
 C                     0.6013   -1.03236   7.89399 
 H                    -2.02927  -0.22293   6.08498 
 H                     0.05823  -0.03484   4.83194 
 H                     0.70895  -2.88391   5.75924 
 H                     2.42886  -1.8888    7.15235 
 H                     0.30494  -2.046     8.224 
 O                     2.23744   0.00534   6.29937 
 O                     1.95734  -1.91459   4.47917 
 O                    -0.91412  -1.68733   4.02357 
 O                    -1.70221  -2.21672   6.60114 
 C                     1.12483  -0.32062   9.13146 
 H                     0.28616  -0.17833   9.83267 
 H                     1.88195  -0.96777   9.60896 
 O                     1.69424   0.94618   8.7577 
 H                     2.01058   1.40384   9.55351 
 H                     2.28738   0.62707   7.05886 
 H                     2.4207   -1.05124   4.47468 
 H                    -1.8675   -1.76302   4.26169 
 O                    -3.31662  -4.68715   6.04637 
 C                    -3.06714  -4.83276   7.4648 
 C                    -3.0247   -3.43665   8.17858 
 C                    -3.00159  -2.25107   7.19867 
 C                    -4.11185  -2.36185   6.11106 
 C                    -4.46354  -3.83923   5.83722 
 H                    -3.91425  -5.3932    7.89962 
 H                    -2.11222  -3.38987   8.79086 
 H                    -3.15741  -1.33865   7.79372 
 H                    -5.01512  -1.86004   6.49181 
 H                    -5.25627  -4.13429   6.54866 
 O                    -3.64945  -1.67391   4.93456 
 O                    -4.20238  -3.26311   8.97743 
 O                    -1.96725  -5.67524   7.65037 
 C                    -4.94108  -4.11459   4.4101 
 H                    -4.06901  -4.14379   3.73267 
 H                    -5.43944  -5.0952    4.37539 
 O                    -5.84206  -3.05477   4.04794 
 H                    -6.35607  -3.32755   3.27042 
 H                    -4.41745  -1.6667    4.32527 
 H                    -4.07125  -3.71822   9.8262 
 O                     1.11018  -5.82807   5.63767 
 C                     2.08756  -6.03476   6.67489 
 C                     1.76566  -5.10853   7.84744 
 C                     0.32125  -5.28481   8.32862 
 C                    -0.67709  -5.24414   7.16872 
 C                    -0.20285  -6.21571   6.06329 
 H                     2.05704  -7.10172   6.98826 
 H                     1.89668  -4.07574   7.47515 
 H                     0.23427  -6.27484   8.81694 
 H                    -0.18019  -7.24136   6.48737 
 H                    -0.73945  -4.22157   6.76636 
 O                    -0.01161  -4.25575   9.26749 
 O                     2.59608  -5.34668   8.98202 
 O                     3.33611  -5.67853   6.18322 
 C                    -1.0838   -6.27091   4.82277 
 H                    -0.61177  -6.94056   4.09038 
 H                    -2.06844  -6.68048   5.08834 
 O                    -1.23864  -4.9957    4.18074 
 H                    -1.87787  -4.49446   4.7358 
 H                     0.61306  -4.3525    10.00924 
 H                     3.51929  -5.20111   8.70708 
 C                     3.87559  -6.58779   5.18612 
 H                     4.63503  -7.22129   5.67245 
 H                     3.069    -7.23882   4.81614 
 C                     4.50037  -5.78227   4.05275 
 H                     4.93802  -6.49891   3.33718 
 H                     5.34275  -5.20203   4.46031 
 C                     3.54281  -4.81733   3.33637 
 H                     3.13871  -4.12255   4.08778 
 H                     4.13294  -4.20575   2.63351 
 C                     2.40298  -5.5027    2.56932 
 H                     2.81965  -6.19766   1.82184 
 H                     1.79275  -6.10858   3.25661 
 C                     1.48591  -4.54402   1.81231 
 H                     0.75313  -5.09744   1.20979 
 H                     2.05912  -3.8934    1.13597 
 N                     0.71044  -3.65132   2.73653 
 H                     0.09089  -2.99969   2.23875 
 H                     1.32504  -3.03047   3.32079 
 H                     0.07243  -4.19086   3.38411 
 
 The following ModRedundant input section has been read:
 B      45      84 B                                                           
 B      58      84 B                                                           
 B      56      84 B                                                           
 B      41      82 B                                                           
 B      62      82 B                                                           
 B      35      82 B                                                           
 B      13      83 B                                                           
 B      19      83 B                                                           
 B      14      83 B                                                           
 
 NAtoms=     84 NQM=       84 NQMF=       0 NMMI=      0 NMMIF=      0
                NMic=       0 NMicF=      0.
                    Isotopes and Nuclear Properties:
 (Nuclear quadrupole moments (NQMom) in fm**2, nuclear magnetic moments (NMagM)
  in nuclear magnetons)

  Atom         1           2           3           4           5           6           7           8           9          10
 IAtWgt=          16          12          12          12          12          12           1           1           1           1
 AtmWgt=  15.9949146  12.0000000  12.0000000  12.0000000  12.0000000  12.0000000   1.0078250   1.0078250   1.0078250   1.0078250
 NucSpn=           0           0           0           0           0           0           1           1           1           1
 AtZEff=   0.0000000   0.0000000   0.0000000   0.0000000   0.0000000   0.0000000   0.0000000   0.0000000   0.0000000   0.0000000
 NQMom=    0.0000000   0.0000000   0.0000000   0.0000000   0.0000000   0.0000000   0.0000000   0.0000000   0.0000000   0.0000000
 NMagM=    0.0000000   0.0000000   0.0000000   0.0000000   0.0000000   0.0000000   2.7928460   2.7928460   2.7928460   2.7928460
 AtZNuc=   8.0000000   6.0000000   6.0000000   6.0000000   6.0000000   6.0000000   1.0000000   1.0000000   1.0000000   1.0000000

  Atom        11          12          13          14          15          16          17          18          19          20
 IAtWgt=           1          16          16          16          16          12           1           1          16           1
 AtmWgt=   1.0078250  15.9949146  15.9949146  15.9949146  15.9949146  12.0000000   1.0078250   1.0078250  15.9949146   1.0078250
 NucSpn=           1           0           0           0           0           0           1           1           0           1
 AtZEff=   0.0000000   0.0000000   0.0000000   0.0000000   0.0000000   0.0000000   0.0000000   0.0000000   0.0000000   0.0000000
 NQMom=    0.0000000   0.0000000   0.0000000   0.0000000   0.0000000   0.0000000   0.0000000   0.0000000   0.0000000   0.0000000
 NMagM=    2.7928460   0.0000000   0.0000000   0.0000000   0.0000000   0.0000000   2.7928460   2.7928460   0.0000000   2.7928460
 AtZNuc=   1.0000000   8.0000000   8.0000000   8.0000000   8.0000000   6.0000000   1.0000000   1.0000000   8.0000000   1.0000000

  Atom        21          22          23          24          25          26          27          28          29          30
 IAtWgt=           1           1           1          16          12          12          12          12          12           1
 AtmWgt=   1.0078250   1.0078250   1.0078250  15.9949146  12.0000000  12.0000000  12.0000000  12.0000000  12.0000000   1.0078250
 NucSpn=           1           1           1           0           0           0           0           0           0           1
 AtZEff=   0.0000000   0.0000000   0.0000000   0.0000000   0.0000000   0.0000000   0.0000000   0.0000000   0.0000000   0.0000000
 NQMom=    0.0000000   0.0000000   0.0000000   0.0000000   0.0000000   0.0000000   0.0000000   0.0000000   0.0000000   0.0000000
 NMagM=    2.7928460   2.7928460   2.7928460   0.0000000   0.0000000   0.0000000   0.0000000   0.0000000   0.0000000   2.7928460
 AtZNuc=   1.0000000   1.0000000   1.0000000   8.0000000   6.0000000   6.0000000   6.0000000   6.0000000   6.0000000   1.0000000

  Atom        31          32          33          34          35          36          37          38          39          40
 IAtWgt=           1           1           1           1          16          16          16          12           1           1
 AtmWgt=   1.0078250   1.0078250   1.0078250   1.0078250  15.9949146  15.9949146  15.9949146  12.0000000   1.0078250   1.0078250
 NucSpn=           1           1           1           1           0           0           0           0           1           1
 AtZEff=   0.0000000   0.0000000   0.0000000   0.0000000   0.0000000   0.0000000   0.0000000   0.0000000   0.0000000   0.0000000
 NQMom=    0.0000000   0.0000000   0.0000000   0.0000000   0.0000000   0.0000000   0.0000000   0.0000000   0.0000000   0.0000000
 NMagM=    2.7928460   2.7928460   2.7928460   2.7928460   0.0000000   0.0000000   0.0000000   0.0000000   2.7928460   2.7928460
 AtZNuc=   1.0000000   1.0000000   1.0000000   1.0000000   8.0000000   8.0000000   8.0000000   6.0000000   1.0000000   1.0000000

  Atom        41          42          43          44          45          46          47          48          49          50
 IAtWgt=          16           1           1           1          16          12          12          12          12          12
 AtmWgt=  15.9949146   1.0078250   1.0078250   1.0078250  15.9949146  12.0000000  12.0000000  12.0000000  12.0000000  12.0000000
 NucSpn=           0           1           1           1           0           0           0           0           0           0
 AtZEff=   0.0000000   0.0000000   0.0000000   0.0000000   0.0000000   0.0000000   0.0000000   0.0000000   0.0000000   0.0000000
 NQMom=    0.0000000   0.0000000   0.0000000   0.0000000   0.0000000   0.0000000   0.0000000   0.0000000   0.0000000   0.0000000
 NMagM=    0.0000000   2.7928460   2.7928460   2.7928460   0.0000000   0.0000000   0.0000000   0.0000000   0.0000000   0.0000000
 AtZNuc=   8.0000000   1.0000000   1.0000000   1.0000000   8.0000000   6.0000000   6.0000000   6.0000000   6.0000000   6.0000000

  Atom        51          52          53          54          55          56          57          58          59          60
 IAtWgt=           1           1           1           1           1          16          16          16          12           1
 AtmWgt=   1.0078250   1.0078250   1.0078250   1.0078250   1.0078250  15.9949146  15.9949146  15.9949146  12.0000000   1.0078250
 NucSpn=           1           1           1           1           1           0           0           0           0           1
 AtZEff=   0.0000000   0.0000000   0.0000000   0.0000000   0.0000000   0.0000000   0.0000000   0.0000000   0.0000000   0.0000000
 NQMom=    0.0000000   0.0000000   0.0000000   0.0000000   0.0000000   0.0000000   0.0000000   0.0000000   0.0000000   0.0000000
 NMagM=    2.7928460   2.7928460   2.7928460   2.7928460   2.7928460   0.0000000   0.0000000   0.0000000   0.0000000   2.7928460
 AtZNuc=   1.0000000   1.0000000   1.0000000   1.0000000   1.0000000   8.0000000   8.0000000   8.0000000   6.0000000   1.0000000

  Atom        61          62          63          64          65          66          67          68          69          70
 IAtWgt=           1          16           1           1           1          12           1           1          12           1
 AtmWgt=   1.0078250  15.9949146   1.0078250   1.0078250   1.0078250  12.0000000   1.0078250   1.0078250  12.0000000   1.0078250
 NucSpn=           1           0           1           1           1           0           1           1           0           1
 AtZEff=   0.0000000   0.0000000   0.0000000   0.0000000   0.0000000   0.0000000   0.0000000   0.0000000   0.0000000   0.0000000
 NQMom=    0.0000000   0.0000000   0.0000000   0.0000000   0.0000000   0.0000000   0.0000000   0.0000000   0.0000000   0.0000000
 NMagM=    2.7928460   0.0000000   2.7928460   2.7928460   2.7928460   0.0000000   2.7928460   2.7928460   0.0000000   2.7928460
 AtZNuc=   1.0000000   8.0000000   1.0000000   1.0000000   1.0000000   6.0000000   1.0000000   1.0000000   6.0000000   1.0000000

  Atom        71          72          73          74          75          76          77          78          79          80
 IAtWgt=           1          12           1           1          12           1           1          12           1           1
 AtmWgt=   1.0078250  12.0000000   1.0078250   1.0078250  12.0000000   1.0078250   1.0078250  12.0000000   1.0078250   1.0078250
 NucSpn=           1           0           1           1           0           1           1           0           1           1
 AtZEff=   0.0000000   0.0000000   0.0000000   0.0000000   0.0000000   0.0000000   0.0000000   0.0000000   0.0000000   0.0000000
 NQMom=    0.0000000   0.0000000   0.0000000   0.0000000   0.0000000   0.0000000   0.0000000   0.0000000   0.0000000   0.0000000
 NMagM=    2.7928460   0.0000000   2.7928460   2.7928460   0.0000000   2.7928460   2.7928460   0.0000000   2.7928460   2.7928460
 AtZNuc=   1.0000000   6.0000000   1.0000000   1.0000000   6.0000000   1.0000000   1.0000000   6.0000000   1.0000000   1.0000000

  Atom        81          82          83          84
 IAtWgt=          14           1           1           1
 AtmWgt=  14.0030740   1.0078250   1.0078250   1.0078250
 NucSpn=           2           1           1           1
 AtZEff=   0.0000000   0.0000000   0.0000000   0.0000000
 NQMom=    2.0440000   0.0000000   0.0000000   0.0000000
 NMagM=    0.4037610   2.7928460   2.7928460   2.7928460
 AtZNuc=   7.0000000   1.0000000   1.0000000   1.0000000
 Leave Link  101 at Wed Apr 27 22:00:19 2016, MaxMem= 10737418240 cpu:         4.8
 (Enter /share/apps//g09/l103.exe)

 GradGradGradGradGradGradGradGradGradGradGradGradGradGradGradGradGradGrad
 Berny optimization.
 Initialization pass.
                           ----------------------------
                           !    Initial Parameters    !
                           ! (Angstroms and Degrees)  !
 --------------------------                            --------------------------
 ! Name  Definition              Value          Derivative Info.                !
 --------------------------------------------------------------------------------
 ! R1    R(1,2)                  1.4062         estimate D2E/DX2                !
 ! R2    R(1,6)                  1.4429         estimate D2E/DX2                !
 ! R3    R(2,3)                  1.5364         estimate D2E/DX2                !
 ! R4    R(2,7)                  1.0995         estimate D2E/DX2                !
 ! R5    R(2,15)                 1.4357         estimate D2E/DX2                !
 ! R6    R(3,4)                  1.5338         estimate D2E/DX2                !
 ! R7    R(3,8)                  1.1031         estimate D2E/DX2                !
 ! R8    R(3,14)                 1.4329         estimate D2E/DX2                !
 ! R9    R(4,5)                  1.5324         estimate D2E/DX2                !
 ! R10   R(4,9)                  1.1001         estimate D2E/DX2                !
 ! R11   R(4,13)                 1.4414         estimate D2E/DX2                !
 ! R12   R(5,6)                  1.5382         estimate D2E/DX2                !
 ! R13   R(5,10)                 1.11           estimate D2E/DX2                !
 ! R14   R(5,12)                 1.4274         estimate D2E/DX2                !
 ! R15   R(6,11)                 1.1064         estimate D2E/DX2                !
 ! R16   R(6,16)                 1.5205         estimate D2E/DX2                !
 ! R17   R(12,21)                0.9828         estimate D2E/DX2                !
 ! R18   R(13,22)                0.9798         estimate D2E/DX2                !
 ! R19   R(13,83)                1.7282         estimate D2E/DX2                !
 ! R20   R(14,23)                0.9856         estimate D2E/DX2                !
 ! R21   R(14,83)                2.704          estimate D2E/DX2                !
 ! R22   R(15,27)                1.4306         estimate D2E/DX2                !
 ! R23   R(16,17)                1.1024         estimate D2E/DX2                !
 ! R24   R(16,18)                1.1046         estimate D2E/DX2                !
 ! R25   R(16,19)                1.4383         estimate D2E/DX2                !
 ! R26   R(19,20)                0.971          estimate D2E/DX2                !
 ! R27   R(19,83)                6.7461         estimate D2E/DX2                !
 ! R28   R(24,25)                1.4475         estimate D2E/DX2                !
 ! R29   R(24,29)                1.4416         estimate D2E/DX2                !
 ! R30   R(25,26)                1.5686         estimate D2E/DX2                !
 ! R31   R(25,30)                1.1049         estimate D2E/DX2                !
 ! R32   R(25,37)                1.3978         estimate D2E/DX2                !
 ! R33   R(26,27)                1.5383         estimate D2E/DX2                !
 ! R34   R(26,31)                1.0999         estimate D2E/DX2                !
 ! R35   R(26,36)                1.4336         estimate D2E/DX2                !
 ! R36   R(27,28)                1.5582         estimate D2E/DX2                !
 ! R37   R(27,32)                1.1004         estimate D2E/DX2                !
 ! R38   R(28,29)                1.5432         estimate D2E/DX2                !
 ! R39   R(28,33)                1.1012         estimate D2E/DX2                !
 ! R40   R(28,35)                1.4392         estimate D2E/DX2                !
 ! R41   R(29,34)                1.1053         estimate D2E/DX2                !
 ! R42   R(29,38)                1.5299         estimate D2E/DX2                !
 ! R43   R(35,43)                0.9804         estimate D2E/DX2                !
 ! R44   R(35,82)                4.7974         estimate D2E/DX2                !
 ! R45   R(36,44)                0.972          estimate D2E/DX2                !
 ! R46   R(37,49)                1.443          estimate D2E/DX2                !
 ! R47   R(38,39)                1.1047         estimate D2E/DX2                !
 ! R48   R(38,40)                1.1005         estimate D2E/DX2                !
 ! R49   R(38,41)                1.4374         estimate D2E/DX2                !
 ! R50   R(41,42)                0.9712         estimate D2E/DX2                !
 ! R51   R(41,82)                6.2029         estimate D2E/DX2                !
 ! R52   R(45,46)                1.4401         estimate D2E/DX2                !
 ! R53   R(45,50)                1.4337         estimate D2E/DX2                !
 ! R54   R(45,84)                2.9725         estimate D2E/DX2                !
 ! R55   R(46,47)                1.5285         estimate D2E/DX2                !
 ! R56   R(46,51)                1.1124         estimate D2E/DX2                !
 ! R57   R(46,58)                1.3884         estimate D2E/DX2                !
 ! R58   R(47,48)                1.5326         estimate D2E/DX2                !
 ! R59   R(47,52)                1.1056         estimate D2E/DX2                !
 ! R60   R(47,57)                1.426          estimate D2E/DX2                !
 ! R61   R(48,49)                1.5309         estimate D2E/DX2                !
 ! R62   R(48,53)                1.1073         estimate D2E/DX2                !
 ! R63   R(48,56)                1.4322         estimate D2E/DX2                !
 ! R64   R(49,50)                1.5462         estimate D2E/DX2                !
 ! R65   R(49,55)                1.1007         estimate D2E/DX2                !
 ! R66   R(50,54)                1.1101         estimate D2E/DX2                !
 ! R67   R(50,59)                1.5225         estimate D2E/DX2                !
 ! R68   R(56,64)                0.9746         estimate D2E/DX2                !
 ! R69   R(56,84)                5.8843         estimate D2E/DX2                !
 ! R70   R(57,65)                0.9742         estimate D2E/DX2                !
 ! R71   R(58,66)                1.4533         estimate D2E/DX2                !
 ! R72   R(58,84)                4.5497         estimate D2E/DX2                !
 ! R73   R(59,60)                1.0989         estimate D2E/DX2                !
 ! R74   R(59,61)                1.099          estimate D2E/DX2                !
 ! R75   R(59,62)                1.4361         estimate D2E/DX2                !
 ! R76   R(62,63)                0.9838         estimate D2E/DX2                !
 ! R77   R(62,82)                3.0859         estimate D2E/DX2                !
 ! R78   R(66,67)                1.1021         estimate D2E/DX2                !
 ! R79   R(66,68)                1.1006         estimate D2E/DX2                !
 ! R80   R(66,69)                1.5244         estimate D2E/DX2                !
 ! R81   R(69,70)                1.1032         estimate D2E/DX2                !
 ! R82   R(69,71)                1.1011         estimate D2E/DX2                !
 ! R83   R(69,72)                1.5366         estimate D2E/DX2                !
 ! R84   R(72,73)                1.1003         estimate D2E/DX2                !
 ! R85   R(72,74)                1.1029         estimate D2E/DX2                !
 ! R86   R(72,75)                1.5354         estimate D2E/DX2                !
 ! R87   R(75,76)                1.1024         estimate D2E/DX2                !
 ! R88   R(75,77)                1.1008         estimate D2E/DX2                !
 ! R89   R(75,78)                1.5275         estimate D2E/DX2                !
 ! R90   R(78,79)                1.0983         estimate D2E/DX2                !
 ! R91   R(78,80)                1.0997         estimate D2E/DX2                !
 ! R92   R(78,81)                1.5008         estimate D2E/DX2                !
 ! R93   R(81,82)                1.0277         estimate D2E/DX2                !
 ! R94   R(81,83)                1.051          estimate D2E/DX2                !
 ! R95   R(81,84)                1.0571         estimate D2E/DX2                !
 ! A1    A(2,1,6)              113.9119         estimate D2E/DX2                !
 ! A2    A(1,2,3)              112.7277         estimate D2E/DX2                !
 ! A3    A(1,2,7)              105.0377         estimate D2E/DX2                !
 ! A4    A(1,2,15)             112.7857         estimate D2E/DX2                !
 ! A5    A(3,2,7)              110.4904         estimate D2E/DX2                !
 ! A6    A(3,2,15)             105.8927         estimate D2E/DX2                !
 ! A7    A(7,2,15)             109.974          estimate D2E/DX2                !
 ! A8    A(2,3,4)              109.5402         estimate D2E/DX2                !
 ! A9    A(2,3,8)              107.0245         estimate D2E/DX2                !
 ! A10   A(2,3,14)             111.351          estimate D2E/DX2                !
 ! A11   A(4,3,8)              108.4812         estimate D2E/DX2                !
 ! A12   A(4,3,14)             110.7508         estimate D2E/DX2                !
 ! A13   A(8,3,14)             109.5806         estimate D2E/DX2                !
 ! A14   A(3,4,5)              110.4876         estimate D2E/DX2                !
 ! A15   A(3,4,9)              109.5501         estimate D2E/DX2                !
 ! A16   A(3,4,13)             111.6394         estimate D2E/DX2                !
 ! A17   A(5,4,9)              110.3657         estimate D2E/DX2                !
 ! A18   A(5,4,13)             109.1671         estimate D2E/DX2                !
 ! A19   A(9,4,13)             105.5236         estimate D2E/DX2                !
 ! A20   A(4,5,6)              109.9655         estimate D2E/DX2                !
 ! A21   A(4,5,10)             108.4475         estimate D2E/DX2                !
 ! A22   A(4,5,12)             105.2818         estimate D2E/DX2                !
 ! A23   A(6,5,10)             107.4696         estimate D2E/DX2                !
 ! A24   A(6,5,12)             115.5355         estimate D2E/DX2                !
 ! A25   A(10,5,12)            109.971          estimate D2E/DX2                !
 ! A26   A(1,6,5)              112.0931         estimate D2E/DX2                !
 ! A27   A(1,6,11)             109.2674         estimate D2E/DX2                !
 ! A28   A(1,6,16)             107.5409         estimate D2E/DX2                !
 ! A29   A(5,6,11)             107.2953         estimate D2E/DX2                !
 ! A30   A(5,6,16)             114.2495         estimate D2E/DX2                !
 ! A31   A(11,6,16)            106.1596         estimate D2E/DX2                !
 ! A32   A(5,12,21)            107.3935         estimate D2E/DX2                !
 ! A33   A(4,13,22)            106.0512         estimate D2E/DX2                !
 ! A34   A(4,13,83)            106.4106         estimate D2E/DX2                !
 ! A35   A(22,13,83)           137.6334         estimate D2E/DX2                !
 ! A36   A(3,14,23)            107.0321         estimate D2E/DX2                !
 ! A37   A(3,14,83)             92.288          estimate D2E/DX2                !
 ! A38   A(23,14,83)           145.6572         estimate D2E/DX2                !
 ! A39   A(2,15,27)            114.8307         estimate D2E/DX2                !
 ! A40   A(6,16,17)            108.4298         estimate D2E/DX2                !
 ! A41   A(6,16,18)            108.2754         estimate D2E/DX2                !
 ! A42   A(6,16,19)            109.7001         estimate D2E/DX2                !
 ! A43   A(17,16,18)           108.7908         estimate D2E/DX2                !
 ! A44   A(17,16,19)           110.6579         estimate D2E/DX2                !
 ! A45   A(18,16,19)           110.9164         estimate D2E/DX2                !
 ! A46   A(16,19,20)           109.3373         estimate D2E/DX2                !
 ! A47   A(16,19,83)            70.645          estimate D2E/DX2                !
 ! A48   A(20,19,83)           162.9777         estimate D2E/DX2                !
 ! A49   A(25,24,29)           109.7826         estimate D2E/DX2                !
 ! A50   A(24,25,26)           111.1635         estimate D2E/DX2                !
 ! A51   A(24,25,30)           107.729          estimate D2E/DX2                !
 ! A52   A(24,25,37)           109.0456         estimate D2E/DX2                !
 ! A53   A(26,25,30)           107.0456         estimate D2E/DX2                !
 ! A54   A(26,25,37)           117.0479         estimate D2E/DX2                !
 ! A55   A(30,25,37)           104.2006         estimate D2E/DX2                !
 ! A56   A(25,26,27)           113.36           estimate D2E/DX2                !
 ! A57   A(25,26,31)           108.2779         estimate D2E/DX2                !
 ! A58   A(25,26,36)           109.8212         estimate D2E/DX2                !
 ! A59   A(27,26,31)           108.0214         estimate D2E/DX2                !
 ! A60   A(27,26,36)           105.9029         estimate D2E/DX2                !
 ! A61   A(31,26,36)           111.48           estimate D2E/DX2                !
 ! A62   A(15,27,26)           107.3505         estimate D2E/DX2                !
 ! A63   A(15,27,28)           110.9378         estimate D2E/DX2                !
 ! A64   A(15,27,32)           109.5464         estimate D2E/DX2                !
 ! A65   A(26,27,28)           112.2804         estimate D2E/DX2                !
 ! A66   A(26,27,32)           107.005          estimate D2E/DX2                !
 ! A67   A(28,27,32)           109.6035         estimate D2E/DX2                !
 ! A68   A(27,28,29)           110.752          estimate D2E/DX2                !
 ! A69   A(27,28,33)           108.1031         estimate D2E/DX2                !
 ! A70   A(27,28,35)           107.92           estimate D2E/DX2                !
 ! A71   A(29,28,33)           108.1004         estimate D2E/DX2                !
 ! A72   A(29,28,35)           112.693          estimate D2E/DX2                !
 ! A73   A(33,28,35)           109.1696         estimate D2E/DX2                !
 ! A74   A(24,29,28)           110.858          estimate D2E/DX2                !
 ! A75   A(24,29,34)           108.6761         estimate D2E/DX2                !
 ! A76   A(24,29,38)           106.1297         estimate D2E/DX2                !
 ! A77   A(28,29,34)           107.7469         estimate D2E/DX2                !
 ! A78   A(28,29,38)           114.1414         estimate D2E/DX2                !
 ! A79   A(34,29,38)           109.1788         estimate D2E/DX2                !
 ! A80   A(28,35,43)           105.0629         estimate D2E/DX2                !
 ! A81   A(28,35,82)           125.2937         estimate D2E/DX2                !
 ! A82   A(43,35,82)           105.2818         estimate D2E/DX2                !
 ! A83   A(26,36,44)           108.6081         estimate D2E/DX2                !
 ! A84   A(25,37,49)           118.6283         estimate D2E/DX2                !
 ! A85   A(29,38,39)           109.2927         estimate D2E/DX2                !
 ! A86   A(29,38,40)           109.3383         estimate D2E/DX2                !
 ! A87   A(29,38,41)           107.3361         estimate D2E/DX2                !
 ! A88   A(39,38,40)           108.3364         estimate D2E/DX2                !
 ! A89   A(39,38,41)           111.0887         estimate D2E/DX2                !
 ! A90   A(40,38,41)           111.4189         estimate D2E/DX2                !
 ! A91   A(38,41,42)           109.0488         estimate D2E/DX2                !
 ! A92   A(38,41,82)            58.7016         estimate D2E/DX2                !
 ! A93   A(42,41,82)           105.9752         estimate D2E/DX2                !
 ! A94   A(46,45,50)           111.651          estimate D2E/DX2                !
 ! A95   A(46,45,84)           149.5466         estimate D2E/DX2                !
 ! A96   A(50,45,84)            93.11           estimate D2E/DX2                !
 ! A97   A(45,46,47)           108.8209         estimate D2E/DX2                !
 ! A98   A(45,46,51)           108.7797         estimate D2E/DX2                !
 ! A99   A(45,46,58)           108.5699         estimate D2E/DX2                !
 ! A100  A(47,46,51)           111.0583         estimate D2E/DX2                !
 ! A101  A(47,46,58)           107.7926         estimate D2E/DX2                !
 ! A102  A(51,46,58)           111.748          estimate D2E/DX2                !
 ! A103  A(46,47,48)           111.6921         estimate D2E/DX2                !
 ! A104  A(46,47,52)           106.4263         estimate D2E/DX2                !
 ! A105  A(46,47,57)           112.7366         estimate D2E/DX2                !
 ! A106  A(48,47,52)           108.9558         estimate D2E/DX2                !
 ! A107  A(48,47,57)           106.2489         estimate D2E/DX2                !
 ! A108  A(52,47,57)           110.7869         estimate D2E/DX2                !
 ! A109  A(47,48,49)           111.9415         estimate D2E/DX2                !
 ! A110  A(47,48,53)           108.3798         estimate D2E/DX2                !
 ! A111  A(47,48,56)           110.0111         estimate D2E/DX2                !
 ! A112  A(49,48,53)           107.8571         estimate D2E/DX2                !
 ! A113  A(49,48,56)           109.0275         estimate D2E/DX2                !
 ! A114  A(53,48,56)           109.576          estimate D2E/DX2                !
 ! A115  A(37,49,48)           108.7968         estimate D2E/DX2                !
 ! A116  A(37,49,50)           108.973          estimate D2E/DX2                !
 ! A117  A(37,49,55)           110.4209         estimate D2E/DX2                !
 ! A118  A(48,49,50)           108.963          estimate D2E/DX2                !
 ! A119  A(48,49,55)           109.7916         estimate D2E/DX2                !
 ! A120  A(50,49,55)           109.8647         estimate D2E/DX2                !
 ! A121  A(45,50,49)           108.859          estimate D2E/DX2                !
 ! A122  A(45,50,54)           110.1529         estimate D2E/DX2                !
 ! A123  A(45,50,59)           107.3279         estimate D2E/DX2                !
 ! A124  A(49,50,54)           108.282          estimate D2E/DX2                !
 ! A125  A(49,50,59)           115.3296         estimate D2E/DX2                !
 ! A126  A(54,50,59)           106.8328         estimate D2E/DX2                !
 ! A127  A(48,56,64)           106.179          estimate D2E/DX2                !
 ! A128  A(48,56,84)            49.396          estimate D2E/DX2                !
 ! A129  A(64,56,84)           138.8448         estimate D2E/DX2                !
 ! A130  A(47,57,65)           107.5987         estimate D2E/DX2                !
 ! A131  A(46,58,66)           114.5999         estimate D2E/DX2                !
 ! A132  A(46,58,84)            69.9201         estimate D2E/DX2                !
 ! A133  A(66,58,84)            92.7947         estimate D2E/DX2                !
 ! A134  A(50,59,60)           108.4562         estimate D2E/DX2                !
 ! A135  A(50,59,61)           109.5745         estimate D2E/DX2                !
 ! A136  A(50,59,62)           113.2324         estimate D2E/DX2                !
 ! A137  A(60,59,61)           108.59           estimate D2E/DX2                !
 ! A138  A(60,59,62)           106.8258         estimate D2E/DX2                !
 ! A139  A(61,59,62)           110.0207         estimate D2E/DX2                !
 ! A140  A(59,62,63)           105.6778         estimate D2E/DX2                !
 ! A141  A(59,62,82)           144.0217         estimate D2E/DX2                !
 ! A142  A(63,62,82)           107.7841         estimate D2E/DX2                !
 ! A143  A(58,66,67)           108.2209         estimate D2E/DX2                !
 ! A144  A(58,66,68)           109.1891         estimate D2E/DX2                !
 ! A145  A(58,66,69)           109.3688         estimate D2E/DX2                !
 ! A146  A(67,66,68)           108.2604         estimate D2E/DX2                !
 ! A147  A(67,66,69)           110.4512         estimate D2E/DX2                !
 ! A148  A(68,66,69)           111.2852         estimate D2E/DX2                !
 ! A149  A(66,69,70)           107.552          estimate D2E/DX2                !
 ! A150  A(66,69,71)           108.471          estimate D2E/DX2                !
 ! A151  A(66,69,72)           115.0268         estimate D2E/DX2                !
 ! A152  A(70,69,71)           106.1943         estimate D2E/DX2                !
 ! A153  A(70,69,72)           110.6542         estimate D2E/DX2                !
 ! A154  A(71,69,72)           108.5655         estimate D2E/DX2                !
 ! A155  A(69,72,73)           107.8793         estimate D2E/DX2                !
 ! A156  A(69,72,74)           108.1736         estimate D2E/DX2                !
 ! A157  A(69,72,75)           114.5331         estimate D2E/DX2                !
 ! A158  A(73,72,74)           106.3549         estimate D2E/DX2                !
 ! A159  A(73,72,75)           110.5119         estimate D2E/DX2                !
 ! A160  A(74,72,75)           109.0501         estimate D2E/DX2                !
 ! A161  A(72,75,76)           109.8497         estimate D2E/DX2                !
 ! A162  A(72,75,77)           110.2004         estimate D2E/DX2                !
 ! A163  A(72,75,78)           114.4028         estimate D2E/DX2                !
 ! A164  A(76,75,77)           106.6115         estimate D2E/DX2                !
 ! A165  A(76,75,78)           106.6512         estimate D2E/DX2                !
 ! A166  A(77,75,78)           108.7864         estimate D2E/DX2                !
 ! A167  A(75,78,79)           110.8671         estimate D2E/DX2                !
 ! A168  A(75,78,80)           111.2961         estimate D2E/DX2                !
 ! A169  A(75,78,81)           112.2311         estimate D2E/DX2                !
 ! A170  A(79,78,80)           107.9684         estimate D2E/DX2                !
 ! A171  A(79,78,81)           107.0261         estimate D2E/DX2                !
 ! A172  A(80,78,81)           107.2269         estimate D2E/DX2                !
 ! A173  A(78,81,82)           112.9763         estimate D2E/DX2                !
 ! A174  A(78,81,83)           113.0515         estimate D2E/DX2                !
 ! A175  A(78,81,84)           112.6748         estimate D2E/DX2                !
 ! A176  A(82,81,83)           104.3139         estimate D2E/DX2                !
 ! A177  A(82,81,84)           104.8613         estimate D2E/DX2                !
 ! A178  A(83,81,84)           108.294          estimate D2E/DX2                !
 ! A179  A(35,82,41)            24.8832         estimate D2E/DX2                !
 ! A180  A(35,82,62)            59.2842         estimate D2E/DX2                !
 ! A181  A(35,82,81)           111.9039         estimate D2E/DX2                !
 ! A182  A(41,82,62)            53.0316         estimate D2E/DX2                !
 ! A183  A(41,82,81)           115.4481         estimate D2E/DX2                !
 ! A184  A(62,82,81)            62.9233         estimate D2E/DX2                !
 ! A185  A(13,83,14)            78.9331         estimate D2E/DX2                !
 ! A186  A(13,83,19)            19.811          estimate D2E/DX2                !
 ! A187  A(14,83,19)            62.8098         estimate D2E/DX2                !
 ! A188  A(14,83,81)            87.3439         estimate D2E/DX2                !
 ! A189  A(19,83,81)           145.9208         estimate D2E/DX2                !
 ! A190  A(45,84,56)            40.6156         estimate D2E/DX2                !
 ! A191  A(45,84,58)            26.2398         estimate D2E/DX2                !
 ! A192  A(45,84,81)           122.3321         estimate D2E/DX2                !
 ! A193  A(56,84,58)            52.5196         estimate D2E/DX2                !
 ! A194  A(56,84,81)           128.8095         estimate D2E/DX2                !
 ! A195  A(58,84,81)            96.3631         estimate D2E/DX2                !
 ! A196  L(13,83,81,14,-1)     166.277          estimate D2E/DX2                !
 ! A197  L(13,83,81,14,-2)     184.8185         estimate D2E/DX2                !
 ! D1    D(6,1,2,3)            -57.1193         estimate D2E/DX2                !
 ! D2    D(6,1,2,7)           -177.4845         estimate D2E/DX2                !
 ! D3    D(6,1,2,15)            62.747          estimate D2E/DX2                !
 ! D4    D(2,1,6,5)             56.1999         estimate D2E/DX2                !
 ! D5    D(2,1,6,11)           -62.6021         estimate D2E/DX2                !
 ! D6    D(2,1,6,16)          -177.4174         estimate D2E/DX2                !
 ! D7    D(1,2,3,4)             55.2171         estimate D2E/DX2                !
 ! D8    D(1,2,3,8)            -62.1992         estimate D2E/DX2                !
 ! D9    D(1,2,3,14)           178.0642         estimate D2E/DX2                !
 ! D10   D(7,2,3,4)            172.3997         estimate D2E/DX2                !
 ! D11   D(7,2,3,8)             54.9833         estimate D2E/DX2                !
 ! D12   D(7,2,3,14)           -64.7533         estimate D2E/DX2                !
 ! D13   D(15,2,3,4)           -68.5514         estimate D2E/DX2                !
 ! D14   D(15,2,3,8)           174.0323         estimate D2E/DX2                !
 ! D15   D(15,2,3,14)           54.2956         estimate D2E/DX2                !
 ! D16   D(1,2,15,27)           84.7484         estimate D2E/DX2                !
 ! D17   D(3,2,15,27)         -151.5195         estimate D2E/DX2                !
 ! D18   D(7,2,15,27)          -32.1302         estimate D2E/DX2                !
 ! D19   D(2,3,4,5)            -53.488          estimate D2E/DX2                !
 ! D20   D(2,3,4,9)             68.3095         estimate D2E/DX2                !
 ! D21   D(2,3,4,13)          -175.1763         estimate D2E/DX2                !
 ! D22   D(8,3,4,5)             63.0113         estimate D2E/DX2                !
 ! D23   D(8,3,4,9)           -175.1912         estimate D2E/DX2                !
 ! D24   D(8,3,4,13)           -58.677          estimate D2E/DX2                !
 ! D25   D(14,3,4,5)          -176.6904         estimate D2E/DX2                !
 ! D26   D(14,3,4,9)           -54.8929         estimate D2E/DX2                !
 ! D27   D(14,3,4,13)           61.6213         estimate D2E/DX2                !
 ! D28   D(2,3,14,23)            7.9452         estimate D2E/DX2                !
 ! D29   D(2,3,14,83)         -143.2756         estimate D2E/DX2                !
 ! D30   D(4,3,14,23)          130.095          estimate D2E/DX2                !
 ! D31   D(4,3,14,83)          -21.1258         estimate D2E/DX2                !
 ! D32   D(8,3,14,23)         -110.2643         estimate D2E/DX2                !
 ! D33   D(8,3,14,83)           98.5149         estimate D2E/DX2                !
 ! D34   D(3,4,5,6)             53.2258         estimate D2E/DX2                !
 ! D35   D(3,4,5,10)           170.4763         estimate D2E/DX2                !
 ! D36   D(3,4,5,12)           -71.8533         estimate D2E/DX2                !
 ! D37   D(9,4,5,6)            -68.0894         estimate D2E/DX2                !
 ! D38   D(9,4,5,10)            49.1611         estimate D2E/DX2                !
 ! D39   D(9,4,5,12)           166.8315         estimate D2E/DX2                !
 ! D40   D(13,4,5,6)           176.3626         estimate D2E/DX2                !
 ! D41   D(13,4,5,10)          -66.3869         estimate D2E/DX2                !
 ! D42   D(13,4,5,12)           51.2835         estimate D2E/DX2                !
 ! D43   D(3,4,13,22)           78.7791         estimate D2E/DX2                !
 ! D44   D(3,4,13,83)          -73.6215         estimate D2E/DX2                !
 ! D45   D(5,4,13,22)          -43.6692         estimate D2E/DX2                !
 ! D46   D(5,4,13,83)          163.9302         estimate D2E/DX2                !
 ! D47   D(9,4,13,22)         -162.285          estimate D2E/DX2                !
 ! D48   D(9,4,13,83)           45.3144         estimate D2E/DX2                !
 ! D49   D(4,5,6,1)            -53.5337         estimate D2E/DX2                !
 ! D50   D(4,5,6,11)            66.4255         estimate D2E/DX2                !
 ! D51   D(4,5,6,16)          -176.1898         estimate D2E/DX2                !
 ! D52   D(10,5,6,1)          -171.3917         estimate D2E/DX2                !
 ! D53   D(10,5,6,11)          -51.4325         estimate D2E/DX2                !
 ! D54   D(10,5,6,16)           65.9522         estimate D2E/DX2                !
 ! D55   D(12,5,6,1)            65.4351         estimate D2E/DX2                !
 ! D56   D(12,5,6,11)         -174.6057         estimate D2E/DX2                !
 ! D57   D(12,5,6,16)          -57.221          estimate D2E/DX2                !
 ! D58   D(4,5,12,21)          153.9781         estimate D2E/DX2                !
 ! D59   D(6,5,12,21)           32.4565         estimate D2E/DX2                !
 ! D60   D(10,5,12,21)         -89.3864         estimate D2E/DX2                !
 ! D61   D(1,6,16,17)           50.3567         estimate D2E/DX2                !
 ! D62   D(1,6,16,18)          168.236          estimate D2E/DX2                !
 ! D63   D(1,6,16,19)          -70.5935         estimate D2E/DX2                !
 ! D64   D(5,6,16,17)          175.4569         estimate D2E/DX2                !
 ! D65   D(5,6,16,18)          -66.6638         estimate D2E/DX2                !
 ! D66   D(5,6,16,19)           54.5067         estimate D2E/DX2                !
 ! D67   D(11,6,16,17)         -66.5085         estimate D2E/DX2                !
 ! D68   D(11,6,16,18)          51.3708         estimate D2E/DX2                !
 ! D69   D(11,6,16,19)         172.5413         estimate D2E/DX2                !
 ! D70   D(4,13,83,14)          40.2174         estimate D2E/DX2                !
 ! D71   D(4,13,83,19)           6.4026         estimate D2E/DX2                !
 ! D72   D(22,13,83,14)        -98.4295         estimate D2E/DX2                !
 ! D73   D(22,13,83,19)       -132.2443         estimate D2E/DX2                !
 ! D74   D(3,14,83,13)         -10.9497         estimate D2E/DX2                !
 ! D75   D(3,14,83,19)           1.2924         estimate D2E/DX2                !
 ! D76   D(3,14,83,81)         164.2317         estimate D2E/DX2                !
 ! D77   D(23,14,83,13)       -136.2668         estimate D2E/DX2                !
 ! D78   D(23,14,83,19)       -124.0246         estimate D2E/DX2                !
 ! D79   D(23,14,83,81)         38.9147         estimate D2E/DX2                !
 ! D80   D(2,15,27,26)        -144.7485         estimate D2E/DX2                !
 ! D81   D(2,15,27,28)          92.2378         estimate D2E/DX2                !
 ! D82   D(2,15,27,32)         -28.8959         estimate D2E/DX2                !
 ! D83   D(6,16,19,20)         178.8687         estimate D2E/DX2                !
 ! D84   D(6,16,19,83)         -19.1805         estimate D2E/DX2                !
 ! D85   D(17,16,19,20)         59.2737         estimate D2E/DX2                !
 ! D86   D(17,16,19,83)       -138.7756         estimate D2E/DX2                !
 ! D87   D(18,16,19,20)        -61.5655         estimate D2E/DX2                !
 ! D88   D(18,16,19,83)        100.3852         estimate D2E/DX2                !
 ! D89   D(16,19,83,13)       -135.365          estimate D2E/DX2                !
 ! D90   D(16,19,83,14)         82.5152         estimate D2E/DX2                !
 ! D91   D(16,19,83,81)         50.9801         estimate D2E/DX2                !
 ! D92   D(20,19,83,13)        -42.4124         estimate D2E/DX2                !
 ! D93   D(20,19,83,14)        175.4679         estimate D2E/DX2                !
 ! D94   D(20,19,83,81)        143.9327         estimate D2E/DX2                !
 ! D95   D(29,24,25,26)        -50.5004         estimate D2E/DX2                !
 ! D96   D(29,24,25,30)         66.4858         estimate D2E/DX2                !
 ! D97   D(29,24,25,37)        178.9948         estimate D2E/DX2                !
 ! D98   D(25,24,29,28)         74.339          estimate D2E/DX2                !
 ! D99   D(25,24,29,34)        -43.8975         estimate D2E/DX2                !
 ! D100  D(25,24,29,38)       -161.2033         estimate D2E/DX2                !
 ! D101  D(24,25,26,27)        -10.312          estimate D2E/DX2                !
 ! D102  D(24,25,26,31)       -130.1504         estimate D2E/DX2                !
 ! D103  D(24,25,26,36)        107.9139         estimate D2E/DX2                !
 ! D104  D(30,25,26,27)       -127.7146         estimate D2E/DX2                !
 ! D105  D(30,25,26,31)        112.447          estimate D2E/DX2                !
 ! D106  D(30,25,26,36)         -9.4888         estimate D2E/DX2                !
 ! D107  D(37,25,26,27)        115.8849         estimate D2E/DX2                !
 ! D108  D(37,25,26,31)         -3.9535         estimate D2E/DX2                !
 ! D109  D(37,25,26,36)       -125.8892         estimate D2E/DX2                !
 ! D110  D(24,25,37,49)         64.3331         estimate D2E/DX2                !
 ! D111  D(26,25,37,49)        -62.9033         estimate D2E/DX2                !
 ! D112  D(30,25,37,49)        179.1464         estimate D2E/DX2                !
 ! D113  D(25,26,27,15)        -72.5776         estimate D2E/DX2                !
 ! D114  D(25,26,27,28)         49.6044         estimate D2E/DX2                !
 ! D115  D(25,26,27,32)        169.9001         estimate D2E/DX2                !
 ! D116  D(31,26,27,15)         47.407          estimate D2E/DX2                !
 ! D117  D(31,26,27,28)        169.5889         estimate D2E/DX2                !
 ! D118  D(31,26,27,32)        -70.1154         estimate D2E/DX2                !
 ! D119  D(36,26,27,15)        166.9503         estimate D2E/DX2                !
 ! D120  D(36,26,27,28)        -70.8677         estimate D2E/DX2                !
 ! D121  D(36,26,27,32)         49.428          estimate D2E/DX2                !
 ! D122  D(25,26,36,44)         82.0099         estimate D2E/DX2                !
 ! D123  D(27,26,36,44)       -155.2422         estimate D2E/DX2                !
 ! D124  D(31,26,36,44)        -37.9964         estimate D2E/DX2                !
 ! D125  D(15,27,28,29)         91.9192         estimate D2E/DX2                !
 ! D126  D(15,27,28,33)       -149.8251         estimate D2E/DX2                !
 ! D127  D(15,27,28,35)        -31.869          estimate D2E/DX2                !
 ! D128  D(26,27,28,29)        -28.2022         estimate D2E/DX2                !
 ! D129  D(26,27,28,33)         90.0535         estimate D2E/DX2                !
 ! D130  D(26,27,28,35)       -151.9903         estimate D2E/DX2                !
 ! D131  D(32,27,28,29)       -146.9807         estimate D2E/DX2                !
 ! D132  D(32,27,28,33)        -28.725          estimate D2E/DX2                !
 ! D133  D(32,27,28,35)         89.2311         estimate D2E/DX2                !
 ! D134  D(27,28,29,24)        -30.553          estimate D2E/DX2                !
 ! D135  D(27,28,29,34)         88.246          estimate D2E/DX2                !
 ! D136  D(27,28,29,38)       -150.3257         estimate D2E/DX2                !
 ! D137  D(33,28,29,24)       -148.8104         estimate D2E/DX2                !
 ! D138  D(33,28,29,34)        -30.0113         estimate D2E/DX2                !
 ! D139  D(33,28,29,38)         91.4169         estimate D2E/DX2                !
 ! D140  D(35,28,29,24)         90.4505         estimate D2E/DX2                !
 ! D141  D(35,28,29,34)       -150.7504         estimate D2E/DX2                !
 ! D142  D(35,28,29,38)        -29.3222         estimate D2E/DX2                !
 ! D143  D(27,28,35,43)       -172.7873         estimate D2E/DX2                !
 ! D144  D(27,28,35,82)         65.5501         estimate D2E/DX2                !
 ! D145  D(29,28,35,43)         64.6065         estimate D2E/DX2                !
 ! D146  D(29,28,35,82)        -57.0561         estimate D2E/DX2                !
 ! D147  D(33,28,35,43)        -55.5188         estimate D2E/DX2                !
 ! D148  D(33,28,35,82)       -177.1814         estimate D2E/DX2                !
 ! D149  D(24,29,38,39)        -44.5222         estimate D2E/DX2                !
 ! D150  D(24,29,38,40)         73.9084         estimate D2E/DX2                !
 ! D151  D(24,29,38,41)       -165.0951         estimate D2E/DX2                !
 ! D152  D(28,29,38,39)         77.8747         estimate D2E/DX2                !
 ! D153  D(28,29,38,40)       -163.6947         estimate D2E/DX2                !
 ! D154  D(28,29,38,41)        -42.6981         estimate D2E/DX2                !
 ! D155  D(34,29,38,39)       -161.4918         estimate D2E/DX2                !
 ! D156  D(34,29,38,40)        -43.0612         estimate D2E/DX2                !
 ! D157  D(34,29,38,41)         77.9354         estimate D2E/DX2                !
 ! D158  D(28,35,82,41)         85.682          estimate D2E/DX2                !
 ! D159  D(28,35,82,62)         18.1101         estimate D2E/DX2                !
 ! D160  D(28,35,82,81)        -17.8389         estimate D2E/DX2                !
 ! D161  D(43,35,82,41)        -35.8841         estimate D2E/DX2                !
 ! D162  D(43,35,82,62)       -103.456          estimate D2E/DX2                !
 ! D163  D(43,35,82,81)       -139.405          estimate D2E/DX2                !
 ! D164  D(25,37,49,48)        124.8929         estimate D2E/DX2                !
 ! D165  D(25,37,49,50)       -116.4216         estimate D2E/DX2                !
 ! D166  D(25,37,49,55)          4.3367         estimate D2E/DX2                !
 ! D167  D(29,38,41,42)       -163.5447         estimate D2E/DX2                !
 ! D168  D(29,38,41,82)         98.9375         estimate D2E/DX2                !
 ! D169  D(39,38,41,42)         77.0264         estimate D2E/DX2                !
 ! D170  D(39,38,41,82)        -20.4914         estimate D2E/DX2                !
 ! D171  D(40,38,41,42)        -43.8689         estimate D2E/DX2                !
 ! D172  D(40,38,41,82)       -141.3867         estimate D2E/DX2                !
 ! D173  D(38,41,82,35)       -102.7919         estimate D2E/DX2                !
 ! D174  D(38,41,82,62)         -6.8556         estimate D2E/DX2                !
 ! D175  D(38,41,82,81)        -15.3192         estimate D2E/DX2                !
 ! D176  D(42,41,82,35)        154.308          estimate D2E/DX2                !
 ! D177  D(42,41,82,62)       -109.7558         estimate D2E/DX2                !
 ! D178  D(42,41,82,81)       -118.2193         estimate D2E/DX2                !
 ! D179  D(50,45,46,47)        -64.7127         estimate D2E/DX2                !
 ! D180  D(50,45,46,51)         56.4088         estimate D2E/DX2                !
 ! D181  D(50,45,46,58)        178.2179         estimate D2E/DX2                !
 ! D182  D(84,45,46,47)         77.5031         estimate D2E/DX2                !
 ! D183  D(84,45,46,51)       -161.3754         estimate D2E/DX2                !
 ! D184  D(84,45,46,58)        -39.5663         estimate D2E/DX2                !
 ! D185  D(46,45,50,49)         67.5531         estimate D2E/DX2                !
 ! D186  D(46,45,50,54)        -51.0322         estimate D2E/DX2                !
 ! D187  D(46,45,50,59)       -166.9851         estimate D2E/DX2                !
 ! D188  D(84,45,50,49)        -94.3278         estimate D2E/DX2                !
 ! D189  D(84,45,50,54)        147.0868         estimate D2E/DX2                !
 ! D190  D(84,45,50,59)         31.1339         estimate D2E/DX2                !
 ! D191  D(46,45,84,56)        -79.9361         estimate D2E/DX2                !
 ! D192  D(46,45,84,58)         24.629          estimate D2E/DX2                !
 ! D193  D(46,45,84,81)         33.7247         estimate D2E/DX2                !
 ! D194  D(50,45,84,56)         65.2925         estimate D2E/DX2                !
 ! D195  D(50,45,84,58)        169.8577         estimate D2E/DX2                !
 ! D196  D(50,45,84,81)        178.9534         estimate D2E/DX2                !
 ! D197  D(45,46,47,48)         54.0576         estimate D2E/DX2                !
 ! D198  D(45,46,47,52)        -64.7419         estimate D2E/DX2                !
 ! D199  D(45,46,47,57)        173.6092         estimate D2E/DX2                !
 ! D200  D(51,46,47,48)        -65.6575         estimate D2E/DX2                !
 ! D201  D(51,46,47,52)        175.543          estimate D2E/DX2                !
 ! D202  D(51,46,47,57)         53.894          estimate D2E/DX2                !
 ! D203  D(58,46,47,48)        171.6213         estimate D2E/DX2                !
 ! D204  D(58,46,47,52)         52.8218         estimate D2E/DX2                !
 ! D205  D(58,46,47,57)        -68.8272         estimate D2E/DX2                !
 ! D206  D(45,46,58,66)        -70.6912         estimate D2E/DX2                !
 ! D207  D(45,46,58,84)         12.9781         estimate D2E/DX2                !
 ! D208  D(47,46,58,66)        171.5829         estimate D2E/DX2                !
 ! D209  D(47,46,58,84)       -104.7478         estimate D2E/DX2                !
 ! D210  D(51,46,58,66)         49.286          estimate D2E/DX2                !
 ! D211  D(51,46,58,84)        132.9552         estimate D2E/DX2                !
 ! D212  D(46,47,48,49)        -48.9613         estimate D2E/DX2                !
 ! D213  D(46,47,48,53)         69.8685         estimate D2E/DX2                !
 ! D214  D(46,47,48,56)       -170.3456         estimate D2E/DX2                !
 ! D215  D(52,47,48,49)         68.3233         estimate D2E/DX2                !
 ! D216  D(52,47,48,53)       -172.847          estimate D2E/DX2                !
 ! D217  D(52,47,48,56)        -53.061          estimate D2E/DX2                !
 ! D218  D(57,47,48,49)       -172.2731         estimate D2E/DX2                !
 ! D219  D(57,47,48,53)        -53.4433         estimate D2E/DX2                !
 ! D220  D(57,47,48,56)         66.3427         estimate D2E/DX2                !
 ! D221  D(46,47,57,65)         59.7884         estimate D2E/DX2                !
 ! D222  D(48,47,57,65)       -177.5571         estimate D2E/DX2                !
 ! D223  D(52,47,57,65)        -59.3572         estimate D2E/DX2                !
 ! D224  D(47,48,49,37)        168.7948         estimate D2E/DX2                !
 ! D225  D(47,48,49,50)         50.103          estimate D2E/DX2                !
 ! D226  D(47,48,49,55)        -70.2618         estimate D2E/DX2                !
 ! D227  D(53,48,49,37)         49.6562         estimate D2E/DX2                !
 ! D228  D(53,48,49,50)        -69.0356         estimate D2E/DX2                !
 ! D229  D(53,48,49,55)        170.5996         estimate D2E/DX2                !
 ! D230  D(56,48,49,37)        -69.2557         estimate D2E/DX2                !
 ! D231  D(56,48,49,50)        172.0525         estimate D2E/DX2                !
 ! D232  D(56,48,49,55)         51.6877         estimate D2E/DX2                !
 ! D233  D(47,48,56,64)        -60.1573         estimate D2E/DX2                !
 ! D234  D(47,48,56,84)         81.4614         estimate D2E/DX2                !
 ! D235  D(49,48,56,64)        176.7327         estimate D2E/DX2                !
 ! D236  D(49,48,56,84)        -41.6486         estimate D2E/DX2                !
 ! D237  D(53,48,56,64)         58.8992         estimate D2E/DX2                !
 ! D238  D(53,48,56,84)       -159.4821         estimate D2E/DX2                !
 ! D239  D(37,49,50,45)       -176.8894         estimate D2E/DX2                !
 ! D240  D(37,49,50,54)        -57.1357         estimate D2E/DX2                !
 ! D241  D(37,49,50,59)         62.4541         estimate D2E/DX2                !
 ! D242  D(48,49,50,45)        -58.308          estimate D2E/DX2                !
 ! D243  D(48,49,50,54)         61.4457         estimate D2E/DX2                !
 ! D244  D(48,49,50,59)       -178.9645         estimate D2E/DX2                !
 ! D245  D(55,49,50,45)         62.0118         estimate D2E/DX2                !
 ! D246  D(55,49,50,54)       -178.2345         estimate D2E/DX2                !
 ! D247  D(55,49,50,59)        -58.6448         estimate D2E/DX2                !
 ! D248  D(45,50,59,60)         54.8928         estimate D2E/DX2                !
 ! D249  D(45,50,59,61)        173.2761         estimate D2E/DX2                !
 ! D250  D(45,50,59,62)        -63.4896         estimate D2E/DX2                !
 ! D251  D(49,50,59,60)        176.3797         estimate D2E/DX2                !
 ! D252  D(49,50,59,61)        -65.237          estimate D2E/DX2                !
 ! D253  D(49,50,59,62)         57.9973         estimate D2E/DX2                !
 ! D254  D(54,50,59,60)        -63.236          estimate D2E/DX2                !
 ! D255  D(54,50,59,61)         55.1473         estimate D2E/DX2                !
 ! D256  D(54,50,59,62)        178.3816         estimate D2E/DX2                !
 ! D257  D(48,56,84,45)        -16.4814         estimate D2E/DX2                !
 ! D258  D(48,56,84,58)        -49.1132         estimate D2E/DX2                !
 ! D259  D(48,56,84,81)       -113.1693         estimate D2E/DX2                !
 ! D260  D(64,56,84,45)         48.4898         estimate D2E/DX2                !
 ! D261  D(64,56,84,58)         15.858          estimate D2E/DX2                !
 ! D262  D(64,56,84,81)        -48.1981         estimate D2E/DX2                !
 ! D263  D(46,58,66,67)       -102.4219         estimate D2E/DX2                !
 ! D264  D(46,58,66,68)         15.2139         estimate D2E/DX2                !
 ! D265  D(46,58,66,69)        137.2039         estimate D2E/DX2                !
 ! D266  D(84,58,66,67)       -171.5853         estimate D2E/DX2                !
 ! D267  D(84,58,66,68)        -53.9495         estimate D2E/DX2                !
 ! D268  D(84,58,66,69)         68.0405         estimate D2E/DX2                !
 ! D269  D(46,58,84,45)        -13.4896         estimate D2E/DX2                !
 ! D270  D(46,58,84,56)         39.068          estimate D2E/DX2                !
 ! D271  D(46,58,84,81)        174.2345         estimate D2E/DX2                !
 ! D272  D(66,58,84,45)        101.7183         estimate D2E/DX2                !
 ! D273  D(66,58,84,56)        154.2759         estimate D2E/DX2                !
 ! D274  D(66,58,84,81)        -70.5576         estimate D2E/DX2                !
 ! D275  D(50,59,62,63)        -76.3488         estimate D2E/DX2                !
 ! D276  D(50,59,62,82)         81.5633         estimate D2E/DX2                !
 ! D277  D(60,59,62,63)        164.3278         estimate D2E/DX2                !
 ! D278  D(60,59,62,82)        -37.7602         estimate D2E/DX2                !
 ! D279  D(61,59,62,63)         46.6392         estimate D2E/DX2                !
 ! D280  D(61,59,62,82)       -155.4488         estimate D2E/DX2                !
 ! D281  D(59,62,82,35)       -166.7312         estimate D2E/DX2                !
 ! D282  D(59,62,82,41)        164.1379         estimate D2E/DX2                !
 ! D283  D(59,62,82,81)        -24.446          estimate D2E/DX2                !
 ! D284  D(63,62,82,35)         -9.0778         estimate D2E/DX2                !
 ! D285  D(63,62,82,41)        -38.2087         estimate D2E/DX2                !
 ! D286  D(63,62,82,81)        133.2074         estimate D2E/DX2                !
 ! D287  D(58,66,69,70)        177.5669         estimate D2E/DX2                !
 ! D288  D(58,66,69,71)         63.1071         estimate D2E/DX2                !
 ! D289  D(58,66,69,72)        -58.6565         estimate D2E/DX2                !
 ! D290  D(67,66,69,70)         58.5655         estimate D2E/DX2                !
 ! D291  D(67,66,69,71)        -55.8943         estimate D2E/DX2                !
 ! D292  D(67,66,69,72)       -177.6579         estimate D2E/DX2                !
 ! D293  D(68,66,69,70)        -61.7114         estimate D2E/DX2                !
 ! D294  D(68,66,69,71)       -176.1712         estimate D2E/DX2                !
 ! D295  D(68,66,69,72)         62.0652         estimate D2E/DX2                !
 ! D296  D(66,69,72,73)         58.1953         estimate D2E/DX2                !
 ! D297  D(66,69,72,74)        172.8601         estimate D2E/DX2                !
 ! D298  D(66,69,72,75)        -65.3062         estimate D2E/DX2                !
 ! D299  D(70,69,72,73)       -179.6862         estimate D2E/DX2                !
 ! D300  D(70,69,72,74)        -65.0214         estimate D2E/DX2                !
 ! D301  D(70,69,72,75)         56.8123         estimate D2E/DX2                !
 ! D302  D(71,69,72,73)        -63.5171         estimate D2E/DX2                !
 ! D303  D(71,69,72,74)         51.1477         estimate D2E/DX2                !
 ! D304  D(71,69,72,75)        172.9814         estimate D2E/DX2                !
 ! D305  D(69,72,75,76)        -57.7752         estimate D2E/DX2                !
 ! D306  D(69,72,75,77)         59.3982         estimate D2E/DX2                !
 ! D307  D(69,72,75,78)       -177.6635         estimate D2E/DX2                !
 ! D308  D(73,72,75,76)       -179.8538         estimate D2E/DX2                !
 ! D309  D(73,72,75,77)        -62.6804         estimate D2E/DX2                !
 ! D310  D(73,72,75,78)         60.2579         estimate D2E/DX2                !
 ! D311  D(74,72,75,76)         63.5785         estimate D2E/DX2                !
 ! D312  D(74,72,75,77)       -179.248          estimate D2E/DX2                !
 ! D313  D(74,72,75,78)        -56.3097         estimate D2E/DX2                !
 ! D314  D(72,75,78,79)        174.5996         estimate D2E/DX2                !
 ! D315  D(72,75,78,80)         54.4049         estimate D2E/DX2                !
 ! D316  D(72,75,78,81)        -65.7746         estimate D2E/DX2                !
 ! D317  D(76,75,78,79)         52.9398         estimate D2E/DX2                !
 ! D318  D(76,75,78,80)        -67.2549         estimate D2E/DX2                !
 ! D319  D(76,75,78,81)        172.5657         estimate D2E/DX2                !
 ! D320  D(77,75,78,79)        -61.7006         estimate D2E/DX2                !
 ! D321  D(77,75,78,80)        178.1047         estimate D2E/DX2                !
 ! D322  D(77,75,78,81)         57.9252         estimate D2E/DX2                !
 ! D323  D(75,78,81,82)        179.8668         estimate D2E/DX2                !
 ! D324  D(75,78,81,83)         61.6856         estimate D2E/DX2                !
 ! D325  D(75,78,81,84)        -61.5095         estimate D2E/DX2                !
 ! D326  D(79,78,81,82)        -58.2892         estimate D2E/DX2                !
 ! D327  D(79,78,81,83)       -176.4704         estimate D2E/DX2                !
 ! D328  D(79,78,81,84)         60.3345         estimate D2E/DX2                !
 ! D329  D(80,78,81,82)         57.3523         estimate D2E/DX2                !
 ! D330  D(80,78,81,83)        -60.8289         estimate D2E/DX2                !
 ! D331  D(80,78,81,84)        175.976          estimate D2E/DX2                !
 ! D332  D(78,81,82,35)        153.9837         estimate D2E/DX2                !
 ! D333  D(78,81,82,41)        127.0431         estimate D2E/DX2                !
 ! D334  D(78,81,82,62)        119.4541         estimate D2E/DX2                !
 ! D335  D(83,81,82,35)        -82.8475         estimate D2E/DX2                !
 ! D336  D(83,81,82,41)       -109.7881         estimate D2E/DX2                !
 ! D337  D(83,81,82,62)       -117.3772         estimate D2E/DX2                !
 ! D338  D(84,81,82,35)         30.91           estimate D2E/DX2                !
 ! D339  D(84,81,82,41)          3.9694         estimate D2E/DX2                !
 ! D340  D(84,81,82,62)         -3.6196         estimate D2E/DX2                !
 ! D341  D(78,81,83,14)        168.7547         estimate D2E/DX2                !
 ! D342  D(78,81,83,19)       -163.4881         estimate D2E/DX2                !
 ! D343  D(82,81,83,14)         45.6349         estimate D2E/DX2                !
 ! D344  D(82,81,83,19)         73.3921         estimate D2E/DX2                !
 ! D345  D(84,81,83,14)        -65.6584         estimate D2E/DX2                !
 ! D346  D(84,81,83,19)        -37.9012         estimate D2E/DX2                !
 ! D347  D(78,81,84,45)         71.5063         estimate D2E/DX2                !
 ! D348  D(78,81,84,56)        121.4296         estimate D2E/DX2                !
 ! D349  D(78,81,84,58)         75.539          estimate D2E/DX2                !
 ! D350  D(82,81,84,45)       -165.2259         estimate D2E/DX2                !
 ! D351  D(82,81,84,56)       -115.3026         estimate D2E/DX2                !
 ! D352  D(82,81,84,58)       -161.1932         estimate D2E/DX2                !
 ! D353  D(83,81,84,45)        -54.3017         estimate D2E/DX2                !
 ! D354  D(83,81,84,56)         -4.3783         estimate D2E/DX2                !
 ! D355  D(83,81,84,58)        -50.2689         estimate D2E/DX2                !
 --------------------------------------------------------------------------------
 Trust Radius=3.00D-01 FncErr=1.00D-07 GrdErr=1.00D-06
 Number of steps in this run=    504 maximum allowed number of steps=    504.
 GradGradGradGradGradGradGradGradGradGradGradGradGradGradGradGradGradGrad

 Leave Link  103 at Wed Apr 27 22:00:19 2016, MaxMem= 10737418240 cpu:         0.7
 (Enter /share/apps//g09/l202.exe)
 Stoichiometry    C23H44NO16(1+)
 Framework group  C1[X(C23H44NO16)]
 Deg. of freedom   246
 Full point group                 C1      NOp   1
 Largest Abelian subgroup         C1      NOp   1
 Largest concise Abelian subgroup C1      NOp   1
                         Standard orientation:                         
 ---------------------------------------------------------------------
 Center     Atomic      Atomic             Coordinates (Angstroms)
 Number     Number       Type             X           Y           Z
 ---------------------------------------------------------------------
      1          8           0       -1.479319    3.037641   -0.941806
      2          6           0       -1.689500    1.729973   -1.414290
      3          6           0       -0.536649    1.224659   -2.295194
      4          6           0        0.785147    1.338861   -1.525564
      5          6           0        0.978309    2.765320   -1.000100
      6          6           0       -0.256878    3.199357   -0.192594
      7          1           0       -2.622322    1.782585   -1.993989
      8          1           0       -0.487526    1.888379   -3.174918
      9          1           0        0.789448    0.620189   -0.692670
     10          1           0        1.846925    2.770446   -0.308971
     11          1           0       -0.297196    2.565215    0.713188
     12          8           0        1.268178    3.555017   -2.153282
     13          8           0        1.912541    0.981298   -2.349444
     14          8           0       -0.759905   -0.124469   -2.723361
     15          8           0       -1.824100    0.770796   -0.354564
     16          6           0       -0.207707    4.637260    0.299349
     17          1           0       -1.166641    4.870521    0.790618
     18          1           0        0.603382    4.720877    1.044455
     19          8           0        0.021945    5.522031   -0.811122
     20          1           0        0.034525    6.439647   -0.493852
     21          1           0        0.989521    4.476569   -1.955897
     22          1           0        2.092818    1.760832   -2.915061
     23          1           0       -1.675419   -0.366326   -2.450045
     24          8           0       -2.504175   -1.901078    0.835266
     25          6           0       -2.492663   -1.066666    2.018064
     26          6           0       -2.998284    0.382342    1.693830
     27          6           0       -3.143218    0.654828    0.186812
     28          6           0       -3.947496   -0.463708   -0.541102
     29          6           0       -3.789923   -1.813950    0.189202
     30          1           0       -3.202353   -1.502436    2.744150
     31          1           0       -2.271569    1.100465    2.101113
     32          1           0       -3.669697    1.615476    0.082644
     33          1           0       -5.013119   -0.186656   -0.521874
     34          1           0       -4.578682   -1.873495    0.961175
     35          8           0       -3.497223   -0.515410   -1.907049
     36          8           0       -4.302350    0.579275    2.255826
     37          8           0       -1.248178   -1.180359    2.644402
     38          6           0       -3.889297   -3.035741   -0.726161
     39          1           0       -2.936881   -3.161703   -1.271421
     40          1           0       -4.060441   -3.935401   -0.115846
     41          8           0       -4.978509   -2.802775   -1.634724
     42          1           0       -5.234277   -3.644813   -2.045463
     43          1           0       -4.105049   -1.142775   -2.352101
     44          1           0       -4.203899    0.807345    3.195518
     45          8           0        2.056819   -1.433537    1.045093
     46          6           0        2.839679   -0.619935    1.938961
     47          6           0        2.045528    0.640272    2.281890
     48          6           0        0.654148    0.301888    2.828228
     49          6           0       -0.076429   -0.712268    1.944230
     50          6           0        0.861293   -1.911952    1.675413
     51          1           0        3.067299   -1.210308    2.853938
     52          1           0        1.933176    1.205462    1.338302
     53          1           0        0.773454   -0.147492    3.833218
     54          1           0        1.105854   -2.387587    2.648180
     55          1           0       -0.361341   -0.239555    0.991970
     56          8           0       -0.136920    1.491842    2.925483
     57          8           0        2.681764    1.438808    3.277444
     58          8           0        3.996404   -0.226198    1.279813
     59          6           0        0.284073   -3.002903    0.783981
     60          1           0        1.060892   -3.761706    0.615428
     61          1           0       -0.567352   -3.479482    1.289686
     62          8           0       -0.117223   -2.524445   -0.509224
     63          1           0       -0.967863   -2.051470   -0.365505
     64          1           0        0.338256    2.084684    3.535820
     65          1           0        3.555275    1.698382    2.932917
     66          6           0        4.956616   -1.293274    1.053229
     67          1           0        5.764201   -1.193717    1.796522
     68          1           0        4.462102   -2.264065    1.209224
     69          6           0        5.516283   -1.178097   -0.360011
     70          1           0        6.271607   -1.972538   -0.484508
     71          1           0        6.058193   -0.223273   -0.443873
     72          6           0        4.468280   -1.246014   -1.481754
     73          1           0        3.744141   -0.434134   -1.317115
     74          1           0        4.972206   -1.023660   -2.437218
     75          6           0        3.745893   -2.595775   -1.598427
     76          1           0        4.481128   -3.401065   -1.760437
     77          1           0        3.224362   -2.830354   -0.657780
     78          6           0        2.745274   -2.678589   -2.749536
     79          1           0        2.334600   -3.693317   -2.838676
     80          1           0        3.216868   -2.418049   -3.708196
     81          7           0        1.582450   -1.749064   -2.559080
     82          1           0        0.902735   -1.793955   -3.328639
     83          1           0        1.865907   -0.737737   -2.521429
     84          1           0        1.022740   -1.969385   -1.689767
 ---------------------------------------------------------------------
 Rotational constants (GHZ):      0.1087131      0.0809105      0.0716547
 Leave Link  202 at Wed Apr 27 22:00:19 2016, MaxMem= 10737418240 cpu:         0.6
 (Enter /share/apps//g09/l301.exe)
 Standard basis: 6-311+G(d,p) (5D, 7F)
 Ernie: Thresh=  0.10000D-02 Tol=  0.10000D-05 Strict=F.
 There are  1184 symmetry adapted cartesian basis functions of A   symmetry.
 There are  1144 symmetry adapted basis functions of A   symmetry.
  1144 basis functions,  1792 primitive gaussians,  1184 cartesian basis functions
[...]
 01,-0.00001516,0.00001702,0.00001395,-0.00004521,0.00001834,0.00000376
 ,-0.00001025,0.00022954,-0.00002850,-0.00030696,-0.00002292,-0.0000503
 6,-0.00004176,-0.00012745,-0.00004199,-0.00009796,-0.00011873,0.000025
 28,0.00007039,0.00001800,0.00000055,-0.00003194,0.00000316,-0.00000194
 ,-0.00001260,0.00009509,-0.00004051,-0.00003046,-0.00003971,0.00000241
 ,0.00000945,-0.00002679,0.00002772,0.00001099,0.00000587,0.00001780,0.
 00002214,-0.00065143,-0.00001569,-0.00049230,0.00087946,0.00021950,0.0
 0014556,-0.00000369,0.00022711,-0.00006217,0.00012830,0.00006127,0.000
 08180,-0.00000388,0.00006320,0.00006151,0.00016205,0.00002012,0.000084
 30,-0.00007735,-0.00005055,-0.00005719,0.00001510,-0.00004572,-0.00001
 213,-0.00002774,-0.00002617,0.00000020,-0.00003198,0.00000976,-0.00004
 255,0.00003696,0.00004926,0.00007022,-0.00012254,-0.00013984,-0.000058
 77,-0.00008671,-0.00013483,-0.00002823,-0.00040507,-0.00027302,0.00026
 943,0.00020836,-0.00065529,0.00048572,-0.00001274,-0.00000138,-0.00002
 072,-0.00000659,0.00014260,-0.00008934,0.00071412,0.00076710,-0.000410
 63,-0.00028107,0.00006243,0.00028713,0.00003579,0.00003223,-0.00002867
 ,0.00000686,0.00006464,-0.00003278,0.00025783,0.00010578,-0.00005083,-
 0.00005771,-0.00005831,0.00006932,-0.00005488,-0.00009297,0.00002482,-
 0.00027460,-0.00054728,-0.00090941,0.00028952,-0.00030912,0.00018713,-
 0.00010719,0.00008256,-0.00006469,0.00027337,0.00069555,0.00154870,-0.
 00184204,0.00106934,-0.00194845,-0.00037782,0.00003491,0.00023884,0.00
 097363,0.00024664,0.00066194,-0.00039326,-0.00019659,-0.00036510,-0.00
 016668,-0.00024757,-0.00009069,0.02111323,0.01091777,0.01052970,-0.003
 09882,0.00398465,0.00383661,0.00024750,-0.00016574,0.00046296,-0.17175
 915,-0.09956021,-0.09370324,-0.01467393,-0.01258131,-0.01093376,0.1835
 8521,-0.00059604,-0.00018497,0.00004499,0.00045311,0.00099952,-0.00107
 428,0.00083192,-0.00003670,0.00122468,0.00768798,0.00238192,-0.0070561
 9,-0.00179387,0.00022500,0.00108570,0.00121918,0.00052025,0.00024711,-
 0.00022048,-0.00003542,0.00028803,0.00010433,-0.00036556,-0.00005120,-
 0.00069837,-0.00027482,0.00089845,0.00010228,-0.00012943,-0.00009336,-
 0.00001350,0.00008064,-0.00001794,-0.00011395,0.00058328,0.00105954,-0
 .00002172,0.00178259,0.00519596,-0.00154218,-0.00194918,-0.00128215,-0
 .00105171,-0.00092170,0.00047736,-0.00045156,0.00002417,0.00000890,0.0
 0000461,0.00012679,0.00019344,0.00004031,-0.00002678,-0.00002485,-0.00
 002986,0.00016540,0.00037235,-0.00005206,-0.00009304,-0.00001718,-0.00
 015314,-0.00051331,-0.00031468,-0.00116960,-0.00252133,0.00251403,0.00
 049732,0.00047658,0.00029176,0.00022757,-0.00028568,-0.00033238,-0.000
 12162,0.00032283,0.00025230,-0.00001803,0.00012471,-0.00005041,0.00066
 233,0.00002723,-0.00013584,0.00001033,0.00017641,-0.00003700,-0.000089
 03,0.00024858,-0.00002938,0.00000935,-0.00002668,-0.00003919,-0.000007
 44,0.00003089,-0.00002994,-0.00002136,-0.00001939,-0.00001280,-0.00003
 542,-0.00003296,-0.00000862,0.00002508,-0.00004272,-0.00001605,-0.0003
 4815,-0.00027288,-0.00003936,-0.00008956,-0.00018706,0.00004939,0.0002
 5575,-0.00031732,-0.00021524,-0.00018896,0.00007343,0.00010956,0.00003
 572,0.00004504,-0.00003017,-0.00002401,-0.00002586,-0.00002465,0.00006
 573,-0.00016836,-0.00005371,-0.00002831,0.00000026,0.00002412,0.000046
 36,0.00010791,0.00014076,0.00000339,0.00004054,0.00002009,-0.00000778,
 0.00010773,-0.00109935,0.00030429,0.00002347,0.00086492,0.00004419,0.0
 0053622,-0.00006523,0.00001354,0.00019904,0.00025654,-0.00020704,0.000
 27829,0.00012586,-0.00048554,0.00005077,0.00026367,-0.00002136,0.00000
 527,-0.00014535,-0.00002818,-0.00005716,0.00001660,-0.00002170,-0.0000
 7648,0.00001958,0.00003385,0.00002039,-0.00011784,0.00006705,0.0001725
 6,0.00004390,-0.00002320,-0.00047016,-0.00023319,0.00001138,-0.0003832
 3,-0.00019539,0.00015647,-0.00018304,-0.00068896,0.00023873,-0.0007665
 5,0.00037534,-0.00005093,-0.00007113,-0.00006007,0.00002530,0.00018486
 ,-0.00007599,0.00124286,0.00083585,-0.00106341,-0.00030075,0.00056385,
 0.00042017,0.00002477,0.00008961,-0.00002457,-0.00001977,0.00020428,0.
 00010011,-0.00016855,0.00014018,0.00045651,-0.00000481,0.00000481,-0.0
 0013896,-0.00000420,-0.00015179,0.00004292,-0.00013930,-0.00011433,0.0
 0050122,-0.00007035,0.00014118,-0.00012837,-0.00022166,0.00010393,-0.0
 0016617,0.00052497,0.00005125,-0.00073126,0.00120934,0.00087719,0.0011
 0610,-0.00023779,0.00008112,0.00029669,-0.00033604,-0.00126558,0.00030
 154,-0.00041699,0.00046547,-0.00007026,0.00001633,-0.00031762,0.000028
 68,-0.00645919,-0.01120955,-0.01021967,0.00119397,0.00013072,-0.000637
 45,-0.00043631,0.00119347,0.00099870,-0.10483205,-0.15592441,-0.090075
 04,0.01595821,0.01734802,0.01487784,0.10166389,0.15770579,-0.00061119,
 -0.00009020,-0.00012500,0.00030657,0.00077587,-0.00077719,0.00133036,0
 .00005096,0.00190529,0.00507404,-0.00188474,-0.00780963,-0.00087563,0.
 00028905,-0.00012142,0.00099567,0.00018343,0.00008704,-0.00020923,-0.0
 0000463,0.00027745,-0.00005442,-0.00013461,-0.00007850,-0.00003565,0.0
 0018203,-0.00057633,0.00003122,-0.00007879,-0.00004827,0.00000284,0.00
 008504,-0.00004088,0.00003918,0.00115757,0.00132046,0.00298665,0.00615
 676,-0.00631414,-0.00085946,-0.00122156,-0.00194111,-0.00094724,-0.000
 69276,0.00028575,-0.00033036,-0.00000216,-0.00004147,-0.00000472,0.000
 10110,0.00015148,0.00001971,-0.00001746,-0.00003560,-0.00002639,0.0002
 1159,0.00036283,-0.00004348,-0.00009701,-0.00000905,-0.00009318,-0.000
 46938,-0.00032787,-0.00154273,-0.00094348,0.00540021,0.00021399,0.0002
 7181,-0.00010307,0.00015443,-0.00016500,-0.00048657,0.00015793,0.00011
 162,0.00039261,0.00000960,0.00009512,-0.00007128,0.00059557,0.00005654
 ,-0.00009378,-0.00000365,0.00009699,0.00007018,-0.00002387,0.00017873,
 -0.00003404,-0.00001578,-0.00001039,-0.00005054,0.00000542,0.00001220,
 -0.00003784,-0.00002856,-0.00001124,-0.00000812,-0.00002382,-0.0000181
 2,-0.00002540,0.00002697,-0.00002944,-0.00001207,-0.00019067,-0.000180
 34,-0.00017344,-0.00011738,-0.00013905,0.00005001,-0.00015649,-0.00022
 488,-0.00010093,-0.00016454,0.00004881,0.00012946,0.00002933,0.0000397
 1,-0.00003906,-0.00001551,-0.00001830,-0.00002420,0.00005584,-0.000117
 56,-0.00007824,-0.00003145,-0.00000476,0.00002829,0.00003185,0.0000682
 0,0.00011963,0.00001452,0.00003181,0.00001201,-0.00044138,-0.00059668,
 -0.00045122,0.00008842,0.00024734,0.00025884,-0.00000564,0.00056306,-0
 .00023111,0.00012996,0.00009068,0.00008510,-0.00005554,0.00032330,0.00
 000305,0.00040185,0.00028204,0.00012404,0.00000785,-0.00009296,-0.0000
 2620,-0.00003202,-0.00014879,-0.00002838,-0.00003558,-0.00006528,0.000
 03313,-0.00011638,-0.00006308,-0.00005926,0.00011175,0.00008680,0.0000
 4446,-0.00012320,-0.00030044,-0.00007513,0.00006938,-0.00032677,0.0000
 6176,0.00020122,-0.00044375,-0.00033236,0.00060302,-0.00105119,0.00047
 573,-0.00005978,-0.00006622,-0.00001264,-0.00002539,0.00029725,-0.0001
 6037,0.00220272,0.00134376,-0.00317015,-0.00001605,0.00077086,0.000237
 31,0.00003680,0.00006055,-0.00006103,-0.00005403,0.00014655,0.00001588
 ,-0.00026710,0.00039245,0.00039642,0.00002413,-0.00003108,-0.00009692,
 -0.00002620,-0.00012246,0.00001369,0.00015801,-0.00024044,-0.00035606,
 0.00012107,-0.00010312,0.00001878,-0.00015693,0.00007387,-0.00008993,-
 0.00002392,0.00061472,0.00095637,-0.00112406,0.00061622,-0.00004600,0.
 00029630,-0.00006422,-0.00023665,0.00026791,0.00047004,0.00160147,-0.0
 0050714,0.00031418,-0.00041525,-0.00003111,-0.00000931,0.00004164,-0.0
 0760788,-0.01258965,-0.01238541,0.00173338,-0.00056611,-0.00059185,-0.
 00066178,0.00061111,-0.00021929,-0.09261586,-0.08436803,-0.14237603,-0
 .01374575,-0.00994907,-0.01013376,0.09494194,0.08899777,0.15471404,-0.
 00055545,-0.00023744,-0.00017304,0.00074136,0.00100756,-0.00029079,0.0
 0050080,0.00002454,0.00052100,0.00138743,-0.00036301,-0.00147081,-0.00
 017259,0.00013727,-0.00013924,0.00047574,0.00004886,0.00000685,-0.0000
 7040,-0.00004550,0.00009263,-0.00012211,-0.00014165,-0.00014160,0.0003
 9344,0.00000343,-0.00015524,-0.00001267,-0.00002371,-0.00003932,0.0000
 2124,0.00005283,0.00000409,-0.00014645,0.00020564,0.00040272,0.0000736
 5,0.00143349,0.00170105,-0.00185751,-0.00143071,0.00015303,-0.00067087
 ,-0.00097037,0.00007379,-0.00003281,0.00010886,0.00000671,-0.00000791,
 0.00003437,0.00006623,-0.00000194,-0.00001365,-0.00001808,-0.00011214,
 -0.00007039,0.00010239,0.00001480,-0.00001056,0.00000135,0.00005185,-0
 .00009439,-0.00013179,-0.00018503,-0.00019692,0.00017645,0.00016266,0.
 00132981,0.00012800,0.00130409,-0.00037401,-0.00173625,0.00034489,-0.0
 0000187,0.00136300,-0.00015701,0.00019599,0.00009897,0.00027295,0.0000
 6689,0.00004868,-0.00000387,0.00026898,0.00000829,-0.00069920,0.000692
 34,-0.00022455,0.00001419,0.00003885,-0.00021778,0.00003071,-0.0000380
 7,-0.00003178,-0.00000196,-0.00004998,-0.00002727,-0.00000752,-0.00008
 865,-0.00001594,0.00018252,-0.00011604,-0.00004358,-0.00011470,-0.0005
 4167,0.00005376,0.00011087,-0.00022656,-0.00023613,-0.00041060,-0.0001
 5664,-0.00038730,-0.00075380,0.00028616,0.00019325,0.00002251,0.000127
 89,-0.00025877,0.00001429,-0.00002951,-0.00006668,0.00059385,-0.000486
 42,0.00015826,-0.00011074,0.00001885,-0.00007974,-0.00002291,0.0002112
 8,-0.00002351,-0.00002225,0.00005434,0.00011358,-0.00256781,-0.0008261
 4,0.00048930,0.00119275,0.00018213,-0.00002679,0.00025151,0.00017753,-
 0.00010432,0.00055080,0.00016018,0.00018188,-0.00024554,0.00013596,0.0
 0030474,0.00262995,0.00157986,-0.00027549,-0.00000078,-0.00015155,0.00
 006695,-0.00001084,-0.00007872,-0.00002624,-0.00006461,-0.00005499,-0.
 00002930,-0.00074054,-0.00010403,-0.00036570,0.00011111,0.00024429,0.0
 0025577,-0.00039357,-0.00025376,-0.00027560,-0.00034607,-0.00006058,0.
 00003107,-0.00112942,-0.00017389,0.00090397,0.00676755,-0.00822420,0.0
 0160736,-0.00033324,0.00075060,0.00004869,-0.00029814,0.00251469,-0.00
 133301,-0.00323888,0.00667004,-0.00480348,-0.00191963,0.00356340,0.001
 28344,0.00009953,0.00001429,-0.00003225,0.00003788,0.00001096,-0.00009
 694,0.00035765,-0.00020888,-0.00056915,-0.00000965,0.00000007,0.000168
 40,0.00001153,0.00011142,-0.00007757,-0.00003366,0.00022279,-0.0001947
 8,0.00000928,-0.00011670,0.00007158,0.00012538,-0.00008610,0.00013787,
 -0.00041130,-0.00018529,0.00011480,-0.00007738,-0.00008392,-0.00039800
 ,0.00013280,-0.00004516,-0.00002084,-0.00049217,-0.00071606,-0.0005716
 2,0.00078204,-0.00025016,-0.00003592,-0.00003046,0.00091735,-0.0001642
 8,-0.00941420,-0.00189634,0.01004065,0.00102583,-0.00063126,-0.0012442
 9,0.00057352,0.00067590,0.00006225,-0.15072575,-0.08379937,0.10008093,
 0.01705673,0.01304346,-0.01665036,-0.01234622,-0.01163834,0.01066073,0
 .15265262,-0.00020705,-0.00016393,0.00051221,0.00085519,0.00070940,-0.
 00070412,-0.00112638,-0.00087768,-0.00119055,0.00027447,-0.00044782,-0
 .00059976,-0.00004709,0.00003400,-0.00037356,0.00011342,0.00019102,-0.
 00015846,-0.00002548,-0.00006595,0.00005005,0.00008618,0.00015851,0.00
 019501,-0.00013873,0.00028418,-0.00053221,0.00010876,0.00000090,0.0000
 8121,0.00001211,0.00003947,-0.00000368,0.00007794,0.00020939,0.0004082
 1,0.00043475,0.00075820,0.00044016,-0.00118587,0.00245207,0.00151339,-
 0.00070765,-0.00079564,0.00050352,-0.00004463,0.00005585,-0.00002699,-
 0.00001043,0.00003255,0.00004249,0.00003013,-0.00000412,0.00000708,-0.
 00004006,-0.00002367,0.00012256,-0.00000810,-0.00001566,-0.00000631,0.
 00001436,-0.00008243,-0.00014992,-0.00014168,-0.00013636,0.00017803,0.
 00116762,0.00037267,-0.00021506,0.00120136,-0.00050411,-0.00125943,0.0
 0001683,0.00026759,0.00079430,-0.00010706,0.00021032,0.00003074,0.0004
 5369,0.00008956,-0.00011039,0.00006453,0.00036852,-0.00029075,-0.00061
 230,0.00064685,-0.00022191,0.00003014,0.00000529,-0.00015014,-0.000001
 21,-0.00001577,-0.00001749,-0.00004061,-0.00004031,-0.00000353,-0.0000
 5075,-0.00010554,0.00003742,0.00014866,-0.00012094,-0.00001086,-0.0004
 9995,-0.00042764,0.00042649,0.00005990,-0.00024106,-0.00009878,0.00014
 454,-0.00032512,-0.00035196,-0.00039110,0.00018985,0.00004446,0.000020
 38,0.00013782,-0.00015061,-0.00004337,-0.00003702,-0.00002559,0.000304
 00,-0.00038357,0.00013582,-0.00003283,0.00001850,-0.00005359,0.0000813
 5,0.00014836,0.00002233,-0.00002219,0.00004642,0.00007207,-0.00186218,
 -0.00036884,-0.00106518,0.00187976,0.00027051,0.00049765,0.00006464,0.
 00036029,-0.00000670,0.00027779,0.00017875,0.00028764,-0.00037891,0.00
 030218,0.00026202,0.00061483,0.00039065,0.00063153,-0.00012012,-0.0000
 3788,-0.00015549,-0.00002869,-0.00006925,-0.00002027,-0.00003627,-0.00
 005601,-0.00000023,-0.00025962,0.00002797,-0.00030277,0.00007441,0.000
 25687,0.00009866,-0.00016371,-0.00035782,-0.00034330,-0.00024379,-0.00
 021710,-0.00023581,-0.00093727,-0.00016185,0.00047457,0.00012145,-0.00
 566868,0.00266472,-0.00024161,0.00004482,-0.00016885,0.00010074,0.0008
 8433,-0.00057066,0.00544567,-0.00776782,-0.00429506,0.00140567,0.00606
 904,-0.00007881,0.00004699,0.00002686,-0.00000333,0.00004859,0.0000773
 2,0.00000309,0.00040174,-0.00013000,-0.00030712,-0.00005623,-0.0000074
 6,0.00006858,-0.00001080,-0.00002580,-0.00003657,0.00000824,0.00009258
 ,-0.00005334,0.00000869,-0.00005881,0.00004378,0.00003641,-0.00005036,
 0.00005885,-0.00011120,-0.00029788,0.00054258,-0.00013022,0.00007660,-
 0.00020396,-0.00029972,-0.00014344,-0.00006169,0.00004019,0.00200824,-
 0.00152463,-0.00018635,-0.00029410,0.00032691,0.00004882,-0.00103346,0
 .00078412,0.01384332,0.01974856,-0.01462151,-0.00023102,0.00019446,-0.
 00039115,0.00339597,-0.00410644,-0.00409111,-0.07868779,-0.13845610,0.
 08780947,-0.01305979,-0.01264626,0.01302049,-0.00900445,-0.01065711,0.
 01124704,0.07797004,0.14898956,0.00029597,0.00022469,-0.00003072,-0.00
 056515,-0.00083957,0.00025482,0.00056410,-0.00026731,-0.00014547,-0.00
 183963,-0.00137856,0.00183263,0.00018159,-0.00009807,-0.00042147,-0.00
 024246,-0.00017259,-0.00002022,0.00003081,0.00006576,-0.00003430,-0.00
 007734,0.00013208,-0.00002525,-0.00012465,-0.00003287,-0.00072572,-0.0
 0002433,0.00002939,0.00002727,0.00000660,-0.00002868,-0.00003417,0.000
 22632,0.00024213,-0.00015105,0.00006232,-0.00139899,-0.00362926,0.0003
 2284,0.00037337,-0.00135079,0.00023482,0.00076705,-0.00008005,0.000004
 49,-0.00011867,-0.00003112,0.00000432,-0.00001881,-0.00003874,-0.00001
 290,0.00001025,-0.00000093,0.00009080,0.00012452,-0.00004154,-0.000010
 03,-0.00000978,-0.00000550,0.00001223,0.00006348,0.00002231,0.00014102
 ,0.00013324,-0.00011707,-0.00010550,-0.00058455,0.00022138,-0.00105300
 ,0.00037741,0.00095912,0.00017071,-0.00025210,-0.00065992,0.00015216,-
 0.00014632,-0.00012720,-0.00001343,-0.00000102,-0.00001526,-0.00002992
 ,-0.00022932,0.00013952,0.00068026,-0.00055772,0.00019196,-0.00005530,
 -0.00001112,0.00013132,-0.00001003,0.00001091,-0.00000381,-0.00002891,
 0.00003914,0.00001865,0.00001265,0.00007366,-0.00001439,-0.00014190,0.
 00009023,0.00000927,0.00010045,0.00036831,-0.00029403,-0.00015782,0.00
 017697,0.00018671,-0.00032123,0.00017654,0.00045424,0.00035526,-0.0001
 7018,0.00000811,0.00000206,-0.00009188,0.00018016,0.00001361,0.0000184
 4,0.00002610,-0.00036231,0.00031411,-0.00020740,0.00002912,-0.00001655
 ,0.00008581,-0.00001158,-0.00011057,0.00009183,0.00003145,-0.00003796,
 -0.00008806,0.00209030,-0.00034952,0.00129506,-0.00250722,-0.00037732,
 -0.00058189,-0.00014503,-0.00013398,-0.00014069,-0.00029461,-0.0002425
 6,-0.00035418,0.00036319,0.00012290,-0.00046250,-0.00015768,0.00016869
 ,-0.00073252,0.00022073,-0.00001070,0.00024270,-0.00000969,-0.00000749
 ,0.00001531,0.00005266,0.00002762,0.00004288,0.00021970,-0.00013199,0.
 00034470,0.00002426,-0.00034733,-0.00028927,0.00016740,0.00029525,0.00
 036392,0.00038669,0.00009390,0.00031910,0.00136866,0.00001708,-0.00086
 527,-0.00299740,0.00610594,-0.00250344,0.00025799,-0.00071345,0.000208
 38,0.00006196,-0.00169631,0.00085844,-0.00480056,-0.00463570,-0.000074
 42,0.00162291,-0.00234011,-0.00176845,-0.00005514,-0.00001824,-0.00002
 355,-0.00009251,-0.00003386,0.00002302,-0.00056140,0.00039748,0.000655
 07,0.00006528,-0.00002331,-0.00014259,-0.00001012,-0.00004998,0.000058
 52,0.00003119,-0.00024562,0.00007381,0.00003382,0.00007134,-0.00006336
 ,-0.00010674,0.00008987,-0.00012281,0.00008589,0.00048813,-0.00019513,
 0.00009550,-0.00014295,0.00024763,0.00013089,-0.00002375,-0.00014208,-
 0.00079647,-0.00019100,0.00218447,-0.00059575,0.00041112,-0.00036508,0
 .00025460,-0.00002112,0.00039432,0.01185978,0.00477115,-0.01387800,-0.
 00057479,0.00073194,-0.00012846,0.00024840,-0.00172088,-0.00025072,0.0
 9417443,0.08771539,-0.16702050,0.00988978,0.01157703,-0.01151950,-0.00
 976007,-0.00767007,0.02146563,-0.09877937,-0.08919606,0.17628365\\-0.0
 0000508,-0.00000593,-0.00000838,-0.00000097,0.00001022,0.00002393,0.00
 000494,-0.00000007,0.00000787,0.00000570,-0.00000311,-0.00002076,-0.00
 000876,0.00000333,0.00002345,0.00001196,0.00000314,0.00000966,-0.00000
 169,0.00000118,-0.00000057,0.00000264,0.00000027,0.00000119,0.00000180
 ,-0.00000118,0.00000278,0.00000402,-0.00000197,-0.00000351,-0.00000151
 ,-0.00000633,0.00000356,-0.00000200,0.00000616,0.00001198,-0.00000851,
 0.00001348,0.00003928,-0.00001725,-0.00000372,0.00000866,0.00001018,-0
 .00000193,-0.00000764,-0.00000642,-0.00002904,0.00000718,-0.00000403,-
 0.00000176,0.00000291,0.00000073,-0.00000304,0.00000416,0.00000275,0.0
 0003681,-0.00001290,0.00000513,-0.00002271,0.00002244,0.00000235,-0.00
 001151,-0.00000446,0.00000239,0.00000392,-0.00000601,0.00001016,0.0000
 0935,-0.00000190,0.00001023,-0.00000422,-0.00000839,0.00000370,-0.0000
 0633,-0.00000115,-0.00000569,-0.00001111,0.00001102,-0.00002581,0.0000
 0242,-0.00000522,0.00002152,-0.00001369,-0.00000350,-0.00001352,0.0000
 1965,-0.00000879,-0.00000228,-0.00000229,-0.00000203,0.00000116,0.0000
 0126,0.00000217,0.00000460,0.00000116,0.00000496,-0.00000600,-0.000000
 53,0.00000526,-0.00000263,0.00000026,0.00000437,-0.00000797,0.00001087
 ,0.00000312,0.00000024,-0.00001044,-0.00000299,-0.00001667,-0.00001238
 ,0.00000354,0.00000836,-0.00002158,0.00000298,0.00000087,0.00000650,-0
 .00000216,-0.00000370,0.00000589,-0.00000031,0.00000768,0.00000703,-0.
 00000874,-0.00001234,0.00000670,0.00000461,-0.00000019,0.00000172,0.00
 000516,0.00000116,0.00000113,0.00000375,0.00000404,0.00000385,0.000005
 69,0.00001104,0.00001263,-0.00001652,-0.00000579,-0.00001214,-0.000001
 49,0.00000890,-0.00001220,-0.00000921,0.00003207,-0.00000255,-0.000010
 73,-0.00001493,0.00001347,-0.00000590,-0.00000068,-0.00000837,-0.00000
 472,-0.00000521,0.00000409,-0.00000169,-0.00000628,-0.00000353,-0.0000
 0237,-0.00000154,-0.00000744,-0.00000297,-0.00000281,0.00000154,0.0000
 0297,-0.00000371,-0.00000300,0.00000801,-0.00000054,0.00000939,0.00000
 599,-0.00000569,-0.00000822,0.00002267,-0.00000256,-0.00000539,-0.0000
 0979,0.00000385,0.00000105,-0.00000431,0.00000034,0.00000029,-0.000005
 16,-0.00000348,0.00000560,0.00001018,0.00000666,0.00000247,-0.00000452
 ,0.00000290,-0.00000215,-0.00000063,0.00000204,-0.00001161,-0.00000556
 ,0.00000151,-0.00000317,-0.00002057,0.00000130,0.00000286,-0.00000341,
 -0.00000251,0.00000094,-0.00000079,-0.00000394,0.00000282,0.00000068,0
 .00000256,0.00000206,-0.00000504,0.00000275,0.00000115,-0.00000038,0.0
 0000186,0.00000467,-0.00000200,0.00000081,0.00000218,-0.00000029,0.000
 00059,0.00000731,-0.00000008,-0.00000065,0.00000192,-0.00000333,0.0000
 0068,0.00000450,-0.00000342,-0.00000081,0.00000101,0.00000058,-0.00000
 216,0.00000870,-0.00000008,-0.00000118,0.00000433,-0.00000194,0.000002
 64,0.00000484,-0.00000359,-0.00001297,0.00001218,0.00000175,0.00000581
 ,0.00000177,-0.00001373,-0.00000381,-0.00001607,-0.00003366,0.00001764
 ,0.00000065,0.00000880\\\@


 SUCCESS IS COUNTED SWEETEST
 BY THOSE WHO NE'ER SUCCEED.
 TO COMPREHEND NECTAR
 REQUIRES SOREST NEED.
           EMILY DICKINSON
 Job cpu time:      21 days 10 hours 59 minutes 51.1 seconds.
 File lengths (MBytes):  RWF=  17326 Int=      0 D2E=      0 Chk=     99 Scr=      1
 Normal termination of Gaussian 09 at Fri Apr 29 23:36:47 2016.
