 Entering Gaussian System, Link 0=g09
 Initial command:
 /share/apps//g09/l1.exe "/scratch/Gau-13291.inp" -scrdir="/scratch/"
 Entering Link 1 = /share/apps//g09/l1.exe PID=     13293.
  
 Copyright (c) 1988,1990,1992,1993,1995,1998,2003,2009,2013,
            Gaussian, Inc.  All Rights Reserved.
  
 This is part of the Gaussian(R) 09 program.  It is based on
 the Gaussian(R) 03 system (copyright 2003, Gaussian, Inc.),
 the Gaussian(R) 98 system (copyright 1998, Gaussian, Inc.),
 the Gaussian(R) 94 system (copyright 1995, Gaussian, Inc.),
 the Gaussian 92(TM) system (copyright 1992, Gaussian, Inc.),
 the Gaussian 90(TM) system (copyright 1990, Gaussian, Inc.),
 the Gaussian 88(TM) system (copyright 1988, Gaussian, Inc.),
 the Gaussian 86(TM) system (copyright 1986, Carnegie Mellon
 University), and the Gaussian 82(TM) system (copyright 1983,
 Carnegie Mellon University). Gaussian is a federally registered
 trademark of Gaussian, Inc.
  
 This software contains proprietary and confidential information,
 including trade secrets, belonging to Gaussian, Inc.
  
 This software is provided under written license and may be
 used, copied, transmitted, or stored only in accord with that
 written license.
  
 The following legend is applicable only to US Government
 contracts under FAR:
  
                    RESTRICTED RIGHTS LEGEND
  
 Use, reproduction and disclosure by the US Government is
 subject to restrictions as set forth in subparagraphs (a)
 and (c) of the Commercial Computer Software - Restricted
 Rights clause in FAR 52.227-19.
  
 Gaussian, Inc.
 340 Quinnipiac St., Bldg. 40, Wallingford CT 06492
  
  
 ---------------------------------------------------------------
 Warning -- This program may not be used in any manner that
 competes with the business of Gaussian, Inc. or will provide
 assistance to any competitor of Gaussian, Inc.  The licensee
 of this program is prohibited from giving any competitor of
 Gaussian, Inc. access to this program.  By using this program,
 the user acknowledges that Gaussian, Inc. is engaged in the
 business of creating and licensing software in the field of
 computational chemistry and represents and warrants to the
 licensee that it is not a competitor of Gaussian, Inc. and that
 it will not use this program in any manner prohibited above.
 ---------------------------------------------------------------
  

 Cite this work as:
 Gaussian 09, Revision D.01,
 M. J. Frisch, G. W. Trucks, H. B. Schlegel, G. E. Scuseria, 
 M. A. Robb, J. R. Cheeseman, G. Scalmani, V. Barone, B. Mennucci, 
 G. A. Petersson, H. Nakatsuji, M. Caricato, X. Li, H. P. Hratchian, 
 A. F. Izmaylov, J. Bloino, G. Zheng, J. L. Sonnenberg, M. Hada, 
 M. Ehara, K. Toyota, R. Fukuda, J. Hasegawa, M. Ishida, T. Nakajima, 
 Y. Honda, O. Kitao, H. Nakai, T. Vreven, J. A. Montgomery, Jr., 
 J. E. Peralta, F. Ogliaro, M. Bearpark, J. J. Heyd, E. Brothers, 
 K. N. Kudin, V. N. Staroverov, T. Keith, R. Kobayashi, J. Normand, 
 K. Raghavachari, A. Rendell, J. C. Burant, S. S. Iyengar, J. Tomasi, 
 M. Cossi, N. Rega, J. M. Millam, M. Klene, J. E. Knox, J. B. Cross, 
 V. Bakken, C. Adamo, J. Jaramillo, R. Gomperts, R. E. Stratmann, 
 O. Yazyev, A. J. Austin, R. Cammi, C. Pomelli, J. W. Ochterski, 
 R. L. Martin, K. Morokuma, V. G. Zakrzewski, G. A. Voth, 
 P. Salvador, J. J. Dannenberg, S. Dapprich, A. D. Daniels, 
 O. Farkas, J. B. Foresman, J. V. Ortiz, J. Cioslowski, 
 and D. J. Fox, Gaussian, Inc., Wallingford CT, 2013.
 
 ******************************************
 Gaussian 09:  EM64L-G09RevD.01 24-Apr-2013
                19-May-2016 
 ******************************************
 %nproc=20
 Will use up to   20 processors via shared memory.
 %mem=80GB
 %chk=Tri_A154_of.chk
 ----------------------------------------------------------------------
 #P PBE1PBE/6-311+G(d,p) opt=ModRedundant optcyc=999 freq EmpiricalDisp
 ersion=GD3
 ----------------------------------------------------------------------
 1/6=999,14=-1,18=120,19=15,26=3,38=1/1,3;
 2/9=110,12=2,17=6,18=5,40=1/2;
 3/5=4,6=6,7=111,11=2,16=1,25=1,30=1,71=1,74=-13,124=31/1,2,3;
 4//1;
 5/5=2,38=5/2;
 6/7=2,8=2,9=2,10=2,28=1/1;
 7//1,2,3,16;
 1/6=999,14=-1,18=20,19=15,26=3/3(2);
 2/9=110/2;
 99//99;
 2/9=110/2;
 3/5=4,6=6,7=111,11=2,16=1,25=1,30=1,71=1,74=-13,124=31/1,2,3;
 4/5=5,16=3,69=1/1;
 5/5=2,38=5/2;
 7//1,2,3,16;
 1/6=999,14=-1,18=20,19=15,26=3/3(-5);
 2/9=110/2;
 6/7=2,8=2,9=2,10=2,19=2,28=1/1;
 99/9=1/99;
 Leave Link    1 at Thu May 19 17:48:36 2016, MaxMem= 10737418240 cpu:         2.7
 (Enter /share/apps//g09/l101.exe)
 -------
 disacch
 -------
 Symbolic Z-matrix:
 Charge =  1 Multiplicity = 1
 O                     3.54732  -3.04205   6.01675 
 C                     2.46926  -3.68456   5.33069 
 C                     2.37948  -5.15964   5.74326 
 C                     2.1629   -5.25831   7.25209 
 C                     3.21744  -4.46177   8.02265 
 C                     3.37273  -3.04637   7.44159 
 C                     4.55317  -2.283     8.03796 
 O                     5.82485  -2.89153   7.74198 
 O                     4.48122  -5.14964   7.97867 
 O                     2.257    -6.60689   7.71414 
 O                     1.28205  -5.82449   5.13796 
 O                     2.80237  -3.5879    3.96542 
 C                     1.76863  -3.16218   3.0611 
 C                     1.73333  -4.13019   1.88261 
 O                     1.39897  -5.44439   2.33377 
 C                     3.09257  -4.13558   1.18486 
 C                     3.50576  -2.70678   0.77242 
 O                     3.4039   -1.78557   1.89548 
 C                     2.10433  -1.76591   2.52061 
 C                     2.15888  -0.69102   3.61521 
 O                     0.94683  -0.64119   4.36506 
 O                     4.80264  -2.60529   0.24745 
 C                     5.88894  -3.1161    1.0445 
 C                     6.62105  -4.21329   0.26841 
 C                     7.89299  -4.65409   0.99697 
 C                     8.75992  -3.45157   1.37305 
 O                     7.9618   -2.51986   2.13352 
 C                     6.88214  -1.97653   1.35817 
 C                     6.28535  -0.81536   2.14442 
 O                     5.6477   -1.22024   3.36576 
 O                     9.79232  -3.90574   2.18233 
 C                     10.82919  -2.92191   2.44716 
 C                     11.26376  -3.03422   3.90448 
 C                     10.11788  -2.9149    4.92081 
 C                     9.39929  -1.55786   4.93156 
 C                     8.18027  -1.52509   5.84923 
 N                     7.06967  -2.42469   5.37476 
 O                     8.55374  -5.55975   0.11735 
 O                     5.75679  -5.34543   0.09765 
 O                     2.98673  -4.98498   0.05447 
 H                     1.5156   -3.15721   5.53647 
 H                     3.34474  -5.62932   5.47319 
 H                     1.16197  -4.84445   7.48375 
 H                     2.89267  -4.36493   9.07554 
 H                     2.4522   -2.48552   7.70615 
 H                     4.42052  -2.20212   9.12967 
 H                     4.58057  -1.26684   7.62031 
 H                     5.69689  -3.85548   7.92211 
 H                     4.27019  -6.10007   8.08225 
 H                     1.72635  -7.15171   7.10251 
 H                     1.40914  -5.83271   4.16098 
 H                     0.79132  -3.14064   3.56674 
 H                     0.96093  -3.7813    1.17014 
 H                     1.59772  -6.04556   1.58942 
 H                     3.81952  -4.53576   1.91185 
 H                     2.85056  -2.35127  -0.04227 
 H                     1.34156  -1.48263   1.76757 
 H                     2.95166  -0.94424   4.33448 
 H                     2.41104   0.27947   3.15846 
 H                     0.29826  -0.09711   3.88641 
 H                     5.52115  -3.52319   1.99997 
 H                     6.89692  -3.80911  -0.72429 
 H                     7.60462  -5.15542   1.94143 
 H                     9.1432   -2.93756   0.46515 
 H                     7.26798  -1.56153   0.40469 
 H                     7.09458  -0.12283   2.41463 
 H                     5.56494  -0.27984   1.50984 
 H                     4.76217  -1.56956   3.098 
 H                     10.43845  -1.91754   2.2248 
 H                     11.67794  -3.12039   1.77318 
 H                     12.02713  -2.25983   4.08759 
 H                     11.76517  -4.00293   4.05286 
 H                     10.51477  -3.12357   5.92727 
 H                     9.40801  -3.72956   4.69445 
 H                     9.08815  -1.2785    3.91429 
 H                     10.09157  -0.77462   5.27898 
 H                     8.43503  -1.84771   6.86866 
 H                     7.75356  -0.5156    5.91528 
 H                     7.45597  -3.30592   5.01538 
 H                     6.51216  -1.98794   4.58577 
 H                     6.43394  -2.65134   6.19792 
 H                     9.3071   -5.94981   0.59571 
 H                     6.2961   -6.04099  -0.32446 
 H                     3.90843  -5.23318  -0.18434 
 
 The following ModRedundant input section has been read:
 
 NAtoms=     84 NQM=       84 NQMF=       0 NMMI=      0 NMMIF=      0
                NMic=       0 NMicF=      0.
                    Isotopes and Nuclear Properties:
 (Nuclear quadrupole moments (NQMom) in fm**2, nuclear magnetic moments (NMagM)
  in nuclear magnetons)

  Atom         1           2           3           4           5           6           7           8           9          10
 IAtWgt=          16          12          12          12          12          12          12          16          16          16
 AtmWgt=  15.9949146  12.0000000  12.0000000  12.0000000  12.0000000  12.0000000  12.0000000  15.9949146  15.9949146  15.9949146
 NucSpn=           0           0           0           0           0           0           0           0           0           0
 AtZEff=   0.0000000   0.0000000   0.0000000   0.0000000   0.0000000   0.0000000   0.0000000   0.0000000   0.0000000   0.0000000
 NQMom=    0.0000000   0.0000000   0.0000000   0.0000000   0.0000000   0.0000000   0.0000000   0.0000000   0.0000000   0.0000000
 NMagM=    0.0000000   0.0000000   0.0000000   0.0000000   0.0000000   0.0000000   0.0000000   0.0000000   0.0000000   0.0000000
 AtZNuc=   8.0000000   6.0000000   6.0000000   6.0000000   6.0000000   6.0000000   6.0000000   8.0000000   8.0000000   8.0000000

  Atom        11          12          13          14          15          16          17          18          19          20
 IAtWgt=          16          16          12          12          16          12          12          16          12          12
 AtmWgt=  15.9949146  15.9949146  12.0000000  12.0000000  15.9949146  12.0000000  12.0000000  15.9949146  12.0000000  12.0000000
 NucSpn=           0           0           0           0           0           0           0           0           0           0
 AtZEff=   0.0000000   0.0000000   0.0000000   0.0000000   0.0000000   0.0000000   0.0000000   0.0000000   0.0000000   0.0000000
 NQMom=    0.0000000   0.0000000   0.0000000   0.0000000   0.0000000   0.0000000   0.0000000   0.0000000   0.0000000   0.0000000
 NMagM=    0.0000000   0.0000000   0.0000000   0.0000000   0.0000000   0.0000000   0.0000000   0.0000000   0.0000000   0.0000000
 AtZNuc=   8.0000000   8.0000000   6.0000000   6.0000000   8.0000000   6.0000000   6.0000000   8.0000000   6.0000000   6.0000000

  Atom        21          22          23          24          25          26          27          28          29          30
 IAtWgt=          16          16          12          12          12          12          16          12          12          16
 AtmWgt=  15.9949146  15.9949146  12.0000000  12.0000000  12.0000000  12.0000000  15.9949146  12.0000000  12.0000000  15.9949146
 NucSpn=           0           0           0           0           0           0           0           0           0           0
 AtZEff=   0.0000000   0.0000000   0.0000000   0.0000000   0.0000000   0.0000000   0.0000000   0.0000000   0.0000000   0.0000000
 NQMom=    0.0000000   0.0000000   0.0000000   0.0000000   0.0000000   0.0000000   0.0000000   0.0000000   0.0000000   0.0000000
 NMagM=    0.0000000   0.0000000   0.0000000   0.0000000   0.0000000   0.0000000   0.0000000   0.0000000   0.0000000   0.0000000
 AtZNuc=   8.0000000   8.0000000   6.0000000   6.0000000   6.0000000   6.0000000   8.0000000   6.0000000   6.0000000   8.0000000

  Atom        31          32          33          34          35          36          37          38          39          40
 IAtWgt=          16          12          12          12          12          12          14          16          16          16
 AtmWgt=  15.9949146  12.0000000  12.0000000  12.0000000  12.0000000  12.0000000  14.0030740  15.9949146  15.9949146  15.9949146
 NucSpn=           0           0           0           0           0           0           2           0           0           0
 AtZEff=   0.0000000   0.0000000   0.0000000   0.0000000   0.0000000   0.0000000   0.0000000   0.0000000   0.0000000   0.0000000
 NQMom=    0.0000000   0.0000000   0.0000000   0.0000000   0.0000000   0.0000000   2.0440000   0.0000000   0.0000000   0.0000000
 NMagM=    0.0000000   0.0000000   0.0000000   0.0000000   0.0000000   0.0000000   0.4037610   0.0000000   0.0000000   0.0000000
 AtZNuc=   8.0000000   6.0000000   6.0000000   6.0000000   6.0000000   6.0000000   7.0000000   8.0000000   8.0000000   8.0000000

  Atom        41          42          43          44          45          46          47          48          49          50
 IAtWgt=           1           1           1           1           1           1           1           1           1           1
 AtmWgt=   1.0078250   1.0078250   1.0078250   1.0078250   1.0078250   1.0078250   1.0078250   1.0078250   1.0078250   1.0078250
 NucSpn=           1           1           1           1           1           1           1           1           1           1
 AtZEff=   0.0000000   0.0000000   0.0000000   0.0000000   0.0000000   0.0000000   0.0000000   0.0000000   0.0000000   0.0000000
 NQMom=    0.0000000   0.0000000   0.0000000   0.0000000   0.0000000   0.0000000   0.0000000   0.0000000   0.0000000   0.0000000
 NMagM=    2.7928460   2.7928460   2.7928460   2.7928460   2.7928460   2.7928460   2.7928460   2.7928460   2.7928460   2.7928460
 AtZNuc=   1.0000000   1.0000000   1.0000000   1.0000000   1.0000000   1.0000000   1.0000000   1.0000000   1.0000000   1.0000000

  Atom        51          52          53          54          55          56          57          58          59          60
 IAtWgt=           1           1           1           1           1           1           1           1           1           1
 AtmWgt=   1.0078250   1.0078250   1.0078250   1.0078250   1.0078250   1.0078250   1.0078250   1.0078250   1.0078250   1.0078250
 NucSpn=           1           1           1           1           1           1           1           1           1           1
 AtZEff=   0.0000000   0.0000000   0.0000000   0.0000000   0.0000000   0.0000000   0.0000000   0.0000000   0.0000000   0.0000000
 NQMom=    0.0000000   0.0000000   0.0000000   0.0000000   0.0000000   0.0000000   0.0000000   0.0000000   0.0000000   0.0000000
 NMagM=    2.7928460   2.7928460   2.7928460   2.7928460   2.7928460   2.7928460   2.7928460   2.7928460   2.7928460   2.7928460
 AtZNuc=   1.0000000   1.0000000   1.0000000   1.0000000   1.0000000   1.0000000   1.0000000   1.0000000   1.0000000   1.0000000

  Atom        61          62          63          64          65          66          67          68          69          70
 IAtWgt=           1           1           1           1           1           1           1           1           1           1
 AtmWgt=   1.0078250   1.0078250   1.0078250   1.0078250   1.0078250   1.0078250   1.0078250   1.0078250   1.0078250   1.0078250
 NucSpn=           1           1           1           1           1           1           1           1           1           1
 AtZEff=   0.0000000   0.0000000   0.0000000   0.0000000   0.0000000   0.0000000   0.0000000   0.0000000   0.0000000   0.0000000
 NQMom=    0.0000000   0.0000000   0.0000000   0.0000000   0.0000000   0.0000000   0.0000000   0.0000000   0.0000000   0.0000000
 NMagM=    2.7928460   2.7928460   2.7928460   2.7928460   2.7928460   2.7928460   2.7928460   2.7928460   2.7928460   2.7928460
 AtZNuc=   1.0000000   1.0000000   1.0000000   1.0000000   1.0000000   1.0000000   1.0000000   1.0000000   1.0000000   1.0000000

  Atom        71          72          73          74          75          76          77          78          79          80
 IAtWgt=           1           1           1           1           1           1           1           1           1           1
 AtmWgt=   1.0078250   1.0078250   1.0078250   1.0078250   1.0078250   1.0078250   1.0078250   1.0078250   1.0078250   1.0078250
 NucSpn=           1           1           1           1           1           1           1           1           1           1
 AtZEff=   0.0000000   0.0000000   0.0000000   0.0000000   0.0000000   0.0000000   0.0000000   0.0000000   0.0000000   0.0000000
 NQMom=    0.0000000   0.0000000   0.0000000   0.0000000   0.0000000   0.0000000   0.0000000   0.0000000   0.0000000   0.0000000
 NMagM=    2.7928460   2.7928460   2.7928460   2.7928460   2.7928460   2.7928460   2.7928460   2.7928460   2.7928460   2.7928460
 AtZNuc=   1.0000000   1.0000000   1.0000000   1.0000000   1.0000000   1.0000000   1.0000000   1.0000000   1.0000000   1.0000000

  Atom        81          82          83          84
 IAtWgt=           1           1           1           1
 AtmWgt=   1.0078250   1.0078250   1.0078250   1.0078250
 NucSpn=           1           1           1           1
 AtZEff=   0.0000000   0.0000000   0.0000000   0.0000000
 NQMom=    0.0000000   0.0000000   0.0000000   0.0000000
 NMagM=    2.7928460   2.7928460   2.7928460   2.7928460
 AtZNuc=   1.0000000   1.0000000   1.0000000   1.0000000
 Leave Link  101 at Thu May 19 17:48:37 2016, MaxMem= 10737418240 cpu:         3.9
 (Enter /share/apps//g09/l103.exe)

 GradGradGradGradGradGradGradGradGradGradGradGradGradGradGradGradGradGrad
 Berny optimization.
 Initialization pass.
                           ----------------------------
                           !    Initial Parameters    !
                           ! (Angstroms and Degrees)  !
 --------------------------                            --------------------------
 ! Name  Definition              Value          Derivative Info.                !
 --------------------------------------------------------------------------------
 ! R1    R(1,2)                  1.4303         estimate D2E/DX2                !
 ! R2    R(1,6)                  1.4355         estimate D2E/DX2                !
 ! R3    R(2,3)                  1.5343         estimate D2E/DX2                !
 ! R4    R(2,12)                 1.4086         estimate D2E/DX2                !
 ! R5    R(2,41)                 1.109          estimate D2E/DX2                !
 ! R6    R(3,4)                  1.5275         estimate D2E/DX2                !
 ! R7    R(3,11)                 1.4187         estimate D2E/DX2                !
 ! R8    R(3,42)                 1.1069         estimate D2E/DX2                !
 ! R9    R(4,5)                  1.5298         estimate D2E/DX2                !
 ! R10   R(4,10)                 1.4286         estimate D2E/DX2                !
 ! R11   R(4,43)                 1.1076         estimate D2E/DX2                !
 ! R12   R(5,6)                  1.5379         estimate D2E/DX2                !
 ! R13   R(5,9)                  1.4395         estimate D2E/DX2                !
 ! R14   R(5,44)                 1.1061         estimate D2E/DX2                !
 ! R15   R(6,7)                  1.527          estimate D2E/DX2                !
 ! R16   R(6,45)                 1.1099         estimate D2E/DX2                !
 ! R17   R(7,8)                  1.4405         estimate D2E/DX2                !
 ! R18   R(7,46)                 1.1027         estimate D2E/DX2                !
 ! R19   R(7,47)                 1.099          estimate D2E/DX2                !
 ! R20   R(8,48)                 0.9889         estimate D2E/DX2                !
 ! R21   R(9,49)                 0.9791         estimate D2E/DX2                !
 ! R22   R(10,50)                0.976          estimate D2E/DX2                !
 ! R23   R(11,51)                0.9852         estimate D2E/DX2                !
 ! R24   R(12,13)                1.4379         estimate D2E/DX2                !
 ! R25   R(13,14)                1.5255         estimate D2E/DX2                !
 ! R26   R(13,19)                1.5344         estimate D2E/DX2                !
 ! R27   R(13,52)                1.1006         estimate D2E/DX2                !
 ! R28   R(14,15)                1.4291         estimate D2E/DX2                !
 ! R29   R(14,16)                1.5279         estimate D2E/DX2                !
 ! R30   R(14,53)                1.1072         estimate D2E/DX2                !
 ! R31   R(15,54)                0.9772         estimate D2E/DX2                !
 ! R32   R(16,17)                1.5435         estimate D2E/DX2                !
 ! R33   R(16,40)                1.4179         estimate D2E/DX2                !
 ! R34   R(16,55)                1.1032         estimate D2E/DX2                !
 ! R35   R(17,18)                1.4561         estimate D2E/DX2                !
 ! R36   R(17,22)                1.4028         estimate D2E/DX2                !
 ! R37   R(17,56)                1.1043         estimate D2E/DX2                !
 ! R38   R(18,19)                1.4422         estimate D2E/DX2                !
 ! R39   R(19,20)                1.5351         estimate D2E/DX2                !
 ! R40   R(19,57)                1.1087         estimate D2E/DX2                !
 ! R41   R(20,21)                1.4261         estimate D2E/DX2                !
 ! R42   R(20,58)                1.1            estimate D2E/DX2                !
 ! R43   R(20,59)                1.1018         estimate D2E/DX2                !
 ! R44   R(21,60)                0.9725         estimate D2E/DX2                !
 ! R45   R(22,23)                1.4409         estimate D2E/DX2                !
 ! R46   R(23,24)                1.5304         estimate D2E/DX2                !
 ! R47   R(23,28)                1.5438         estimate D2E/DX2                !
 ! R48   R(23,61)                1.1018         estimate D2E/DX2                !
 ! R49   R(24,25)                1.5307         estimate D2E/DX2                !
 ! R50   R(24,39)                1.4345         estimate D2E/DX2                !
 ! R51   R(24,62)                1.1068         estimate D2E/DX2                !
 ! R52   R(25,26)                1.5294         estimate D2E/DX2                !
 ! R53   R(25,38)                1.425          estimate D2E/DX2                !
 ! R54   R(25,63)                1.1075         estimate D2E/DX2                !
 ! R55   R(26,27)                1.4434         estimate D2E/DX2                !
 ! R56   R(26,31)                1.3882         estimate D2E/DX2                !
 ! R57   R(26,64)                1.1115         estimate D2E/DX2                !
 ! R58   R(27,28)                1.436          estimate D2E/DX2                !
 ! R59   R(28,29)                1.524          estimate D2E/DX2                !
 ! R60   R(28,65)                1.1092         estimate D2E/DX2                !
 ! R61   R(29,30)                1.436          estimate D2E/DX2                !
 ! R62   R(29,66)                1.0988         estimate D2E/DX2                !
 ! R63   R(29,67)                1.0993         estimate D2E/DX2                !
 ! R64   R(30,68)                0.9889         estimate D2E/DX2                !
 ! R65   R(31,32)                1.4537         estimate D2E/DX2                !
 ! R66   R(32,33)                1.5249         estimate D2E/DX2                !
 ! R67   R(32,69)                1.1004         estimate D2E/DX2                !
 ! R68   R(32,70)                1.1018         estimate D2E/DX2                !
 ! R69   R(33,34)                1.5363         estimate D2E/DX2                !
 ! R70   R(33,71)                1.1027         estimate D2E/DX2                !
 ! R71   R(33,72)                1.1008         estimate D2E/DX2                !
 ! R72   R(34,35)                1.5356         estimate D2E/DX2                !
 ! R73   R(34,73)                1.1018         estimate D2E/DX2                !
 ! R74   R(34,74)                1.104          estimate D2E/DX2                !
 ! R75   R(35,36)                1.5262         estimate D2E/DX2                !
 ! R76   R(35,75)                1.0999         estimate D2E/DX2                !
 ! R77   R(35,76)                1.1016         estimate D2E/DX2                !
 ! R78   R(36,37)                1.5059         estimate D2E/DX2                !
 ! R79   R(36,77)                1.0992         estimate D2E/DX2                !
 ! R80   R(36,78)                1.098          estimate D2E/DX2                !
 ! R81   R(37,79)                1.0271         estimate D2E/DX2                !
 ! R82   R(37,80)                1.0602         estimate D2E/DX2                !
 ! R83   R(37,81)                1.0645         estimate D2E/DX2                !
 ! R84   R(38,82)                0.9739         estimate D2E/DX2                !
 ! R85   R(39,83)                0.9761         estimate D2E/DX2                !
 ! R86   R(40,84)                0.984          estimate D2E/DX2                !
 ! A1    A(2,1,6)              112.5246         estimate D2E/DX2                !
 ! A2    A(1,2,3)              110.3039         estimate D2E/DX2                !
 ! A3    A(1,2,12)             104.8229         estimate D2E/DX2                !
 ! A4    A(1,2,41)             110.2148         estimate D2E/DX2                !
 ! A5    A(3,2,12)             109.9026         estimate D2E/DX2                !
 ! A6    A(3,2,41)             110.9125         estimate D2E/DX2                !
 ! A7    A(12,2,41)            110.5216         estimate D2E/DX2                !
 ! A8    A(2,3,4)              109.6339         estimate D2E/DX2                !
 ! A9    A(2,3,11)             112.4001         estimate D2E/DX2                !
 ! A10   A(2,3,42)             106.9358         estimate D2E/DX2                !
 ! A11   A(4,3,11)             106.3492         estimate D2E/DX2                !
 ! A12   A(4,3,42)             109.7087         estimate D2E/DX2                !
 ! A13   A(11,3,42)            111.8144         estimate D2E/DX2                !
 ! A14   A(3,4,5)              111.4799         estimate D2E/DX2                !
 ! A15   A(3,4,10)             111.7839         estimate D2E/DX2                !
 ! A16   A(3,4,43)             108.095          estimate D2E/DX2                !
 ! A17   A(5,4,10)             106.4509         estimate D2E/DX2                !
 ! A18   A(5,4,43)             108.8465         estimate D2E/DX2                !
 ! A19   A(10,4,43)            110.1568         estimate D2E/DX2                !
 ! A20   A(4,5,6)              111.0084         estimate D2E/DX2                !
 ! A21   A(4,5,9)              109.9365         estimate D2E/DX2                !
 ! A22   A(4,5,44)             108.8238         estimate D2E/DX2                !
 ! A23   A(6,5,9)              109.8521         estimate D2E/DX2                !
 ! A24   A(6,5,44)             107.9826         estimate D2E/DX2                !
 ! A25   A(9,5,44)             109.1894         estimate D2E/DX2                !
 ! A26   A(1,6,5)              112.9591         estimate D2E/DX2                !
 ! A27   A(1,6,7)              106.9848         estimate D2E/DX2                !
 ! A28   A(1,6,45)             109.6296         estimate D2E/DX2                !
 ! A29   A(5,6,7)              112.991          estimate D2E/DX2                !
 ! A30   A(5,6,45)             106.9331         estimate D2E/DX2                !
 ! A31   A(7,6,45)             107.1833         estimate D2E/DX2                !
 ! A32   A(6,7,8)              113.0169         estimate D2E/DX2                !
 ! A33   A(6,7,46)             109.2883         estimate D2E/DX2                !
 ! A34   A(6,7,47)             109.4561         estimate D2E/DX2                !
 ! A35   A(8,7,46)             109.9134         estimate D2E/DX2                !
 ! A36   A(8,7,47)             106.8884         estimate D2E/DX2                !
 ! A37   A(46,7,47)            108.145          estimate D2E/DX2                !
 ! A38   A(7,8,48)             105.0767         estimate D2E/DX2                !
 ! A39   A(5,9,49)             105.748          estimate D2E/DX2                !
 ! A40   A(4,10,50)            106.7655         estimate D2E/DX2                !
 ! A41   A(3,11,51)            109.099          estimate D2E/DX2                !
 ! A42   A(2,12,13)            117.3775         estimate D2E/DX2                !
 ! A43   A(12,13,14)           108.3375         estimate D2E/DX2                !
 ! A44   A(12,13,19)           109.4909         estimate D2E/DX2                !
 ! A45   A(12,13,52)           110.8084         estimate D2E/DX2                !
 ! A46   A(14,13,19)           108.0816         estimate D2E/DX2                !
 ! A47   A(14,13,52)           110.2915         estimate D2E/DX2                !
 ! A48   A(19,13,52)           109.7735         estimate D2E/DX2                !
 ! A49   A(13,14,15)           110.1852         estimate D2E/DX2                !
 ! A50   A(13,14,16)           109.5391         estimate D2E/DX2                !
 ! A51   A(13,14,53)           108.258          estimate D2E/DX2                !
 ! A52   A(15,14,16)           110.4296         estimate D2E/DX2                !
 ! A53   A(15,14,53)           109.2497         estimate D2E/DX2                !
 ! A54   A(16,14,53)           109.1386         estimate D2E/DX2                !
 ! A55   A(14,15,54)           106.1208         estimate D2E/DX2                !
 ! A56   A(14,16,17)           110.9112         estimate D2E/DX2                !
 ! A57   A(14,16,40)           107.4445         estimate D2E/DX2                !
 ! A58   A(14,16,55)           106.6512         estimate D2E/DX2                !
 ! A59   A(17,16,40)           111.1922         estimate D2E/DX2                !
 ! A60   A(17,16,55)           109.6015         estimate D2E/DX2                !
 ! A61   A(40,16,55)           110.9303         estimate D2E/DX2                !
 ! A62   A(16,17,18)           111.1509         estimate D2E/DX2                !
 ! A63   A(16,17,22)           114.4858         estimate D2E/DX2                !
 ! A64   A(16,17,56)           109.6535         estimate D2E/DX2                !
 ! A65   A(18,17,22)           107.9109         estimate D2E/DX2                !
 ! A66   A(18,17,56)           108.8951         estimate D2E/DX2                !
 ! A67   A(22,17,56)           104.4274         estimate D2E/DX2                !
 ! A68   A(17,18,19)           113.9513         estimate D2E/DX2                !
 ! A69   A(13,19,18)           109.7194         estimate D2E/DX2                !
 ! A70   A(13,19,20)           113.1899         estimate D2E/DX2                !
 ! A71   A(13,19,57)           108.7383         estimate D2E/DX2                !
 ! A72   A(18,19,20)           106.6541         estimate D2E/DX2                !
 ! A73   A(18,19,57)           109.2095         estimate D2E/DX2                !
 ! A74   A(20,19,57)           109.2604         estimate D2E/DX2                !
 ! A75   A(19,20,21)           111.6653         estimate D2E/DX2                !
 ! A76   A(19,20,58)           109.3099         estimate D2E/DX2                !
 ! A77   A(19,20,59)           109.2255         estimate D2E/DX2                !
 ! A78   A(21,20,58)           106.0671         estimate D2E/DX2                !
 ! A79   A(21,20,59)           112.4381         estimate D2E/DX2                !
 ! A80   A(58,20,59)           107.9918         estimate D2E/DX2                !
 ! A81   A(20,21,60)           109.1206         estimate D2E/DX2                !
 ! A82   A(17,22,23)           117.6663         estimate D2E/DX2                !
 ! A83   A(22,23,24)           109.5291         estimate D2E/DX2                !
 ! A84   A(22,23,28)           109.616          estimate D2E/DX2                !
 ! A85   A(22,23,61)           111.04           estimate D2E/DX2                !
 ! A86   A(24,23,28)           108.9336         estimate D2E/DX2                !
 ! A87   A(24,23,61)           109.5464         estimate D2E/DX2                !
 ! A88   A(28,23,61)           108.1369         estimate D2E/DX2                !
 ! A89   A(23,24,25)           111.2603         estimate D2E/DX2                !
 ! A90   A(23,24,39)           109.7529         estimate D2E/DX2                !
 ! A91   A(23,24,62)           108.1965         estimate D2E/DX2                !
 ! A92   A(25,24,39)           109.27           estimate D2E/DX2                !
 ! A93   A(25,24,62)           108.9634         estimate D2E/DX2                !
 ! A94   A(39,24,62)           109.367          estimate D2E/DX2                !
 ! A95   A(24,25,26)           111.2012         estimate D2E/DX2                !
 ! A96   A(24,25,38)           105.934          estimate D2E/DX2                !
 ! A97   A(24,25,63)           108.6572         estimate D2E/DX2                !
 ! A98   A(26,25,38)           112.8721         estimate D2E/DX2                !
 ! A99   A(26,25,63)           107.0868         estimate D2E/DX2                !
 ! A100  A(38,25,63)           111.0671         estimate D2E/DX2                !
 ! A101  A(25,26,27)           108.8843         estimate D2E/DX2                !
 ! A102  A(25,26,31)           107.9193         estimate D2E/DX2                !
 ! A103  A(25,26,64)           110.9911         estimate D2E/DX2                !
 ! A104  A(27,26,31)           108.3769         estimate D2E/DX2                !
 ! A105  A(27,26,64)           108.8155         estimate D2E/DX2                !
 ! A106  A(31,26,64)           111.7799         estimate D2E/DX2                !
 ! A107  A(26,27,28)           112.0552         estimate D2E/DX2                !
 ! A108  A(23,28,27)           108.3071         estimate D2E/DX2                !
 ! A109  A(23,28,29)           114.5377         estimate D2E/DX2                !
 ! A110  A(23,28,65)           108.9848         estimate D2E/DX2                !
 ! A111  A(27,28,29)           107.7066         estimate D2E/DX2                !
 ! A112  A(27,28,65)           110.1319         estimate D2E/DX2                !
 ! A113  A(29,28,65)           107.1359         estimate D2E/DX2                !
 ! A114  A(28,29,30)           113.443          estimate D2E/DX2                !
 ! A115  A(28,29,66)           108.5821         estimate D2E/DX2                !
 ! A116  A(28,29,67)           109.2671         estimate D2E/DX2                !
 ! A117  A(30,29,66)           107.1907         estimate D2E/DX2                !
 ! A118  A(30,29,67)           109.7131         estimate D2E/DX2                !
 ! A119  A(66,29,67)           108.5146         estimate D2E/DX2                !
 ! A120  A(29,30,68)           105.4819         estimate D2E/DX2                !
 ! A121  A(26,31,32)           114.5351         estimate D2E/DX2                !
 ! A122  A(31,32,33)           109.1194         estimate D2E/DX2                !
 ! A123  A(31,32,69)           109.1254         estimate D2E/DX2                !
 ! A124  A(31,32,70)           108.4268         estimate D2E/DX2                !
 ! A125  A(33,32,69)           111.1948         estimate D2E/DX2                !
 ! A126  A(33,32,70)           110.5973         estimate D2E/DX2                !
 ! A127  A(69,32,70)           108.321          estimate D2E/DX2                !
 ! A128  A(32,33,34)           114.4534         estimate D2E/DX2                !
 ! A129  A(32,33,71)           107.714          estimate D2E/DX2                !
 ! A130  A(32,33,72)           108.8709         estimate D2E/DX2                !
 ! A131  A(34,33,71)           110.6067         estimate D2E/DX2                !
 ! A132  A(34,33,72)           108.597          estimate D2E/DX2                !
 ! A133  A(71,33,72)           106.277          estimate D2E/DX2                !
 ! A134  A(33,34,35)           114.9801         estimate D2E/DX2                !
 ! A135  A(33,34,73)           108.7177         estimate D2E/DX2                !
 ! A136  A(33,34,74)           106.6569         estimate D2E/DX2                !
 ! A137  A(35,34,73)           109.2404         estimate D2E/DX2                !
 ! A138  A(35,34,74)           110.6497         estimate D2E/DX2                !
 ! A139  A(73,34,74)           106.2096         estimate D2E/DX2                !
 ! A140  A(34,35,36)           113.3884         estimate D2E/DX2                !
 ! A141  A(34,35,75)           110.5098         estimate D2E/DX2                !
 ! A142  A(34,35,76)           109.6622         estimate D2E/DX2                !
 ! A143  A(36,35,75)           108.949          estimate D2E/DX2                !
 ! A144  A(36,35,76)           107.2816         estimate D2E/DX2                !
 ! A145  A(75,35,76)           106.7918         estimate D2E/DX2                !
 ! A146  A(35,36,37)           112.7547         estimate D2E/DX2                !
 ! A147  A(35,36,77)           111.4833         estimate D2E/DX2                !
 ! A148  A(35,36,78)           111.4899         estimate D2E/DX2                !
 ! A149  A(37,36,77)           106.7262         estimate D2E/DX2                !
 ! A150  A(37,36,78)           106.3543         estimate D2E/DX2                !
 ! A151  A(77,36,78)           107.7064         estimate D2E/DX2                !
 ! A152  A(36,37,79)           110.2061         estimate D2E/DX2                !
 ! A153  A(36,37,80)           112.0974         estimate D2E/DX2                !
 ! A154  A(36,37,81)           108.9046         estimate D2E/DX2                !
 ! A155  A(79,37,80)           106.9073         estimate D2E/DX2                !
 ! A156  A(79,37,81)           108.2106         estimate D2E/DX2                !
 ! A157  A(80,37,81)           110.4344         estimate D2E/DX2                !
 ! A158  A(25,38,82)           108.0613         estimate D2E/DX2                !
 ! A159  A(24,39,83)           106.3185         estimate D2E/DX2                !
 ! A160  A(16,40,84)           105.9427         estimate D2E/DX2                !
 ! D1    D(6,1,2,3)            -61.7658         estimate D2E/DX2                !
 ! D2    D(6,1,2,12)           179.9799         estimate D2E/DX2                !
 ! D3    D(6,1,2,41)            61.041          estimate D2E/DX2                !
 ! D4    D(2,1,6,5)             57.44           estimate D2E/DX2                !
 ! D5    D(2,1,6,7)           -177.6051         estimate D2E/DX2                !
 ! D6    D(2,1,6,45)           -61.6986         estimate D2E/DX2                !
 ! D7    D(1,2,3,4)             59.0331         estimate D2E/DX2                !
 ! D8    D(1,2,3,11)           177.087          estimate D2E/DX2                !
 ! D9    D(1,2,3,42)           -59.8433         estimate D2E/DX2                !
 ! D10   D(12,2,3,4)           174.1244         estimate D2E/DX2                !
 ! D11   D(12,2,3,11)          -67.8217         estimate D2E/DX2                !
 ! D12   D(12,2,3,42)           55.248          estimate D2E/DX2                !
 ! D13   D(41,2,3,4)           -63.3645         estimate D2E/DX2                !
 ! D14   D(41,2,3,11)           54.6894         estimate D2E/DX2                !
 ! D15   D(41,2,3,42)          177.7591         estimate D2E/DX2                !
 ! D16   D(1,2,12,13)         -133.6821         estimate D2E/DX2                !
 ! D17   D(3,2,12,13)          107.792          estimate D2E/DX2                !
 ! D18   D(41,2,12,13)         -14.95           estimate D2E/DX2                !
 ! D19   D(2,3,4,5)            -52.9137         estimate D2E/DX2                !
 ! D20   D(2,3,4,10)          -171.9258         estimate D2E/DX2                !
 ! D21   D(2,3,4,43)            66.676          estimate D2E/DX2                !
 ! D22   D(11,3,4,5)          -174.6695         estimate D2E/DX2                !
 ! D23   D(11,3,4,10)           66.3184         estimate D2E/DX2                !
 ! D24   D(11,3,4,43)          -55.0798         estimate D2E/DX2                !
 ! D25   D(42,3,4,5)            64.2364         estimate D2E/DX2                !
 ! D26   D(42,3,4,10)          -54.7757         estimate D2E/DX2                !
 ! D27   D(42,3,4,43)         -176.1739         estimate D2E/DX2                !
 ! D28   D(2,3,11,51)           63.4244         estimate D2E/DX2                !
 ! D29   D(4,3,11,51)         -176.5981         estimate D2E/DX2                !
 ! D30   D(42,3,11,51)         -56.8639         estimate D2E/DX2                !
 ! D31   D(3,4,5,6)             48.2665         estimate D2E/DX2                !
 ! D32   D(3,4,5,9)            -73.4866         estimate D2E/DX2                !
 ! D33   D(3,4,5,44)           166.9722         estimate D2E/DX2                !
 ! D34   D(10,4,5,6)           170.4087         estimate D2E/DX2                !
 ! D35   D(10,4,5,9)            48.6556         estimate D2E/DX2                !
 ! D36   D(10,4,5,44)          -70.8856         estimate D2E/DX2                !
 ! D37   D(43,4,5,6)           -70.8771         estimate D2E/DX2                !
 ! D38   D(43,4,5,9)           167.3699         estimate D2E/DX2                !
 ! D39   D(43,4,5,44)           47.8287         estimate D2E/DX2                !
 ! D40   D(3,4,10,50)          -46.4196         estimate D2E/DX2                !
 ! D41   D(5,4,10,50)         -168.3692         estimate D2E/DX2                !
 ! D42   D(43,4,10,50)          73.779          estimate D2E/DX2                !
 ! D43   D(4,5,6,1)            -49.8371         estimate D2E/DX2                !
 ! D44   D(4,5,6,7)           -171.4628         estimate D2E/DX2                !
 ! D45   D(4,5,6,45)            70.8501         estimate D2E/DX2                !
 ! D46   D(9,5,6,1)             71.9653         estimate D2E/DX2                !
 ! D47   D(9,5,6,7)            -49.6604         estimate D2E/DX2                !
 ! D48   D(9,5,6,45)          -167.3475         estimate D2E/DX2                !
 ! D49   D(44,5,6,1)          -169.0486         estimate D2E/DX2                !
 ! D50   D(44,5,6,7)            69.3257         estimate D2E/DX2                !
 ! D51   D(44,5,6,45)          -48.3614         estimate D2E/DX2                !
 ! D52   D(4,5,9,49)           -39.9823         estimate D2E/DX2                !
 ! D53   D(6,5,9,49)          -162.4221         estimate D2E/DX2                !
 ! D54   D(44,5,9,49)           79.3357         estimate D2E/DX2                !
 ! D55   D(1,6,7,8)            -61.1854         estimate D2E/DX2                !
 ! D56   D(1,6,7,46)           176.0806         estimate D2E/DX2                !
 ! D57   D(1,6,7,47)            57.8155         estimate D2E/DX2                !
 ! D58   D(5,6,7,8)             63.7501         estimate D2E/DX2                !
 ! D59   D(5,6,7,46)           -58.9839         estimate D2E/DX2                !
 ! D60   D(5,6,7,47)          -177.249          estimate D2E/DX2                !
 ! D61   D(45,6,7,8)          -178.7095         estimate D2E/DX2                !
 ! D62   D(45,6,7,46)           58.5564         estimate D2E/DX2                !
 ! D63   D(45,6,7,47)          -59.7087         estimate D2E/DX2                !
 ! D64   D(6,7,8,48)           -45.9542         estimate D2E/DX2                !
 ! D65   D(46,7,8,48)           76.4312         estimate D2E/DX2                !
 ! D66   D(47,7,8,48)         -166.4306         estimate D2E/DX2                !
 ! D67   D(2,12,13,14)        -131.1859         estimate D2E/DX2                !
 ! D68   D(2,12,13,19)         111.1581         estimate D2E/DX2                !
 ! D69   D(2,12,13,52)         -10.068          estimate D2E/DX2                !
 ! D70   D(12,13,14,15)         62.5167         estimate D2E/DX2                !
 ! D71   D(12,13,14,16)        -59.1577         estimate D2E/DX2                !
 ! D72   D(12,13,14,53)       -178.0661         estimate D2E/DX2                !
 ! D73   D(19,13,14,15)       -178.9297         estimate D2E/DX2                !
 ! D74   D(19,13,14,16)         59.3959         estimate D2E/DX2                !
 ! D75   D(19,13,14,53)        -59.5124         estimate D2E/DX2                !
 ! D76   D(52,13,14,15)        -58.9203         estimate D2E/DX2                !
 ! D77   D(52,13,14,16)        179.4053         estimate D2E/DX2                !
 ! D78   D(52,13,14,53)         60.497          estimate D2E/DX2                !
 ! D79   D(12,13,19,18)         56.3436         estimate D2E/DX2                !
 ! D80   D(12,13,19,20)        -62.6529         estimate D2E/DX2                !
 ! D81   D(12,13,19,57)        175.7285         estimate D2E/DX2                !
 ! D82   D(14,13,19,18)        -61.4725         estimate D2E/DX2                !
 ! D83   D(14,13,19,20)        179.531          estimate D2E/DX2                !
 ! D84   D(14,13,19,57)         57.9124         estimate D2E/DX2                !
 ! D85   D(52,13,19,18)        178.1932         estimate D2E/DX2                !
 ! D86   D(52,13,19,20)         59.1967         estimate D2E/DX2                !
 ! D87   D(52,13,19,57)        -62.4219         estimate D2E/DX2                !
 ! D88   D(13,14,15,54)       -166.9218         estimate D2E/DX2                !
 ! D89   D(16,14,15,54)        -45.7777         estimate D2E/DX2                !
 ! D90   D(53,14,15,54)         74.2656         estimate D2E/DX2                !
 ! D91   D(13,14,16,17)        -54.8725         estimate D2E/DX2                !
 ! D92   D(13,14,16,40)       -176.5884         estimate D2E/DX2                !
 ! D93   D(13,14,16,55)         64.4106         estimate D2E/DX2                !
 ! D94   D(15,14,16,17)       -176.3999         estimate D2E/DX2                !
 ! D95   D(15,14,16,40)         61.8842         estimate D2E/DX2                !
 ! D96   D(15,14,16,55)        -57.1168         estimate D2E/DX2                !
 ! D97   D(53,14,16,17)         63.49           estimate D2E/DX2                !
 ! D98   D(53,14,16,40)        -58.2259         estimate D2E/DX2                !
 ! D99   D(53,14,16,55)       -177.2269         estimate D2E/DX2                !
 ! D100  D(14,16,17,18)         51.2361         estimate D2E/DX2                !
 ! D101  D(14,16,17,22)        173.8203         estimate D2E/DX2                !
 ! D102  D(14,16,17,56)        -69.2202         estimate D2E/DX2                !
 ! D103  D(40,16,17,18)        170.7304         estimate D2E/DX2                !
 ! D104  D(40,16,17,22)        -66.6853         estimate D2E/DX2                !
 ! D105  D(40,16,17,56)         50.2742         estimate D2E/DX2                !
 ! D106  D(55,16,17,18)        -66.2597         estimate D2E/DX2                !
 ! D107  D(55,16,17,22)         56.3245         estimate D2E/DX2                !
 ! D108  D(55,16,17,56)        173.284          estimate D2E/DX2                !
 ! D109  D(14,16,40,84)       -160.134          estimate D2E/DX2                !
 ! D110  D(17,16,40,84)         78.3257         estimate D2E/DX2                !
 ! D111  D(55,16,40,84)        -43.9177         estimate D2E/DX2                !
 ! D112  D(16,17,18,19)        -54.8331         estimate D2E/DX2                !
 ! D113  D(22,17,18,19)        178.8619         estimate D2E/DX2                !
 ! D114  D(56,17,18,19)         66.0701         estimate D2E/DX2                !
 ! D115  D(16,17,22,23)        -54.6266         estimate D2E/DX2                !
 ! D116  D(18,17,22,23)         69.6974         estimate D2E/DX2                !
 ! D117  D(56,17,22,23)       -174.5452         estimate D2E/DX2                !
 ! D118  D(17,18,19,13)         60.3423         estimate D2E/DX2                !
 ! D119  D(17,18,19,20)       -176.7117         estimate D2E/DX2                !
 ! D120  D(17,18,19,57)        -58.7532         estimate D2E/DX2                !
 ! D121  D(13,19,20,21)        -55.4291         estimate D2E/DX2                !
 ! D122  D(13,19,20,58)         61.6193         estimate D2E/DX2                !
 ! D123  D(13,19,20,59)        179.5769         estimate D2E/DX2                !
 ! D124  D(18,19,20,21)       -176.1791         estimate D2E/DX2                !
 ! D125  D(18,19,20,58)        -59.1307         estimate D2E/DX2                !
 ! D126  D(18,19,20,59)         58.8268         estimate D2E/DX2                !
 ! D127  D(57,19,20,21)         65.8958         estimate D2E/DX2                !
 ! D128  D(57,19,20,58)       -177.0557         estimate D2E/DX2                !
 ! D129  D(57,19,20,59)        -59.0982         estimate D2E/DX2                !
 ! D130  D(19,20,21,60)        -83.2086         estimate D2E/DX2                !
 ! D131  D(58,20,21,60)        157.7992         estimate D2E/DX2                !
 ! D132  D(59,20,21,60)         39.979          estimate D2E/DX2                !
 ! D133  D(17,22,23,24)        120.6043         estimate D2E/DX2                !
 ! D134  D(17,22,23,28)       -119.9301         estimate D2E/DX2                !
 ! D135  D(17,22,23,61)         -0.5126         estimate D2E/DX2                !
 ! D136  D(22,23,24,25)        172.4053         estimate D2E/DX2                !
 ! D137  D(22,23,24,39)        -66.5318         estimate D2E/DX2                !
 ! D138  D(22,23,24,62)         52.7389         estimate D2E/DX2                !
 ! D139  D(28,23,24,25)         52.5208         estimate D2E/DX2                !
 ! D140  D(28,23,24,39)        173.5837         estimate D2E/DX2                !
 ! D141  D(28,23,24,62)        -67.1455         estimate D2E/DX2                !
 ! D142  D(61,23,24,25)        -65.5788         estimate D2E/DX2                !
 ! D143  D(61,23,24,39)         55.4841         estimate D2E/DX2                !
 ! D144  D(61,23,24,62)        174.7549         estimate D2E/DX2                !
 ! D145  D(22,23,28,27)       -179.0886         estimate D2E/DX2                !
 ! D146  D(22,23,28,29)         60.6992         estimate D2E/DX2                !
 ! D147  D(22,23,28,65)        -59.273          estimate D2E/DX2                !
 ! D148  D(24,23,28,27)        -59.258          estimate D2E/DX2                !
 ! D149  D(24,23,28,29)       -179.4703         estimate D2E/DX2                !
 ! D150  D(24,23,28,65)         60.5575         estimate D2E/DX2                !
 ! D151  D(61,23,28,27)         59.7259         estimate D2E/DX2                !
 ! D152  D(61,23,28,29)        -60.4864         estimate D2E/DX2                !
 ! D153  D(61,23,28,65)        179.5414         estimate D2E/DX2                !
 ! D154  D(23,24,25,26)        -50.8663         estimate D2E/DX2                !
 ! D155  D(23,24,25,38)       -173.8428         estimate D2E/DX2                !
 ! D156  D(23,24,25,63)         66.7537         estimate D2E/DX2                !
 ! D157  D(39,24,25,26)       -172.2117         estimate D2E/DX2                !
 ! D158  D(39,24,25,38)         64.8118         estimate D2E/DX2                !
 ! D159  D(39,24,25,63)        -54.5917         estimate D2E/DX2                !
 ! D160  D(62,24,25,26)         68.3433         estimate D2E/DX2                !
 ! D161  D(62,24,25,38)        -54.6332         estimate D2E/DX2                !
 ! D162  D(62,24,25,63)       -174.0368         estimate D2E/DX2                !
 ! D163  D(23,24,39,83)       -174.7778         estimate D2E/DX2                !
 ! D164  D(25,24,39,83)        -52.5231         estimate D2E/DX2                !
 ! D165  D(62,24,39,83)         66.6722         estimate D2E/DX2                !
 ! D166  D(24,25,26,27)         54.5486         estimate D2E/DX2                !
 ! D167  D(24,25,26,31)        171.9875         estimate D2E/DX2                !
 ! D168  D(24,25,26,64)        -65.21           estimate D2E/DX2                !
 ! D169  D(38,25,26,27)        173.4446         estimate D2E/DX2                !
 ! D170  D(38,25,26,31)        -69.1166         estimate D2E/DX2                !
 ! D171  D(38,25,26,64)         53.686          estimate D2E/DX2                !
 ! D172  D(63,25,26,27)        -64.02           estimate D2E/DX2                !
 ! D173  D(63,25,26,31)         53.4189         estimate D2E/DX2                !
 ! D174  D(63,25,26,64)        176.2214         estimate D2E/DX2                !
 ! D175  D(24,25,38,82)       -172.7016         estimate D2E/DX2                !
 ! D176  D(26,25,38,82)         65.3858         estimate D2E/DX2                !
 ! D177  D(63,25,38,82)        -54.8946         estimate D2E/DX2                !
 ! D178  D(25,26,27,28)        -64.1038         estimate D2E/DX2                !
 ! D179  D(31,26,27,28)        178.7481         estimate D2E/DX2                !
 ! D180  D(64,26,27,28)         56.9959         estimate D2E/DX2                !
 ! D181  D(25,26,31,32)        170.4144         estimate D2E/DX2                !
 ! D182  D(27,26,31,32)        -71.8196         estimate D2E/DX2                !
 ! D183  D(64,26,31,32)         48.0955         estimate D2E/DX2                !
 ! D184  D(26,27,28,23)         66.8638         estimate D2E/DX2                !
 ! D185  D(26,27,28,29)       -168.7466         estimate D2E/DX2                !
 ! D186  D(26,27,28,65)        -52.2301         estimate D2E/DX2                !
 ! D187  D(23,28,29,30)         54.3702         estimate D2E/DX2                !
 ! D188  D(23,28,29,66)        173.4248         estimate D2E/DX2                !
 ! D189  D(23,28,29,67)        -68.3848         estimate D2E/DX2                !
 ! D190  D(27,28,29,30)        -66.1751         estimate D2E/DX2                !
 ! D191  D(27,28,29,66)         52.8796         estimate D2E/DX2                !
 ! D192  D(27,28,29,67)        171.07           estimate D2E/DX2                !
 ! D193  D(65,28,29,30)        175.3665         estimate D2E/DX2                !
 ! D194  D(65,28,29,66)        -65.5788         estimate D2E/DX2                !
 ! D195  D(65,28,29,67)         52.6116         estimate D2E/DX2                !
 ! D196  D(28,29,30,68)        -79.2862         estimate D2E/DX2                !
 ! D197  D(66,29,30,68)        160.8638         estimate D2E/DX2                !
 ! D198  D(67,29,30,68)         43.2222         estimate D2E/DX2                !
 ! D199  D(26,31,32,33)        139.8703         estimate D2E/DX2                !
 ! D200  D(26,31,32,69)         18.1876         estimate D2E/DX2                !
 ! D201  D(26,31,32,70)        -99.6018         estimate D2E/DX2                !
 ! D202  D(31,32,33,34)        -54.9032         estimate D2E/DX2                !
 ! D203  D(31,32,33,71)       -178.3475         estimate D2E/DX2                !
 ! D204  D(31,32,33,72)         66.8102         estimate D2E/DX2                !
 ! D205  D(69,32,33,34)         65.5177         estimate D2E/DX2                !
 ! D206  D(69,32,33,71)        -57.9267         estimate D2E/DX2                !
 ! D207  D(69,32,33,72)       -172.7689         estimate D2E/DX2                !
 ! D208  D(70,32,33,34)       -174.0911         estimate D2E/DX2                !
 ! D209  D(70,32,33,71)         62.4646         estimate D2E/DX2                !
 ! D210  D(70,32,33,72)        -52.3777         estimate D2E/DX2                !
 ! D211  D(32,33,34,35)        -63.6244         estimate D2E/DX2                !
 ! D212  D(32,33,34,73)        173.5765         estimate D2E/DX2                !
 ! D213  D(32,33,34,74)         59.4329         estimate D2E/DX2                !
 ! D214  D(71,33,34,35)         58.2517         estimate D2E/DX2                !
 ! D215  D(71,33,34,73)        -64.5474         estimate D2E/DX2                !
 ! D216  D(71,33,34,74)       -178.691          estimate D2E/DX2                !
 ! D217  D(72,33,34,35)        174.5122         estimate D2E/DX2                !
 ! D218  D(72,33,34,73)         51.7132         estimate D2E/DX2                !
 ! D219  D(72,33,34,74)        -62.4304         estimate D2E/DX2                !
 ! D220  D(33,34,35,36)        174.1006         estimate D2E/DX2                !
 ! D221  D(33,34,35,75)         51.449          estimate D2E/DX2                !
 ! D222  D(33,34,35,76)        -66.016          estimate D2E/DX2                !
 ! D223  D(73,34,35,36)        -63.3808         estimate D2E/DX2                !
 ! D224  D(73,34,35,75)        173.9676         estimate D2E/DX2                !
 ! D225  D(73,34,35,76)         56.5026         estimate D2E/DX2                !
 ! D226  D(74,34,35,36)         53.2028         estimate D2E/DX2                !
 ! D227  D(74,34,35,75)        -69.4488         estimate D2E/DX2                !
 ! D228  D(74,34,35,76)        173.0862         estimate D2E/DX2                !
 ! D229  D(34,35,36,37)        -66.4228         estimate D2E/DX2                !
 ! D230  D(34,35,36,77)         53.6081         estimate D2E/DX2                !
 ! D231  D(34,35,36,78)        174.0204         estimate D2E/DX2                !
 ! D232  D(75,35,36,37)         57.0881         estimate D2E/DX2                !
 ! D233  D(75,35,36,77)        177.119          estimate D2E/DX2                !
 ! D234  D(75,35,36,78)        -62.4687         estimate D2E/DX2                !
 ! D235  D(76,35,36,37)        172.3466         estimate D2E/DX2                !
 ! D236  D(76,35,36,77)        -67.6225         estimate D2E/DX2                !
 ! D237  D(76,35,36,78)         52.7899         estimate D2E/DX2                !
 ! D238  D(35,36,37,79)         40.0134         estimate D2E/DX2                !
 ! D239  D(35,36,37,80)        -78.9266         estimate D2E/DX2                !
 ! D240  D(35,36,37,81)        158.5706         estimate D2E/DX2                !
 ! D241  D(77,36,37,79)        -82.7199         estimate D2E/DX2                !
 ! D242  D(77,36,37,80)        158.3401         estimate D2E/DX2                !
 ! D243  D(77,36,37,81)         35.8373         estimate D2E/DX2                !
 ! D244  D(78,36,37,79)        162.499          estimate D2E/DX2                !
 ! D245  D(78,36,37,80)         43.559          estimate D2E/DX2                !
 ! D246  D(78,36,37,81)        -78.9438         estimate D2E/DX2                !
 --------------------------------------------------------------------------------
 Trust Radius=3.00D-01 FncErr=1.00D-07 GrdErr=1.00D-06
 Number of steps in this run=    504 maximum allowed number of steps=    504.
 GradGradGradGradGradGradGradGradGradGradGradGradGradGradGradGradGradGrad

 Leave Link  103 at Thu May 19 17:48:37 2016, MaxMem= 10737418240 cpu:         0.9
 (Enter /share/apps//g09/l202.exe)
 Stoichiometry    C23H44NO16(1+)
 Framework group  C1[X(C23H44NO16)]
 Deg. of freedom   246
 Full point group                 C1      NOp   1
 Largest Abelian subgroup         C1      NOp   1
 Largest concise Abelian subgroup C1      NOp   1
                         Standard orientation:                         
 ---------------------------------------------------------------------
 Center     Atomic      Atomic             Coordinates (Angstroms)
 Number     Number       Type             X           Y           Z
 ---------------------------------------------------------------------
      1          8           0        2.405024    1.439731    0.478832
      2          6           0        3.117807    0.294359    0.003675
      3          6           0        3.550470    0.503267   -1.453478
      4          6           0        4.438932    1.741828   -1.552534
      5          6           0        3.768040    2.964250   -0.923341
      6          6           0        3.207596    2.629880    0.469212
      7          6           0        2.349995    3.750945    1.051933
      8          8           0        1.160218    4.008353    0.281703
      9          8           0        2.708735    3.436146   -1.776233
     10          8           0        4.717411    2.087315   -2.910511
     11          8           0        4.319597   -0.580662   -1.949771
     12          8           0        2.191884   -0.764326    0.081894
     13          6           0        2.646235   -1.998565    0.663162
     14          6           0        2.250379   -3.141326   -0.266635
     15          8           0        2.898606   -2.994737   -1.531853
     16          6           0        0.732792   -3.154093   -0.443224
     17          6           0        0.019642   -3.221702    0.923944
     18          8           0        0.516741   -2.193497    1.827246
     19          6           0        1.946986   -2.217517    2.011310
     20          6           0        2.275682   -1.132262    3.046054
     21          8           0        3.681914   -1.003599    3.245499
     22          8           0       -1.376300   -3.099992    0.858186
     23          6           0       -1.916301   -1.944543    0.187665
     24          6           0       -2.792724   -2.395540   -0.983067
     25          6           0       -3.535753   -1.212295   -1.608186
     26          6           0       -4.265860   -0.392640   -0.543213
     27          8           0       -3.319622    0.001612    0.472953
     28          6           0       -2.779276   -1.128934    1.174332
     29          6           0       -2.024985   -0.603137    2.389752
     30          8           0       -0.860792    0.166247    2.050780
     31          8           0       -4.759042    0.754091   -1.150529
     32          6           0       -5.665307    1.533293   -0.323072
     33          6           0       -5.374052    3.016620   -0.523465
     34          6           0       -3.912932    3.417779   -0.269683
     35          6           0       -3.425630    3.214183    1.172236
     36          6           0       -1.935020    3.487787    1.352301
     37          7           0       -1.068393    2.495636    0.622624
     38          8           0       -4.417720   -1.772097   -2.577360
     39          8           0       -1.979532   -3.025535   -1.982902
     40          8           0        0.407802   -4.276121   -1.246902
     41          1           0        3.994711    0.092606    0.651940
     42          1           0        2.627606    0.657595   -2.044892
     43          1           0        5.382120    1.532845   -1.010750
     44          1           0        4.522822    3.764030   -0.804654
     45          1           0        4.078188    2.497994    1.144930
     46          1           0        2.954474    4.670085    1.127793
     47          1           0        2.021707    3.472782    2.063178
     48          1           0        1.463495    4.034153   -0.659242
     49          1           0        3.049085    3.357652   -2.690881
     50          1           0        4.969397    1.261296   -3.365158
     51          1           0        3.764030   -1.394311   -1.955256
     52          1           0        3.737209   -1.984453    0.807546
     53          1           0        2.569686   -4.093810    0.198937
     54          1           0        2.452124   -3.616668   -2.139158
     55          1           0        0.466007   -2.213153   -0.953688
     56          1           0        0.188177   -4.212167    1.382167
     57          1           0        2.246711   -3.207070    2.411416
     58          1           0        1.930709   -0.156924    2.672315
     59          1           0        1.736163   -1.348204    3.982186
     60          1           0        3.976189   -1.676760    3.882702
     61          1           0       -1.111176   -1.291173   -0.184888
     62          1           0       -3.533234   -3.123476   -0.600086
     63          1           0       -2.795215   -0.540701   -2.084692
     64          1           0       -5.075058   -0.988143   -0.067851
     65          1           0       -3.600333   -1.771812    1.552215
     66          1           0       -2.694939    0.055521    2.959660
     67          1           0       -1.737171   -1.448014    3.031475
     68          1           0       -0.160876   -0.496903    1.831161
     69          1           0       -5.534032    1.240744    0.729574
     70          1           0       -6.699348    1.297508   -0.621707
     71          1           0       -6.052287    3.583737    0.135563
     72          1           0       -5.640751    3.295735   -1.554384
     73          1           0       -3.782548    4.475044   -0.551138
     74          1           0       -3.297105    2.832892   -0.975012
     75          1           0       -3.644636    2.191376    1.512222
     76          1           0       -3.967342    3.896465    1.846369
     77          1           0       -1.660356    4.483791    0.977121
     78          1           0       -1.641409    3.436341    2.409022
     79          1           0       -1.474080    2.278069   -0.295543
     80          1           0       -0.983615    1.578333    1.147449
     81          1           0       -0.106964    2.925615    0.468067
     82          1           0       -4.822020   -1.039901   -3.076315
     83          1           0       -2.569795   -3.215525   -2.736777
     84          1           0       -0.487250   -4.095722   -1.613649
 ---------------------------------------------------------------------
 Rotational constants (GHZ):      0.1040456      0.0712990      0.0553169
 Leave Link  202 at Thu May 19 17:48:37 2016, MaxMem= 10737418240 cpu:         4.6
 (Enter /share/apps//g09/l301.exe)
 Standard basis: 6-311+G(d,p) (5D, 7F)
 Ernie: Thresh=  0.10000D-02 Tol=  0.10000D-05 Strict=F.
 There are  1184 symmetry adapted cartesian basis functions of A   symmetry.
 There are  1144 symmetry adapted basis functions of A   symmetry.
  1144 basis functions,  1792 primitive gaussians,  1184 cartesian basis functions
   158 alpha electrons      158 beta electrons
       nuclear repulsion energy      5824.4501307258 Hartrees.
 IExCor= 1009 DFT=T Ex+Corr=PBE1PBE ExCW=0 ScaHFX=  0.250000
 ScaDFX=  0.750000  0.750000  1.000000  1.000000 ScalE2=  1.000000  1.000000
 IRadAn=      0 IRanWt=     -1 IRanGd=            0 ICorTp=0 IEmpDi=131
 NAtoms=   84 NActive=   84 NUniq=   84 SFac= 1.00D+00 NAtFMM=   60 NAOKFM=T Big=T
 Integral buffers will be    131072 words long.
 Raffenetti 2 integral format.
 Two-electron integral symmetry is turned on.
 R6Disp:  Grimme-D3 Dispersion energy=       -0.0809139048 Hartrees.
 Nuclear repulsion after empirical dispersion term =     5824.3692168210 Hartrees.
 Leave Link  301 at Thu May 19 17:48:38 2016, MaxMem= 10737418240 cpu:         3.0
 (Enter /share/apps//g09/l302.exe)
 NPDir=0 NMtPBC=     1 NCelOv=     1 NCel=       1 NClECP=     1 NCelD=      1
         NCelK=      1 NCelE2=     1 NClLst=     1 CellRange=     0.0.
 One-electron integrals computed using PRISM.
 NBasis=  1144 RedAO= T EigKep=  1.66D-06  NBF=  1144
 NBsUse=  1144 1.00D-06 EigRej= -1.00D+00 NBFU=  1144
 Precomputing XC quadrature grid using
 IXCGrd= 4 IRadAn=           0 IRanWt=          -1 IRanGd=           0 AccXCQ= 0.00D+00.
 Generated NRdTot=       0 NPtTot=           0 NUsed=           0 NTot=          32
 NSgBfM=  1090  1096  1096  1096  1096 MxSgAt=    84 MxSgA2=    84.
 Leave Link  302 at Thu May 19 17:48:42 2016, MaxMem= 10737418240 cpu:        57.4
 (Enter /share/apps//g09/l303.exe)
 DipDrv:  MaxL=1.
 Leave Link  303 at Thu May 19 17:48:44 2016, MaxMem= 10737418240 cpu:        27.6
 (Enter /share/apps//g09/l401.exe)
 ExpMin= 4.38D-02 ExpMax= 8.59D+03 ExpMxC= 1.30D+03 IAcc=2 IRadAn=         4 AccDes= 0.00D+00
 Harris functional with IExCor= 1009 and IRadAn=       4 diagonalized for initial guess.
 HarFok:  IExCor= 1009 AccDes= 0.00D+00 IRadAn=         4 IDoV= 1 UseB2=F ITyADJ=14
 ICtDFT=  3500011 ScaDFX=  1.000000  1.000000  1.000000  1.000000
 FoFCou: FMM=F IPFlag=           0 FMFlag=      100000 FMFlg1=        2001
         NFxFlg=           0 DoJE=T BraDBF=F KetDBF=T FulRan=T
         wScrn=  0.000000 ICntrl=     500 IOpCl=  0 I1Cent=   200000004 NGrid=           0
         NMat0=    1 NMatS0=      1 NMatT0=    0 NMatD0=    1 NMtDS0=    0 NMtDT0=    0
 Petite list used in FoFCou.
 Harris En= -2159.71922414436    
 JPrj=0 DoOrth=F DoCkMO=F.
 Leave Link  401 at Thu May 19 17:48:50 2016, MaxMem= 10737418240 cpu:       116.4
 (Enter /share/apps//g09/l502.exe)
 Closed shell SCF:
 Using DIIS extrapolation, IDIIS=  1040.
 Integral symmetry usage will be decided dynamically.
 IVT=     4256630 IEndB=     4256630 NGot= 10737418240 MDV= 10734581291
 LenX= 10734581291 LenY= 10733178251
 Requested convergence on RMS density matrix=1.00D-08 within 128 cycles.
 Requested convergence on MAX density matrix=1.00D-06.
 Requested convergence on             energy=1.00D-06.
 No special actions if energy rises.
 Fock matrices will be formed incrementally for  20 cycles.

 Cycle   1  Pass 1  IDiag  1:
 FoFJK:  IHMeth= 1 ICntrl=       0 DoSepK=F KAlg= 0 I1Cent=   0 FoldK=F
 IRaf= 770000000 NMat=   1 IRICut=       1 DoRegI=T DoRafI=F ISym2E= 0.
 FoFCou: FMM=T IPFlag=           0 FMFlag=      100000 FMFlg1=        2001
         NFxFlg=           0 DoJE=F BraDBF=F KetDBF=F FulRan=T
         wScrn=  0.000000 ICntrl=       0 IOpCl=  0 I1Cent=           0 NGrid=           0
         NMat0=    1 NMatS0=      1 NMatT0=    0 NMatD0=    1 NMtDS0=    0 NMtDT0=    0
 Symmetry not used in FoFCou.
 FMM levels:  10  Number of levels for PrismC:   9
 E= -2158.71136498678    
 DIIS: error= 1.09D-02 at cycle   1 NSaved=   1.
 NSaved= 1 IEnMin= 1 EnMin= -2158.71136498678     IErMin= 1 ErrMin= 1.09D-02
 ErrMax= 1.09D-02  0.00D+00 EMaxC= 1.00D-01 BMatC= 1.01D+00 BMatP= 1.01D+00
 IDIUse=3 WtCom= 8.91D-01 WtEn= 1.09D-01
 Coeff-Com:  0.100D+01
 Coeff-En:   0.100D+01
 Coeff:      0.100D+01
 Gap=     0.276 Goal=   None    Shift=    0.000
 GapD=    0.276 DampG=1.000 DampE=0.500 DampFc=0.5000 IDamp=-1.
 Damping current iteration by 5.00D-01
 RMSDP=1.06D-02 MaxDP=1.61D+00              OVMax= 1.39D-01

 Cycle   2  Pass 1  IDiag  1:
 RMSU=  5.27D-03    CP:  1.02D+00
 E= -2158.99206799541     Delta-E=       -0.280703008627 Rises=F Damp=T
 DIIS: error= 4.22D-03 at cycle   2 NSaved=   2.
 NSaved= 2 IEnMin= 2 EnMin= -2158.99206799541     IErMin= 2 ErrMin= 4.22D-03
 ErrMax= 4.22D-03  0.00D+00 EMaxC= 1.00D-01 BMatC= 8.03D-02 BMatP= 1.01D+00
 IDIUse=3 WtCom= 9.58D-01 WtEn= 4.22D-02
 Coeff-Com:  0.603D-01 0.940D+00
 Coeff-En:   0.158D+00 0.842D+00
 Coeff:      0.644D-01 0.936D+00
 Gap=     0.283 Goal=   None    Shift=    0.000
 RMSDP=4.79D-03 MaxDP=1.49D+00 DE=-2.81D-01 OVMax= 8.07D-02

 Cycle   3  Pass 1  IDiag  1:
 RMSU=  2.80D-03    CP:  9.14D-01  8.39D-01
 E= -2159.35983578997     Delta-E=       -0.367767794563 Rises=F Damp=F
 DIIS: error= 3.99D-03 at cycle   3 NSaved=   3.
 NSaved= 3 IEnMin= 3 EnMin= -2159.35983578997     IErMin= 3 ErrMin= 3.99D-03
 ErrMax= 3.99D-03  0.00D+00 EMaxC= 1.00D-01 BMatC= 4.37D-02 BMatP= 8.03D-02
 IDIUse=3 WtCom= 9.60D-01 WtEn= 3.99D-02
 Coeff-Com: -0.663D-01 0.406D+00 0.661D+00
 Coeff-En:   0.000D+00 0.000D+00 0.100D+01
 Coeff:     -0.637D-01 0.390D+00 0.674D+00
 Gap=     0.270 Goal=   None    Shift=    0.000
 RMSDP=1.80D-03 MaxDP=4.57D-01 DE=-3.68D-01 OVMax= 1.70D-02

 Cycle   4  Pass 1  IDiag  1:
 RMSU=  1.17D-03    CP:  9.40D-01  1.00D+00  8.51D-01
 E= -2159.38659677250     Delta-E=       -0.026760982531 Rises=F Damp=F
 DIIS: error= 9.97D-04 at cycle   4 NSaved=   4.
 NSaved= 4 IEnMin= 4 EnMin= -2159.38659677250     IErMin= 4 ErrMin= 9.97D-04
 ErrMax= 9.97D-04  0.00D+00 EMaxC= 1.00D-01 BMatC= 6.40D-03 BMatP= 4.37D-02
 IDIUse=3 WtCom= 9.90D-01 WtEn= 9.97D-03
 Coeff-Com: -0.357D-01 0.123D+00 0.350D+00 0.563D+00
 Coeff-En:   0.000D+00 0.000D+00 0.996D-01 0.900D+00
 Coeff:     -0.354D-01 0.122D+00 0.347D+00 0.566D+00
 Gap=     0.263 Goal=   None    Shift=    0.000
 RMSDP=1.15D-03 MaxDP=3.44D-01 DE=-2.68D-02 OVMax= 6.14D-03

 Cycle   5  Pass 1  IDiag  1:
 RMSU=  2.87D-04    CP:  9.15D-01  9.50D-01  8.59D-01  5.79D-01
 E= -2159.39204644398     Delta-E=       -0.005449671474 Rises=F Damp=F
 DIIS: error= 2.67D-04 at cycle   5 NSaved=   5.
 NSaved= 5 IEnMin= 5 EnMin= -2159.39204644398     IErMin= 5 ErrMin= 2.67D-04
 ErrMax= 2.67D-04  0.00D+00 EMaxC= 1.00D-01 BMatC= 2.49D-04 BMatP= 6.40D-03
 IDIUse=3 WtCom= 9.97D-01 WtEn= 2.67D-03
 Coeff-Com: -0.113D-01 0.263D-01 0.106D+00 0.243D+00 0.637D+00
 Coeff-En:   0.000D+00 0.000D+00 0.000D+00 0.000D+00 0.100D+01
 Coeff:     -0.112D-01 0.262D-01 0.105D+00 0.242D+00 0.638D+00
 Gap=     0.262 Goal=   None    Shift=    0.000
 RMSDP=1.45D-04 MaxDP=4.54D-02 DE=-5.45D-03 OVMax= 1.55D-03

 Cycle   6  Pass 1  IDiag  1:
 RMSU=  7.57D-05    CP:  9.17D-01  9.58D-01  8.74D-01  6.04D-01  7.76D-01
 E= -2159.39222079063     Delta-E=       -0.000174346656 Rises=F Damp=F
 DIIS: error= 1.02D-04 at cycle   6 NSaved=   6.
 NSaved= 6 IEnMin= 6 EnMin= -2159.39222079063     IErMin= 6 ErrMin= 1.02D-04
 ErrMax= 1.02D-04  0.00D+00 EMaxC= 1.00D-01 BMatC= 3.12D-05 BMatP= 2.49D-04
 IDIUse=3 WtCom= 9.99D-01 WtEn= 1.02D-03
 Coeff-Com: -0.409D-02 0.736D-02 0.379D-01 0.101D+00 0.348D+00 0.510D+00
 Coeff-En:   0.000D+00 0.000D+00 0.000D+00 0.000D+00 0.000D+00 0.100D+01
 Coeff:     -0.409D-02 0.736D-02 0.379D-01 0.101D+00 0.347D+00 0.511D+00
 Gap=     0.262 Goal=   None    Shift=    0.000
 RMSDP=3.08D-05 MaxDP=1.02D-02 DE=-1.74D-04 OVMax= 6.47D-04

 Cycle   7  Pass 1  IDiag  1:
 RMSU=  1.54D-05    CP:  9.17D-01  9.58D-01  8.75D-01  6.12D-01  7.83D-01
                    CP:  7.15D-01
 E= -2159.39224260782     Delta-E=       -0.000021817194 Rises=F Damp=F
 DIIS: error= 2.62D-05 at cycle   7 NSaved=   7.
 NSaved= 7 IEnMin= 7 EnMin= -2159.39224260782     IErMin= 7 ErrMin= 2.62D-05
 ErrMax= 2.62D-05  0.00D+00 EMaxC= 1.00D-01 BMatC= 1.90D-06 BMatP= 3.12D-05
 IDIUse=1 WtCom= 1.00D+00 WtEn= 0.00D+00
 Coeff-Com: -0.107D-02 0.149D-02 0.104D-01 0.315D-01 0.124D+00 0.257D+00
 Coeff-Com:  0.577D+00
 Coeff:     -0.107D-02 0.149D-02 0.104D-01 0.315D-01 0.124D+00 0.257D+00
 Coeff:      0.577D+00
 Gap=     0.263 Goal=   None    Shift=    0.000
 RMSDP=8.29D-06 MaxDP=1.70D-03 DE=-2.18D-05 OVMax= 1.72D-04

 Cycle   8  Pass 1  IDiag  1:
 RMSU=  6.31D-06    CP:  9.17D-01  9.58D-01  8.74D-01  6.15D-01  7.88D-01
                    CP:  7.06D-01  8.25D-01
 E= -2159.39224387784     Delta-E=       -0.000001270012 Rises=F Damp=F
 DIIS: error= 5.47D-06 at cycle   8 NSaved=   8.
 NSaved= 8 IEnMin= 8 EnMin= -2159.39224387784     IErMin= 8 ErrMin= 5.47D-06
 ErrMax= 5.47D-06  0.00D+00 EMaxC= 1.00D-01 BMatC= 1.43D-07 BMatP= 1.90D-06
 IDIUse=1 WtCom= 1.00D+00 WtEn= 0.00D+00
 Coeff-Com:  0.214D-05-0.200D-03 0.270D-03 0.238D-02 0.130D-01 0.497D-01
 Coeff-Com:  0.253D+00 0.682D+00
 Coeff:      0.214D-05-0.200D-03 0.270D-03 0.238D-02 0.130D-01 0.497D-01
 Coeff:      0.253D+00 0.682D+00
 Gap=     0.263 Goal=   None    Shift=    0.000
 RMSDP=3.85D-06 MaxDP=1.33D-03 DE=-1.27D-06 OVMax= 4.22D-05

 Cycle   9  Pass 1  IDiag  1:
 RMSU=  2.12D-06    CP:  9.17D-01  9.58D-01  8.75D-01  6.14D-01  7.90D-01
                    CP:  7.08D-01  8.63D-01  9.12D-01
 E= -2159.39224398352     Delta-E=       -0.000000105680 Rises=F Damp=F
 DIIS: error= 1.75D-06 at cycle   9 NSaved=   9.
 NSaved= 9 IEnMin= 9 EnMin= -2159.39224398352     IErMin= 9 ErrMin= 1.75D-06
 ErrMax= 1.75D-06  0.00D+00 EMaxC= 1.00D-01 BMatC= 1.36D-08 BMatP= 1.43D-07
 IDIUse=1 WtCom= 1.00D+00 WtEn= 0.00D+00
 Coeff-Com:  0.689D-04-0.187D-03-0.565D-03-0.914D-03-0.215D-02 0.552D-02
 Coeff-Com:  0.796D-01 0.323D+00 0.596D+00
 Coeff:      0.689D-04-0.187D-03-0.565D-03-0.914D-03-0.215D-02 0.552D-02
 Coeff:      0.796D-01 0.323D+00 0.596D+00
 Gap=     0.263 Goal=   None    Shift=    0.000
 RMSDP=1.11D-06 MaxDP=3.13D-04 DE=-1.06D-07 OVMax= 1.21D-05

 Cycle  10  Pass 1  IDiag  1:
 RMSU=  6.37D-07    CP:  9.17D-01  9.58D-01  8.75D-01  6.15D-01  7.89D-01
                    CP:  7.15D-01  8.68D-01  8.99D-01  7.58D-01
 E= -2159.39224399409     Delta-E=       -0.000000010571 Rises=F Damp=F
 DIIS: error= 6.08D-07 at cycle  10 NSaved=  10.
 NSaved=10 IEnMin=10 EnMin= -2159.39224399409     IErMin=10 ErrMin= 6.08D-07
 ErrMax= 6.08D-07  0.00D+00 EMaxC= 1.00D-01 BMatC= 1.69D-09 BMatP= 1.36D-08
 IDIUse=1 WtCom= 1.00D+00 WtEn= 0.00D+00
 Coeff-Com:  0.315D-04-0.737D-04-0.305D-03-0.636D-03-0.214D-02-0.128D-02
 Coeff-Com:  0.203D-01 0.109D+00 0.318D+00 0.557D+00
 Coeff:      0.315D-04-0.737D-04-0.305D-03-0.636D-03-0.214D-02-0.128D-02
 Coeff:      0.203D-01 0.109D+00 0.318D+00 0.557D+00
 Gap=     0.263 Goal=   None    Shift=    0.000
 RMSDP=3.69D-07 MaxDP=6.68D-05 DE=-1.06D-08 OVMax= 3.86D-06

 Cycle  11  Pass 1  IDiag  1:
 RMSU=  1.54D-07    CP:  9.17D-01  9.58D-01  8.75D-01  6.15D-01  7.90D-01
                    CP:  7.14D-01  8.72D-01  9.14D-01  7.81D-01  6.40D-01
 E= -2159.39224399505     Delta-E=       -0.000000000962 Rises=F Damp=F
 DIIS: error= 1.76D-07 at cycle  11 NSaved=  11.
 NSaved=11 IEnMin=11 EnMin= -2159.39224399505     IErMin=11 ErrMin= 1.76D-07
 ErrMax= 1.76D-07  0.00D+00 EMaxC= 1.00D-01 BMatC= 1.40D-10 BMatP= 1.69D-09
 IDIUse=1 WtCom= 1.00D+00 WtEn= 0.00D+00
 Coeff-Com:  0.882D-05-0.190D-04-0.104D-03-0.231D-03-0.845D-03-0.110D-02
 Coeff-Com:  0.310D-02 0.257D-01 0.108D+00 0.283D+00 0.582D+00
 Coeff:      0.882D-05-0.190D-04-0.104D-03-0.231D-03-0.845D-03-0.110D-02
 Coeff:      0.310D-02 0.257D-01 0.108D+00 0.283D+00 0.582D+00
 Gap=     0.263 Goal=   None    Shift=    0.000
 RMSDP=6.89D-08 MaxDP=2.68D-05 DE=-9.62D-10 OVMax= 1.07D-06

 Cycle  12  Pass 1  IDiag  1:
 RMSU=  4.08D-08    CP:  9.17D-01  9.58D-01  8.75D-01  6.15D-01  7.90D-01
                    CP:  7.14D-01  8.73D-01  9.16D-01  7.92D-01  6.55D-01
                    CP:  8.31D-01
 E= -2159.39224399522     Delta-E=       -0.000000000167 Rises=F Damp=F
 DIIS: error= 4.41D-08 at cycle  12 NSaved=  12.
 NSaved=12 IEnMin=12 EnMin= -2159.39224399522     IErMin=12 ErrMin= 4.41D-08
 ErrMax= 4.41D-08  0.00D+00 EMaxC= 1.00D-01 BMatC= 7.18D-12 BMatP= 1.40D-10
 IDIUse=1 WtCom= 1.00D+00 WtEn= 0.00D+00
 Coeff-Com:  0.245D-06-0.218D-06-0.131D-04-0.311D-04-0.131D-03-0.302D-03
 Coeff-Com: -0.760D-03-0.673D-03 0.111D-01 0.592D-01 0.229D+00 0.703D+00
 Coeff:      0.245D-06-0.218D-06-0.131D-04-0.311D-04-0.131D-03-0.302D-03
 Coeff:     -0.760D-03-0.673D-03 0.111D-01 0.592D-01 0.229D+00 0.703D+00
 Gap=     0.263 Goal=   None    Shift=    0.000
 RMSDP=2.28D-08 MaxDP=5.24D-06 DE=-1.67D-10 OVMax= 2.53D-07

 Cycle  13  Pass 1  IDiag  1:
 RMSU=  1.63D-08    CP:  9.17D-01  9.58D-01  8.75D-01  6.15D-01  7.90D-01
                    CP:  7.14D-01  8.72D-01  9.16D-01  7.93D-01  6.66D-01
                    CP:  8.10D-01  9.24D-01
 E= -2159.39224399518     Delta-E=        0.000000000036 Rises=F Damp=F
 DIIS: error= 1.34D-08 at cycle  13 NSaved=  13.
 NSaved=13 IEnMin=12 EnMin= -2159.39224399522     IErMin=13 ErrMin= 1.34D-08
 ErrMax= 1.34D-08  0.00D+00 EMaxC= 1.00D-01 BMatC= 8.40D-13 BMatP= 7.18D-12
 IDIUse=1 WtCom= 1.00D+00 WtEn= 0.00D+00
 Coeff-Com: -0.407D-06 0.102D-05-0.169D-06-0.124D-05-0.118D-04-0.780D-04
 Coeff-Com: -0.564D-03-0.189D-02-0.143D-02 0.111D-01 0.725D-01 0.341D+00
 Coeff-Com:  0.579D+00
 Coeff:     -0.407D-06 0.102D-05-0.169D-06-0.124D-05-0.118D-04-0.780D-04
 Coeff:     -0.564D-03-0.189D-02-0.143D-02 0.111D-01 0.725D-01 0.341D+00
 Coeff:      0.579D+00
 Gap=     0.263 Goal=   None    Shift=    0.000
[...]
 8346,-0.00031025,-0.00060614,-0.00023152,0.00001068,-0.00003671,0.0000
 5560,-0.00012580,-0.00003727,0.00055175,0.00020468,-0.00025528,-0.0002
 3227,-0.00013079,0.00001132,0.00001102,-0.00001969,0.00000457,-0.00002
 391,0.00000072,0.00000413,-0.00001239,0.00001242,0.00004499,0.00002989
 ,-0.00000229,-0.00009533,0.00000706,-0.00001200,0.00111681,0.00124720,
 0.00157640,-0.19405436,0.21419216,0.11584633,-0.00179735,-0.00052882,-
 0.00044243,-0.00000390,-0.00000125,-0.00000362,0.00000274,-0.00000010,
 0.00000811,-0.00000151,-0.00000076,-0.00000140,-0.00000488,0.00000178,
 -0.00000564,-0.00000208,0.00000049,-0.00000306,-0.00000798,0.00000252,
 0.00000080,-0.00000034,0.00000139,0.00000192,0.00002700,0.00001341,0.0
 0000102,0.00001743,0.00000355,0.00001122,-0.00000233,-0.00000084,0.000
 01795,-0.00001237,0.00001844,0.00007009,-0.00000914,0.00000356,-0.0000
 0713,-0.00003887,-0.00001022,0.00005067,-0.00009099,0.00010006,0.00003
 858,-0.00000133,0.00006371,-0.00024151,0.00001307,0.00003122,-0.000009
 97,0.00000708,0.00000396,-0.00000157,0.00000097,-0.00000053,0.00000039
 ,0.00000192,-0.00000385,-0.00000258,-0.00000091,0.00000993,0.00000838,
 -0.00004342,0.00017939,-0.00008362,-0.00034069,-0.00100915,0.00055722,
 -0.00024249,0.00029956,0.00030790,0.00002742,-0.00000157,0.00002065,0.
 00001692,0.00006583,-0.00003491,0.00006462,-0.00018906,-0.00012168,-0.
 00002472,0.00004630,0.00003145,0.00001704,0.00004349,0.00004186,0.0000
 3768,0.00006444,0.00000470,0.00001431,0.00000298,-0.00000114,0.0000080
 2,0.00001180,0.00002629,-0.00002545,0.00000111,-0.00000521,-0.00000142
 ,0.00001341,0.00002304,0.00001067,-0.00000047,-0.00003674,0.00000975,-
 0.00001805,-0.00001266,-0.00000309,0.00000884,0.00000514,-0.00000251,-
 0.00000762,-0.00000396,-0.00001167,0.00000723,0.00000825,0.00005127,-0
 .00002381,-0.00004504,0.00011159,-0.00007280,0.00010565,0.00005089,0.0
 0001708,-0.00005099,0.00007190,0.00147824,0.00039558,0.18279552,0.0000
 1403,-0.00001546,0.00011890,0.00001431,0.00006056,-0.00022783,-0.00001
 145,0.00002617,0.00002613,0.00001527,0.00004710,-0.00003692,-0.0000250
 8,0.00002211,-0.00000354,0.00000774,0.00001176,-0.00008130,0.00001033,
 -0.00000276,-0.00000426,-0.00001884,-0.00002446,0.00005949,0.00001864,
 -0.00005388,0.00001305,-0.00000316,-0.00008823,0.00002949,0.00000129,-
 0.00008353,0.00004686,-0.00001983,-0.00004614,0.00026049,-0.00009391,-
 0.00003255,-0.00010075,0.00014343,0.00030675,-0.00023484,-0.00013554,-
 0.00025985,0.00014807,-0.00011444,-0.00022727,0.00011365,0.00041758,-0
 .00031761,-0.00030855,-0.00021943,0.00021770,0.00030147,0.00020413,-0.
 00000599,-0.00006304,0.00003249,-0.00004799,-0.00005967,-0.00007358,0.
 00003905,0.00007796,-0.00059192,0.00094444,0.00028664,-0.00464671,-0.0
 0375676,0.00071952,0.01567007,-0.02965472,-0.01506035,0.00016967,0.002
 02859,-0.00099517,0.00030630,-0.00105948,-0.00048254,-0.00007092,0.000
 18520,0.00017418,0.00125170,-0.00078255,-0.00087661,-0.00047199,-0.000
 27521,-0.00000494,0.00005176,0.00014222,0.00011819,0.00070870,0.000394
 06,0.00046147,-0.00021448,-0.00018468,0.00005560,0.00003812,0.00005953
 ,-0.00001905,0.00000885,-0.00000995,0.00000273,-0.00000577,0.00000133,
 -0.00001228,-0.00001361,-0.00001720,-0.00001986,0.00000175,-0.00001861
 ,0.00007763,0.00022463,-0.00140867,0.00032424,0.16990147,-0.29604160,-
 0.13777805,-0.00146721,0.00009373,0.00037586,-0.00000515,-0.00000303,0
 .00001649,0.00000504,0.00001049,-0.00000088,0.00000662,-0.00000477,0.0
 0000006,0.00000353,-0.00000381,0.00000532,-0.00000535,-0.00000073,0.00
 000481,-0.00000017,0.00000158,0.00000911,-0.00000219,-0.00000777,-0.00
 000467,0.00000271,0.00003701,-0.00001462,-0.00001121,0.00002644,0.0000
 0029,-0.00000330,0.00003427,-0.00000196,-0.00000353,0.00007456,-0.0000
 7939,0.00000350,0.00000995,0.00003818,-0.00007272,-0.00001643,0.000047
 81,0.00004768,0.00017414,-0.00003468,0.00012627,0.00001356,-0.00032430
 ,-0.00001031,0.00003905,-0.00000631,-0.00002330,-0.00000629,-0.0000006
 1,-0.00000085,0.00000592,-0.00000656,0.00000044,-0.00000066,0.00000388
 ,0.00001576,-0.00001527,-0.00001153,-0.00013765,0.00028147,0.00010495,
 0.00089758,0.00046705,0.00035620,-0.00009062,0.00004535,0.00002836,-0.
 00002522,-0.00002100,0.00004854,0.00001917,-0.00003151,0.00005050,0.00
 008384,-0.00009720,-0.00005309,-0.00000679,-0.00001426,0.00000698,-0.0
 0002835,-0.00005935,-0.00007416,0.00001566,0.00001123,-0.00000538,0.00
 002974,0.00002312,-0.00000601,0.00001192,0.00000336,0.00003484,0.00000
 047,-0.00001289,0.00000809,0.00000416,0.00000929,0.00002283,-0.0000038
 0,0.00001448,-0.00002792,-0.00000330,-0.00002475,-0.00000408,0.0000057
 0,0.00000215,0.00000719,0.00000443,-0.00000060,0.00000709,-0.00000110,
 0.00000306,-0.00000224,-0.00000692,0.00001593,-0.00005419,-0.00003395,
 0.00000608,-0.00009097,0.00004005,0.00002536,-0.00007882,0.00020414,0.
 00060107,0.00028472,-0.18494766,0.32785921,-0.00003196,0.00002228,0.00
 000180,0.00002044,-0.00003351,0.00004915,0.00008550,-0.00002727,0.0000
 0161,-0.00000081,0.00000768,-0.00001629,0.00003955,-0.00002946,-0.0000
 1090,0.00000346,-0.00000859,-0.00001665,0.00004632,-0.00003261,-0.0000
 1528,-0.00005235,0.00003187,0.00005287,-0.00004710,0.00003396,0.000033
 31,-0.00003007,0.00000371,0.00002143,-0.00006233,0.00002415,-0.0000203
 9,-0.00005641,0.00004628,-0.00009152,0.00004797,-0.00000289,0.00007537
 ,0.00005532,-0.00016045,0.00008260,-0.00008570,0.00008333,-0.00004747,
 0.00032059,-0.00001563,-0.00027838,0.00028405,-0.00000902,-0.00011158,
 -0.00006342,-0.00002395,-0.00001792,0.00002284,-0.00000268,0.00000573,
 0.00001996,-0.00001680,0.00000381,-0.00002345,0.00001662,0.00000119,-0
 .00004924,0.00053208,0.00017059,-0.00176889,-0.00132288,-0.00054970,0.
 00236737,-0.00339477,-0.00219449,0.00020039,-0.00169656,0.00034640,0.0
 0024189,-0.00123498,-0.00047598,-0.00033289,0.00056525,0.00003487,0.00
 078991,-0.00050450,0.00046662,-0.00018945,-0.00007696,0.00006385,-0.00
 003675,0.00005907,-0.00006635,0.00057491,0.00056245,0.00024063,-0.0002
 4690,-0.00022516,0.00002346,0.00004753,0.00005156,-0.00001099,-0.00002
 262,-0.00004295,-0.00001328,0.00001015,-0.00000188,0.00000239,-0.00001
 344,-0.00000755,-0.00002035,-0.00002563,0.00001574,0.00001628,0.001006
 98,0.00158810,-0.00071023,0.10136379,-0.14921555,-0.08047913,-0.001430
 83,-0.00016061,-0.00025850,-0.00000816,0.00000761,-0.00000078,-0.00002
 109,0.00000743,-0.00001120,-0.00000805,0.00000335,0.00000763,-0.000005
 64,0.00000576,0.00000750,-0.00000811,0.00000259,0.00000140,-0.00000782
 ,0.00000064,0.00000694,0.00000090,0.00000285,-0.00000326,0.00000949,-0
 .00001147,-0.00002137,0.00001700,-0.00000518,-0.00002742,0.00002392,0.
 00000188,-0.00001404,0.00003972,-0.00002988,0.00002643,-0.00000721,-0.
 00000429,-0.00000735,0.00001594,0.00001981,-0.00001986,0.00007798,-0.0
 0001828,0.00005554,-0.00000880,-0.00008514,0.00012316,-0.00005596,0.00
 000860,0.00001389,-0.00001116,0.00000652,-0.00000724,-0.00000361,-0.00
 000048,-0.00000217,0.00000013,0.00000210,0.00000090,0.00000752,-0.0000
 0483,0.00000096,-0.00006555,0.00016040,0.00021760,0.00017987,0.0013920
 6,0.00052169,-0.00037551,-0.00011604,-0.00081967,0.00017655,0.00025271
 ,0.00002013,-0.00005429,-0.00002686,-0.00003786,0.00004656,-0.00004704
 ,-0.00003336,-0.00002041,0.00002034,0.00001894,0.00004257,0.00000074,0
 .00001228,0.00001973,0.00003725,0.00000205,0.00004719,0.00001706,-0.00
 000433,0.00001702,0.00001198,0.00003353,-0.00001760,-0.00000659,0.0000
 0294,0.00000267,0.00001034,0.00001664,0.00001786,0.00001148,-0.0000275
 5,-0.00000187,-0.00002251,-0.00000899,0.00000335,0.00001065,0.00000698
 ,0.00000175,-0.00000553,-0.00000010,-0.00000258,0.00000855,0.00000436,
 -0.00000230,-0.00005098,-0.00005635,0.00005914,-0.00005535,0.00004487,
 0.00004140,-0.00000024,-0.00006215,-0.00030185,-0.00000763,-0.00033061
 ,-0.10398890,0.15210806,0.08304850,-0.00038259,-0.00016297,-0.00051711
 ,0.00025313,0.00002239,0.00102936,0.00027305,0.00005167,0.00007891,-0.
 00001986,-0.00005450,0.00012176,0.00016169,-0.00004445,-0.00000612,-0.
 00004475,0.00000830,0.00026114,0.00022984,-0.00005702,-0.00003240,-0.0
 0029980,0.00000303,0.00014213,-0.00021469,0.00003434,-0.00005564,-0.00
 004167,0.00010398,-0.00015434,-0.00020568,0.00001167,-0.00054978,-0.00
 023646,-0.00002928,-0.00120504,0.00124198,0.00021921,0.00026358,-0.000
 51321,-0.00153471,-0.00151094,0.00063864,0.00020780,-0.00099189,0.0056
 2711,-0.00001242,0.00247977,0.00451299,0.00153816,-0.00256710,-0.00142
 825,-0.00245344,-0.00082026,-0.00025973,0.00043949,0.00006166,-0.00002
 465,0.00010819,0.00025640,0.00001443,-0.00021399,-0.00018728,-0.003841
 05,0.00070179,0.00044651,0.00208509,-0.00126359,-0.00038810,-0.0034915
 2,-0.00986877,-0.00080444,0.00097590,0.00231754,-0.00021448,0.00008573
 ,-0.00177258,-0.00072452,-0.00049306,0.00065181,0.00033600,-0.00053531
 ,0.00017637,0.00033484,0.00073717,0.00004080,-0.00047124,-0.00087739,-
 0.00000408,0.00038962,0.00111555,0.00082173,0.00072902,-0.00047004,-0.
 00044323,-0.00002939,0.00007150,0.00008413,-0.00004861,-0.00000495,-0.
 00004601,0.00000936,0.00000187,-0.00000473,-0.00002783,0.00006783,0.00
 003210,-0.00001944,-0.00017442,-0.00004622,0.00014086,0.00080542,0.000
 19531,0.00024568,0.00219618,0.00428700,0.00159416,-0.43276151,0.118222
 13,0.11512297,-0.00001223,0.00001392,-0.00005664,-0.00003046,0.0000046
 0,0.00001441,-0.00001673,0.00000481,0.00000522,-0.00002766,0.00001148,
 -0.00002677,-0.00000005,0.00000332,-0.00001527,-0.00004350,0.00000475,
 -0.00000195,0.00000298,0.00000178,0.00000826,0.00009801,0.00005497,0.0
 0000190,0.00006818,-0.00001345,0.00003231,0.00000733,-0.00005089,0.000
 07816,0.00002404,-0.00015224,0.00066144,-0.00003011,-0.00018061,-0.000
 38276,0.00000741,-0.00007953,0.00017969,-0.00103784,-0.00033265,0.0007
 1643,0.00000317,-0.00134815,-0.00333501,-0.00027663,0.00025781,0.00004
 764,-0.00003089,0.00004632,-0.00001821,0.00001495,0.00002145,-0.000047
 94,0.00001544,-0.00008518,-0.00002722,-0.00002732,0.00009267,0.0000530
 5,0.00013527,0.00007815,0.00002021,0.00069600,0.00099597,-0.00012647,-
 0.00015121,-0.00003286,-0.00001713,0.00002950,0.00007743,0.00008648,-0
 .00003652,-0.00008673,0.00000517,-0.00009328,0.00009208,0.00011355,0.0
 0000837,0.00007006,0.00001201,0.00090646,0.00009606,0.00024530,0.00002
 897,0.00005101,-0.00001419,0.00006377,0.00003939,0.00000320,0.00002407
 ,0.00001607,0.00007035,-0.00002790,-0.00001401,0.00001418,0.00000878,0
 .00001888,0.00004977,0.00001097,0.00001309,-0.00007391,-0.00000783,-0.
 00005608,-0.00002165,0.00000033,0.00001396,0.00002221,0.00000868,-0.00
 001728,0.00000587,-0.00001170,0.00001908,-0.00000323,0.00006463,-0.000
 02607,-0.00015426,0.00012538,-0.00006398,-0.00006300,0.00023968,0.0000
 7436,-0.00025891,-0.00020740,0.00020702,0.00002062,0.00068349,0.002880
 60,0.00114949,0.42401887,0.00004630,-0.00002488,0.00013898,-0.00001589
 ,0.00005700,-0.00028557,-0.00008008,0.00003156,0.00002214,0.00002252,0
 .00004432,-0.00003355,-0.00004227,0.00003122,0.00000142,0.00000551,0.0
 0001385,-0.00009139,-0.00002471,0.00001565,0.00000069,0.00002452,-0.00
 003202,0.00002543,0.00003952,-0.00005744,0.00000694,0.00000512,-0.0000
 8932,0.00003184,0.00005123,-0.00010392,0.00013732,0.00002972,-0.000115
 54,0.00034576,0.00038762,0.00043025,-0.00024543,-0.00146615,-0.0021165
 8,-0.00164875,-0.00021633,0.00041457,0.00136626,0.02344159,-0.01029838
 ,-0.01064771,0.00305972,-0.00272061,-0.00327998,-0.00072282,0.00059473
 ,0.00100564,0.00041069,0.00009532,-0.00012090,0.00000338,-0.00011083,-
 0.00012244,-0.00012175,0.00006738,0.00015726,0.00087434,0.00173542,0.0
 0191342,-0.00242455,0.00026251,-0.00153814,-0.00151970,0.00273023,-0.0
 0039693,-0.00050078,-0.00068187,-0.00004264,-0.00034656,0.00061124,0.0
 0013957,0.00060196,-0.00024635,0.00007244,-0.00016661,-0.00012762,-0.0
 0013154,-0.00004699,0.00000273,-0.00004598,0.00019368,0.00001356,0.000
 16590,-0.00002429,-0.00021603,-0.00003960,0.00000533,0.00005558,-0.000
 01634,-0.00001611,-0.00001562,0.00000318,0.00000242,0.00001352,0.00000
 529,-0.00000467,0.00000677,-0.00001214,-0.00002773,-0.00002405,-0.0000
 0788,0.00005655,-0.00003249,0.00007803,0.00012821,-0.00031590,-0.00003
 603,0.00000017,-0.00859583,-0.00121913,0.09194719,-0.05180326,-0.04434
 467,0.00000281,-0.00000724,0.00001258,0.00002263,0.00000331,0.00000956
 ,0.00001036,-0.00000513,-0.00000623,0.00000671,-0.00000547,0.00000519,
 -0.00000153,0.00000001,0.00000386,0.00000530,-0.00000040,0.00000667,-0
 .00000382,-0.00000932,-0.00000510,-0.00000688,0.00002975,-0.00000718,-
 0.00001378,0.00002337,0.00000358,-0.00000877,0.00003627,-0.00000253,-0
 .00004799,0.00013671,-0.00021743,-0.00002614,-0.00009135,-0.00001423,-
 0.00013000,-0.00004860,0.00011801,0.00012860,0.00104575,-0.00125227,-0
 .00076027,0.00140966,0.00033435,0.00012480,-0.00004837,-0.00001205,-0.
 00004609,-0.00001418,0.00001298,-0.00000266,0.00001743,-0.00000112,0.0
 0000362,-0.00000883,-0.00000186,0.00002257,-0.00002804,-0.00001856,0.0
 0011907,-0.00008263,0.00011208,-0.00045578,-0.00035724,0.00008544,0.00
 008765,-0.00000344,0.00003518,-0.00000329,-0.00003304,-0.00002079,-0.0
 0000841,0.00002280,0.00002120,0.00003240,0.00000211,0.00002961,0.00000
 608,-0.00010087,-0.00000864,-0.00020339,-0.00006716,-0.00018543,-0.000
 00944,-0.00001668,0.00000220,0.00000025,-0.00000304,-0.00000309,-0.000
 00339,0.00000115,-0.00000758,0.00000815,-0.00000481,0.00000124,0.00000
 395,-0.00000331,0.00000161,-0.00000435,0.00000515,0.00000006,-0.000009
 94,-0.00000425,0.00000513,0.00000415,-0.00000197,0.00000142,0.00000554
 ,0.00000300,0.00000635,0.00000278,-0.00000364,-0.00000892,-0.00001600,
 0.00003318,-0.00000347,-0.00011254,0.00008401,-0.00015137,0.00000508,0
 .00001719,-0.00002730,0.00006378,0.00002924,-0.00002113,0.00262721,0.0
 0036006,0.00099065,-0.11498832,0.06818999,0.00000427,0.00006338,0.0001
 0258,-0.00003513,-0.00002503,-0.00019116,0.00002008,-0.00005595,-0.000
 01625,0.00000629,0.00002736,-0.00004621,-0.00000813,-0.00001257,-0.000
 00703,0.00001150,-0.00001432,-0.00007602,-0.00000275,-0.00001370,-0.00
 000948,0.00001161,0.00001913,0.00003224,0.00001329,0.00001058,0.000041
 61,-0.00001623,-0.00002418,0.00005503,-0.00002757,0.00004820,0.0001292
 0,-0.00027287,0.00025697,0.00044803,0.00234778,0.00011551,-0.00040660,
 -0.00128514,-0.00476503,-0.00609513,-0.00055255,-0.00019075,0.00048903
 ,0.03505649,-0.01391554,-0.01669979,-0.00057723,-0.00071947,0.00079889
 ,-0.00005167,0.00056941,0.00014999,0.00027497,0.00019343,-0.00009865,0
 .00005891,-0.00004566,-0.00003438,-0.00007681,-0.00000897,0.00003207,-
 0.00005462,-0.00006094,-0.00036665,0.00002130,-0.00041010,0.00046268,0
 .00014205,-0.00054288,-0.00034297,-0.00010937,0.00002579,-0.00000984,-
 0.00014732,-0.00003114,0.00004166,0.00010594,-0.00000472,-0.00004280,-
 0.00014895,-0.00002480,-0.00017677,0.00003084,-0.00004190,0.00003880,0
 .00005400,0.00009920,0.00001000,0.00012998,0.00003811,0.00003390,-0.00
 006466,-0.00004203,0.00000176,0.00000468,0.00000910,0.00000150,-0.0000
 0977,-0.00001099,-0.00000795,0.00000276,0.00000474,-0.00000030,-0.0000
 3986,-0.00002975,-0.00001624,0.00004116,0.00001111,0.00003074,0.000243
 86,-0.00003025,-0.00007665,-0.00079051,-0.00072041,-0.00424936,0.07421
 866,-0.03974864,-0.05651050,-0.00003901,0.00001769,0.00006618,-0.00002
 488,0.00002073,-0.00002773,-0.00000563,0.00000067,0.00001182,0.0000023
 7,0.00000158,0.00001301,-0.00000798,0.00000204,0.00000876,0.00000138,-
 0.00000071,0.00000796,0.00000130,0.00000030,-0.00000579,-0.00001524,-0
 .00001199,-0.00002031,-0.00000729,0.00000381,-0.00002843,0.00001894,0.
 00001461,-0.00003314,0.00006819,-0.00002391,-0.00018130,-0.00012595,-0
 .00037330,-0.00044028,-0.00020230,-0.00010113,0.00020928,0.00035358,0.
 00014364,-0.00003554,0.00084815,0.00081086,0.00077241,-0.00009677,0.00
 015946,-0.00003128,-0.00001700,-0.00002556,0.00001085,-0.00000762,-0.0
 0000562,-0.00000661,-0.00000317,-0.00000323,-0.00000465,0.00000941,-0.
 00001228,-0.00000455,-0.00016631,-0.00015039,-0.00034815,0.00050735,0.
 00036578,0.00001047,-0.00004646,0.00001141,-0.00007572,0.00002221,0.00
 000996,-0.00000579,0.00008945,0.00007571,-0.00000224,0.00000543,0.0000
 1991,0.00001733,-0.00001659,-0.00000437,0.00000113,-0.00003799,-0.0001
 0014,-0.00004614,-0.00000251,0.00000289,0.00000357,0.00001409,-0.00000
 047,-0.00000269,0.00000404,0.00000532,0.00000410,-0.00000132,-0.000003
 74,-0.00000051,0.00000194,0.00000040,0.00000293,0.00000736,0.00001082,
 -0.00000113,-0.00000597,-0.00000724,-0.00000226,0.00000652,0.00000261,
 0.00000279,0.00000383,0.00000151,0.00000268,0.00000409,0.00000239,-0.0
 0000068,-0.00003593,-0.00001122,-0.00001448,-0.00003370,-0.00000460,-0
 .00004294,-0.00000310,-0.00000825,-0.00002543,-0.00002646,0.00002920,0
 .00001526,0.00212045,0.00026600,0.00101225,-0.11169014,0.05886657,0.08
 179600\\0.00000897,-0.00000670,-0.00000132,0.00000642,0.00002738,-0.00
 000867,0.00000708,-0.00000418,-0.00001841,-0.00001169,-0.00000164,0.00
 000974,0.00001884,-0.00001332,0.00000115,-0.00001092,0.00000756,-0.000
 00279,0.00000849,0.00000355,0.00000290,0.00001434,-0.00000732,-0.00000
 556,0.00000968,0.00002119,0.00000596,0.00001164,0.00000021,0.00001011,
 0.00000302,-0.00001211,0.00000713,-0.00001038,-0.00003116,0.00001015,-
 0.00000014,0.00001252,0.00000572,-0.00000315,-0.00001404,0.00001506,0.
 00000130,0.00000505,0.00001268,0.00000183,-0.00000454,-0.00000817,0.00
 001402,-0.00000517,-0.00001360,-0.00001534,-0.00000507,0.00000284,0.00
 001393,0.00000965,-0.00000880,0.00000325,0.00000421,0.00000510,-0.0000
 0243,-0.00000566,0.00001155,-0.00001586,0.00001281,0.00000455,-0.00000
 110,-0.00000082,0.00000140,0.00000288,-0.00000347,-0.00000376,-0.00000
 029,-0.00001599,-0.00000910,0.00000186,0.00001103,0.00001570,0.0000070
 3,0.00000441,0.00000905,-0.00000324,-0.00000336,-0.00001820,-0.0000168
 0,-0.00000588,0.00002269,0.00003926,0.00000299,0.00001734,0.00000231,-
 0.00000441,-0.00002101,-0.00001214,0.00000221,0.00000618,0.00000475,0.
 00000492,-0.00000478,-0.00000617,0.00000166,0.00000678,0.00000161,-0.0
 0000576,-0.00001045,0.00001104,0.00001425,-0.00000628,-0.00001223,0.00
 002110,0.00001726,-0.00001931,-0.00000189,-0.00000051,0.00000009,-0.00
 000161,0.00000308,-0.00002829,0.00000460,0.00000500,-0.00000472,-0.000
 00346,0.00000709,0.00000670,-0.00000339,0.00000693,0.00000365,-0.00000
 069,0.00000772,0.00000152,0.00000364,0.00000557,-0.00000189,0.00000054
 ,0.00000451,0.00000274,0.00000017,0.00000125,-0.00000054,0.00000340,-0
 .00000178,0.00000376,-0.00000383,-0.00000503,-0.00000040,-0.00000902,-
 0.00000048,-0.00000191,-0.00000274,-0.00000515,-0.00000924,0.00001196,
 -0.00000114,-0.00000134,-0.00000584,0.00000165,-0.00000578,0.00000375,
 -0.00000189,0.00000102,-0.00000160,-0.00000624,0.00000210,-0.00000204,
 0.00000591,-0.00000945,-0.00000055,-0.00000087,-0.00000417,-0.00000168
 ,0.00000265,0.00000329,0.00000040,-0.00000017,0.00000101,0.00000103,-0
 .00000199,-0.00000389,0.00000295,-0.00000134,-0.00000029,-0.00000297,0
 .00000148,-0.00000379,0.00000260,-0.00000356,-0.00000512,0.00000037,0.
 00000458,-0.00000227,0.00000207,-0.00001242,0.00000023,0.00000093,-0.0
 0000088,0.00000247,0.00000170,0.00000038,-0.00000015,0.00000494,-0.000
 00505,-0.00002500,0.00000371,-0.00000421,0.00000191,0.00000008,-0.0000
 0758,0.00000532,-0.00000003,-0.00000327,0.00000114,0.00000312,-0.00000
 691,-0.00000139,-0.00000156,-0.00000720,0.00000446,-0.00000025,-0.0000
 0213,0.00000257,-0.00000465,-0.00001094,-0.00000195,0.00000045,-0.0000
 0224,0.00000231,0.00000116,0.00000238,0.00000521,0.00000001,-0.0000029
 3,-0.00000113,0.00000214,-0.00000621,0.00000114,-0.00001009,0.00000420
 ,0.00000084,0.00001038,0.00000215,-0.00001638,-0.00002025,-0.00001769,
 0.00001063,0.00000498,-0.00000082,0.00000363,-0.00000750,-0.00000429,0
 .00000899,-0.00000157,-0.00000176\\\@


 THOSE WHO ARE UNABLE TO LEARN FROM PAST MEETINGS
 ARE CONDEMNED TO REPEAT THEM.
 Job cpu time:      18 days 22 hours 51 minutes 59.1 seconds.
 File lengths (MBytes):  RWF=  23931 Int=      0 D2E=      0 Chk=     97 Scr=      1
 Normal termination of Gaussian 09 at Sat May 21 18:53:01 2016.
