 Entering Gaussian System, Link 0=g09
 Initial command:
 /share/apps//g09/l1.exe "/scratch/Gau-19236.inp" -scrdir="/scratch/"
 Entering Link 1 = /share/apps//g09/l1.exe PID=     19237.
  
 Copyright (c) 1988,1990,1992,1993,1995,1998,2003,2009,2013,
            Gaussian, Inc.  All Rights Reserved.
  
 This is part of the Gaussian(R) 09 program.  It is based on
 the Gaussian(R) 03 system (copyright 2003, Gaussian, Inc.),
 the Gaussian(R) 98 system (copyright 1998, Gaussian, Inc.),
 the Gaussian(R) 94 system (copyright 1995, Gaussian, Inc.),
 the Gaussian 92(TM) system (copyright 1992, Gaussian, Inc.),
 the Gaussian 90(TM) system (copyright 1990, Gaussian, Inc.),
 the Gaussian 88(TM) system (copyright 1988, Gaussian, Inc.),
 the Gaussian 86(TM) system (copyright 1986, Carnegie Mellon
 University), and the Gaussian 82(TM) system (copyright 1983,
 Carnegie Mellon University). Gaussian is a federally registered
 trademark of Gaussian, Inc.
  
 This software contains proprietary and confidential information,
 including trade secrets, belonging to Gaussian, Inc.
  
 This software is provided under written license and may be
 used, copied, transmitted, or stored only in accord with that
 written license.
  
 The following legend is applicable only to US Government
 contracts under FAR:
  
                    RESTRICTED RIGHTS LEGEND
  
 Use, reproduction and disclosure by the US Government is
 subject to restrictions as set forth in subparagraphs (a)
 and (c) of the Commercial Computer Software - Restricted
 Rights clause in FAR 52.227-19.
  
 Gaussian, Inc.
 340 Quinnipiac St., Bldg. 40, Wallingford CT 06492
  
  
 ---------------------------------------------------------------
 Warning -- This program may not be used in any manner that
 competes with the business of Gaussian, Inc. or will provide
 assistance to any competitor of Gaussian, Inc.  The licensee
 of this program is prohibited from giving any competitor of
 Gaussian, Inc. access to this program.  By using this program,
 the user acknowledges that Gaussian, Inc. is engaged in the
 business of creating and licensing software in the field of
 computational chemistry and represents and warrants to the
 licensee that it is not a competitor of Gaussian, Inc. and that
 it will not use this program in any manner prohibited above.
 ---------------------------------------------------------------
  

 Cite this work as:
 Gaussian 09, Revision D.01,
 M. J. Frisch, G. W. Trucks, H. B. Schlegel, G. E. Scuseria, 
 M. A. Robb, J. R. Cheeseman, G. Scalmani, V. Barone, B. Mennucci, 
 G. A. Petersson, H. Nakatsuji, M. Caricato, X. Li, H. P. Hratchian, 
 A. F. Izmaylov, J. Bloino, G. Zheng, J. L. Sonnenberg, M. Hada, 
 M. Ehara, K. Toyota, R. Fukuda, J. Hasegawa, M. Ishida, T. Nakajima, 
 Y. Honda, O. Kitao, H. Nakai, T. Vreven, J. A. Montgomery, Jr., 
 J. E. Peralta, F. Ogliaro, M. Bearpark, J. J. Heyd, E. Brothers, 
 K. N. Kudin, V. N. Staroverov, T. Keith, R. Kobayashi, J. Normand, 
 K. Raghavachari, A. Rendell, J. C. Burant, S. S. Iyengar, J. Tomasi, 
 M. Cossi, N. Rega, J. M. Millam, M. Klene, J. E. Knox, J. B. Cross, 
 V. Bakken, C. Adamo, J. Jaramillo, R. Gomperts, R. E. Stratmann, 
 O. Yazyev, A. J. Austin, R. Cammi, C. Pomelli, J. W. Ochterski, 
 R. L. Martin, K. Morokuma, V. G. Zakrzewski, G. A. Voth, 
 P. Salvador, J. J. Dannenberg, S. Dapprich, A. D. Daniels, 
 O. Farkas, J. B. Foresman, J. V. Ortiz, J. Cioslowski, 
 and D. J. Fox, Gaussian, Inc., Wallingford CT, 2013.
 
 ******************************************
 Gaussian 09:  EM64L-G09RevD.01 24-Apr-2013
                26-Apr-2016 
 ******************************************
 %nproc=20
 Will use up to   20 processors via shared memory.
 %mem=80GB
 %chk=Tri_A131_of.chk
 ----------------------------------------------------------------------
 #P PBE1PBE/6-311+G(d,p) opt=ModRedundant freq optcyc=999 EmpiricalDisp
 ersion=GD3
 ----------------------------------------------------------------------
 1/6=999,14=-1,18=120,19=15,26=3,38=1/1,3;
 2/9=110,12=2,17=6,18=5,40=1/2;
 3/5=4,6=6,7=111,11=2,16=1,25=1,30=1,71=1,74=-13,124=31/1,2,3;
 4//1;
 5/5=2,38=5/2;
 6/7=2,8=2,9=2,10=2,28=1/1;
 7//1,2,3,16;
 1/6=999,14=-1,18=20,19=15,26=3/3(2);
 2/9=110/2;
 99//99;
 2/9=110/2;
 3/5=4,6=6,7=111,11=2,16=1,25=1,30=1,71=1,74=-13,124=31/1,2,3;
 4/5=5,16=3,69=1/1;
 5/5=2,38=5/2;
 7//1,2,3,16;
 1/6=999,14=-1,18=20,19=15,26=3/3(-5);
 2/9=110/2;
 6/7=2,8=2,9=2,10=2,19=2,28=1/1;
 99/9=1/99;
 Leave Link    1 at Tue Apr 26 23:30:03 2016, MaxMem= 10737418240 cpu:         2.1
 (Enter /share/apps//g09/l101.exe)
 -----
 trich
 -----
 Symbolic Z-matrix:
 Charge =  1 Multiplicity = 1
 O                    -0.64848  -0.30977   7.40644 
 C                    -1.24236  -0.79709   6.22403 
 C                    -0.22759  -0.9922    5.08437 
 C                     0.93689  -1.87469   5.56616 
 C                     1.54827  -1.30847   6.8501 
 C                     0.46013  -1.09106   7.90934 
 H                    -2.00166  -0.0435    5.96324 
 H                     0.16928  -0.00295   4.8116 
 H                     0.57641  -2.8993    5.74127 
 H                     2.26082  -2.05405   7.25949 
 H                     0.10695  -2.08727   8.23449 
 O                     2.2544   -0.13179   6.45589 
 O                     1.96273  -1.99101   4.5627 
 O                    -0.86718  -1.52908   3.92033 
 O                    -1.85395  -2.08245   6.3804 
 C                     0.96003  -0.34981   9.14603 
 H                     0.14296  -0.2684    9.88022 
 H                     1.78181  -0.91524   9.60761 
 O                     1.494     0.94977   8.83529 
 H                     0.74034   1.52519   8.60623 
 H                     2.24159   0.48763   7.22404 
 H                     2.50054  -1.17424   4.62358 
 H                    -1.62983  -2.06034   4.2328 
 O                    -3.32564  -4.41719   5.93599 
 C                    -3.10657  -4.68258   7.33923 
 C                    -2.88181  -3.36012   8.13997 
 C                    -3.01575  -2.12409   7.24083 
 C                    -4.31936  -2.17209   6.4277 
 C                    -4.47091  -3.56319   5.71984 
 H                    -4.01009  -5.17294   7.74583 
 H                    -1.8719   -3.37399   8.57005 
 H                    -3.02526  -1.2323    7.8839 
 H                    -5.13625  -2.07323   7.15848 
 H                    -5.36012  -4.07487   6.13523 
 O                    -4.45714  -1.0511    5.56078 
 O                    -3.8682   -3.23289   9.16929 
 O                    -2.09566  -5.64651   7.46227 
 C                    -4.67595  -3.48568   4.21989 
 H                    -4.7726   -4.50537   3.81514 
 H                    -5.59576  -2.91889   4.01057 
 O                    -3.5262   -2.82477   3.63012 
 H                    -3.67829  -2.7511    2.67251 
 H                    -3.92264  -1.23612   4.76239 
 H                    -3.56892  -3.73921   9.94338 
 O                     0.98684  -5.91726   5.46983 
 C                     1.95436  -6.19838   6.50148 
 C                     1.66967  -5.29545   7.70055 
 C                     0.2191   -5.42054   8.17744 
 C                    -0.77289  -5.28282   7.01759 
 C                    -0.34323  -6.2504    5.89043 
 H                     1.87722  -7.27206   6.78078 
 H                     1.84641  -4.25811   7.3599 
 H                     0.08039  -6.42489   8.62262 
 H                    -0.36801  -7.28405   6.29471 
 H                    -0.77146  -4.25012   6.63468 
 O                    -0.04839  -4.41929   9.16577 
 O                     2.48417  -5.60368   8.82936 
 O                     3.21793  -5.8791    6.02538 
 C                    -1.22768  -6.24722   4.65249 
 H                    -0.80053  -6.94865   3.92172 
 H                    -2.235    -6.59347   4.92219 
 O                    -1.30488  -4.96707   4.00682 
 H                    -1.99936  -4.45636   4.48071 
 H                     0.60898  -4.55648   9.87285 
 H                     3.41383  -5.47359   8.56876 
 C                     3.73568  -6.78636   5.01568 
 H                     4.44737  -7.47447   5.49989 
 H                     2.9062   -7.38117   4.60389 
 C                     4.43046  -5.97617   3.92755 
 H                     4.84115  -6.68702   3.19084 
 H                     5.2953   -5.46065   4.37307 
 C                     3.53952  -4.93206   3.23687 
 H                     3.15841  -4.25094   4.01324 
 H                     4.17232  -4.32369   2.56965 
 C                     2.37943  -5.52514   2.42448 
 H                     2.77418  -6.19146   1.64019 
 H                     1.73721  -6.1447    3.06967 
 C                     1.51021  -4.48482   1.72256 
 H                     0.76569  -4.96631   1.07455 
 H                     2.11588  -3.80882   1.10173 
 N                     0.75419  -3.63207   2.70083 
 H                     0.18157  -2.90949   2.24537 
 H                     1.38132  -3.0885    3.34423 
 H                     0.07789  -4.19472   3.28641 
 
 The following ModRedundant input section has been read:
 B      45      84 B                                                           
 B      58      84 B                                                           
 B      56      84 B                                                           
 B      41      82 B                                                           
 B      62      82 B                                                           
 B      35      82 B                                                           
 B      13      83 B                                                           
 B      19      83 B                                                           
 B      14      83 B                                                           
 
 NAtoms=     84 NQM=       84 NQMF=       0 NMMI=      0 NMMIF=      0
                NMic=       0 NMicF=      0.
                    Isotopes and Nuclear Properties:
 (Nuclear quadrupole moments (NQMom) in fm**2, nuclear magnetic moments (NMagM)
  in nuclear magnetons)

  Atom         1           2           3           4           5           6           7           8           9          10
 IAtWgt=          16          12          12          12          12          12           1           1           1           1
 AtmWgt=  15.9949146  12.0000000  12.0000000  12.0000000  12.0000000  12.0000000   1.0078250   1.0078250   1.0078250   1.0078250
 NucSpn=           0           0           0           0           0           0           1           1           1           1
 AtZEff=   0.0000000   0.0000000   0.0000000   0.0000000   0.0000000   0.0000000   0.0000000   0.0000000   0.0000000   0.0000000
 NQMom=    0.0000000   0.0000000   0.0000000   0.0000000   0.0000000   0.0000000   0.0000000   0.0000000   0.0000000   0.0000000
 NMagM=    0.0000000   0.0000000   0.0000000   0.0000000   0.0000000   0.0000000   2.7928460   2.7928460   2.7928460   2.7928460
 AtZNuc=   8.0000000   6.0000000   6.0000000   6.0000000   6.0000000   6.0000000   1.0000000   1.0000000   1.0000000   1.0000000

  Atom        11          12          13          14          15          16          17          18          19          20
 IAtWgt=           1          16          16          16          16          12           1           1          16           1
 AtmWgt=   1.0078250  15.9949146  15.9949146  15.9949146  15.9949146  12.0000000   1.0078250   1.0078250  15.9949146   1.0078250
 NucSpn=           1           0           0           0           0           0           1           1           0           1
 AtZEff=   0.0000000   0.0000000   0.0000000   0.0000000   0.0000000   0.0000000   0.0000000   0.0000000   0.0000000   0.0000000
 NQMom=    0.0000000   0.0000000   0.0000000   0.0000000   0.0000000   0.0000000   0.0000000   0.0000000   0.0000000   0.0000000
 NMagM=    2.7928460   0.0000000   0.0000000   0.0000000   0.0000000   0.0000000   2.7928460   2.7928460   0.0000000   2.7928460
 AtZNuc=   1.0000000   8.0000000   8.0000000   8.0000000   8.0000000   6.0000000   1.0000000   1.0000000   8.0000000   1.0000000

  Atom        21          22          23          24          25          26          27          28          29          30
 IAtWgt=           1           1           1          16          12          12          12          12          12           1
 AtmWgt=   1.0078250   1.0078250   1.0078250  15.9949146  12.0000000  12.0000000  12.0000000  12.0000000  12.0000000   1.0078250
 NucSpn=           1           1           1           0           0           0           0           0           0           1
 AtZEff=   0.0000000   0.0000000   0.0000000   0.0000000   0.0000000   0.0000000   0.0000000   0.0000000   0.0000000   0.0000000
 NQMom=    0.0000000   0.0000000   0.0000000   0.0000000   0.0000000   0.0000000   0.0000000   0.0000000   0.0000000   0.0000000
 NMagM=    2.7928460   2.7928460   2.7928460   0.0000000   0.0000000   0.0000000   0.0000000   0.0000000   0.0000000   2.7928460
 AtZNuc=   1.0000000   1.0000000   1.0000000   8.0000000   6.0000000   6.0000000   6.0000000   6.0000000   6.0000000   1.0000000

  Atom        31          32          33          34          35          36          37          38          39          40
 IAtWgt=           1           1           1           1          16          16          16          12           1           1
 AtmWgt=   1.0078250   1.0078250   1.0078250   1.0078250  15.9949146  15.9949146  15.9949146  12.0000000   1.0078250   1.0078250
 NucSpn=           1           1           1           1           0           0           0           0           1           1
 AtZEff=   0.0000000   0.0000000   0.0000000   0.0000000   0.0000000   0.0000000   0.0000000   0.0000000   0.0000000   0.0000000
 NQMom=    0.0000000   0.0000000   0.0000000   0.0000000   0.0000000   0.0000000   0.0000000   0.0000000   0.0000000   0.0000000
 NMagM=    2.7928460   2.7928460   2.7928460   2.7928460   0.0000000   0.0000000   0.0000000   0.0000000   2.7928460   2.7928460
 AtZNuc=   1.0000000   1.0000000   1.0000000   1.0000000   8.0000000   8.0000000   8.0000000   6.0000000   1.0000000   1.0000000

  Atom        41          42          43          44          45          46          47          48          49          50
 IAtWgt=          16           1           1           1          16          12          12          12          12          12
 AtmWgt=  15.9949146   1.0078250   1.0078250   1.0078250  15.9949146  12.0000000  12.0000000  12.0000000  12.0000000  12.0000000
 NucSpn=           0           1           1           1           0           0           0           0           0           0
 AtZEff=   0.0000000   0.0000000   0.0000000   0.0000000   0.0000000   0.0000000   0.0000000   0.0000000   0.0000000   0.0000000
 NQMom=    0.0000000   0.0000000   0.0000000   0.0000000   0.0000000   0.0000000   0.0000000   0.0000000   0.0000000   0.0000000
 NMagM=    0.0000000   2.7928460   2.7928460   2.7928460   0.0000000   0.0000000   0.0000000   0.0000000   0.0000000   0.0000000
 AtZNuc=   8.0000000   1.0000000   1.0000000   1.0000000   8.0000000   6.0000000   6.0000000   6.0000000   6.0000000   6.0000000

  Atom        51          52          53          54          55          56          57          58          59          60
 IAtWgt=           1           1           1           1           1          16          16          16          12           1
 AtmWgt=   1.0078250   1.0078250   1.0078250   1.0078250   1.0078250  15.9949146  15.9949146  15.9949146  12.0000000   1.0078250
 NucSpn=           1           1           1           1           1           0           0           0           0           1
 AtZEff=   0.0000000   0.0000000   0.0000000   0.0000000   0.0000000   0.0000000   0.0000000   0.0000000   0.0000000   0.0000000
 NQMom=    0.0000000   0.0000000   0.0000000   0.0000000   0.0000000   0.0000000   0.0000000   0.0000000   0.0000000   0.0000000
 NMagM=    2.7928460   2.7928460   2.7928460   2.7928460   2.7928460   0.0000000   0.0000000   0.0000000   0.0000000   2.7928460
 AtZNuc=   1.0000000   1.0000000   1.0000000   1.0000000   1.0000000   8.0000000   8.0000000   8.0000000   6.0000000   1.0000000

  Atom        61          62          63          64          65          66          67          68          69          70
 IAtWgt=           1          16           1           1           1          12           1           1          12           1
 AtmWgt=   1.0078250  15.9949146   1.0078250   1.0078250   1.0078250  12.0000000   1.0078250   1.0078250  12.0000000   1.0078250
 NucSpn=           1           0           1           1           1           0           1           1           0           1
 AtZEff=   0.0000000   0.0000000   0.0000000   0.0000000   0.0000000   0.0000000   0.0000000   0.0000000   0.0000000   0.0000000
 NQMom=    0.0000000   0.0000000   0.0000000   0.0000000   0.0000000   0.0000000   0.0000000   0.0000000   0.0000000   0.0000000
 NMagM=    2.7928460   0.0000000   2.7928460   2.7928460   2.7928460   0.0000000   2.7928460   2.7928460   0.0000000   2.7928460
 AtZNuc=   1.0000000   8.0000000   1.0000000   1.0000000   1.0000000   6.0000000   1.0000000   1.0000000   6.0000000   1.0000000

  Atom        71          72          73          74          75          76          77          78          79          80
 IAtWgt=           1          12           1           1          12           1           1          12           1           1
 AtmWgt=   1.0078250  12.0000000   1.0078250   1.0078250  12.0000000   1.0078250   1.0078250  12.0000000   1.0078250   1.0078250
 NucSpn=           1           0           1           1           0           1           1           0           1           1
 AtZEff=   0.0000000   0.0000000   0.0000000   0.0000000   0.0000000   0.0000000   0.0000000   0.0000000   0.0000000   0.0000000
 NQMom=    0.0000000   0.0000000   0.0000000   0.0000000   0.0000000   0.0000000   0.0000000   0.0000000   0.0000000   0.0000000
 NMagM=    2.7928460   0.0000000   2.7928460   2.7928460   0.0000000   2.7928460   2.7928460   0.0000000   2.7928460   2.7928460
 AtZNuc=   1.0000000   6.0000000   1.0000000   1.0000000   6.0000000   1.0000000   1.0000000   6.0000000   1.0000000   1.0000000

  Atom        81          82          83          84
 IAtWgt=          14           1           1           1
 AtmWgt=  14.0030740   1.0078250   1.0078250   1.0078250
 NucSpn=           2           1           1           1
 AtZEff=   0.0000000   0.0000000   0.0000000   0.0000000
 NQMom=    2.0440000   0.0000000   0.0000000   0.0000000
 NMagM=    0.4037610   2.7928460   2.7928460   2.7928460
 AtZNuc=   7.0000000   1.0000000   1.0000000   1.0000000
 Leave Link  101 at Tue Apr 26 23:30:03 2016, MaxMem= 10737418240 cpu:         4.6
 (Enter /share/apps//g09/l103.exe)

 GradGradGradGradGradGradGradGradGradGradGradGradGradGradGradGradGradGrad
 Berny optimization.
 Initialization pass.
                           ----------------------------
                           !    Initial Parameters    !
                           ! (Angstroms and Degrees)  !
 --------------------------                            --------------------------
 ! Name  Definition              Value          Derivative Info.                !
 --------------------------------------------------------------------------------
 ! R1    R(1,2)                  1.4101         estimate D2E/DX2                !
 ! R2    R(1,6)                  1.4465         estimate D2E/DX2                !
 ! R3    R(2,3)                  1.5384         estimate D2E/DX2                !
 ! R4    R(2,7)                  1.1011         estimate D2E/DX2                !
 ! R5    R(2,15)                 1.432          estimate D2E/DX2                !
 ! R6    R(3,4)                  1.5385         estimate D2E/DX2                !
 ! R7    R(3,8)                  1.1002         estimate D2E/DX2                !
 ! R8    R(3,14)                 1.4326         estimate D2E/DX2                !
 ! R9    R(4,5)                  1.5307         estimate D2E/DX2                !
 ! R10   R(4,9)                  1.1002         estimate D2E/DX2                !
 ! R11   R(4,13)                 1.4397         estimate D2E/DX2                !
 ! R12   R(5,6)                  1.534          estimate D2E/DX2                !
 ! R13   R(5,10)                 1.1096         estimate D2E/DX2                !
 ! R14   R(5,12)                 1.4278         estimate D2E/DX2                !
 ! R15   R(6,11)                 1.1058         estimate D2E/DX2                !
 ! R16   R(6,16)                 1.526          estimate D2E/DX2                !
 ! R17   R(12,21)                0.9869         estimate D2E/DX2                !
 ! R18   R(13,22)                0.9798         estimate D2E/DX2                !
 ! R19   R(13,83)                1.7399         estimate D2E/DX2                !
 ! R20   R(14,23)                0.9806         estimate D2E/DX2                !
 ! R21   R(14,83)                2.7963         estimate D2E/DX2                !
 ! R22   R(15,27)                1.4463         estimate D2E/DX2                !
 ! R23   R(16,17)                1.1015         estimate D2E/DX2                !
 ! R24   R(16,18)                1.0991         estimate D2E/DX2                !
 ! R25   R(16,19)                1.439          estimate D2E/DX2                !
 ! R26   R(19,20)                0.9755         estimate D2E/DX2                !
 ! R27   R(19,83)                6.817          estimate D2E/DX2                !
 ! R28   R(24,25)                1.4448         estimate D2E/DX2                !
 ! R29   R(24,29)                1.4449         estimate D2E/DX2                !
 ! R30   R(25,26)                1.5622         estimate D2E/DX2                !
 ! R31   R(25,30)                1.1055         estimate D2E/DX2                !
 ! R32   R(25,37)                1.4022         estimate D2E/DX2                !
 ! R33   R(26,27)                1.5343         estimate D2E/DX2                !
 ! R34   R(26,31)                1.0978         estimate D2E/DX2                !
 ! R35   R(26,36)                1.4313         estimate D2E/DX2                !
 ! R36   R(27,28)                1.5372         estimate D2E/DX2                !
 ! R37   R(27,32)                1.0995         estimate D2E/DX2                !
 ! R38   R(28,29)                1.5682         estimate D2E/DX2                !
 ! R39   R(28,33)                1.1005         estimate D2E/DX2                !
 ! R40   R(28,35)                1.4238         estimate D2E/DX2                !
 ! R41   R(29,34)                1.1068         estimate D2E/DX2                !
 ! R42   R(29,38)                1.5159         estimate D2E/DX2                !
 ! R43   R(35,43)                0.9784         estimate D2E/DX2                !
 ! R44   R(35,82)                5.9969         estimate D2E/DX2                !
 ! R45   R(36,44)                0.9722         estimate D2E/DX2                !
 ! R46   R(37,49)                1.4421         estimate D2E/DX2                !
 ! R47   R(38,39)                1.1013         estimate D2E/DX2                !
 ! R48   R(38,40)                1.1005         estimate D2E/DX2                !
 ! R49   R(38,41)                1.4514         estimate D2E/DX2                !
 ! R50   R(41,42)                0.9724         estimate D2E/DX2                !
 ! R51   R(41,82)                3.9588         estimate D2E/DX2                !
 ! R52   R(45,46)                1.442          estimate D2E/DX2                !
 ! R53   R(45,50)                1.4342         estimate D2E/DX2                !
 ! R54   R(45,84)                2.9259         estimate D2E/DX2                !
 ! R55   R(46,47)                1.5278         estimate D2E/DX2                !
 ! R56   R(46,51)                1.1121         estimate D2E/DX2                !
 ! R57   R(46,58)                1.3875         estimate D2E/DX2                !
 ! R58   R(47,48)                1.5321         estimate D2E/DX2                !
 ! R59   R(47,52)                1.1061         estimate D2E/DX2                !
 ! R60   R(47,57)                1.4257         estimate D2E/DX2                !
 ! R61   R(48,49)                1.5324         estimate D2E/DX2                !
 ! R62   R(48,53)                1.1073         estimate D2E/DX2                !
 ! R63   R(48,56)                1.4321         estimate D2E/DX2                !
 ! R64   R(49,50)                1.5464         estimate D2E/DX2                !
 ! R65   R(49,55)                1.1014         estimate D2E/DX2                !
 ! R66   R(50,54)                1.1102         estimate D2E/DX2                !
 ! R67   R(50,59)                1.5214         estimate D2E/DX2                !
 ! R68   R(56,64)                0.9752         estimate D2E/DX2                !
 ! R69   R(56,84)                5.885          estimate D2E/DX2                !
 ! R70   R(57,65)                0.9742         estimate D2E/DX2                !
 ! R71   R(58,66)                1.4528         estimate D2E/DX2                !
 ! R72   R(58,84)                4.4943         estimate D2E/DX2                !
 ! R73   R(59,60)                1.0993         estimate D2E/DX2                !
 ! R74   R(59,61)                1.0988         estimate D2E/DX2                !
 ! R75   R(59,62)                1.4358         estimate D2E/DX2                !
 ! R76   R(62,63)                0.9837         estimate D2E/DX2                !
 ! R77   R(62,82)                3.0896         estimate D2E/DX2                !
 ! R78   R(66,67)                1.102          estimate D2E/DX2                !
 ! R79   R(66,68)                1.1006         estimate D2E/DX2                !
 ! R80   R(66,69)                1.5242         estimate D2E/DX2                !
 ! R81   R(69,70)                1.103          estimate D2E/DX2                !
 ! R82   R(69,71)                1.101          estimate D2E/DX2                !
 ! R83   R(69,72)                1.5365         estimate D2E/DX2                !
 ! R84   R(72,73)                1.1009         estimate D2E/DX2                !
 ! R85   R(72,74)                1.1026         estimate D2E/DX2                !
 ! R86   R(72,75)                1.5354         estimate D2E/DX2                !
 ! R87   R(75,76)                1.1022         estimate D2E/DX2                !
 ! R88   R(75,77)                1.1012         estimate D2E/DX2                !
 ! R89   R(75,78)                1.5266         estimate D2E/DX2                !
 ! R90   R(78,79)                1.0982         estimate D2E/DX2                !
 ! R91   R(78,80)                1.0997         estimate D2E/DX2                !
 ! R92   R(78,81)                1.5019         estimate D2E/DX2                !
 ! R93   R(81,82)                1.0283         estimate D2E/DX2                !
 ! R94   R(81,83)                1.0501         estimate D2E/DX2                !
 ! R95   R(81,84)                1.0568         estimate D2E/DX2                !
 ! A1    A(2,1,6)              115.3193         estimate D2E/DX2                !
 ! A2    A(1,2,3)              112.7818         estimate D2E/DX2                !
 ! A3    A(1,2,7)              104.6261         estimate D2E/DX2                !
 ! A4    A(1,2,15)             113.4857         estimate D2E/DX2                !
 ! A5    A(3,2,7)              111.482          estimate D2E/DX2                !
 ! A6    A(3,2,15)             104.4049         estimate D2E/DX2                !
 ! A7    A(7,2,15)             110.222          estimate D2E/DX2                !
 ! A8    A(2,3,4)              109.8789         estimate D2E/DX2                !
 ! A9    A(2,3,8)              107.9126         estimate D2E/DX2                !
 ! A10   A(2,3,14)             110.7919         estimate D2E/DX2                !
 ! A11   A(4,3,8)              108.6848         estimate D2E/DX2                !
 ! A12   A(4,3,14)             112.1735         estimate D2E/DX2                !
 ! A13   A(8,3,14)             107.2509         estimate D2E/DX2                !
 ! A14   A(3,4,5)              110.6598         estimate D2E/DX2                !
 ! A15   A(3,4,9)              109.6362         estimate D2E/DX2                !
 ! A16   A(3,4,13)             111.5547         estimate D2E/DX2                !
 ! A17   A(5,4,9)              109.9908         estimate D2E/DX2                !
 ! A18   A(5,4,13)             109.2644         estimate D2E/DX2                !
 ! A19   A(9,4,13)             105.6137         estimate D2E/DX2                !
 ! A20   A(4,5,6)              110.3832         estimate D2E/DX2                !
 ! A21   A(4,5,10)             108.5069         estimate D2E/DX2                !
 ! A22   A(4,5,12)             105.7122         estimate D2E/DX2                !
 ! A23   A(6,5,10)             107.2162         estimate D2E/DX2                !
 ! A24   A(6,5,12)             115.1284         estimate D2E/DX2                !
 ! A25   A(10,5,12)            109.7571         estimate D2E/DX2                !
 ! A26   A(1,6,5)              112.3414         estimate D2E/DX2                !
 ! A27   A(1,6,11)             110.1226         estimate D2E/DX2                !
 ! A28   A(1,6,16)             105.6912         estimate D2E/DX2                !
 ! A29   A(5,6,11)             107.5713         estimate D2E/DX2                !
 ! A30   A(5,6,16)             113.3313         estimate D2E/DX2                !
 ! A31   A(11,6,16)            107.6934         estimate D2E/DX2                !
 ! A32   A(5,12,21)            107.2144         estimate D2E/DX2                !
 ! A33   A(4,13,22)            106.2864         estimate D2E/DX2                !
 ! A34   A(4,13,83)            107.5158         estimate D2E/DX2                !
 ! A35   A(22,13,83)           138.8287         estimate D2E/DX2                !
 ! A36   A(3,14,23)            106.939          estimate D2E/DX2                !
 ! A37   A(3,14,83)             90.997          estimate D2E/DX2                !
 ! A38   A(23,14,83)           112.8865         estimate D2E/DX2                !
 ! A39   A(2,15,27)            115.7136         estimate D2E/DX2                !
 ! A40   A(6,16,17)            109.4553         estimate D2E/DX2                !
 ! A41   A(6,16,18)            109.5949         estimate D2E/DX2                !
 ! A42   A(6,16,19)            112.6591         estimate D2E/DX2                !
 ! A43   A(17,16,18)           108.2229         estimate D2E/DX2                !
 ! A44   A(17,16,19)           110.6375         estimate D2E/DX2                !
 ! A45   A(18,16,19)           106.1319         estimate D2E/DX2                !
 ! A46   A(16,19,20)           107.2628         estimate D2E/DX2                !
 ! A47   A(16,19,83)            68.4575         estimate D2E/DX2                !
 ! A48   A(20,19,83)            98.4832         estimate D2E/DX2                !
 ! A49   A(25,24,29)           111.9651         estimate D2E/DX2                !
 ! A50   A(24,25,26)           111.3541         estimate D2E/DX2                !
 ! A51   A(24,25,30)           108.3467         estimate D2E/DX2                !
 ! A52   A(24,25,37)           108.7114         estimate D2E/DX2                !
 ! A53   A(26,25,30)           107.7311         estimate D2E/DX2                !
 ! A54   A(26,25,37)           115.6722         estimate D2E/DX2                !
 ! A55   A(30,25,37)           104.5973         estimate D2E/DX2                !
 ! A56   A(25,26,27)           111.6547         estimate D2E/DX2                !
 ! A57   A(25,26,31)           108.8124         estimate D2E/DX2                !
 ! A58   A(25,26,36)           110.1636         estimate D2E/DX2                !
 ! A59   A(27,26,31)           108.6676         estimate D2E/DX2                !
 ! A60   A(27,26,36)           106.8377         estimate D2E/DX2                !
 ! A61   A(31,26,36)           110.694          estimate D2E/DX2                !
 ! A62   A(15,27,26)           107.5595         estimate D2E/DX2                !
 ! A63   A(15,27,28)           111.5574         estimate D2E/DX2                !
 ! A64   A(15,27,32)           109.3623         estimate D2E/DX2                !
 ! A65   A(26,27,28)           111.0306         estimate D2E/DX2                !
 ! A66   A(26,27,32)           108.1439         estimate D2E/DX2                !
 ! A67   A(28,27,32)           109.1096         estimate D2E/DX2                !
 ! A68   A(27,28,29)           110.3915         estimate D2E/DX2                !
 ! A69   A(27,28,33)           105.9878         estimate D2E/DX2                !
 ! A70   A(27,28,35)           112.307          estimate D2E/DX2                !
 ! A71   A(29,28,33)           107.9202         estimate D2E/DX2                !
 ! A72   A(29,28,35)           114.4708         estimate D2E/DX2                !
 ! A73   A(33,28,35)           105.1748         estimate D2E/DX2                !
 ! A74   A(24,29,28)           112.345          estimate D2E/DX2                !
 ! A75   A(24,29,34)           107.9034         estimate D2E/DX2                !
 ! A76   A(24,29,38)           106.5863         estimate D2E/DX2                !
 ! A77   A(28,29,34)           108.5618         estimate D2E/DX2                !
 ! A78   A(28,29,38)           114.4789         estimate D2E/DX2                !
 ! A79   A(34,29,38)           106.6381         estimate D2E/DX2                !
 ! A80   A(28,35,43)           107.1632         estimate D2E/DX2                !
 ! A81   A(28,35,82)            91.0189         estimate D2E/DX2                !
 ! A82   A(43,35,82)            21.2089         estimate D2E/DX2                !
 ! A83   A(26,36,44)           108.3104         estimate D2E/DX2                !
 ! A84   A(25,37,49)           117.4417         estimate D2E/DX2                !
 ! A85   A(29,38,39)           109.1581         estimate D2E/DX2                !
 ! A86   A(29,38,40)           109.1226         estimate D2E/DX2                !
 ! A87   A(29,38,41)           108.5547         estimate D2E/DX2                !
 ! A88   A(39,38,40)           109.4873         estimate D2E/DX2                !
 ! A89   A(39,38,41)           109.9858         estimate D2E/DX2                !
 ! A90   A(40,38,41)           110.5048         estimate D2E/DX2                !
 ! A91   A(38,41,42)           108.1051         estimate D2E/DX2                !
 ! A92   A(38,41,82)           150.9648         estimate D2E/DX2                !
 ! A93   A(42,41,82)            78.676          estimate D2E/DX2                !
 ! A94   A(46,45,50)           111.5393         estimate D2E/DX2                !
 ! A95   A(46,45,84)           148.9914         estimate D2E/DX2                !
 ! A96   A(50,45,84)            93.8701         estimate D2E/DX2                !
 ! A97   A(45,46,47)           108.7387         estimate D2E/DX2                !
 ! A98   A(45,46,51)           108.7447         estimate D2E/DX2                !
 ! A99   A(45,46,58)           108.7033         estimate D2E/DX2                !
 ! A100  A(47,46,51)           111.1344         estimate D2E/DX2                !
 ! A101  A(47,46,58)           107.6381         estimate D2E/DX2                !
 ! A102  A(51,46,58)           111.8084         estimate D2E/DX2                !
 ! A103  A(46,47,48)           111.8685         estimate D2E/DX2                !
 ! A104  A(46,47,52)           106.427          estimate D2E/DX2                !
 ! A105  A(46,47,57)           112.779          estimate D2E/DX2                !
 ! A106  A(48,47,52)           108.8891         estimate D2E/DX2                !
 ! A107  A(48,47,57)           106.0695         estimate D2E/DX2                !
 ! A108  A(52,47,57)           110.8134         estimate D2E/DX2                !
 ! A109  A(47,48,49)           111.714          estimate D2E/DX2                !
 ! A110  A(47,48,53)           108.5301         estimate D2E/DX2                !
 ! A111  A(47,48,56)           109.5473         estimate D2E/DX2                !
 ! A112  A(49,48,53)           107.7412         estimate D2E/DX2                !
 ! A113  A(49,48,56)           109.7919         estimate D2E/DX2                !
 ! A114  A(53,48,56)           109.4685         estimate D2E/DX2                !
 ! A115  A(37,49,48)           109.7378         estimate D2E/DX2                !
 ! A116  A(37,49,50)           108.7725         estimate D2E/DX2                !
 ! A117  A(37,49,55)           110.1726         estimate D2E/DX2                !
 ! A118  A(48,49,50)           108.3968         estimate D2E/DX2                !
 ! A119  A(48,49,55)           110.2771         estimate D2E/DX2                !
 ! A120  A(50,49,55)           109.4453         estimate D2E/DX2                !
 ! A121  A(45,50,49)           109.0317         estimate D2E/DX2                !
 ! A122  A(45,50,54)           110.1063         estimate D2E/DX2                !
 ! A123  A(45,50,59)           107.4583         estimate D2E/DX2                !
 ! A124  A(49,50,54)           108.1157         estimate D2E/DX2                !
 ! A125  A(49,50,59)           115.4837         estimate D2E/DX2                !
 ! A126  A(54,50,59)           106.5753         estimate D2E/DX2                !
 ! A127  A(48,56,64)           106.0299         estimate D2E/DX2                !
 ! A128  A(48,56,84)            48.1792         estimate D2E/DX2                !
 ! A129  A(64,56,84)           135.6683         estimate D2E/DX2                !
 ! A130  A(47,57,65)           107.7284         estimate D2E/DX2                !
 ! A131  A(46,58,66)           114.7913         estimate D2E/DX2                !
 ! A132  A(46,58,84)            70.0683         estimate D2E/DX2                !
 ! A133  A(66,58,84)            93.4101         estimate D2E/DX2                !
 ! A134  A(50,59,60)           108.2807         estimate D2E/DX2                !
 ! A135  A(50,59,61)           109.4243         estimate D2E/DX2                !
 ! A136  A(50,59,62)           113.5163         estimate D2E/DX2                !
 ! A137  A(60,59,61)           108.5611         estimate D2E/DX2                !
 ! A138  A(60,59,62)           106.9084         estimate D2E/DX2                !
 ! A139  A(61,59,62)           110.0011         estimate D2E/DX2                !
 ! A140  A(59,62,63)           106.5111         estimate D2E/DX2                !
 ! A141  A(59,62,82)           145.5128         estimate D2E/DX2                !
 ! A142  A(63,62,82)           105.5781         estimate D2E/DX2                !
 ! A143  A(58,66,67)           108.3434         estimate D2E/DX2                !
 ! A144  A(58,66,68)           109.2038         estimate D2E/DX2                !
 ! A145  A(58,66,69)           109.0664         estimate D2E/DX2                !
 ! A146  A(67,66,68)           108.2791         estimate D2E/DX2                !
 ! A147  A(67,66,69)           110.561          estimate D2E/DX2                !
 ! A148  A(68,66,69)           111.3275         estimate D2E/DX2                !
 ! A149  A(66,69,70)           107.6962         estimate D2E/DX2                !
 ! A150  A(66,69,71)           108.5461         estimate D2E/DX2                !
 ! A151  A(66,69,72)           114.6954         estimate D2E/DX2                !
 ! A152  A(70,69,71)           106.2331         estimate D2E/DX2                !
 ! A153  A(70,69,72)           110.7063         estimate D2E/DX2                !
 ! A154  A(71,69,72)           108.6135         estimate D2E/DX2                !
 ! A155  A(69,72,73)           107.7072         estimate D2E/DX2                !
 ! A156  A(69,72,74)           108.3102         estimate D2E/DX2                !
 ! A157  A(69,72,75)           114.4217         estimate D2E/DX2                !
 ! A158  A(73,72,74)           106.5029         estimate D2E/DX2                !
 ! A159  A(73,72,75)           110.5215         estimate D2E/DX2                !
 ! A160  A(74,72,75)           109.0608         estimate D2E/DX2                !
 ! A161  A(72,75,76)           109.8398         estimate D2E/DX2                !
 ! A162  A(72,75,77)           110.3633         estimate D2E/DX2                !
 ! A163  A(72,75,78)           114.2205         estimate D2E/DX2                !
 ! A164  A(76,75,77)           106.5977         estimate D2E/DX2                !
 ! A165  A(76,75,78)           106.7807         estimate D2E/DX2                !
 ! A166  A(77,75,78)           108.7079         estimate D2E/DX2                !
 ! A167  A(75,78,79)           111.0105         estimate D2E/DX2                !
 ! A168  A(75,78,80)           111.4014         estimate D2E/DX2                !
 ! A169  A(75,78,81)           111.9651         estimate D2E/DX2                !
 ! A170  A(79,78,80)           108.0465         estimate D2E/DX2                !
 ! A171  A(79,78,81)           106.9784         estimate D2E/DX2                !
 ! A172  A(80,78,81)           107.2141         estimate D2E/DX2                !
 ! A173  A(78,81,82)           113.0024         estimate D2E/DX2                !
 ! A174  A(78,81,83)           113.1016         estimate D2E/DX2                !
 ! A175  A(78,81,84)           112.3804         estimate D2E/DX2                !
 ! A176  A(82,81,83)           103.8981         estimate D2E/DX2                !
 ! A177  A(82,81,84)           105.2585         estimate D2E/DX2                !
 ! A178  A(83,81,84)           108.5583         estimate D2E/DX2                !
 ! A179  A(35,82,41)            22.4109         estimate D2E/DX2                !
 ! A180  A(35,82,62)            61.252          estimate D2E/DX2                !
 ! A181  A(35,82,81)           113.8043         estimate D2E/DX2                !
 ! A182  A(41,82,62)            50.5232         estimate D2E/DX2                !
 ! A183  A(41,82,81)           112.4356         estimate D2E/DX2                !
 ! A184  A(62,82,81)            63.0918         estimate D2E/DX2                !
 ! A185  A(13,83,14)            76.859          estimate D2E/DX2                !
 ! A186  A(13,83,19)            19.3892         estimate D2E/DX2                !
 ! A187  A(13,83,81)           162.7781         estimate D2E/DX2                !
 ! A188  A(14,83,19)            61.118          estimate D2E/DX2                !
 ! A189  A(14,83,81)            86.2552         estimate D2E/DX2                !
 ! A190  A(19,83,81)           144.0988         estimate D2E/DX2                !
 ! A191  A(45,84,56)            40.4181         estimate D2E/DX2                !
 ! A192  A(45,84,58)            26.8137         estimate D2E/DX2                !
 ! A193  A(45,84,81)           121.8792         estimate D2E/DX2                !
 ! A194  A(56,84,58)            52.5439         estimate D2E/DX2                !
 ! A195  A(56,84,81)           125.9879         estimate D2E/DX2                !
 ! A196  A(58,84,81)            95.1699         estimate D2E/DX2                !
 ! D1    D(6,1,2,3)            -54.658          estimate D2E/DX2                !
 ! D2    D(6,1,2,7)           -175.997          estimate D2E/DX2                !
 ! D3    D(6,1,2,15)            63.8112         estimate D2E/DX2                !
 ! D4    D(2,1,6,5)             53.9689         estimate D2E/DX2                !
 ! D5    D(2,1,6,11)           -65.9114         estimate D2E/DX2                !
 ! D6    D(2,1,6,16)           178.0396         estimate D2E/DX2                !
 ! D7    D(1,2,3,4)             53.5759         estimate D2E/DX2                !
 ! D8    D(1,2,3,8)            -64.7761         estimate D2E/DX2                !
 ! D9    D(1,2,3,14)           178.0878         estimate D2E/DX2                !
 ! D10   D(7,2,3,4)            170.9377         estimate D2E/DX2                !
 ! D11   D(7,2,3,8)             52.5856         estimate D2E/DX2                !
 ! D12   D(7,2,3,14)           -64.5505         estimate D2E/DX2                !
 ! D13   D(15,2,3,4)           -70.0759         estimate D2E/DX2                !
 ! D14   D(15,2,3,8)           171.5721         estimate D2E/DX2                !
 ! D15   D(15,2,3,14)           54.4359         estimate D2E/DX2                !
 ! D16   D(1,2,15,27)           66.953          estimate D2E/DX2                !
 ! D17   D(3,2,15,27)         -169.8508         estimate D2E/DX2                !
 ! D18   D(7,2,15,27)          -50.0131         estimate D2E/DX2                !
 ! D19   D(2,3,4,5)            -53.3853         estimate D2E/DX2                !
 ! D20   D(2,3,4,9)             68.1121         estimate D2E/DX2                !
 ! D21   D(2,3,4,13)          -175.26           estimate D2E/DX2                !
 ! D22   D(8,3,4,5)             64.4887         estimate D2E/DX2                !
 ! D23   D(8,3,4,9)           -174.0138         estimate D2E/DX2                !
 ! D24   D(8,3,4,13)           -57.3859         estimate D2E/DX2                !
 ! D25   D(14,3,4,5)          -177.0943         estimate D2E/DX2                !
 ! D26   D(14,3,4,9)           -55.5969         estimate D2E/DX2                !
 ! D27   D(14,3,4,13)           61.031          estimate D2E/DX2                !
 ! D28   D(2,3,14,23)          -28.7838         estimate D2E/DX2                !
 ! D29   D(2,3,14,83)         -143.1085         estimate D2E/DX2                !
 ! D30   D(4,3,14,23)           94.413          estimate D2E/DX2                !
 ! D31   D(4,3,14,83)          -19.9117         estimate D2E/DX2                !
 ! D32   D(8,3,14,23)         -146.3256         estimate D2E/DX2                !
 ! D33   D(8,3,14,83)           99.3498         estimate D2E/DX2                !
 ! D34   D(3,4,5,6)             53.2463         estimate D2E/DX2                !
 ! D35   D(3,4,5,10)           170.4619         estimate D2E/DX2                !
 ! D36   D(3,4,5,12)           -71.8621         estimate D2E/DX2                !
 ! D37   D(9,4,5,6)            -68.0418         estimate D2E/DX2                !
 ! D38   D(9,4,5,10)            49.1738         estimate D2E/DX2                !
 ! D39   D(9,4,5,12)           166.8498         estimate D2E/DX2                !
 ! D40   D(13,4,5,6)           176.4565         estimate D2E/DX2                !
 ! D41   D(13,4,5,10)          -66.3278         estimate D2E/DX2                !
 ! D42   D(13,4,5,12)           51.3481         estimate D2E/DX2                !
 ! D43   D(3,4,13,22)           80.5696         estimate D2E/DX2                !
 ! D44   D(3,4,13,83)          -75.5722         estimate D2E/DX2                !
 ! D45   D(5,4,13,22)          -42.1076         estimate D2E/DX2                !
 ! D46   D(5,4,13,83)          161.7506         estimate D2E/DX2                !
 ! D47   D(9,4,13,22)         -160.382          estimate D2E/DX2                !
 ! D48   D(9,4,13,83)           43.4762         estimate D2E/DX2                !
 ! D49   D(4,5,6,1)            -52.2882         estimate D2E/DX2                !
 ! D50   D(4,5,6,11)            69.0639         estimate D2E/DX2                !
 ! D51   D(4,5,6,16)          -172.0042         estimate D2E/DX2                !
 ! D52   D(10,5,6,1)          -170.299          estimate D2E/DX2                !
 ! D53   D(10,5,6,11)          -48.947          estimate D2E/DX2                !
 ! D54   D(10,5,6,16)           69.985          estimate D2E/DX2                !
 ! D55   D(12,5,6,1)            67.2742         estimate D2E/DX2                !
 ! D56   D(12,5,6,11)         -171.3737         estimate D2E/DX2                !
 ! D57   D(12,5,6,16)          -52.4417         estimate D2E/DX2                !
 ! D58   D(4,5,12,21)          150.4332         estimate D2E/DX2                !
 ! D59   D(6,5,12,21)           28.3204         estimate D2E/DX2                !
 ! D60   D(10,5,12,21)         -92.7328         estimate D2E/DX2                !
 ! D61   D(1,6,16,17)           59.0553         estimate D2E/DX2                !
 ! D62   D(1,6,16,18)          177.5963         estimate D2E/DX2                !
 ! D63   D(1,6,16,19)          -64.4855         estimate D2E/DX2                !
 ! D64   D(5,6,16,17)         -177.4977         estimate D2E/DX2                !
 ! D65   D(5,6,16,18)          -58.9567         estimate D2E/DX2                !
 ! D66   D(5,6,16,19)           58.9616         estimate D2E/DX2                !
 ! D67   D(11,6,16,17)         -58.636          estimate D2E/DX2                !
 ! D68   D(11,6,16,18)          59.905          estimate D2E/DX2                !
 ! D69   D(11,6,16,19)         177.8232         estimate D2E/DX2                !
 ! D70   D(4,13,83,14)          41.7201         estimate D2E/DX2                !
 ! D71   D(4,13,83,19)           7.8896         estimate D2E/DX2                !
 ! D72   D(4,13,83,81)          30.1542         estimate D2E/DX2                !
 ! D73   D(22,13,83,14)       -102.1403         estimate D2E/DX2                !
 ! D74   D(22,13,83,19)       -135.9707         estimate D2E/DX2                !
 ! D75   D(22,13,83,81)       -113.7061         estimate D2E/DX2                !
 ! D76   D(3,14,83,13)         -12.4777         estimate D2E/DX2                !
 ! D77   D(3,14,83,19)          -0.2919         estimate D2E/DX2                !
 ! D78   D(3,14,83,81)         164.1119         estimate D2E/DX2                !
 ! D79   D(23,14,83,13)       -121.3612         estimate D2E/DX2                !
 ! D80   D(23,14,83,19)       -109.1754         estimate D2E/DX2                !
 ! D81   D(23,14,83,81)         55.2284         estimate D2E/DX2                !
 ! D82   D(2,15,27,26)        -136.0951         estimate D2E/DX2                !
 ! D83   D(2,15,27,28)         101.9176         estimate D2E/DX2                !
 ! D84   D(2,15,27,32)         -18.8751         estimate D2E/DX2                !
 ! D85   D(6,16,19,20)          72.0778         estimate D2E/DX2                !
 ! D86   D(6,16,19,83)         -20.4098         estimate D2E/DX2                !
 ! D87   D(17,16,19,20)        -50.804          estimate D2E/DX2                !
 ! D88   D(17,16,19,83)       -143.2917         estimate D2E/DX2                !
 ! D89   D(18,16,19,20)       -167.9841         estimate D2E/DX2                !
 ! D90   D(18,16,19,83)         99.5283         estimate D2E/DX2                !
 ! D91   D(16,19,83,13)       -129.422          estimate D2E/DX2                !
 ! D92   D(16,19,83,14)         88.8338         estimate D2E/DX2                !
 ! D93   D(16,19,83,81)         61.6068         estimate D2E/DX2                !
 ! D94   D(20,19,83,13)        125.2889         estimate D2E/DX2                !
 ! D95   D(20,19,83,14)        -16.4554         estimate D2E/DX2                !
 ! D96   D(20,19,83,81)        -43.6823         estimate D2E/DX2                !
 ! D97   D(29,24,25,26)        -58.9257         estimate D2E/DX2                !
 ! D98   D(29,24,25,30)         59.3794         estimate D2E/DX2                !
 ! D99   D(29,24,25,37)        172.4994         estimate D2E/DX2                !
 ! D100  D(25,24,29,28)         59.7353         estimate D2E/DX2                !
 ! D101  D(25,24,29,34)        -59.8998         estimate D2E/DX2                !
 ! D102  D(25,24,29,38)       -174.1162         estimate D2E/DX2                !
 ! D103  D(24,25,26,27)          2.5984         estimate D2E/DX2                !
 ! D104  D(24,25,26,31)       -117.3403         estimate D2E/DX2                !
 ! D105  D(24,25,26,36)        121.1401         estimate D2E/DX2                !
 ! D106  D(30,25,26,27)       -116.0761         estimate D2E/DX2                !
 ! D107  D(30,25,26,31)        123.9852         estimate D2E/DX2                !
 ! D108  D(30,25,26,36)          2.4655         estimate D2E/DX2                !
 ! D109  D(37,25,26,27)        127.3558         estimate D2E/DX2                !
 ! D110  D(37,25,26,31)          7.417          estimate D2E/DX2                !
 ! D111  D(37,25,26,36)       -114.1026         estimate D2E/DX2                !
 ! D112  D(24,25,37,49)         65.051          estimate D2E/DX2                !
 ! D113  D(26,25,37,49)        -61.0607         estimate D2E/DX2                !
 ! D114  D(30,25,37,49)       -179.3783         estimate D2E/DX2                !
 ! D115  D(25,26,27,15)        -71.8306         estimate D2E/DX2                !
 ! D116  D(25,26,27,28)         50.4833         estimate D2E/DX2                !
 ! D117  D(25,26,27,32)        170.1586         estimate D2E/DX2                !
 ! D118  D(31,26,27,15)         48.1933         estimate D2E/DX2                !
 ! D119  D(31,26,27,28)        170.5072         estimate D2E/DX2                !
 ! D120  D(31,26,27,32)        -69.8175         estimate D2E/DX2                !
 ! D121  D(36,26,27,15)        167.6623         estimate D2E/DX2                !
 ! D122  D(36,26,27,28)        -70.0238         estimate D2E/DX2                !
 ! D123  D(36,26,27,32)         49.6515         estimate D2E/DX2                !
 ! D124  D(25,26,36,44)         83.7671         estimate D2E/DX2                !
 ! D125  D(27,26,36,44)       -154.777          estimate D2E/DX2                !
 ! D126  D(31,26,36,44)        -36.626          estimate D2E/DX2                !
 ! D127  D(15,27,28,29)         70.3333         estimate D2E/DX2                !
 ! D128  D(15,27,28,33)       -173.0528         estimate D2E/DX2                !
 ! D129  D(15,27,28,35)        -58.7302         estimate D2E/DX2                !
 ! D130  D(26,27,28,29)        -49.6291         estimate D2E/DX2                !
 ! D131  D(26,27,28,33)         66.9849         estimate D2E/DX2                !
 ! D132  D(26,27,28,35)       -178.6926         estimate D2E/DX2                !
 ! D133  D(32,27,28,29)       -168.7265         estimate D2E/DX2                !
 ! D134  D(32,27,28,33)        -52.1125         estimate D2E/DX2                !
 ! D135  D(32,27,28,35)         62.2101         estimate D2E/DX2                !
 ! D136  D(27,28,29,24)         -3.481          estimate D2E/DX2                !
 ! D137  D(27,28,29,34)        115.77           estimate D2E/DX2                !
 ! D138  D(27,28,29,38)       -125.234          estimate D2E/DX2                !
 ! D139  D(33,28,29,24)       -118.8876         estimate D2E/DX2                !
 ! D140  D(33,28,29,34)          0.3634         estimate D2E/DX2                !
 ! D141  D(33,28,29,38)        119.3594         estimate D2E/DX2                !
 ! D142  D(35,28,29,24)        124.4048         estimate D2E/DX2                !
 ! D143  D(35,28,29,34)       -116.3442         estimate D2E/DX2                !
 ! D144  D(35,28,29,38)          2.6518         estimate D2E/DX2                !
 ! D145  D(27,28,35,43)         81.0355         estimate D2E/DX2                !
 ! D146  D(27,28,35,82)         67.0552         estimate D2E/DX2                !
 ! D147  D(29,28,35,43)        -45.8708         estimate D2E/DX2                !
 ! D148  D(29,28,35,82)        -59.8511         estimate D2E/DX2                !
 ! D149  D(33,28,35,43)       -164.1461         estimate D2E/DX2                !
 ! D150  D(33,28,35,82)       -178.1264         estimate D2E/DX2                !
 ! D151  D(24,29,38,39)         55.2226         estimate D2E/DX2                !
 ! D152  D(24,29,38,40)        174.8422         estimate D2E/DX2                !
 ! D153  D(24,29,38,41)        -64.6635         estimate D2E/DX2                !
 ! D154  D(28,29,38,39)       -179.9243         estimate D2E/DX2                !
 ! D155  D(28,29,38,40)        -60.3047         estimate D2E/DX2                !
 ! D156  D(28,29,38,41)         60.1895         estimate D2E/DX2                !
 ! D157  D(34,29,38,39)        -59.8512         estimate D2E/DX2                !
 ! D158  D(34,29,38,40)         59.7684         estimate D2E/DX2                !
 ! D159  D(34,29,38,41)       -179.7374         estimate D2E/DX2                !
 ! D160  D(28,35,82,41)         76.4888         estimate D2E/DX2                !
 ! D161  D(28,35,82,62)         21.366          estimate D2E/DX2                !
 ! D162  D(28,35,82,81)        -14.9097         estimate D2E/DX2                !
 ! D163  D(43,35,82,41)        -63.8642         estimate D2E/DX2                !
 ! D164  D(43,35,82,62)       -118.987          estimate D2E/DX2                !
 ! D165  D(43,35,82,81)       -155.2627         estimate D2E/DX2                !
 ! D166  D(25,37,49,48)        121.7243         estimate D2E/DX2                !
 ! D167  D(25,37,49,50)       -119.8456         estimate D2E/DX2                !
 ! D168  D(25,37,49,55)          0.1187         estimate D2E/DX2                !
 ! D169  D(29,38,41,42)       -178.0776         estimate D2E/DX2                !
 ! D170  D(29,38,41,82)         82.5219         estimate D2E/DX2                !
 ! D171  D(39,38,41,42)         62.5537         estimate D2E/DX2                !
 ! D172  D(39,38,41,82)        -36.8468         estimate D2E/DX2                !
 ! D173  D(40,38,41,42)        -58.4438         estimate D2E/DX2                !
 ! D174  D(40,38,41,82)       -157.8442         estimate D2E/DX2                !
 ! D175  D(38,41,82,35)       -127.2486         estimate D2E/DX2                !
 ! D176  D(38,41,82,62)        -15.9706         estimate D2E/DX2                !
 ! D177  D(38,41,82,81)        -28.9609         estimate D2E/DX2                !
 ! D178  D(42,41,82,35)        125.7585         estimate D2E/DX2                !
 ! D179  D(42,41,82,62)       -122.9634         estimate D2E/DX2                !
 ! D180  D(42,41,82,81)       -135.9538         estimate D2E/DX2                !
 ! D181  D(50,45,46,47)        -64.181          estimate D2E/DX2                !
 ! D182  D(50,45,46,51)         56.9625         estimate D2E/DX2                !
 ! D183  D(50,45,46,58)        178.9052         estimate D2E/DX2                !
 ! D184  D(84,45,46,47)         78.7131         estimate D2E/DX2                !
 ! D185  D(84,45,46,51)       -160.1434         estimate D2E/DX2                !
 ! D186  D(84,45,46,58)        -38.2007         estimate D2E/DX2                !
 ! D187  D(46,45,50,49)         67.7616         estimate D2E/DX2                !
 ! D188  D(46,45,50,54)        -50.6979         estimate D2E/DX2                !
 ! D189  D(46,45,50,59)       -166.3933         estimate D2E/DX2                !
 ! D190  D(84,45,50,49)        -94.0884         estimate D2E/DX2                !
 ! D191  D(84,45,50,54)        147.4521         estimate D2E/DX2                !
 ! D192  D(84,45,50,59)         31.7566         estimate D2E/DX2                !
 ! D193  D(46,45,84,56)        -80.4798         estimate D2E/DX2                !
 ! D194  D(46,45,84,58)         23.6342         estimate D2E/DX2                !
 ! D195  D(46,45,84,81)         29.2135         estimate D2E/DX2                !
 ! D196  D(50,45,84,56)         65.2954         estimate D2E/DX2                !
 ! D197  D(50,45,84,58)        169.4093         estimate D2E/DX2                !
 ! D198  D(50,45,84,81)        174.9886         estimate D2E/DX2                !
 ! D199  D(45,46,47,48)         54.0214         estimate D2E/DX2                !
 ! D200  D(45,46,47,52)        -64.7957         estimate D2E/DX2                !
 ! D201  D(45,46,47,57)        173.4962         estimate D2E/DX2                !
 ! D202  D(51,46,47,48)        -65.6445         estimate D2E/DX2                !
 ! D203  D(51,46,47,52)        175.5383         estimate D2E/DX2                !
 ! D204  D(51,46,47,57)         53.8302         estimate D2E/DX2                !
 ! D205  D(58,46,47,48)        171.614          estimate D2E/DX2                !
 ! D206  D(58,46,47,52)         52.7968         estimate D2E/DX2                !
 ! D207  D(58,46,47,57)        -68.9113         estimate D2E/DX2                !
 ! D208  D(45,46,58,66)        -71.6425         estimate D2E/DX2                !
 ! D209  D(45,46,58,84)         12.7455         estimate D2E/DX2                !
 ! D210  D(47,46,58,66)        170.7421         estimate D2E/DX2                !
 ! D211  D(47,46,58,84)       -104.87           estimate D2E/DX2                !
 ! D212  D(51,46,58,66)         48.4162         estimate D2E/DX2                !
 ! D213  D(51,46,58,84)        132.8042         estimate D2E/DX2                !
 ! D214  D(46,47,48,49)        -49.6612         estimate D2E/DX2                !
 ! D215  D(46,47,48,53)         68.9853         estimate D2E/DX2                !
 ! D216  D(46,47,48,56)       -171.5416         estimate D2E/DX2                !
 ! D217  D(52,47,48,49)         67.6869         estimate D2E/DX2                !
 ! D218  D(52,47,48,53)       -173.6666         estimate D2E/DX2                !
 ! D219  D(52,47,48,56)        -54.1934         estimate D2E/DX2                !
 ! D220  D(57,47,48,49)       -173.013          estimate D2E/DX2                !
 ! D221  D(57,47,48,53)        -54.3665         estimate D2E/DX2                !
 ! D222  D(57,47,48,56)         65.1067         estimate D2E/DX2                !
 ! D223  D(46,47,57,65)         60.9274         estimate D2E/DX2                !
 ! D224  D(48,47,57,65)       -176.2951         estimate D2E/DX2                !
 ! D225  D(52,47,57,65)        -58.2659         estimate D2E/DX2                !
 ! D226  D(47,48,49,37)        169.5917         estimate D2E/DX2                !
 ! D227  D(47,48,49,50)         50.9294         estimate D2E/DX2                !
 ! D228  D(47,48,49,55)        -68.8653         estimate D2E/DX2                !
 ! D229  D(53,48,49,37)         50.4767         estimate D2E/DX2                !
 ! D230  D(53,48,49,50)        -68.1856         estimate D2E/DX2                !
 ! D231  D(53,48,49,55)        172.0198         estimate D2E/DX2                !
 ! D232  D(56,48,49,37)        -68.6689         estimate D2E/DX2                !
 ! D233  D(56,48,49,50)        172.6688         estimate D2E/DX2                !
 ! D234  D(56,48,49,55)         52.8741         estimate D2E/DX2                !
 ! D235  D(47,48,56,64)        -56.987          estimate D2E/DX2                !
 ! D236  D(47,48,56,84)         80.8808         estimate D2E/DX2                !
 ! D237  D(49,48,56,64)        179.9872         estimate D2E/DX2                !
 ! D238  D(49,48,56,84)        -42.145          estimate D2E/DX2                !
 ! D239  D(53,48,56,64)         61.9076         estimate D2E/DX2                !
 ! D240  D(53,48,56,84)       -160.2246         estimate D2E/DX2                !
 ! D241  D(37,49,50,45)       -178.3901         estimate D2E/DX2                !
 ! D242  D(37,49,50,54)        -58.6902         estimate D2E/DX2                !
 ! D243  D(37,49,50,59)         60.5474         estimate D2E/DX2                !
 ! D244  D(48,49,50,45)        -59.1187         estimate D2E/DX2                !
 ! D245  D(48,49,50,54)         60.5812         estimate D2E/DX2                !
 ! D246  D(48,49,50,59)        179.8188         estimate D2E/DX2                !
 ! D247  D(55,49,50,45)         61.1953         estimate D2E/DX2                !
 ! D248  D(55,49,50,54)       -179.1049         estimate D2E/DX2                !
 ! D249  D(55,49,50,59)        -59.8673         estimate D2E/DX2                !
 ! D250  D(45,50,59,60)         56.4053         estimate D2E/DX2                !
 ! D251  D(45,50,59,61)        174.5667         estimate D2E/DX2                !
 ! D252  D(45,50,59,62)        -62.1362         estimate D2E/DX2                !
 ! D253  D(49,50,59,60)        178.3147         estimate D2E/DX2                !
 ! D254  D(49,50,59,61)        -63.5238         estimate D2E/DX2                !
 ! D255  D(49,50,59,62)         59.7733         estimate D2E/DX2                !
 ! D256  D(54,50,59,60)        -61.6027         estimate D2E/DX2                !
 ! D257  D(54,50,59,61)         56.5588         estimate D2E/DX2                !
 ! D258  D(54,50,59,62)        179.8558         estimate D2E/DX2                !
 ! D259  D(48,56,84,45)        -16.9106         estimate D2E/DX2                !
 ! D260  D(48,56,84,58)        -50.3531         estimate D2E/DX2                !
 ! D261  D(48,56,84,81)       -115.766          estimate D2E/DX2                !
 ! D262  D(64,56,84,45)         50.4063         estimate D2E/DX2                !
 ! D263  D(64,56,84,58)         16.9638         estimate D2E/DX2                !
 ! D264  D(64,56,84,81)        -48.4491         estimate D2E/DX2                !
 ! D265  D(46,58,66,67)       -100.8158         estimate D2E/DX2                !
 ! D266  D(46,58,66,68)         16.9199         estimate D2E/DX2                !
 ! D267  D(46,58,66,69)        138.7814         estimate D2E/DX2                !
 ! D268  D(84,58,66,67)       -170.411          estimate D2E/DX2                !
 ! D269  D(84,58,66,68)        -52.6754         estimate D2E/DX2                !
 ! D270  D(84,58,66,69)         69.1862         estimate D2E/DX2                !
 ! D271  D(46,58,84,45)        -13.198          estimate D2E/DX2                !
 ! D272  D(46,58,84,56)         39.1848         estimate D2E/DX2                !
 ! D273  D(46,58,84,81)        171.5571         estimate D2E/DX2                !
 ! D274  D(66,58,84,45)        101.9663         estimate D2E/DX2                !
 ! D275  D(66,58,84,56)        154.349          estimate D2E/DX2                !
 ! D276  D(66,58,84,81)        -73.2787         estimate D2E/DX2                !
 ! D277  D(50,59,62,63)        -83.8697         estimate D2E/DX2                !
 ! D278  D(50,59,62,82)         73.9792         estimate D2E/DX2                !
 ! D279  D(60,59,62,63)        156.8017         estimate D2E/DX2                !
 ! D280  D(60,59,62,82)        -45.3494         estimate D2E/DX2                !
 ! D281  D(61,59,62,63)         39.1108         estimate D2E/DX2                !
 ! D282  D(61,59,62,82)       -163.0403         estimate D2E/DX2                !
 ! D283  D(59,62,82,35)       -159.7347         estimate D2E/DX2                !
 ! D284  D(59,62,82,41)        176.3617         estimate D2E/DX2                !
 ! D285  D(59,62,82,81)        -17.112          estimate D2E/DX2                !
 ! D286  D(63,62,82,35)         -1.7768         estimate D2E/DX2                !
 ! D287  D(63,62,82,41)        -25.6805         estimate D2E/DX2                !
 ! D288  D(63,62,82,81)        140.8458         estimate D2E/DX2                !
 ! D289  D(58,66,69,70)        178.2755         estimate D2E/DX2                !
 ! D290  D(58,66,69,71)         63.6586         estimate D2E/DX2                !
 ! D291  D(58,66,69,72)        -57.9983         estimate D2E/DX2                !
 ! D292  D(67,66,69,70)         59.2449         estimate D2E/DX2                !
 ! D293  D(67,66,69,71)        -55.3719         estimate D2E/DX2                !
 ! D294  D(67,66,69,72)       -177.0288         estimate D2E/DX2                !
 ! D295  D(68,66,69,70)        -61.1571         estimate D2E/DX2                !
 ! D296  D(68,66,69,71)       -175.7739         estimate D2E/DX2                !
 ! D297  D(68,66,69,72)         62.5691         estimate D2E/DX2                !
 ! D298  D(66,69,72,73)         57.9354         estimate D2E/DX2                !
 ! D299  D(66,69,72,74)        172.7541         estimate D2E/DX2                !
 ! D300  D(66,69,72,75)        -65.372          estimate D2E/DX2                !
 ! D301  D(70,69,72,73)       -179.958          estimate D2E/DX2                !
 ! D302  D(70,69,72,74)        -65.1393         estimate D2E/DX2                !
 ! D303  D(70,69,72,75)         56.7346         estimate D2E/DX2                !
 ! D304  D(71,69,72,73)        -63.6848         estimate D2E/DX2                !
 ! D305  D(71,69,72,74)         51.1339         estimate D2E/DX2                !
 ! D306  D(71,69,72,75)        173.0078         estimate D2E/DX2                !
 ! D307  D(69,72,75,76)        -59.1717         estimate D2E/DX2                !
 ! D308  D(69,72,75,77)         58.0759         estimate D2E/DX2                !
 ! D309  D(69,72,75,78)       -179.0963         estimate D2E/DX2                !
 ! D310  D(73,72,75,76)        179.0495         estimate D2E/DX2                !
 ! D311  D(73,72,75,77)        -63.7028         estimate D2E/DX2                !
 ! D312  D(73,72,75,78)         59.1249         estimate D2E/DX2                !
 ! D313  D(74,72,75,76)         62.2906         estimate D2E/DX2                !
 ! D314  D(74,72,75,77)        179.5383         estimate D2E/DX2                !
 ! D315  D(74,72,75,78)        -57.634          estimate D2E/DX2                !
 ! D316  D(72,75,78,79)        174.0013         estimate D2E/DX2                !
 ! D317  D(72,75,78,80)         53.5399         estimate D2E/DX2                !
 ! D318  D(72,75,78,81)        -66.5137         estimate D2E/DX2                !
 ! D319  D(76,75,78,79)         52.3766         estimate D2E/DX2                !
 ! D320  D(76,75,78,80)        -68.0848         estimate D2E/DX2                !
 ! D321  D(76,75,78,81)        171.8616         estimate D2E/DX2                !
 ! D322  D(77,75,78,79)        -62.2759         estimate D2E/DX2                !
 ! D323  D(77,75,78,80)        177.2627         estimate D2E/DX2                !
 ! D324  D(77,75,78,81)         57.2091         estimate D2E/DX2                !
 ! D325  D(75,78,81,82)        178.5268         estimate D2E/DX2                !
 ! D326  D(75,78,81,83)         60.8306         estimate D2E/DX2                !
 ! D327  D(75,78,81,84)        -62.5261         estimate D2E/DX2                !
 ! D328  D(79,78,81,82)        -59.6459         estimate D2E/DX2                !
 ! D329  D(79,78,81,83)       -177.3421         estimate D2E/DX2                !
 ! D330  D(79,78,81,84)         59.3011         estimate D2E/DX2                !
 ! D331  D(80,78,81,82)         56.056          estimate D2E/DX2                !
 ! D332  D(80,78,81,83)        -61.6401         estimate D2E/DX2                !
 ! D333  D(80,78,81,84)        175.0031         estimate D2E/DX2                !
 ! D334  D(78,81,82,35)        155.72           estimate D2E/DX2                !
 ! D335  D(78,81,82,41)        131.3679         estimate D2E/DX2                !
 ! D336  D(78,81,82,62)        120.148          estimate D2E/DX2                !
 ! D337  D(83,81,82,35)        -81.3131         estimate D2E/DX2                !
 ! D338  D(83,81,82,41)       -105.6652         estimate D2E/DX2                !
 ! D339  D(83,81,82,62)       -116.8851         estimate D2E/DX2                !
 ! D340  D(84,81,82,35)         32.7252         estimate D2E/DX2                !
 ! D341  D(84,81,82,41)          8.3731         estimate D2E/DX2                !
 ! D342  D(84,81,82,62)         -2.8468         estimate D2E/DX2                !
 ! D343  D(78,81,83,13)        175.0383         estimate D2E/DX2                !
 ! D344  D(78,81,83,14)        163.7549         estimate D2E/DX2                !
 ! D345  D(78,81,83,19)       -172.5752         estimate D2E/DX2                !
 ! D346  D(82,81,83,13)         52.1366         estimate D2E/DX2                !
 ! D347  D(82,81,83,14)         40.8532         estimate D2E/DX2                !
 ! D348  D(82,81,83,19)         64.5231         estimate D2E/DX2                !
 ! D349  D(84,81,83,13)        -59.5207         estimate D2E/DX2                !
 ! D350  D(84,81,83,14)        -70.8041         estimate D2E/DX2                !
 ! D351  D(84,81,83,19)        -47.1342         estimate D2E/DX2                !
 ! D352  D(78,81,84,45)         74.8157         estimate D2E/DX2                !
 ! D353  D(78,81,84,56)        123.7912         estimate D2E/DX2                !
 ! D354  D(78,81,84,58)         77.3396         estimate D2E/DX2                !
 ! D355  D(82,81,84,45)       -161.7919         estimate D2E/DX2                !
 ! D356  D(82,81,84,56)       -112.8165         estimate D2E/DX2                !
 ! D357  D(82,81,84,58)       -159.2681         estimate D2E/DX2                !
 ! D358  D(83,81,84,45)        -51.0467         estimate D2E/DX2                !
 ! D359  D(83,81,84,56)         -2.0713         estimate D2E/DX2                !
 ! D360  D(83,81,84,58)        -48.5228         estimate D2E/DX2                !
 --------------------------------------------------------------------------------
 Trust Radius=3.00D-01 FncErr=1.00D-07 GrdErr=1.00D-06
 Number of steps in this run=    504 maximum allowed number of steps=    504.
 GradGradGradGradGradGradGradGradGradGradGradGradGradGradGradGradGradGrad

 Leave Link  103 at Tue Apr 26 23:30:04 2016, MaxMem= 10737418240 cpu:         0.5
 (Enter /share/apps//g09/l202.exe)
 Stoichiometry    C23H44NO16(1+)
 Framework group  C1[X(C23H44NO16)]
 Deg. of freedom   246
 Full point group                 C1      NOp   1
 Largest Abelian subgroup         C1      NOp   1
 Largest concise Abelian subgroup C1      NOp   1
                         Standard orientation:                         
 ---------------------------------------------------------------------
 Center     Atomic      Atomic             Coordinates (Angstroms)
 Number     Number       Type             X           Y           Z
 ---------------------------------------------------------------------
      1          8           0       -2.212425    2.561032   -0.931710
      2          6           0       -2.127329    1.266059   -1.483138
      3          6           0       -0.849406    1.054836   -2.313167
      4          6           0        0.386495    1.420094   -1.472893
      5          6           0        0.248979    2.830804   -0.895071
      6          6           0       -1.076370    2.970116   -0.135237
      7          1           0       -3.031826    1.167989   -2.103390
      8          1           0       -0.895695    1.727299   -3.182750
      9          1           0        0.508780    0.690393   -0.658634
     10          1           0        1.066272    2.992439   -0.162183
     11          1           0       -1.006117    2.346915    0.775575
     12          8           0        0.409963    3.719106   -2.001235
     13          8           0        1.596303    1.340665   -2.249339
     14          8           0       -0.784934   -0.285279   -2.815402
     15          8           0       -2.087837    0.227681   -0.497818
     16          6           0       -1.373868    4.401057    0.303688
     17          1           0       -2.312767    4.420539    0.879323
     18          1           0       -0.564705    4.763060    0.953533
     19          8           0       -1.438430    5.318326   -0.803128
     20          1           0       -2.265083    5.131441   -1.286138
     21          1           0       -0.118137    4.529233   -1.804500
     22          1           0        1.647584    2.172816   -2.764076
     23          1           0       -1.267943   -0.852768   -2.178088
     24          8           0       -2.098707   -2.268313    0.760863
     25          6           0       -2.213285   -1.517301    1.989829
     26          6           0       -2.879192   -0.125303    1.745880
     27          6           0       -3.294882    0.054355    0.279904
     28          6           0       -4.115909   -1.148465   -0.212053
     29          6           0       -3.384946   -2.490157    0.141143
     30          1           0       -2.860909   -2.083248    2.684388
     31          1           0       -2.159593    0.661825    2.006046
     32          1           0       -3.909107    0.963393    0.207120
     33          1           0       -5.061731   -1.120056    0.349851
     34          1           0       -4.013383   -3.056450    0.854893
     35          8           0       -4.491090   -1.023596   -1.579825
     36          8           0       -4.068916   -0.002933    2.532160
     37          8           0       -0.960182   -1.489439    2.618475
     38          6           0       -3.142552   -3.404146   -1.043664
     39          1           0       -2.628895   -4.315081   -0.698286
     40          1           0       -4.109638   -3.675994   -1.493063
     41          8           0       -2.313883   -2.702194   -2.006538
     42          1           0       -2.188014   -3.282377   -2.776681
     43          1           0       -3.720486   -1.297800   -2.116790
     44          1           0       -3.816405    0.286942    3.425107
     45          8           0        2.332199   -1.100119    1.020480
     46          6           0        2.960229   -0.160186    1.915761
     47          6           0        1.944866    0.920269    2.284212
     48          6           0        0.650660    0.320361    2.843107
     49          6           0        0.107148   -0.794004    1.942525
     50          6           0        1.251825   -1.794346    1.659083
     51          1           0        3.310295   -0.706242    2.819101
     52          1           0        1.713074    1.463606    1.349112
     53          1           0        0.867546   -0.122628    3.834503
     54          1           0        1.589540   -2.216296    2.628823
     55          1           0       -0.255995   -0.373298    0.991617
     56          8           0       -0.332844    1.351467    2.985895
     57          8           0        2.428791    1.814880    3.283270
     58          8           0        4.008213    0.457703    1.248556
     59          6           0        0.883771   -2.977131    0.775729
     60          1           0        1.784163   -3.590166    0.627511
     61          1           0        0.123766   -3.588501    1.281633
     62          8           0        0.418996   -2.595661   -0.528149
     63          1           0       -0.538862   -2.391888   -0.434966
     64          1           0        0.067063    2.026756    3.564668
     65          1           0        3.221592    2.255654    2.927900
     66          6           0        5.163169   -0.390749    1.010047
     67          1           0        5.930675   -0.151759    1.763888
     68          1           0        4.870866   -1.444245    1.136982
     69          6           0        5.692549   -0.127755   -0.394853
     70          1           0        6.585366   -0.758961   -0.540355
     71          1           0        6.041009    0.915282   -0.448222
     72          6           0        4.672308   -0.362155   -1.519639
     73          1           0        3.806063    0.289354   -1.327089
     74          1           0        5.117551   -0.019057   -2.468203
     75          6           0        4.223559   -1.822241   -1.675539
     76          1           0        5.096683   -2.461654   -1.884647
     77          1           0        3.782252   -2.189869   -0.736034
     78          6           0        3.226552   -2.053474   -2.808238
     79          1           0        3.023275   -3.124463   -2.941356
     80          1           0        3.603908   -1.657220   -3.762087
     81          7           0        1.907643   -1.386687   -2.540589
     82          1           0        1.231483   -1.512114   -3.305138
     83          1           0        1.985632   -0.344195   -2.441332
     84          1           0        1.429380   -1.771617   -1.680384
 ---------------------------------------------------------------------
 Rotational constants (GHZ):      0.1118893      0.0812568      0.0739583
 Leave Link  202 at Tue Apr 26 23:30:04 2016, MaxMem= 10737418240 cpu:         0.6
 (Enter /share/apps//g09/l301.exe)
[...]
 1337,0.00000801,-0.00000397,-0.00001499,-0.00003426,-0.00004974,-0.000
 12532,-0.00002102,-0.00004898,-0.00005322,-0.00009890,-0.00003794,-0.0
 0010874,-0.00018861,-0.00007652,0.00016950,0.00001031,0.00000811,-0.00
 002019,0.00003914,0.00001101,-0.00001541,0.00033786,-0.00001778,-0.000
 18926,-0.00011079,0.00004594,0.00001683,-0.00004831,0.00007572,0.00011
 843,0.00001505,0.00001868,0.00002236,-0.00067202,0.00016535,-0.0005711
 1,0.00101081,0.00017032,0.00018313,0.00000624,0.00023011,-0.00005118,0
 .00012745,0.00005133,0.00009487,-0.00000151,0.00004300,0.00007669,0.00
 006908,-0.00002284,0.00009282,-0.00009593,-0.00004220,-0.00006993,0.00
 002322,-0.00004175,-0.00001692,-0.00003210,-0.00002348,-0.00000005,-0.
 00001779,0.00002341,-0.00004740,0.00003465,0.00005082,0.00007465,-0.00
 012950,-0.00013251,-0.00007114,-0.00010388,-0.00012921,-0.00004461,-0.
 00046198,-0.00028164,0.00029794,0.00013152,-0.00067273,0.00049253,-0.0
 0001473,0.00002177,-0.00002765,0.00000337,0.00012781,-0.00007633,0.000
 76282,0.00067046,-0.00024137,-0.00029604,0.00010189,0.00022140,0.00003
 950,0.00003181,-0.00002916,0.00001370,0.00006782,-0.00003461,0.0002623
 0,0.00011260,-0.00005253,-0.00006162,-0.00005636,0.00006183,-0.0000646
 9,-0.00009339,0.00001284,-0.00023602,-0.00049229,-0.00106573,0.0002739
 3,-0.00035882,0.00019593,-0.00009538,0.00009118,-0.00005631,0.00013777
 ,0.00085789,0.00207331,-0.00113287,0.00065824,-0.00213134,-0.00027869,
 0.00004584,0.00016162,0.00101211,-0.00005438,0.00047652,-0.00039671,-0
 .00015166,-0.00037777,-0.00018960,-0.00009447,-0.00006427,0.02097084,0
 .00845219,0.01193391,-0.00291638,0.00362347,0.00412967,0.00019422,-0.0
 0017147,0.00040254,-0.17901200,-0.08529169,-0.11051275,-0.01420053,-0.
 00941060,-0.01194170,0.19166075,-0.00054724,-0.00013650,0.00002661,0.0
 0050786,0.00085933,-0.00095878,0.00067524,-0.00024213,0.00100294,0.007
 70507,0.00151570,-0.00580776,-0.00179084,0.00030959,0.00082599,0.00116
 502,0.00048720,0.00033682,-0.00020829,-0.00004311,0.00022462,0.0000994
 5,-0.00028697,0.00001423,-0.00076722,-0.00025448,0.00066116,0.00009660
 ,-0.00011656,-0.00006949,-0.00003294,0.00006471,-0.00000968,-0.0001215
 5,0.00059635,0.00098090,-0.00045062,0.00164713,0.00453652,-0.00174061,
 -0.00186177,-0.00129309,-0.00103252,-0.00070610,0.00052007,-0.00043945
 ,-0.00004766,-0.00004196,-0.00001297,0.00012488,0.00018292,0.00002296,
 -0.00001135,-0.00005367,-0.00010395,0.00020395,0.00042880,0.00004060,-
 0.00013405,-0.00010323,-0.00010888,-0.00049849,-0.00029797,-0.00152269
 ,-0.00208160,0.00225788,0.00010518,0.00088757,0.00046254,0.00014453,-0
 .00030478,-0.00028398,-0.00013067,0.00035976,0.00019634,-0.00001841,0.
 00011512,-0.00002117,0.00059282,0.00002951,-0.00031067,0.00002687,0.00
 012943,0.00008036,-0.00005995,0.00020837,0.00000489,0.00000840,-0.0000
 2764,-0.00002787,-0.00001387,0.00005607,-0.00003342,-0.00001048,-0.000
 01846,0.00001126,-0.00004804,-0.00001943,-0.00003237,0.00000959,-0.000
 03223,-0.00001164,-0.00021947,-0.00023755,-0.00011692,-0.00008100,-0.0
 0018460,0.00005172,0.00028941,-0.00036072,-0.00022758,-0.00010701,-0.0
 0002780,0.00007058,-0.00003808,-0.00003173,-0.00002150,0.00002902,0.00
 000627,0.00000893,0.00013707,-0.00034546,-0.00024877,-0.00022680,0.000
 16681,0.00009342,0.00017300,0.00018092,0.00016999,0.00000893,0.0000470
 3,0.00001703,0.00011438,0.00026746,-0.00106869,0.00027991,-0.00009396,
 0.00096353,0.00006986,0.00048856,-0.00002923,-0.00000873,0.00020980,0.
 00028108,-0.00021289,0.00030366,0.00011095,-0.00069862,0.00003770,0.00
 029149,-0.00002347,0.00003201,-0.00016831,-0.00003664,-0.00002063,0.00
 003767,-0.00001928,-0.00007504,0.00001477,0.00007704,0.00003515,-0.000
 13022,0.00008492,0.00010874,0.00006485,-0.00000935,-0.00047350,-0.0002
 6029,-0.00000252,-0.00036163,-0.00023723,0.00015121,-0.00007010,-0.000
 72587,0.00013939,-0.00063354,0.00029624,-0.00005396,-0.00004617,-0.000
 06309,0.00004267,0.00014163,-0.00003990,0.00106868,0.00057425,-0.00064
 950,-0.00031788,0.00051939,0.00038335,0.00001495,0.00009322,-0.0000142
 3,-0.00000464,0.00019871,0.00011570,-0.00013006,0.00005075,0.00040676,
 -0.00000964,0.00001788,-0.00013441,-0.00000725,-0.00014546,0.00003571,
 -0.00015875,-0.00009119,0.00057202,-0.00008174,0.00018113,-0.00012870,
 -0.00018290,0.00011262,-0.00014677,0.00057433,-0.00021387,-0.00093927,
 0.00114093,0.00135998,0.00148717,-0.00032420,0.00012687,0.00031307,-0.
 00054809,-0.00095761,0.00010132,-0.00034271,0.00043537,0.00005381,0.00
 002261,-0.00038406,-0.00000500,-0.00637410,-0.00929408,-0.01085648,0.0
 0115972,0.00001766,-0.00074187,-0.00031988,0.00096840,0.00109029,-0.09
 027683,-0.12503043,-0.08559721,0.01876402,0.01590032,0.01903193,0.0866
 4302,0.12486813,-0.00063290,-0.00005695,-0.00024439,0.00033430,0.00075
 994,-0.00070089,0.00123519,0.00017930,0.00230017,0.00616249,-0.0016552
 0,-0.00692866,-0.00105819,0.00037001,-0.00008505,0.00112094,0.00019080
 ,0.00022077,-0.00022608,-0.00000601,0.00023961,-0.00001334,-0.00012088
 ,-0.00005084,0.00004092,0.00004596,-0.00051479,0.00000993,-0.00008115,
 -0.00007983,-0.00001567,0.00007740,-0.00003009,-0.00003214,0.00115984,
 0.00131607,0.00305469,0.00577216,-0.00543766,-0.00071485,-0.00144349,-
 0.00247185,-0.00096855,-0.00054894,0.00024818,-0.00037000,-0.00005980,
 -0.00008372,-0.00001607,0.00011186,0.00016329,0.00000515,-0.00001371,-
 0.00006391,-0.00012174,0.00026394,0.00044375,0.00004956,-0.00014095,-0
 .00008430,-0.00004123,-0.00051982,-0.00033083,-0.00259551,-0.00052917,
 0.00507495,0.00016739,0.00034486,0.00026104,0.00006673,-0.00018493,-0.
 00052880,0.00017200,0.00009463,0.00039510,0.00001791,0.00009994,-0.000
 04521,0.00051903,0.00004117,-0.00025720,0.00003549,0.00007746,0.000142
 64,-0.00000121,0.00015097,0.00001664,-0.00002066,-0.00000663,-0.000047
 32,0.00000372,0.00002646,-0.00004196,-0.00000923,-0.00001288,0.0000058
 9,-0.00004083,-0.00001676,-0.00003361,0.00000655,-0.00002663,-0.000014
 44,-0.00019695,-0.00016614,-0.00020109,-0.00011252,-0.00014459,0.00004
 556,-0.00018817,-0.00025081,-0.00011653,-0.00020438,-0.00006841,0.0001
 6297,-0.00001973,-0.00002101,-0.00002578,0.00004312,0.00001374,-0.0000
 0653,0.00029688,-0.00026393,-0.00032242,-0.00023022,0.00014059,0.00008
 543,0.00011394,0.00017019,0.00021002,0.00002605,0.00003877,0.00001012,
 -0.00043381,-0.00048386,-0.00060764,0.00008777,0.00027795,0.00031491,0
 .00002153,0.00065968,-0.00026191,0.00013665,0.00007635,0.00009395,-0.0
 0003057,0.00039192,-0.00000758,0.00037145,0.00025146,0.00015545,0.0000
 0392,-0.00009349,-0.00004007,-0.00004532,-0.00017074,-0.00003215,-0.00
 004341,-0.00007031,0.00004074,-0.00011835,-0.00006023,-0.00006702,0.00
 014431,0.00002340,0.00007597,-0.00013829,-0.00031675,-0.00008989,0.000
 07210,-0.00037687,0.00006787,0.00024777,-0.00048229,-0.00042941,0.0006
 5026,-0.00113599,0.00054923,-0.00007388,-0.00003051,-0.00003040,-0.000
 01345,0.00032628,-0.00017003,0.00240330,0.00150191,-0.00292649,-0.0001
 1280,0.00077288,0.00026458,0.00003574,0.00006884,-0.00006953,-0.000057
 35,0.00016705,0.00002453,-0.00027364,0.00041762,0.00048219,0.00002798,
 -0.00003375,-0.00011529,-0.00003561,-0.00013520,0.00000186,0.00011576,
 -0.00024052,-0.00027256,0.00009932,-0.00007548,-0.00000566,-0.00015424
 ,0.00009595,-0.00009741,0.00011490,0.00059582,0.00084479,-0.00097511,0
 .00072501,0.00046727,0.00022929,-0.00009749,-0.00025942,0.00011178,0.0
 0021302,0.00162515,-0.00052294,0.00041872,-0.00036929,-0.00000086,-0.0
 0001903,0.00006567,-0.00852602,-0.01161108,-0.01481400,0.00187870,-0.0
 0055083,-0.00075559,-0.00064788,0.00074571,-0.00009740,-0.11004826,-0.
 08032853,-0.16865291,-0.01284633,-0.00626107,-0.00992689,0.11328206,0.
 08413542,0.18114208,-0.00052620,-0.00021935,-0.00012026,0.00080169,0.0
 0090647,-0.00028555,0.00021656,-0.00015212,0.00032734,0.00145978,-0.00
 029419,-0.00141993,-0.00015092,0.00013379,-0.00012139,0.00044591,0.000
 06824,0.00001766,-0.00006516,-0.00005783,0.00006522,-0.00007427,-0.000
 10980,-0.00010463,0.00022766,0.00000965,-0.00015315,0.00000170,-0.0000
 1898,-0.00002726,0.00000254,0.00003812,0.00001018,-0.00016496,0.000186
 28,0.00038983,0.00001650,0.00133409,0.00173921,-0.00147496,-0.00075859
 ,0.00028116,-0.00074089,-0.00084011,0.00017581,-0.00005137,0.00009003,
 -0.00000303,-0.00001268,0.00003486,0.00006416,-0.00000066,-0.00000606,
 -0.00002506,-0.00010674,-0.00005999,0.00012952,0.00003494,0.00000196,-
 0.00001972,0.00006869,-0.00011405,-0.00012655,-0.00026014,-0.00014414,
 0.00012676,0.00009529,0.00174967,0.00058815,0.00106176,-0.00055876,-0.
 00175857,0.00031969,-0.00006595,0.00129363,-0.00012119,0.00020442,0.00
 014470,0.00031478,0.00001967,-0.00009196,0.00007286,0.00030578,0.00006
 560,-0.00065416,0.00061957,-0.00022976,0.00000533,0.00004631,-0.000190
 21,0.00003483,-0.00002291,-0.00002477,-0.00001002,-0.00004146,-0.00001
 396,-0.00002749,-0.00005347,-0.00003986,0.00016166,-0.00007164,-0.0000
 3474,-0.00010882,-0.00047002,-0.00010747,0.00007693,-0.00022987,-0.000
 27793,-0.00042935,-0.00016608,-0.00043033,-0.00055149,-0.00005841,0.00
 035210,-0.00015250,-0.00001321,-0.00009460,0.00012693,-0.00003468,-0.0
 0003613,0.00094581,-0.00113118,-0.00013541,-0.00014756,0.00048405,-0.0
 0025362,0.00011330,0.00036215,0.00017470,0.00000337,0.00004778,0.00011
 625,-0.00259537,-0.00092842,0.00047661,0.00124769,0.00014769,-0.000051
 84,0.00026731,0.00020814,-0.00012930,0.00057868,0.00011866,0.00018901,
 -0.00024819,0.00020233,0.00030734,0.00278902,0.00134494,-0.00019840,-0
 .00000732,-0.00016590,0.00007222,-0.00001945,-0.00009499,-0.00003182,-
 0.00007093,-0.00005587,-0.00002084,-0.00075569,-0.00007390,-0.00034016
 ,0.00015294,0.00018976,0.00026358,-0.00042997,-0.00024052,-0.00029508,
 -0.00035235,-0.00005998,0.00004643,-0.00115301,-0.00017730,0.00091669,
 0.00644646,-0.00869596,0.00238248,-0.00032533,0.00082532,0.00001966,-0
 .00021914,0.00256782,-0.00134258,-0.00110890,0.00617778,-0.00480045,-0
 .00233287,0.00424791,0.00088931,0.00010953,0.00000988,-0.00004201,0.00
 003768,0.00001841,-0.00010114,0.00033790,-0.00020130,-0.00055058,-0.00
 000636,-0.00000642,0.00017081,0.00003059,0.00012404,-0.00007658,-0.000
 02446,0.00024137,-0.00016771,-0.00000728,-0.00011488,0.00005936,0.0001
 1420,-0.00010442,0.00013724,-0.00044726,-0.00015535,0.00006598,-0.0003
 7036,-0.00013094,-0.00034674,0.00012714,-0.00005011,-0.00001790,-0.000
 48411,-0.00062843,-0.00071695,0.00078334,-0.00028045,-0.00004210,0.000
 16071,0.00084006,-0.00032951,-0.00941672,-0.00202990,0.00951992,0.0010
 8746,-0.00054458,-0.00134921,0.00069320,0.00056671,-0.00000086,-0.1652
 6935,-0.09774346,0.09426922,0.01745736,0.01268306,-0.01386627,-0.01295
 243,-0.01220756,0.00941170,0.16539868,-0.00020646,-0.00013037,0.000461
 99,0.00076667,0.00052980,-0.00054036,-0.00097158,-0.00081942,-0.001157
 18,0.00040755,-0.00033951,-0.00053337,-0.00004281,0.00003694,-0.000320
 19,0.00013739,0.00019435,-0.00012064,-0.00001588,-0.00006198,0.0000307
 8,0.00005636,0.00007012,0.00011145,0.00002822,0.00035049,-0.00029538,0
 .00009893,-0.00000301,0.00008506,-0.00000084,0.00003047,0.00000514,0.0
 0003496,0.00018372,0.00038154,0.00037022,0.00073861,0.00064987,-0.0008
 6651,0.00289082,0.00134581,-0.00071469,-0.00061138,0.00059211,-0.00004
 952,0.00003000,-0.00003520,-0.00001507,0.00003125,0.00004295,0.0000199
 7,0.00000493,-0.00000502,-0.00004835,-0.00001218,0.00014701,0.00000751
 ,-0.00002818,-0.00004751,0.00002979,-0.00008968,-0.00013137,-0.0001880
 2,-0.00009049,0.00014298,0.00167854,-0.00033465,-0.00070206,0.00089638
 ,-0.00061522,-0.00108126,-0.00000900,0.00025058,0.00063065,-0.00008992
 ,0.00018745,0.00006541,0.00046844,0.00009862,-0.00023300,0.00004683,0.
 00025588,-0.00002667,-0.00054737,0.00052627,-0.00024996,0.00002455,0.0
 0000548,-0.00011110,-0.00000297,0.00001045,-0.00001766,-0.00004016,-0.
 00003616,0.00002312,-0.00004114,-0.00004366,-0.00003000,0.00012454,-0.
 00006992,0.00001392,-0.00014844,-0.00036534,0.00006065,0.00003881,-0.0
 0021901,-0.00011050,0.00017075,-0.00036410,-0.00036805,-0.00002984,0.0
 0028649,-0.00009573,-0.00016747,-0.00006384,-0.00005085,-0.00001638,-0
 .00007352,0.00003648,-0.00015156,-0.00093393,0.00035575,0.00019631,0.0
 0022857,-0.00011408,0.00020432,0.00017665,0.00002673,-0.00001006,0.000
 04217,0.00006837,-0.00205349,-0.00023031,-0.00121734,0.00205870,0.0001
 8094,0.00052071,0.00006207,0.00037293,0.00000964,0.00025427,0.00014718
 ,0.00030105,-0.00033941,0.00037652,0.00026158,0.00034695,0.00026632,0.
 00073923,-0.00014252,-0.00002178,-0.00018025,-0.00003094,-0.00006855,-
 0.00001452,-0.00003369,-0.00005526,0.00000574,-0.00021879,0.00005143,-
 0.00030101,0.00007412,0.00015899,0.00013551,-0.00016700,-0.00034523,-0
 .00034616,-0.00025075,-0.00020847,-0.00026820,-0.00096507,-0.00013099,
 0.00048825,-0.00028673,-0.00530684,0.00245560,-0.00020230,0.00000931,-
 0.00009389,0.00011593,0.00077399,-0.00051399,0.00602378,-0.00875272,-0
 .00318608,0.00093963,0.00599206,-0.00015509,0.00004832,0.00002755,-0.0
 0000314,0.00005696,0.00007669,0.00000769,0.00041178,-0.00014996,-0.000
 30320,-0.00006201,-0.00000743,0.00006627,-0.00001298,-0.00002487,-0.00
 003932,0.00002347,0.00010064,-0.00006098,0.00000487,-0.00006244,0.0000
 4438,0.00003330,-0.00006081,0.00005927,-0.00013002,-0.00035218,0.00057
 216,-0.00010767,0.00003132,-0.00022863,-0.00030710,-0.00012215,-0.0000
 6788,0.00027546,0.00215001,-0.00162492,-0.00016592,-0.00033003,0.00031
 859,-0.00013471,-0.00101455,0.00084243,0.01412779,0.01965983,-0.010936
 54,-0.00018040,0.00023196,-0.00029330,0.00314519,-0.00355527,-0.004307
 23,-0.09281812,-0.15182563,0.08338811,-0.01641730,-0.01535450,0.012828
 23,-0.00763539,-0.00914266,0.00691782,0.09322671,0.16466041,0.00023593
 ,0.00018344,-0.00005235,-0.00049855,-0.00062858,0.00021161,0.00061533,
 -0.00007134,0.00001490,-0.00184730,-0.00116039,0.00138257,0.00020733,-
 0.00010134,-0.00037710,-0.00019557,-0.00016527,-0.00002723,0.00002575,
 0.00006203,-0.00002139,-0.00007906,0.00011763,-0.00002703,0.00002277,0
 .00011337,-0.00059826,-0.00003274,0.00002790,0.00001189,0.00001967,-0.
 00001796,-0.00002658,0.00021305,0.00021988,-0.00010543,0.00025339,-0.0
 0119996,-0.00341156,0.00021363,0.00001531,-0.00128757,0.00023701,0.000
 59386,-0.00013607,0.00002228,-0.00008887,-0.00002738,0.00000664,-0.000
 01737,-0.00003218,-0.00001120,-0.00000090,0.00000484,0.00006192,0.0001
 0690,-0.00005037,-0.00001247,-0.00002136,0.00000739,0.00001455,0.00005
 614,0.00001960,0.00014320,0.00008807,-0.00007326,0.00018704,-0.0008942
 7,0.00023037,-0.00077844,0.00044836,0.00067238,0.00022331,-0.00027445,
 -0.00045591,0.00010655,-0.00012100,-0.00013920,-0.00006564,0.00001440,
 0.00003876,-0.00003201,-0.00019040,0.00006849,0.00055636,-0.00043467,0
 .00020561,-0.00004795,-0.00000237,0.00008382,-0.00001148,-0.00000678,-
 0.00000731,-0.00001732,0.00002836,0.00001228,0.00001269,0.00002708,0.0
 0001347,-0.00011828,0.00005079,-0.00000333,0.00002608,0.00026855,-0.00
 011127,-0.00010908,0.00014916,0.00018345,-0.00037882,0.00019703,0.0004
 3279,0.00002970,-0.00017964,0.00002799,0.00011843,0.00001978,0.0000593
 3,-0.00000535,0.00005949,-0.00001812,-0.00005100,0.00063227,-0.0004467
 4,-0.00030505,-0.00006737,0.00022424,-0.00005400,-0.00011164,0.0000309
 3,0.00001799,-0.00002925,-0.00007851,0.00215392,-0.00057604,0.00120917
 ,-0.00250445,-0.00025803,-0.00060658,-0.00013093,-0.00011348,-0.000151
 79,-0.00026146,-0.00022560,-0.00034514,0.00036126,0.00014078,-0.000445
 98,0.00022351,0.00040247,-0.00074084,0.00023390,-0.00003746,0.00025886
 ,-0.00001491,-0.00001357,0.00001726,0.00005201,0.00002325,0.00004413,0
 .00013677,-0.00015978,0.00030540,0.00003150,-0.00032481,-0.00023961,0.
 00015311,0.00027093,0.00034659,0.00036344,0.00006949,0.00032616,0.0012
 8800,-0.00002002,-0.00081205,-0.00179241,0.00516636,-0.00231871,0.0000
 9360,-0.00072222,0.00024928,-0.00001618,-0.00129665,0.00060860,-0.0052
 0004,-0.00273683,-0.00103421,0.00138682,-0.00263942,-0.00136782,-0.000
 05406,-0.00001544,-0.00002483,-0.00009300,-0.00003247,0.00001640,-0.00
 049206,0.00038809,0.00060944,0.00005846,-0.00002573,-0.00012772,-0.000
 01587,-0.00005089,0.00005044,-0.00000500,-0.00023022,0.00009389,0.0000
 3480,0.00007278,-0.00005957,-0.00008576,0.00009533,-0.00010779,0.00007
 849,0.00042102,-0.00020026,-0.00006504,-0.00011573,0.00025733,0.000067
 01,-0.00003361,-0.00014140,-0.00087341,-0.00007914,0.00195328,-0.00056
 380,0.00040736,-0.00028599,0.00021084,-0.00040271,0.00050171,0.0144355
 9,0.00850279,-0.01445230,-0.00058241,0.00079391,-0.00010133,0.00068815
 ,-0.00227126,-0.00109654,0.08919174,0.08317079,-0.14286159,0.00910829,
 0.01052828,-0.00857949,-0.01220405,-0.01104590,0.02128777,-0.09431567,
 -0.08472124,0.15154327\\0.00000545,-0.00000029,0.00001816,-0.00000494,
 -0.00001534,-0.00002612,0.00000123,0.00000585,0.00000276,-0.00001026,0
 .00000379,0.00002019,-0.00000220,-0.00000085,-0.00001128,-0.00000596,0
 .00000237,0.00000165,0.00000235,-0.00000331,0.00000544,0.00000041,-0.0
 0000554,0.00000074,0.00000143,0.00000497,0.00000107,-0.00000407,0.0000
 0264,0.00000208,0.00000214,0.00000400,-0.00000056,0.00000228,-0.000008
 68,0.00000975,0.00003056,-0.00000215,-0.00001870,-0.00000599,0.0000075
 3,-0.00000108,-0.00000247,0.00000874,0.00001161,-0.00000334,-0.0000056
 5,0.00000296,0.00000007,-0.00000114,-0.00000128,-0.00000475,-0.0000011
 7,0.00000220,-0.00001516,-0.00000220,-0.00000404,0.00000354,-0.0000051
 5,0.00000904,-0.00000587,0.00000372,0.00000269,-0.00000403,-0.00000407
 ,0.00001365,0.00001002,-0.00000493,-0.00000127,-0.00000771,-0.00000221
 ,-0.00000161,-0.00000501,0.00000224,0.00000593,-0.00000570,0.00000207,
 -0.00001096,-0.00000019,-0.00000290,-0.00000565,0.00000082,-0.00000178
 ,-0.00000159,-0.00000082,-0.00000066,-0.00000221,0.00000411,-0.0000015
 2,-0.00000802,-0.00000842,-0.00000319,-0.00000271,-0.00000091,-0.00000
 652,-0.00000158,0.00000225,-0.00000339,-0.00000261,0.00000524,-0.00000
 143,-0.00000387,0.00000368,-0.00000413,0.,0.00000260,-0.00000770,0.000
 00663,0.00001051,0.00000457,-0.00000722,-0.00000289,0.00000024,-0.0000
 0641,0.00000209,0.00000211,-0.00000327,0.00000467,-0.00000357,-0.00000
 359,-0.00000878,-0.00000138,-0.00000322,0.00000981,-0.00000012,0.00000
 491,-0.00000583,0.00000159,0.00000199,-0.00000645,-0.00000074,-0.00000
 812,0.00001052,0.00000372,-0.00000333,-0.00001096,-0.00000691,0.000014
 67,-0.00000490,-0.00000263,-0.00000490,-0.00000337,-0.00001070,-0.0000
 0699,-0.00001101,-0.00000412,0.00000167,-0.00000478,-0.00000699,0.0000
 0373,0.00000229,0.00000733,-0.00000579,-0.00000012,-0.00000581,0.00000
 345,0.00000257,0.00000400,-0.00000367,0.00000328,0.00000767,-0.0000037
 7,-0.00000049,-0.00000791,-0.00000054,0.00000790,0.00000212,0.00000149
 ,0.00000710,0.00000020,-0.00000443,0.00000091,0.00000506,-0.00001768,0
 .00000151,-0.00000340,-0.00000229,0.00000015,0.00000217,0.00000007,0.0
 0000235,0.00000157,-0.00000602,0.00000764,0.00001075,-0.00000403,-0.00
 000052,-0.00000905,0.00000554,-0.00000933,-0.00000251,-0.00000123,-0.0
 0000627,-0.00000066,0.00000510,0.00000776,-0.00000124,0.00000937,-0.00
 000079,0.00000344,-0.00000122,0.00000417,0.00000422,-0.00000157,0.0000
 0350,0.00000257,0.00000225,0.00000047,0.00000557,0.00000183,-0.0000010
 7,0.00000227,-0.00000006,0.00000166,0.00000299,0.00000266,0.00000105,-
 0.00000062,-0.00000149,0.00000143,0.00000025,0.00000340,0.00000265,0.0
 0000593,0.00000043,0.00000241,0.00000467,0.00000137,0.00000500,0.00000
 426,-0.00000331,0.00000708,-0.00000354,-0.00000063,0.00000486,0.000005
 69,0.00000218,0.00000069,0.00000363,0.00000470,0.00000686,-0.00000842,
 0.00001263,0.00000163,-0.00000318,0.00000354,-0.00002618,0.00002443,0.
 00000639,-0.00000114,0.00000847,-0.00000002\\\@


 A MUSTACHE HAIR ACROSS A CHIP IS LIKE A REDWOOD
 TREE FALLING THROUGH A HOUSING PROJECT.
 - AN IBM MANAGER IN EAST FISHKILL, NEW YORK
   AS QUOTED IN "FROM SANDS TO CIRCUITS", IBM INNOVATION JANUARY 1985.
 Job cpu time:      22 days 15 hours 28 minutes 48.5 seconds.
 File lengths (MBytes):  RWF=  17230 Int=      0 D2E=      0 Chk=     99 Scr=      1
 Normal termination of Gaussian 09 at Fri Apr 29 09:25:18 2016.
