 Entering Gaussian System, Link 0=g09
 Initial command:
 /share/apps//g09/l1.exe "/scratch/Gau-8162.inp" -scrdir="/scratch/"
 Entering Link 1 = /share/apps//g09/l1.exe PID=      8163.
  
 Copyright (c) 1988,1990,1992,1993,1995,1998,2003,2009,2013,
            Gaussian, Inc.  All Rights Reserved.
  
 This is part of the Gaussian(R) 09 program.  It is based on
 the Gaussian(R) 03 system (copyright 2003, Gaussian, Inc.),
 the Gaussian(R) 98 system (copyright 1998, Gaussian, Inc.),
 the Gaussian(R) 94 system (copyright 1995, Gaussian, Inc.),
 the Gaussian 92(TM) system (copyright 1992, Gaussian, Inc.),
 the Gaussian 90(TM) system (copyright 1990, Gaussian, Inc.),
 the Gaussian 88(TM) system (copyright 1988, Gaussian, Inc.),
 the Gaussian 86(TM) system (copyright 1986, Carnegie Mellon
 University), and the Gaussian 82(TM) system (copyright 1983,
 Carnegie Mellon University). Gaussian is a federally registered
 trademark of Gaussian, Inc.
  
 This software contains proprietary and confidential information,
 including trade secrets, belonging to Gaussian, Inc.
  
 This software is provided under written license and may be
 used, copied, transmitted, or stored only in accord with that
 written license.
  
 The following legend is applicable only to US Government
 contracts under FAR:
  
                    RESTRICTED RIGHTS LEGEND
  
 Use, reproduction and disclosure by the US Government is
 subject to restrictions as set forth in subparagraphs (a)
 and (c) of the Commercial Computer Software - Restricted
 Rights clause in FAR 52.227-19.
  
 Gaussian, Inc.
 340 Quinnipiac St., Bldg. 40, Wallingford CT 06492
  
  
 ---------------------------------------------------------------
 Warning -- This program may not be used in any manner that
 competes with the business of Gaussian, Inc. or will provide
 assistance to any competitor of Gaussian, Inc.  The licensee
 of this program is prohibited from giving any competitor of
 Gaussian, Inc. access to this program.  By using this program,
 the user acknowledges that Gaussian, Inc. is engaged in the
 business of creating and licensing software in the field of
 computational chemistry and represents and warrants to the
 licensee that it is not a competitor of Gaussian, Inc. and that
 it will not use this program in any manner prohibited above.
 ---------------------------------------------------------------
  

 Cite this work as:
 Gaussian 09, Revision D.01,
 M. J. Frisch, G. W. Trucks, H. B. Schlegel, G. E. Scuseria, 
 M. A. Robb, J. R. Cheeseman, G. Scalmani, V. Barone, B. Mennucci, 
 G. A. Petersson, H. Nakatsuji, M. Caricato, X. Li, H. P. Hratchian, 
 A. F. Izmaylov, J. Bloino, G. Zheng, J. L. Sonnenberg, M. Hada, 
 M. Ehara, K. Toyota, R. Fukuda, J. Hasegawa, M. Ishida, T. Nakajima, 
 Y. Honda, O. Kitao, H. Nakai, T. Vreven, J. A. Montgomery, Jr., 
 J. E. Peralta, F. Ogliaro, M. Bearpark, J. J. Heyd, E. Brothers, 
 K. N. Kudin, V. N. Staroverov, T. Keith, R. Kobayashi, J. Normand, 
 K. Raghavachari, A. Rendell, J. C. Burant, S. S. Iyengar, J. Tomasi, 
 M. Cossi, N. Rega, J. M. Millam, M. Klene, J. E. Knox, J. B. Cross, 
 V. Bakken, C. Adamo, J. Jaramillo, R. Gomperts, R. E. Stratmann, 
 O. Yazyev, A. J. Austin, R. Cammi, C. Pomelli, J. W. Ochterski, 
 R. L. Martin, K. Morokuma, V. G. Zakrzewski, G. A. Voth, 
 P. Salvador, J. J. Dannenberg, S. Dapprich, A. D. Daniels, 
 O. Farkas, J. B. Foresman, J. V. Ortiz, J. Cioslowski, 
 and D. J. Fox, Gaussian, Inc., Wallingford CT, 2013.
 
 ******************************************
 Gaussian 09:  EM64L-G09RevD.01 24-Apr-2013
                 7-Jun-2016 
 ******************************************
 %nproc=20
 Will use up to   20 processors via shared memory.
 %mem=80GB
 %chk=Tri_A154_of.chk
 ----------------------------------------------------------------------
 #P PBE1PBE/6-311+G(d,p) opt=ModRedundant optcyc=999 freq EmpiricalDisp
 ersion=GD3
 ----------------------------------------------------------------------
 1/6=999,14=-1,18=120,19=15,26=3,38=1/1,3;
 2/9=110,12=2,17=6,18=5,40=1/2;
 3/5=4,6=6,7=111,11=2,16=1,25=1,30=1,71=1,74=-13,124=31/1,2,3;
 4//1;
 5/5=2,38=5/2;
 6/7=2,8=2,9=2,10=2,28=1/1;
 7//1,2,3,16;
 1/6=999,14=-1,18=20,19=15,26=3/3(2);
 2/9=110/2;
 99//99;
 2/9=110/2;
 3/5=4,6=6,7=111,11=2,16=1,25=1,30=1,71=1,74=-13,124=31/1,2,3;
 4/5=5,16=3,69=1/1;
 5/5=2,38=5/2;
 7//1,2,3,16;
 1/6=999,14=-1,18=20,19=15,26=3/3(-5);
 2/9=110/2;
 6/7=2,8=2,9=2,10=2,19=2,28=1/1;
 99/9=1/99;
 Leave Link    1 at Tue Jun  7 12:11:13 2016, MaxMem= 10737418240 cpu:         2.8
 (Enter /share/apps//g09/l101.exe)
 -------
 disacch
 -------
 Symbolic Z-matrix:
 Charge =  1 Multiplicity = 1
 O                     4.14048   1.04589  -1.56603 
 C                     2.80656   1.3156   -1.92017 
 C                     2.63646   2.26586  -3.12966 
 C                     3.56076   3.491    -3.06679 
 C                     4.99467   3.01074  -2.82279 
 C                     5.14042   2.0889   -1.5885 
 C                     5.33784   2.78239  -0.24074 
 O                     4.24594   3.60942   0.21301 
 O                     5.93033   4.07787  -2.66143 
 O                     3.16751   4.4231   -2.04302 
 O                     2.95684   1.59908  -4.34889 
 O                     2.0645    1.82314  -0.78959 
 C                     0.93191   1.03475  -0.38703 
 C                    -0.31761   1.29886  -1.23315 
 O                    -0.11422   0.88128  -2.58338 
 C                    -0.62171   2.78813  -1.14836 
 C                    -0.86089   3.22648   0.30714 
 O                     0.13308   2.74489   1.20916 
 C                     0.58414   1.38909   1.0647 
 C                     1.74921   1.22292   2.05175 
 O                     2.65866   2.32055   2.07332 
 O                    -0.89289   4.63993   0.43813 
 C                     0.36942   5.33191   0.36251 
 C                     0.37289   6.28554  -0.83545 
 C                     1.50732   7.30819  -0.77634 
 C                     1.55553   8.01817   0.57626 
 O                     1.62326   7.0365    1.61471 
 C                     0.49989   6.14304   1.67467 
 C                     0.70953   5.30077   2.93592 
 O                     2.01318   4.71992   3.01334 
 O                     2.75158   8.73979   0.61387 
 C                     2.88767   9.61355   1.76945 
 C                     4.36386   9.93806   1.96513 
 C                     5.2824    8.70823   2.03531 
 C                     5.0193    7.73958   3.20966 
 C                     5.29209   6.28083   2.84308 
 N                     4.23237   5.78451   1.90654 
 O                     1.28492   8.19698  -1.86877 
 O                     0.49446   5.53341  -2.06794 
 O                    -1.76986   3.04917  -1.95209 
 H                     2.39431   0.33103  -2.1916 
 H                     1.58764   2.60173  -3.13535 
 H                     3.51983   3.99488  -4.04847 
 H                     5.24331   2.39059  -3.69994 
 H                     6.08143   1.53354  -1.73632 
 H                     6.25785   3.38361  -0.31632 
 H                     5.48394   2.0052    0.52305 
 H                     3.7843    3.97886  -0.59806 
 H                     6.16307   4.4177   -3.54166 
 H                     2.21876   4.67021  -2.15748 
 H                     2.27475   0.92287  -4.50734 
 H                     1.18913  -0.03957  -0.43229 
 H                    -1.15359   0.71988  -0.79168 
 H                    -0.88213   1.22146  -3.08164 
 H                     0.24911   3.33148  -1.53705 
 H                    -1.87218   2.90764   0.62055 
 H                    -0.21544   0.68919   1.38058 
 H                     1.34797   1.15082   3.07197 
 H                     2.27487   0.27931   1.82709 
 H                     3.03191   2.48607   1.1735 
 H                     1.20222   4.61382   0.28752 
 H                    -0.59139   6.82583  -0.84895 
 H                     2.4743    6.78037  -0.89394 
 H                     0.67144   8.67354   0.72689 
 H                    -0.43999   6.71503   1.80753 
 H                     0.60578   5.96716   3.80474 
 H                    -0.06751   4.52753   2.994 
 H                     2.04268   3.78803   2.64306 
 H                     2.46829   9.10169   2.64887 
 H                     2.30645   10.53371   1.59269 
 H                     4.44988   10.54102   2.88384 
 H                     4.7041    10.583    1.14037 
 H                     6.32729   9.04904   2.08001 
 H                     5.19598   8.1776    1.07228 
 H                     3.97924   7.81502   3.56595 
 H                     5.64909   8.00728   4.06988 
 H                     6.26822   6.17009   2.34975 
 H                     5.2769    5.62588   3.72363 
 H                     3.93585   6.53965   1.27261 
 H                     3.34175   5.48287   2.41842 
 H                     4.49772   4.9572    1.31025 
 H                     2.04744   8.79999  -1.92857 
 H                     0.50163   6.20528  -2.77829 
 H                    -1.77247   4.00224  -2.15284 
 
 The following ModRedundant input section has been read:
 B      10      80 B                                                           
 B      30      81 B                                                           
 
 NAtoms=     84 NQM=       84 NQMF=       0 NMMI=      0 NMMIF=      0
                NMic=       0 NMicF=      0.
                    Isotopes and Nuclear Properties:
 (Nuclear quadrupole moments (NQMom) in fm**2, nuclear magnetic moments (NMagM)
  in nuclear magnetons)

  Atom         1           2           3           4           5           6           7           8           9          10
 IAtWgt=          16          12          12          12          12          12          12          16          16          16
 AtmWgt=  15.9949146  12.0000000  12.0000000  12.0000000  12.0000000  12.0000000  12.0000000  15.9949146  15.9949146  15.9949146
 NucSpn=           0           0           0           0           0           0           0           0           0           0
 AtZEff=   0.0000000   0.0000000   0.0000000   0.0000000   0.0000000   0.0000000   0.0000000   0.0000000   0.0000000   0.0000000
 NQMom=    0.0000000   0.0000000   0.0000000   0.0000000   0.0000000   0.0000000   0.0000000   0.0000000   0.0000000   0.0000000
 NMagM=    0.0000000   0.0000000   0.0000000   0.0000000   0.0000000   0.0000000   0.0000000   0.0000000   0.0000000   0.0000000
 AtZNuc=   8.0000000   6.0000000   6.0000000   6.0000000   6.0000000   6.0000000   6.0000000   8.0000000   8.0000000   8.0000000

  Atom        11          12          13          14          15          16          17          18          19          20
 IAtWgt=          16          16          12          12          16          12          12          16          12          12
 AtmWgt=  15.9949146  15.9949146  12.0000000  12.0000000  15.9949146  12.0000000  12.0000000  15.9949146  12.0000000  12.0000000
 NucSpn=           0           0           0           0           0           0           0           0           0           0
 AtZEff=   0.0000000   0.0000000   0.0000000   0.0000000   0.0000000   0.0000000   0.0000000   0.0000000   0.0000000   0.0000000
 NQMom=    0.0000000   0.0000000   0.0000000   0.0000000   0.0000000   0.0000000   0.0000000   0.0000000   0.0000000   0.0000000
 NMagM=    0.0000000   0.0000000   0.0000000   0.0000000   0.0000000   0.0000000   0.0000000   0.0000000   0.0000000   0.0000000
 AtZNuc=   8.0000000   8.0000000   6.0000000   6.0000000   8.0000000   6.0000000   6.0000000   8.0000000   6.0000000   6.0000000

  Atom        21          22          23          24          25          26          27          28          29          30
 IAtWgt=          16          16          12          12          12          12          16          12          12          16
 AtmWgt=  15.9949146  15.9949146  12.0000000  12.0000000  12.0000000  12.0000000  15.9949146  12.0000000  12.0000000  15.9949146
 NucSpn=           0           0           0           0           0           0           0           0           0           0
 AtZEff=   0.0000000   0.0000000   0.0000000   0.0000000   0.0000000   0.0000000   0.0000000   0.0000000   0.0000000   0.0000000
 NQMom=    0.0000000   0.0000000   0.0000000   0.0000000   0.0000000   0.0000000   0.0000000   0.0000000   0.0000000   0.0000000
 NMagM=    0.0000000   0.0000000   0.0000000   0.0000000   0.0000000   0.0000000   0.0000000   0.0000000   0.0000000   0.0000000
 AtZNuc=   8.0000000   8.0000000   6.0000000   6.0000000   6.0000000   6.0000000   8.0000000   6.0000000   6.0000000   8.0000000

  Atom        31          32          33          34          35          36          37          38          39          40
 IAtWgt=          16          12          12          12          12          12          14          16          16          16
 AtmWgt=  15.9949146  12.0000000  12.0000000  12.0000000  12.0000000  12.0000000  14.0030740  15.9949146  15.9949146  15.9949146
 NucSpn=           0           0           0           0           0           0           2           0           0           0
 AtZEff=   0.0000000   0.0000000   0.0000000   0.0000000   0.0000000   0.0000000   0.0000000   0.0000000   0.0000000   0.0000000
 NQMom=    0.0000000   0.0000000   0.0000000   0.0000000   0.0000000   0.0000000   2.0440000   0.0000000   0.0000000   0.0000000
 NMagM=    0.0000000   0.0000000   0.0000000   0.0000000   0.0000000   0.0000000   0.4037610   0.0000000   0.0000000   0.0000000
 AtZNuc=   8.0000000   6.0000000   6.0000000   6.0000000   6.0000000   6.0000000   7.0000000   8.0000000   8.0000000   8.0000000

  Atom        41          42          43          44          45          46          47          48          49          50
 IAtWgt=           1           1           1           1           1           1           1           1           1           1
 AtmWgt=   1.0078250   1.0078250   1.0078250   1.0078250   1.0078250   1.0078250   1.0078250   1.0078250   1.0078250   1.0078250
 NucSpn=           1           1           1           1           1           1           1           1           1           1
 AtZEff=   0.0000000   0.0000000   0.0000000   0.0000000   0.0000000   0.0000000   0.0000000   0.0000000   0.0000000   0.0000000
 NQMom=    0.0000000   0.0000000   0.0000000   0.0000000   0.0000000   0.0000000   0.0000000   0.0000000   0.0000000   0.0000000
 NMagM=    2.7928460   2.7928460   2.7928460   2.7928460   2.7928460   2.7928460   2.7928460   2.7928460   2.7928460   2.7928460
 AtZNuc=   1.0000000   1.0000000   1.0000000   1.0000000   1.0000000   1.0000000   1.0000000   1.0000000   1.0000000   1.0000000

  Atom        51          52          53          54          55          56          57          58          59          60
 IAtWgt=           1           1           1           1           1           1           1           1           1           1
 AtmWgt=   1.0078250   1.0078250   1.0078250   1.0078250   1.0078250   1.0078250   1.0078250   1.0078250   1.0078250   1.0078250
 NucSpn=           1           1           1           1           1           1           1           1           1           1
 AtZEff=   0.0000000   0.0000000   0.0000000   0.0000000   0.0000000   0.0000000   0.0000000   0.0000000   0.0000000   0.0000000
 NQMom=    0.0000000   0.0000000   0.0000000   0.0000000   0.0000000   0.0000000   0.0000000   0.0000000   0.0000000   0.0000000
 NMagM=    2.7928460   2.7928460   2.7928460   2.7928460   2.7928460   2.7928460   2.7928460   2.7928460   2.7928460   2.7928460
 AtZNuc=   1.0000000   1.0000000   1.0000000   1.0000000   1.0000000   1.0000000   1.0000000   1.0000000   1.0000000   1.0000000

  Atom        61          62          63          64          65          66          67          68          69          70
 IAtWgt=           1           1           1           1           1           1           1           1           1           1
 AtmWgt=   1.0078250   1.0078250   1.0078250   1.0078250   1.0078250   1.0078250   1.0078250   1.0078250   1.0078250   1.0078250
 NucSpn=           1           1           1           1           1           1           1           1           1           1
 AtZEff=   0.0000000   0.0000000   0.0000000   0.0000000   0.0000000   0.0000000   0.0000000   0.0000000   0.0000000   0.0000000
 NQMom=    0.0000000   0.0000000   0.0000000   0.0000000   0.0000000   0.0000000   0.0000000   0.0000000   0.0000000   0.0000000
 NMagM=    2.7928460   2.7928460   2.7928460   2.7928460   2.7928460   2.7928460   2.7928460   2.7928460   2.7928460   2.7928460
 AtZNuc=   1.0000000   1.0000000   1.0000000   1.0000000   1.0000000   1.0000000   1.0000000   1.0000000   1.0000000   1.0000000

  Atom        71          72          73          74          75          76          77          78          79          80
 IAtWgt=           1           1           1           1           1           1           1           1           1           1
 AtmWgt=   1.0078250   1.0078250   1.0078250   1.0078250   1.0078250   1.0078250   1.0078250   1.0078250   1.0078250   1.0078250
 NucSpn=           1           1           1           1           1           1           1           1           1           1
 AtZEff=   0.0000000   0.0000000   0.0000000   0.0000000   0.0000000   0.0000000   0.0000000   0.0000000   0.0000000   0.0000000
 NQMom=    0.0000000   0.0000000   0.0000000   0.0000000   0.0000000   0.0000000   0.0000000   0.0000000   0.0000000   0.0000000
 NMagM=    2.7928460   2.7928460   2.7928460   2.7928460   2.7928460   2.7928460   2.7928460   2.7928460   2.7928460   2.7928460
 AtZNuc=   1.0000000   1.0000000   1.0000000   1.0000000   1.0000000   1.0000000   1.0000000   1.0000000   1.0000000   1.0000000

  Atom        81          82          83          84
 IAtWgt=           1           1           1           1
 AtmWgt=   1.0078250   1.0078250   1.0078250   1.0078250
 NucSpn=           1           1           1           1
 AtZEff=   0.0000000   0.0000000   0.0000000   0.0000000
 NQMom=    0.0000000   0.0000000   0.0000000   0.0000000
 NMagM=    2.7928460   2.7928460   2.7928460   2.7928460
 AtZNuc=   1.0000000   1.0000000   1.0000000   1.0000000
 Leave Link  101 at Tue Jun  7 12:11:14 2016, MaxMem= 10737418240 cpu:         5.1
 (Enter /share/apps//g09/l103.exe)

 GradGradGradGradGradGradGradGradGradGradGradGradGradGradGradGradGradGrad
 Berny optimization.
 Initialization pass.
                           ----------------------------
                           !    Initial Parameters    !
                           ! (Angstroms and Degrees)  !
 --------------------------                            --------------------------
 ! Name  Definition              Value          Derivative Info.                !
 --------------------------------------------------------------------------------
 ! R1    R(1,2)                  1.4062         estimate D2E/DX2                !
 ! R2    R(1,6)                  1.4451         estimate D2E/DX2                !
 ! R3    R(2,3)                  1.5475         estimate D2E/DX2                !
 ! R4    R(2,12)                 1.4445         estimate D2E/DX2                !
 ! R5    R(2,41)                 1.1014         estimate D2E/DX2                !
 ! R6    R(3,4)                  1.536          estimate D2E/DX2                !
 ! R7    R(3,11)                 1.4261         estimate D2E/DX2                !
 ! R8    R(3,42)                 1.1013         estimate D2E/DX2                !
 ! R9    R(4,5)                  1.5318         estimate D2E/DX2                !
 ! R10   R(4,10)                 1.4393         estimate D2E/DX2                !
 ! R11   R(4,43)                 1.1042         estimate D2E/DX2                !
 ! R12   R(5,6)                  1.5474         estimate D2E/DX2                !
 ! R13   R(5,9)                  1.4284         estimate D2E/DX2                !
 ! R14   R(5,44)                 1.1026         estimate D2E/DX2                !
 ! R15   R(6,7)                  1.5285         estimate D2E/DX2                !
 ! R16   R(6,45)                 1.1026         estimate D2E/DX2                !
 ! R17   R(7,8)                  1.443          estimate D2E/DX2                !
 ! R18   R(7,46)                 1.1016         estimate D2E/DX2                !
 ! R19   R(7,47)                 1.0994         estimate D2E/DX2                !
 ! R20   R(8,48)                 1.0037         estimate D2E/DX2                !
 ! R21   R(9,49)                 0.9718         estimate D2E/DX2                !
 ! R22   R(10,50)                0.9871         estimate D2E/DX2                !
 ! R23   R(10,80)                4.5889         estimate D2E/DX2                !
 ! R24   R(11,51)                0.9735         estimate D2E/DX2                !
 ! R25   R(12,13)                1.4375         estimate D2E/DX2                !
 ! R26   R(13,14)                1.532          estimate D2E/DX2                !
 ! R27   R(13,19)                1.5343         estimate D2E/DX2                !
 ! R28   R(13,52)                1.1056         estimate D2E/DX2                !
 ! R29   R(14,15)                1.4279         estimate D2E/DX2                !
 ! R30   R(14,16)                1.5224         estimate D2E/DX2                !
 ! R31   R(14,53)                1.1086         estimate D2E/DX2                !
 ! R32   R(15,54)                0.9766         estimate D2E/DX2                !
 ! R33   R(16,17)                1.5388         estimate D2E/DX2                !
 ! R34   R(16,40)                1.4256         estimate D2E/DX2                !
 ! R35   R(16,55)                1.0976         estimate D2E/DX2                !
 ! R36   R(17,18)                1.426          estimate D2E/DX2                !
 ! R37   R(17,22)                1.4199         estimate D2E/DX2                !
 ! R38   R(17,56)                1.1057         estimate D2E/DX2                !
 ! R39   R(18,19)                1.4361         estimate D2E/DX2                !
 ! R40   R(19,20)                1.536          estimate D2E/DX2                !
 ! R41   R(19,57)                1.1086         estimate D2E/DX2                !
 ! R42   R(20,21)                1.4256         estimate D2E/DX2                !
 ! R43   R(20,58)                1.0987         estimate D2E/DX2                !
 ! R44   R(20,59)                1.1033         estimate D2E/DX2                !
 ! R45   R(21,60)                0.9881         estimate D2E/DX2                !
 ! R46   R(22,23)                1.4415         estimate D2E/DX2                !
 ! R47   R(23,24)                1.5312         estimate D2E/DX2                !
 ! R48   R(23,28)                1.5481         estimate D2E/DX2                !
 ! R49   R(23,61)                1.1022         estimate D2E/DX2                !
 ! R50   R(24,25)                1.5285         estimate D2E/DX2                !
 ! R51   R(24,39)                1.449          estimate D2E/DX2                !
 ! R52   R(24,62)                1.1054         estimate D2E/DX2                !
 ! R53   R(25,26)                1.5284         estimate D2E/DX2                !
 ! R54   R(25,38)                1.4258         estimate D2E/DX2                !
 ! R55   R(25,63)                1.1079         estimate D2E/DX2                !
 ! R56   R(26,27)                1.4306         estimate D2E/DX2                !
 ! R57   R(26,31)                1.3974         estimate D2E/DX2                !
 ! R58   R(26,64)                1.1108         estimate D2E/DX2                !
 ! R59   R(27,28)                1.4366         estimate D2E/DX2                !
 ! R60   R(28,29)                1.5311         estimate D2E/DX2                !
 ! R61   R(28,65)                1.1082         estimate D2E/DX2                !
 ! R62   R(29,30)                1.4293         estimate D2E/DX2                !
 ! R63   R(29,66)                1.0999         estimate D2E/DX2                !
 ! R64   R(29,67)                1.0978         estimate D2E/DX2                !
 ! R65   R(30,68)                1.0032         estimate D2E/DX2                !
 ! R66   R(30,81)                3.0215         estimate D2E/DX2                !
 ! R67   R(31,32)                1.4551         estimate D2E/DX2                !
 ! R68   R(32,33)                1.5241         estimate D2E/DX2                !
 ! R69   R(32,69)                1.1006         estimate D2E/DX2                !
 ! R70   R(32,70)                1.1026         estimate D2E/DX2                !
 ! R71   R(33,34)                1.5366         estimate D2E/DX2                !
 ! R72   R(33,71)                1.1023         estimate D2E/DX2                !
 ! R73   R(33,72)                1.1009         estimate D2E/DX2                !
 ! R74   R(34,35)                1.5449         estimate D2E/DX2                !
 ! R75   R(34,73)                1.1            estimate D2E/DX2                !
 ! R76   R(34,74)                1.1029         estimate D2E/DX2                !
 ! R77   R(35,36)                1.5286         estimate D2E/DX2                !
 ! R78   R(35,75)                1.102          estimate D2E/DX2                !
 ! R79   R(35,76)                1.0992         estimate D2E/DX2                !
 ! R80   R(36,37)                1.4988         estimate D2E/DX2                !
 ! R81   R(36,77)                1.0993         estimate D2E/DX2                !
 ! R82   R(36,78)                1.0975         estimate D2E/DX2                !
 ! R83   R(37,79)                1.0296         estimate D2E/DX2                !
 ! R84   R(37,80)                1.0706         estimate D2E/DX2                !
 ! R85   R(37,81)                1.0538         estimate D2E/DX2                !
 ! R86   R(38,82)                0.974          estimate D2E/DX2                !
 ! R87   R(39,83)                0.9778         estimate D2E/DX2                !
 ! R88   R(40,84)                0.974          estimate D2E/DX2                !
 ! A1    A(2,1,6)              120.9326         estimate D2E/DX2                !
 ! A2    A(1,2,3)              114.763          estimate D2E/DX2                !
 ! A3    A(1,2,12)             110.9522         estimate D2E/DX2                !
 ! A4    A(1,2,41)             104.2213         estimate D2E/DX2                !
 ! A5    A(3,2,12)             109.8468         estimate D2E/DX2                !
 ! A6    A(3,2,41)             108.3716         estimate D2E/DX2                !
 ! A7    A(12,2,41)            108.3434         estimate D2E/DX2                !
 ! A8    A(2,3,4)              113.0573         estimate D2E/DX2                !
 ! A9    A(2,3,11)             110.8791         estimate D2E/DX2                !
 ! A10   A(2,3,42)             107.217          estimate D2E/DX2                !
 ! A11   A(4,3,11)             105.8273         estimate D2E/DX2                !
 ! A12   A(4,3,42)             109.2714         estimate D2E/DX2                !
 ! A13   A(11,3,42)            110.6173         estimate D2E/DX2                !
 ! A14   A(3,4,5)              108.6484         estimate D2E/DX2                !
 ! A15   A(3,4,10)             112.411          estimate D2E/DX2                !
 ! A16   A(3,4,43)             107.7752         estimate D2E/DX2                !
 ! A17   A(5,4,10)             110.2132         estimate D2E/DX2                !
 ! A18   A(5,4,43)             108.6262         estimate D2E/DX2                !
 ! A19   A(10,4,43)            109.07           estimate D2E/DX2                !
 ! A20   A(4,5,6)              113.7041         estimate D2E/DX2                !
 ! A21   A(4,5,9)              113.3884         estimate D2E/DX2                !
 ! A22   A(4,5,44)             105.1124         estimate D2E/DX2                !
 ! A23   A(6,5,9)              107.0531         estimate D2E/DX2                !
 ! A24   A(6,5,44)             106.1551         estimate D2E/DX2                !
 ! A25   A(9,5,44)             111.2439         estimate D2E/DX2                !
 ! A26   A(1,6,5)              112.1606         estimate D2E/DX2                !
 ! A27   A(1,6,7)              113.7739         estimate D2E/DX2                !
 ! A28   A(1,6,45)             103.2436         estimate D2E/DX2                !
 ! A29   A(5,6,7)              116.4362         estimate D2E/DX2                !
 ! A30   A(5,6,45)             105.8727         estimate D2E/DX2                !
 ! A31   A(7,6,45)             103.68           estimate D2E/DX2                !
 ! A32   A(6,7,8)              116.0769         estimate D2E/DX2                !
 ! A33   A(6,7,46)             107.1563         estimate D2E/DX2                !
 ! A34   A(6,7,47)             107.9991         estimate D2E/DX2                !
 ! A35   A(8,7,46)             109.9214         estimate D2E/DX2                !
 ! A36   A(8,7,47)             106.694          estimate D2E/DX2                !
 ! A37   A(46,7,47)            108.8129         estimate D2E/DX2                !
 ! A38   A(7,8,48)             107.7518         estimate D2E/DX2                !
 ! A39   A(5,9,49)             108.4091         estimate D2E/DX2                !
 ! A40   A(4,10,50)            110.015          estimate D2E/DX2                !
 ! A41   A(4,10,80)            146.174          estimate D2E/DX2                !
 ! A42   A(50,10,80)            95.2453         estimate D2E/DX2                !
 ! A43   A(3,11,51)            107.8504         estimate D2E/DX2                !
 ! A44   A(2,12,13)            115.5467         estimate D2E/DX2                !
 ! A45   A(12,13,14)           113.1665         estimate D2E/DX2                !
 ! A46   A(12,13,19)           108.4757         estimate D2E/DX2                !
 ! A47   A(12,13,52)           109.7648         estimate D2E/DX2                !
 ! A48   A(14,13,19)           107.3314         estimate D2E/DX2                !
 ! A49   A(14,13,52)           109.5521         estimate D2E/DX2                !
 ! A50   A(19,13,52)           108.414          estimate D2E/DX2                !
 ! A51   A(13,14,15)           110.8346         estimate D2E/DX2                !
 ! A52   A(13,14,16)           107.5065         estimate D2E/DX2                !
 ! A53   A(13,14,53)           107.7627         estimate D2E/DX2                !
 ! A54   A(15,14,16)           111.5436         estimate D2E/DX2                !
 ! A55   A(15,14,53)           109.3445         estimate D2E/DX2                !
 ! A56   A(16,14,53)           109.7611         estimate D2E/DX2                !
 ! A57   A(14,15,54)           105.5804         estimate D2E/DX2                !
 ! A58   A(14,16,17)           111.2481         estimate D2E/DX2                !
 ! A59   A(14,16,40)           107.9751         estimate D2E/DX2                !
 ! A60   A(14,16,55)           107.823          estimate D2E/DX2                !
 ! A61   A(17,16,40)           110.85           estimate D2E/DX2                !
 ! A62   A(17,16,55)           108.4981         estimate D2E/DX2                !
 ! A63   A(40,16,55)           110.4072         estimate D2E/DX2                !
 ! A64   A(16,17,18)           113.1888         estimate D2E/DX2                !
 ! A65   A(16,17,22)           111.9839         estimate D2E/DX2                !
 ! A66   A(16,17,56)           109.155          estimate D2E/DX2                !
 ! A67   A(18,17,22)           107.0702         estimate D2E/DX2                !
 ! A68   A(18,17,56)           111.151          estimate D2E/DX2                !
 ! A69   A(22,17,56)           103.9038         estimate D2E/DX2                !
 ! A70   A(17,18,19)           118.3016         estimate D2E/DX2                !
 ! A71   A(13,19,18)           112.6062         estimate D2E/DX2                !
 ! A72   A(13,19,20)           114.2755         estimate D2E/DX2                !
 ! A73   A(13,19,57)           106.6955         estimate D2E/DX2                !
 ! A74   A(18,19,20)           106.0051         estimate D2E/DX2                !
 ! A75   A(18,19,57)           109.9274         estimate D2E/DX2                !
 ! A76   A(20,19,57)           107.1982         estimate D2E/DX2                !
 ! A77   A(19,20,21)           114.2245         estimate D2E/DX2                !
 ! A78   A(19,20,58)           109.0759         estimate D2E/DX2                !
 ! A79   A(19,20,59)           108.8488         estimate D2E/DX2                !
 ! A80   A(21,20,58)           105.6321         estimate D2E/DX2                !
 ! A81   A(21,20,59)           110.9559         estimate D2E/DX2                !
 ! A82   A(58,20,59)           107.8769         estimate D2E/DX2                !
 ! A83   A(20,21,60)           110.8649         estimate D2E/DX2                !
 ! A84   A(17,22,23)           116.955          estimate D2E/DX2                !
 ! A85   A(22,23,24)           109.9984         estimate D2E/DX2                !
 ! A86   A(22,23,28)           106.3107         estimate D2E/DX2                !
 ! A87   A(22,23,61)           110.6385         estimate D2E/DX2                !
 ! A88   A(24,23,28)           109.6709         estimate D2E/DX2                !
 ! A89   A(24,23,61)           110.5375         estimate D2E/DX2                !
 ! A90   A(28,23,61)           109.5933         estimate D2E/DX2                !
 ! A91   A(23,24,25)           112.8377         estimate D2E/DX2                !
 ! A92   A(23,24,39)           110.0226         estimate D2E/DX2                !
 ! A93   A(23,24,62)           108.1789         estimate D2E/DX2                !
 ! A94   A(25,24,39)           108.5373         estimate D2E/DX2                !
 ! A95   A(25,24,62)           108.7169         estimate D2E/DX2                !
 ! A96   A(39,24,62)           108.4521         estimate D2E/DX2                !
 ! A97   A(24,25,26)           111.6194         estimate D2E/DX2                !
 ! A98   A(24,25,38)           105.764          estimate D2E/DX2                !
 ! A99   A(24,25,63)           108.9614         estimate D2E/DX2                !
 ! A100  A(26,25,38)           113.1679         estimate D2E/DX2                !
 ! A101  A(26,25,63)           106.7212         estimate D2E/DX2                !
 ! A102  A(38,25,63)           110.5972         estimate D2E/DX2                !
 ! A103  A(25,26,27)           108.9737         estimate D2E/DX2                !
 ! A104  A(25,26,31)           106.9002         estimate D2E/DX2                !
 ! A105  A(25,26,64)           111.6532         estimate D2E/DX2                !
 ! A106  A(27,26,31)           107.1153         estimate D2E/DX2                !
 ! A107  A(27,26,64)           110.1273         estimate D2E/DX2                !
 ! A108  A(31,26,64)           111.8952         estimate D2E/DX2                !
 ! A109  A(26,27,28)           114.8368         estimate D2E/DX2                !
 ! A110  A(23,28,27)           110.8779         estimate D2E/DX2                !
 ! A111  A(23,28,29)           114.9307         estimate D2E/DX2                !
 ! A112  A(23,28,65)           107.491          estimate D2E/DX2                !
 ! A113  A(27,28,29)           105.6315         estimate D2E/DX2                !
 ! A114  A(27,28,65)           110.315          estimate D2E/DX2                !
 ! A115  A(29,28,65)           107.5357         estimate D2E/DX2                !
 ! A116  A(28,29,30)           113.146          estimate D2E/DX2                !
 ! A117  A(28,29,66)           107.7284         estimate D2E/DX2                !
 ! A118  A(28,29,67)           109.5216         estimate D2E/DX2                !
 ! A119  A(30,29,66)           106.8266         estimate D2E/DX2                !
 ! A120  A(30,29,67)           110.8855         estimate D2E/DX2                !
 ! A121  A(66,29,67)           108.5548         estimate D2E/DX2                !
 ! A122  A(29,30,68)           112.6023         estimate D2E/DX2                !
 ! A123  A(29,30,81)           133.4362         estimate D2E/DX2                !
 ! A124  A(68,30,81)            80.8352         estimate D2E/DX2                !
 ! A125  A(26,31,32)           114.3001         estimate D2E/DX2                !
 ! A126  A(31,32,33)           108.6878         estimate D2E/DX2                !
 ! A127  A(31,32,69)           108.6425         estimate D2E/DX2                !
 ! A128  A(31,32,70)           108.9355         estimate D2E/DX2                !
 ! A129  A(33,32,69)           111.4398         estimate D2E/DX2                !
 ! A130  A(33,32,70)           110.6995         estimate D2E/DX2                !
 ! A131  A(69,32,70)           108.3824         estimate D2E/DX2                !
 ! A132  A(32,33,34)           114.4847         estimate D2E/DX2                !
 ! A133  A(32,33,71)           107.4022         estimate D2E/DX2                !
 ! A134  A(32,33,72)           109.1417         estimate D2E/DX2                !
 ! A135  A(34,33,71)           110.6768         estimate D2E/DX2                !
 ! A136  A(34,33,72)           108.5632         estimate D2E/DX2                !
 ! A137  A(71,33,72)           106.2506         estimate D2E/DX2                !
 ! A138  A(33,34,35)           115.7694         estimate D2E/DX2                !
 ! A139  A(33,34,73)           108.7668         estimate D2E/DX2                !
 ! A140  A(33,34,74)           107.3581         estimate D2E/DX2                !
 ! A141  A(35,34,73)           108.9751         estimate D2E/DX2                !
 ! A142  A(35,34,74)           110.4099         estimate D2E/DX2                !
 ! A143  A(73,34,74)           105.0094         estimate D2E/DX2                !
 ! A144  A(34,35,36)           112.6848         estimate D2E/DX2                !
 ! A145  A(34,35,75)           111.3207         estimate D2E/DX2                !
 ! A146  A(34,35,76)           110.1579         estimate D2E/DX2                !
 ! A147  A(36,35,75)           108.1369         estimate D2E/DX2                !
 ! A148  A(36,35,76)           108.5315         estimate D2E/DX2                !
 ! A149  A(75,35,76)           105.7272         estimate D2E/DX2                !
 ! A150  A(35,36,37)           109.857          estimate D2E/DX2                !
 ! A151  A(35,36,77)           111.2357         estimate D2E/DX2                !
 ! A152  A(35,36,78)           111.9995         estimate D2E/DX2                !
 ! A153  A(37,36,77)           108.3032         estimate D2E/DX2                !
 ! A154  A(37,36,78)           107.0933         estimate D2E/DX2                !
 ! A155  A(77,36,78)           108.1932         estimate D2E/DX2                !
 ! A156  A(36,37,79)           110.2116         estimate D2E/DX2                !
 ! A157  A(36,37,80)           112.5019         estimate D2E/DX2                !
 ! A158  A(36,37,81)           115.8186         estimate D2E/DX2                !
 ! A159  A(79,37,80)           105.1561         estimate D2E/DX2                !
 ! A160  A(79,37,81)           107.4538         estimate D2E/DX2                !
 ! A161  A(80,37,81)           105.0007         estimate D2E/DX2                !
 ! A162  A(25,38,82)           108.1116         estimate D2E/DX2                !
 ! A163  A(24,39,83)           105.1822         estimate D2E/DX2                !
 ! A164  A(16,40,84)           107.3096         estimate D2E/DX2                !
 ! A165  A(10,80,37)            68.3962         estimate D2E/DX2                !
 ! A166  A(30,81,37)            62.3315         estimate D2E/DX2                !
 ! D1    D(6,1,2,3)             40.2354         estimate D2E/DX2                !
 ! D2    D(6,1,2,12)           -85.0035         estimate D2E/DX2                !
 ! D3    D(6,1,2,41)           158.593          estimate D2E/DX2                !
 ! D4    D(2,1,6,5)            -41.1291         estimate D2E/DX2                !
 ! D5    D(2,1,6,7)             93.6763         estimate D2E/DX2                !
 ! D6    D(2,1,6,45)          -154.6598         estimate D2E/DX2                !
 ! D7    D(1,2,3,4)            -44.864          estimate D2E/DX2                !
 ! D8    D(1,2,3,11)            73.7962         estimate D2E/DX2                !
 ! D9    D(1,2,3,42)          -165.3564         estimate D2E/DX2                !
 ! D10   D(12,2,3,4)            80.9507         estimate D2E/DX2                !
 ! D11   D(12,2,3,11)         -160.3891         estimate D2E/DX2                !
 ! D12   D(12,2,3,42)          -39.5418         estimate D2E/DX2                !
 ! D13   D(41,2,3,4)          -160.8574         estimate D2E/DX2                !
 ! D14   D(41,2,3,11)          -42.1972         estimate D2E/DX2                !
 ! D15   D(41,2,3,42)           78.6501         estimate D2E/DX2                !
 ! D16   D(1,2,12,13)         -119.6992         estimate D2E/DX2                !
 ! D17   D(3,2,12,13)          112.3448         estimate D2E/DX2                !
 ! D18   D(41,2,12,13)          -5.8645         estimate D2E/DX2                !
 ! D19   D(2,3,4,5)             51.2943         estimate D2E/DX2                !
 ! D20   D(2,3,4,10)           -70.9564         estimate D2E/DX2                !
 ! D21   D(2,3,4,43)           168.8222         estimate D2E/DX2                !
 ! D22   D(11,3,4,5)           -70.2577         estimate D2E/DX2                !
 ! D23   D(11,3,4,10)          167.4917         estimate D2E/DX2                !
 ! D24   D(11,3,4,43)           47.2703         estimate D2E/DX2                !
 ! D25   D(42,3,4,5)           170.6091         estimate D2E/DX2                !
 ! D26   D(42,3,4,10)           48.3584         estimate D2E/DX2                !
 ! D27   D(42,3,4,43)          -71.863          estimate D2E/DX2                !
 ! D28   D(2,3,11,51)           68.1106         estimate D2E/DX2                !
 ! D29   D(4,3,11,51)         -168.9448         estimate D2E/DX2                !
 ! D30   D(42,3,11,51)         -50.7041         estimate D2E/DX2                !
 ! D31   D(3,4,5,6)            -53.6361         estimate D2E/DX2                !
 ! D32   D(3,4,5,9)           -176.2408         estimate D2E/DX2                !
 ! D33   D(3,4,5,44)            62.0428         estimate D2E/DX2                !
 ! D34   D(10,4,5,6)            69.9394         estimate D2E/DX2                !
 ! D35   D(10,4,5,9)           -52.6653         estimate D2E/DX2                !
 ! D36   D(10,4,5,44)         -174.3817         estimate D2E/DX2                !
 ! D37   D(43,4,5,6)          -170.621          estimate D2E/DX2                !
 ! D38   D(43,4,5,9)            66.7743         estimate D2E/DX2                !
 ! D39   D(43,4,5,44)          -54.942          estimate D2E/DX2                !
 ! D40   D(3,4,10,50)          -53.7236         estimate D2E/DX2                !
 ! D41   D(3,4,10,80)           82.1974         estimate D2E/DX2                !
 ! D42   D(5,4,10,50)         -175.0842         estimate D2E/DX2                !
 ! D43   D(5,4,10,80)          -39.1631         estimate D2E/DX2                !
 ! D44   D(43,4,10,50)          65.7461         estimate D2E/DX2                !
 ! D45   D(43,4,10,80)        -158.3329         estimate D2E/DX2                !
 ! D46   D(4,5,6,1)             47.708          estimate D2E/DX2                !
 ! D47   D(4,5,6,7)            -85.8128         estimate D2E/DX2                !
 ! D48   D(4,5,6,45)           159.6075         estimate D2E/DX2                !
 ! D49   D(9,5,6,1)            173.734          estimate D2E/DX2                !
 ! D50   D(9,5,6,7)             40.2132         estimate D2E/DX2                !
 ! D51   D(9,5,6,45)           -74.3665         estimate D2E/DX2                !
 ! D52   D(44,5,6,1)           -67.3557         estimate D2E/DX2                !
 ! D53   D(44,5,6,7)           159.1235         estimate D2E/DX2                !
 ! D54   D(44,5,6,45)           44.5438         estimate D2E/DX2                !
 ! D55   D(4,5,9,49)           -79.7417         estimate D2E/DX2                !
 ! D56   D(6,5,9,49)           154.0437         estimate D2E/DX2                !
 ! D57   D(44,5,9,49)           38.4809         estimate D2E/DX2                !
 ! D58   D(1,6,7,8)            -69.1898         estimate D2E/DX2                !
 ! D59   D(1,6,7,46)           167.5738         estimate D2E/DX2                !
 ! D60   D(1,6,7,47)            50.4983         estimate D2E/DX2                !
 ! D61   D(5,6,7,8)             63.6017         estimate D2E/DX2                !
 ! D62   D(5,6,7,46)           -59.6347         estimate D2E/DX2                !
 ! D63   D(5,6,7,47)          -176.7102         estimate D2E/DX2                !
 ! D64   D(45,6,7,8)           179.411          estimate D2E/DX2                !
 ! D65   D(45,6,7,46)           56.1746         estimate D2E/DX2                !
 ! D66   D(45,6,7,47)          -60.9009         estimate D2E/DX2                !
 ! D67   D(6,7,8,48)           -30.2516         estimate D2E/DX2                !
 ! D68   D(46,7,8,48)           91.5296         estimate D2E/DX2                !
 ! D69   D(47,7,8,48)         -150.6445         estimate D2E/DX2                !
 ! D70   D(4,10,80,37)          81.2145         estimate D2E/DX2                !
 ! D71   D(50,10,80,37)       -139.8101         estimate D2E/DX2                !
 ! D72   D(2,12,13,14)         -81.5172         estimate D2E/DX2                !
 ! D73   D(2,12,13,19)         159.496          estimate D2E/DX2                !
 ! D74   D(2,12,13,52)          41.2047         estimate D2E/DX2                !
 ! D75   D(12,13,14,15)         65.4818         estimate D2E/DX2                !
 ! D76   D(12,13,14,16)        -56.6601         estimate D2E/DX2                !
 ! D77   D(12,13,14,53)       -174.9095         estimate D2E/DX2                !
 ! D78   D(19,13,14,15)       -174.873          estimate D2E/DX2                !
 ! D79   D(19,13,14,16)         62.9851         estimate D2E/DX2                !
 ! D80   D(19,13,14,53)        -55.2644         estimate D2E/DX2                !
 ! D81   D(52,13,14,15)        -57.3581         estimate D2E/DX2                !
 ! D82   D(52,13,14,16)       -179.5            estimate D2E/DX2                !
 ! D83   D(52,13,14,53)         62.2506         estimate D2E/DX2                !
 ! D84   D(12,13,19,18)         65.4387         estimate D2E/DX2                !
 ! D85   D(12,13,19,20)        -55.5877         estimate D2E/DX2                !
 ! D86   D(12,13,19,57)       -173.8755         estimate D2E/DX2                !
 ! D87   D(14,13,19,18)        -57.1619         estimate D2E/DX2                !
 ! D88   D(14,13,19,20)       -178.1882         estimate D2E/DX2                !
 ! D89   D(14,13,19,57)         63.5239         estimate D2E/DX2                !
 ! D90   D(52,13,19,18)       -175.4168         estimate D2E/DX2                !
 ! D91   D(52,13,19,20)         63.5569         estimate D2E/DX2                !
 ! D92   D(52,13,19,57)        -54.7309         estimate D2E/DX2                !
 ! D93   D(13,14,15,54)       -170.4061         estimate D2E/DX2                !
 ! D94   D(16,14,15,54)        -50.6524         estimate D2E/DX2                !
 ! D95   D(53,14,15,54)         70.9379         estimate D2E/DX2                !
 ! D96   D(13,14,16,17)        -59.169          estimate D2E/DX2                !
 ! D97   D(13,14,16,40)        178.9853         estimate D2E/DX2                !
 ! D98   D(13,14,16,55)         59.6858         estimate D2E/DX2                !
 ! D99   D(15,14,16,17)        179.1303         estimate D2E/DX2                !
 ! D100  D(15,14,16,40)         57.2846         estimate D2E/DX2                !
 ! D101  D(15,14,16,55)        -62.0148         estimate D2E/DX2                !
 ! D102  D(53,14,16,17)         57.7819         estimate D2E/DX2                !
 ! D103  D(53,14,16,40)        -64.0639         estimate D2E/DX2                !
 ! D104  D(53,14,16,55)        176.6367         estimate D2E/DX2                !
 ! D105  D(14,16,17,18)         47.6553         estimate D2E/DX2                !
 ! D106  D(14,16,17,22)        168.8077         estimate D2E/DX2                !
 ! D107  D(14,16,17,56)        -76.7013         estimate D2E/DX2                !
 ! D108  D(40,16,17,18)        167.8149         estimate D2E/DX2                !
 ! D109  D(40,16,17,22)        -71.0328         estimate D2E/DX2                !
 ! D110  D(40,16,17,56)         43.4582         estimate D2E/DX2                !
 ! D111  D(55,16,17,18)        -70.7942         estimate D2E/DX2                !
 ! D112  D(55,16,17,22)         50.3581         estimate D2E/DX2                !
 ! D113  D(55,16,17,56)        164.8491         estimate D2E/DX2                !
 ! D114  D(14,16,40,84)       -160.2118         estimate D2E/DX2                !
 ! D115  D(17,16,40,84)         77.697          estimate D2E/DX2                !
 ! D116  D(55,16,40,84)        -42.5639         estimate D2E/DX2                !
 ! D117  D(16,17,18,19)        -42.1973         estimate D2E/DX2                !
 ! D118  D(22,17,18,19)       -166.0842         estimate D2E/DX2                !
 ! D119  D(56,17,18,19)         81.0654         estimate D2E/DX2                !
 ! D120  D(16,17,22,23)        -74.6593         estimate D2E/DX2                !
 ! D121  D(18,17,22,23)         49.9636         estimate D2E/DX2                !
 ! D122  D(56,17,22,23)        167.6649         estimate D2E/DX2                !
 ! D123  D(17,18,19,13)         47.9157         estimate D2E/DX2                !
 ! D124  D(17,18,19,20)        173.559          estimate D2E/DX2                !
 ! D125  D(17,18,19,57)        -70.8984         estimate D2E/DX2                !
 ! D126  D(13,19,20,21)         81.6198         estimate D2E/DX2                !
 ! D127  D(13,19,20,58)       -160.4603         estimate D2E/DX2                !
 ! D128  D(13,19,20,59)        -42.9914         estimate D2E/DX2                !
 ! D129  D(18,19,20,21)        -42.9947         estimate D2E/DX2                !
 ! D130  D(18,19,20,58)         74.9253         estimate D2E/DX2                !
 ! D131  D(18,19,20,59)       -167.6058         estimate D2E/DX2                !
 ! D132  D(57,19,20,21)       -160.3787         estimate D2E/DX2                !
 ! D133  D(57,19,20,58)        -42.4588         estimate D2E/DX2                !
 ! D134  D(57,19,20,59)         75.0101         estimate D2E/DX2                !
 ! D135  D(19,20,21,60)        -57.0945         estimate D2E/DX2                !
 ! D136  D(58,20,21,60)       -176.9647         estimate D2E/DX2                !
 ! D137  D(59,20,21,60)         66.3876         estimate D2E/DX2                !
 ! D138  D(17,22,23,24)        117.9614         estimate D2E/DX2                !
 ! D139  D(17,22,23,28)       -123.3705         estimate D2E/DX2                !
 ! D140  D(17,22,23,61)         -4.451          estimate D2E/DX2                !
 ! D141  D(22,23,24,25)        164.9514         estimate D2E/DX2                !
 ! D142  D(22,23,24,39)        -73.6744         estimate D2E/DX2                !
 ! D143  D(22,23,24,62)         44.6352         estimate D2E/DX2                !
 ! D144  D(28,23,24,25)         48.3687         estimate D2E/DX2                !
 ! D145  D(28,23,24,39)        169.7429         estimate D2E/DX2                !
 ! D146  D(28,23,24,62)        -71.9475         estimate D2E/DX2                !
 ! D147  D(61,23,24,25)        -72.5765         estimate D2E/DX2                !
 ! D148  D(61,23,24,39)         48.7977         estimate D2E/DX2                !
 ! D149  D(61,23,24,62)        167.1073         estimate D2E/DX2                !
 ! D150  D(22,23,28,27)       -170.8784         estimate D2E/DX2                !
 ! D151  D(22,23,28,29)         69.4311         estimate D2E/DX2                !
 ! D152  D(22,23,28,65)        -50.2287         estimate D2E/DX2                !
 ! D153  D(24,23,28,27)        -51.9951         estimate D2E/DX2                !
 ! D154  D(24,23,28,29)       -171.6857         estimate D2E/DX2                !
 ! D155  D(24,23,28,65)         68.6545         estimate D2E/DX2                !
 ! D156  D(61,23,28,27)         69.5188         estimate D2E/DX2                !
 ! D157  D(61,23,28,29)        -50.1717         estimate D2E/DX2                !
 ! D158  D(61,23,28,65)       -169.8315         estimate D2E/DX2                !
 ! D159  D(23,24,25,26)        -50.4102         estimate D2E/DX2                !
 ! D160  D(23,24,25,38)       -173.8882         estimate D2E/DX2                !
 ! D161  D(23,24,25,63)         67.1971         estimate D2E/DX2                !
 ! D162  D(39,24,25,26)       -172.6227         estimate D2E/DX2                !
 ! D163  D(39,24,25,38)         63.8994         estimate D2E/DX2                !
 ! D164  D(39,24,25,63)        -55.0154         estimate D2E/DX2                !
 ! D165  D(62,24,25,26)         69.5971         estimate D2E/DX2                !
 ! D166  D(62,24,25,38)        -53.8809         estimate D2E/DX2                !
 ! D167  D(62,24,25,63)       -172.7956         estimate D2E/DX2                !
 ! D168  D(23,24,39,83)       -179.2527         estimate D2E/DX2                !
 ! D169  D(25,24,39,83)        -55.3426         estimate D2E/DX2                !
 ! D170  D(62,24,39,83)         62.6061         estimate D2E/DX2                !
 ! D171  D(24,25,26,27)         54.0852         estimate D2E/DX2                !
 ! D172  D(24,25,26,31)        169.5344         estimate D2E/DX2                !
 ! D173  D(24,25,26,64)        -67.7852         estimate D2E/DX2                !
 ! D174  D(38,25,26,27)        173.2596         estimate D2E/DX2                !
 ! D175  D(38,25,26,31)        -71.2913         estimate D2E/DX2                !
 ! D176  D(38,25,26,64)         51.3892         estimate D2E/DX2                !
 ! D177  D(63,25,26,27)        -64.8626         estimate D2E/DX2                !
 ! D178  D(63,25,26,31)         50.5866         estimate D2E/DX2                !
 ! D179  D(63,25,26,64)        173.267          estimate D2E/DX2                !
 ! D180  D(24,25,38,82)       -173.302          estimate D2E/DX2                !
 ! D181  D(26,25,38,82)         64.2031         estimate D2E/DX2                !
 ! D182  D(63,25,38,82)        -55.4767         estimate D2E/DX2                !
 ! D183  D(25,26,27,28)        -61.2183         estimate D2E/DX2                !
 ! D184  D(31,26,27,28)       -176.5288         estimate D2E/DX2                !
 ! D185  D(64,26,27,28)         61.5722         estimate D2E/DX2                !
 ! D186  D(25,26,31,32)        172.7569         estimate D2E/DX2                !
 ! D187  D(27,26,31,32)        -70.5563         estimate D2E/DX2                !
 ! D188  D(64,26,31,32)         50.2276         estimate D2E/DX2                !
 ! D189  D(26,27,28,23)         61.1302         estimate D2E/DX2                !
 ! D190  D(26,27,28,29)       -173.7569         estimate D2E/DX2                !
 ! D191  D(26,27,28,65)        -57.8311         estimate D2E/DX2                !
 ! D192  D(23,28,29,30)         72.1322         estimate D2E/DX2                !
 ! D193  D(23,28,29,66)       -170.0168         estimate D2E/DX2                !
 ! D194  D(23,28,29,67)        -52.1256         estimate D2E/DX2                !
 ! D195  D(27,28,29,30)        -50.4257         estimate D2E/DX2                !
 ! D196  D(27,28,29,66)         67.4253         estimate D2E/DX2                !
 ! D197  D(27,28,29,67)       -174.6834         estimate D2E/DX2                !
 ! D198  D(65,28,29,30)       -168.2328         estimate D2E/DX2                !
 ! D199  D(65,28,29,66)        -50.3818         estimate D2E/DX2                !
 ! D200  D(65,28,29,67)         67.5094         estimate D2E/DX2                !
 ! D201  D(28,29,30,68)        -94.0477         estimate D2E/DX2                !
 ! D202  D(28,29,30,81)          4.9611         estimate D2E/DX2                !
 ! D203  D(66,29,30,68)        147.5762         estimate D2E/DX2                !
 ! D204  D(66,29,30,81)       -113.415          estimate D2E/DX2                !
 ! D205  D(67,29,30,68)         29.4626         estimate D2E/DX2                !
 ! D206  D(67,29,30,81)        128.4714         estimate D2E/DX2                !
 ! D207  D(29,30,81,37)         71.992          estimate D2E/DX2                !
 ! D208  D(68,30,81,37)       -175.4657         estimate D2E/DX2                !
 ! D209  D(26,31,32,33)        159.867          estimate D2E/DX2                !
 ! D210  D(26,31,32,69)         38.4446         estimate D2E/DX2                !
 ! D211  D(26,31,32,70)        -79.434          estimate D2E/DX2                !
 ! D212  D(31,32,33,34)        -52.8005         estimate D2E/DX2                !
 ! D213  D(31,32,33,71)       -176.1216         estimate D2E/DX2                !
 ! D214  D(31,32,33,72)         69.0935         estimate D2E/DX2                !
 ! D215  D(69,32,33,34)         66.8935         estimate D2E/DX2                !
 ! D216  D(69,32,33,71)        -56.4276         estimate D2E/DX2                !
 ! D217  D(69,32,33,72)       -171.2125         estimate D2E/DX2                !
 ! D218  D(70,32,33,34)       -172.405          estimate D2E/DX2                !
 ! D219  D(70,32,33,71)         64.2739         estimate D2E/DX2                !
 ! D220  D(70,32,33,72)        -50.511          estimate D2E/DX2                !
 ! D221  D(32,33,34,35)        -62.2938         estimate D2E/DX2                !
 ! D222  D(32,33,34,73)        174.6561         estimate D2E/DX2                !
 ! D223  D(32,33,34,74)         61.5287         estimate D2E/DX2                !
 ! D224  D(71,33,34,35)         59.2484         estimate D2E/DX2                !
 ! D225  D(71,33,34,73)        -63.8017         estimate D2E/DX2                !
 ! D226  D(71,33,34,74)       -176.9291         estimate D2E/DX2                !
 ! D227  D(72,33,34,35)        175.4967         estimate D2E/DX2                !
 ! D228  D(72,33,34,73)         52.4467         estimate D2E/DX2                !
 ! D229  D(72,33,34,74)        -60.6808         estimate D2E/DX2                !
 ! D230  D(33,34,35,36)        146.3702         estimate D2E/DX2                !
 ! D231  D(33,34,35,75)         24.6805         estimate D2E/DX2                !
 ! D232  D(33,34,35,76)        -92.2709         estimate D2E/DX2                !
 ! D233  D(73,34,35,36)        -90.6894         estimate D2E/DX2                !
 ! D234  D(73,34,35,75)        147.6209         estimate D2E/DX2                !
 ! D235  D(73,34,35,76)         30.6695         estimate D2E/DX2                !
 ! D236  D(74,34,35,36)         24.1543         estimate D2E/DX2                !
 ! D237  D(74,34,35,75)        -97.5354         estimate D2E/DX2                !
 ! D238  D(74,34,35,76)        145.5131         estimate D2E/DX2                !
 ! D239  D(34,35,36,37)        -71.3193         estimate D2E/DX2                !
 ! D240  D(34,35,36,77)         48.5856         estimate D2E/DX2                !
 ! D241  D(34,35,36,78)        169.8019         estimate D2E/DX2                !
 ! D242  D(75,35,36,37)         52.1573         estimate D2E/DX2                !
 ! D243  D(75,35,36,77)        172.0621         estimate D2E/DX2                !
 ! D244  D(75,35,36,78)        -66.7216         estimate D2E/DX2                !
 ! D245  D(76,35,36,37)        166.4017         estimate D2E/DX2                !
 ! D246  D(76,35,36,77)        -73.6935         estimate D2E/DX2                !
 ! D247  D(76,35,36,78)         47.5228         estimate D2E/DX2                !
 ! D248  D(35,36,37,79)         35.2258         estimate D2E/DX2                !
 ! D249  D(35,36,37,80)        -81.7796         estimate D2E/DX2                !
 ! D250  D(35,36,37,81)        157.4465         estimate D2E/DX2                !
 ! D251  D(77,36,37,79)        -86.4481         estimate D2E/DX2                !
 ! D252  D(77,36,37,80)        156.5465         estimate D2E/DX2                !
 ! D253  D(77,36,37,81)         35.7726         estimate D2E/DX2                !
 ! D254  D(78,36,37,79)        157.0788         estimate D2E/DX2                !
 ! D255  D(78,36,37,80)         40.0734         estimate D2E/DX2                !
 ! D256  D(78,36,37,81)        -80.7004         estimate D2E/DX2                !
 ! D257  D(36,37,80,10)       -172.5569         estimate D2E/DX2                !
 ! D258  D(79,37,80,10)         67.4666         estimate D2E/DX2                !
 ! D259  D(81,37,80,10)        -45.7552         estimate D2E/DX2                !
 ! D260  D(36,37,81,30)        125.0127         estimate D2E/DX2                !
 ! D261  D(79,37,81,30)       -111.315          estimate D2E/DX2                !
 ! D262  D(80,37,81,30)          0.2766         estimate D2E/DX2                !
 --------------------------------------------------------------------------------
 Trust Radius=3.00D-01 FncErr=1.00D-07 GrdErr=1.00D-06
 Number of steps in this run=    504 maximum allowed number of steps=    504.
 GradGradGradGradGradGradGradGradGradGradGradGradGradGradGradGradGradGrad

 Leave Link  103 at Tue Jun  7 12:11:14 2016, MaxMem= 10737418240 cpu:         0.4
 (Enter /share/apps//g09/l202.exe)
 Stoichiometry    C23H44NO16(1+)
 Framework group  C1[X(C23H44NO16)]
 Deg. of freedom   246
 Full point group                 C1      NOp   1
 Largest Abelian subgroup         C1      NOp   1
 Largest concise Abelian subgroup C1      NOp   1
                         Standard orientation:                         
 ---------------------------------------------------------------------
 Center     Atomic      Atomic             Coordinates (Angstroms)
 Number     Number       Type             X           Y           Z
 ---------------------------------------------------------------------
      1          8           0        3.136666    2.572409    0.859321
      2          6           0        3.377473    1.366653    0.176923
      3          6           0        3.165000    1.434903   -1.354413
      4          6           0        1.875004    2.168492   -1.750656
      5          6           0        1.842374    3.522793   -1.035752
      6          6           0        2.024638    3.421389    0.497545
      7          6           0        0.760629    3.164001    1.317541
      8          8           0        0.094126    1.906842    1.077877
      9          8           0        0.639223    4.257135   -1.266907
     10          8           0        0.693248    1.410389   -1.433965
     11          8           0        4.227278    2.148641   -1.983621
     12          8           0        2.589648    0.291683    0.733908
     13          6           0        3.338070   -0.816148    1.262065
     14          6           0        3.792503   -1.805162    0.183958
     15          8           0        4.729345   -1.193953   -0.703516
     16          6           0        2.549299   -2.279513   -0.555654
     17          6           0        1.554089   -2.956146    0.403284
     18          8           0        1.318599   -2.203207    1.591212
     19          6           0        2.441477   -1.586420    2.240239
     20          6           0        1.857326   -0.727451    3.371702
     21          8           0        0.698983    0.017071    3.002535
     22          8           0        0.291640   -3.175126   -0.208513
     23          6           0       -0.555884   -2.023043   -0.388485
     24          6           0       -0.816562   -1.792529   -1.879606
     25          6           0       -1.979998   -0.835353   -2.137419
     26          6           0       -3.225996   -1.238386   -1.349398
     27          8           0       -2.883720   -1.353927    0.034848
     28          6           0       -1.888584   -2.347259    0.329507
     29          6           0       -1.801606   -2.403633    1.857046
     30          8           0       -1.640903   -1.117039    2.458490
     31          8           0       -4.136152   -0.183982   -1.461355
     32          6           0       -5.451067   -0.466449   -0.905881
     33          6           0       -6.159400    0.854818   -0.631558
     34          6           0       -5.351523    1.845469    0.221124
     35          6           0       -5.007251    1.375064    1.651788
     36          6           0       -3.652196    1.893835    2.132879
     37          7           0       -2.549060    1.192987    1.399154
     38          8           0       -2.182161   -0.842683   -3.548762
     39          8           0        0.370661   -1.255855   -2.513635
     40          8           0        2.963345   -3.183038   -1.577701
     41          1           0        4.440536    1.153723    0.370726
     42          1           0        3.121881    0.398381   -1.724045
     43          1           0        1.908908    2.345490   -2.840054
     44          1           0        2.722567    4.068751   -1.413894
     45          1           0        2.351560    4.420864    0.829130
     46          1           0        0.069551    3.998869    1.120053
     47          1           0        1.037388    3.176940    2.381487
     48          1           0        0.260755    1.649449    0.122149
     49          1           0        0.703357    4.685294   -2.136979
     50          1           0        0.753475    0.508986   -1.831628
     51          1           0        5.036297    1.613592   -1.901015
     52          1           0        4.218788   -0.442189    1.816018
     53          1           0        4.275437   -2.662941    0.693828
     54          1           0        4.846394   -1.826921   -1.437902
     55          1           0        2.064329   -1.399152   -0.996568
     56          1           0        1.914295   -3.974153    0.640994
     57          1           0        3.077734   -2.361802    2.712392
     58          1           0        1.538033   -1.383984    4.192711
     59          1           0        2.647656   -0.061734    3.758212
     60          1           0        0.888949    0.603634    2.230366
     61          1           0       -0.098638   -1.129460    0.066781
     62          1           0       -1.050383   -2.768173   -2.343694
     63          1           0       -1.696636    0.177637   -1.789525
     64          1           0       -3.652877   -2.195040   -1.718723
     65          1           0       -2.223050   -3.343325   -0.022888
     66          1           0       -2.750854   -2.813873    2.231639
     67          1           0       -0.988190   -3.078569    2.153493
     68          1           0       -0.678769   -0.886434    2.624369
     69          1           0       -5.324691   -1.054134    0.016028
     70          1           0       -6.022289   -1.072143   -1.628789
     71          1           0       -7.121242    0.618951   -0.147601
     72          1           0       -6.406747    1.337505   -1.589562
     73          1           0       -5.904419    2.794564    0.280022
     74          1           0       -4.430895    2.085367   -0.336868
     75          1           0       -4.997575    0.275271    1.720494
     76          1           0       -5.780407    1.710879    2.357292
     77          1           0       -3.553369    2.974110    1.954815
     78          1           0       -3.497030    1.707365    3.203258
     79          1           0       -2.832570    1.002965    0.427793
     80          1           0       -2.323444    0.233730    1.817644
     81          1           0       -1.625831    1.699872    1.365538
     82          1           0       -2.845823   -0.162797   -3.763102
     83          1           0        0.123899   -1.125751   -3.450779
     84          1           0        2.241852   -3.232950   -2.230087
 ---------------------------------------------------------------------
 Rotational constants (GHZ):      0.1243926      0.0759105      0.0674812
 Leave Link  202 at Tue Jun  7 12:11:14 2016, MaxMem= 10737418240 cpu:         1.7
 (Enter /share/apps//g09/l301.exe)
 Standard basis: 6-311+G(d,p) (5D, 7F)
 Ernie: Thresh=  0.10000D-02 Tol=  0.10000D-05 Strict=F.
 There are  1184 symmetry adapted cartesian basis functions of A   symmetry.
 There are  1144 symmetry adapted basis functions of A   symmetry.
  1144 basis functions,  1792 primitive gaussians,  1184 cartesian basis functions
   158 alpha electrons      158 beta electrons
       nuclear repulsion energy      6079.9998633576 Hartrees.
 IExCor= 1009 DFT=T Ex+Corr=PBE1PBE ExCW=0 ScaHFX=  0.250000
 ScaDFX=  0.750000  0.750000  1.000000  1.000000 ScalE2=  1.000000  1.000000
 IRadAn=      0 IRanWt=     -1 IRanGd=            0 ICorTp=0 IEmpDi=131
 NAtoms=   84 NActive=   84 NUniq=   84 SFac= 1.00D+00 NAtFMM=   60 NAOKFM=T Big=T
 Integral buffers will be    131072 words long.
 Raffenetti 2 integral format.
 Two-electron integral symmetry is turned on.
 R6Disp:  Grimme-D3 Dispersion energy=       -0.0891377117 Hartrees.
 Nuclear repulsion after empirical dispersion term =     6079.9107256460 Hartrees.
 Leave Link  301 at Tue Jun  7 12:11:15 2016, MaxMem= 10737418240 cpu:         1.8
 (Enter /share/apps//g09/l302.exe)
 NPDir=0 NMtPBC=     1 NCelOv=     1 NCel=       1 NClECP=     1 NCelD=      1
         NCelK=      1 NCelE2=     1 NClLst=     1 CellRange=     0.0.
 One-electron integrals computed using PRISM.
 NBasis=  1144 RedAO= T EigKep=  1.25D-06  NBF=  1144
 NBsUse=  1144 1.00D-06 EigRej= -1.00D+00 NBFU=  1144
 Precomputing XC quadrature grid using
 IXCGrd= 4 IRadAn=           0 IRanWt=          -1 IRanGd=           0 AccXCQ= 0.00D+00.
 Generated NRdTot=       0 NPtTot=           0 NUsed=           0 NTot=          32
 NSgBfM=  1105  1106  1106  1106  1106 MxSgAt=    84 MxSgA2=    84.
 Leave Link  302 at Tue Jun  7 12:11:19 2016, MaxMem= 10737418240 cpu:        59.7
 (Enter /share/apps//g09/l303.exe)
 DipDrv:  MaxL=1.
 Leave Link  303 at Tue Jun  7 12:11:22 2016, MaxMem= 10737418240 cpu:        35.3
 (Enter /share/apps//g09/l401.exe)
 ExpMin= 4.38D-02 ExpMax= 8.59D+03 ExpMxC= 1.30D+03 IAcc=2 IRadAn=         4 AccDes= 0.00D+00
 Harris functional with IExCor= 1009 and IRadAn=       4 diagonalized for initial guess.
 HarFok:  IExCor= 1009 AccDes= 0.00D+00 IRadAn=         4 IDoV= 1 UseB2=F ITyADJ=14
 ICtDFT=  3500011 ScaDFX=  1.000000  1.000000  1.000000  1.000000
 FoFCou: FMM=F IPFlag=           0 FMFlag=      100000 FMFlg1=        2001
         NFxFlg=           0 DoJE=T BraDBF=F KetDBF=T FulRan=T
         wScrn=  0.000000 ICntrl=     500 IOpCl=  0 I1Cent=   200000004 NGrid=           0
         NMat0=    1 NMatS0=      1 NMatT0=    0 NMatD0=    1 NMtDS0=    0 NMtDT0=    0
 Petite list used in FoFCou.
 Harris En= -2159.71378536873    
 JPrj=0 DoOrth=F DoCkMO=F.
 Leave Link  401 at Tue Jun  7 12:11:36 2016, MaxMem= 10737418240 cpu:       240.4
 (Enter /share/apps//g09/l502.exe)
 Closed shell SCF:
 Using DIIS extrapolation, IDIIS=  1040.
 Integral symmetry usage will be decided dynamically.
 IVT=     4256630 IEndB=     4256630 NGot= 10737418240 MDV= 10734581291
 LenX= 10734581291 LenY= 10733178251
 Requested convergence on RMS density matrix=1.00D-08 within 128 cycles.
 Requested convergence on MAX density matrix=1.00D-06.
 Requested convergence on             energy=1.00D-06.
 No special actions if energy rises.
 Fock matrices will be formed incrementally for  20 cycles.

 Cycle   1  Pass 1  IDiag  1:
 FoFJK:  IHMeth= 1 ICntrl=       0 DoSepK=F KAlg= 0 I1Cent=   0 FoldK=F
 IRaf= 810000000 NMat=   1 IRICut=       1 DoRegI=T DoRafI=F ISym2E= 0.
 FoFCou: FMM=T IPFlag=           0 FMFlag=      100000 FMFlg1=        2001
         NFxFlg=           0 DoJE=F BraDBF=F KetDBF=F FulRan=T
         wScrn=  0.000000 ICntrl=       0 IOpCl=  0 I1Cent=           0 NGrid=           0
         NMat0=    1 NMatS0=      1 NMatT0=    0 NMatD0=    1 NMtDS0=    0 NMtDT0=    0
 Symmetry not used in FoFCou.
 FMM levels:  10  Number of levels for PrismC:   9
 E= -2158.71306017562    
 DIIS: error= 1.32D-02 at cycle   1 NSaved=   1.
 NSaved= 1 IEnMin= 1 EnMin= -2158.71306017562     IErMin= 1 ErrMin= 1.32D-02
 ErrMax= 1.32D-02  0.00D+00 EMaxC= 1.00D-01 BMatC= 1.01D+00 BMatP= 1.01D+00
 IDIUse=3 WtCom= 8.68D-01 WtEn= 1.32D-01
 Coeff-Com:  0.100D+01
 Coeff-En:   0.100D+01
 Coeff:      0.100D+01
 Gap=     0.272 Goal=   None    Shift=    0.000
 GapD=    0.272 DampG=1.000 DampE=0.500 DampFc=0.5000 IDamp=-1.
 Damping current iteration by 5.00D-01
 RMSDP=9.54D-03 MaxDP=2.20D+00              OVMax= 1.31D-01

 Cycle   2  Pass 1  IDiag  1:
 RMSU=  4.77D-03    CP:  9.97D-01
 E= -2158.99389551008     Delta-E=       -0.280835334459 Rises=F Damp=T
 DIIS: error= 2.76D-03 at cycle   2 NSaved=   2.
 NSaved= 2 IEnMin= 2 EnMin= -2158.99389551008     IErMin= 2 ErrMin= 2.76D-03
 ErrMax= 2.76D-03  0.00D+00 EMaxC= 1.00D-01 BMatC= 7.87D-02 BMatP= 1.01D+00
 IDIUse=3 WtCom= 9.72D-01 WtEn= 2.76D-02
 Coeff-Com:  0.526D-01 0.947D+00
 Coeff-En:   0.145D+00 0.855D+00
 Coeff:      0.552D-01 0.945D+00
 Gap=     0.293 Goal=   None    Shift=    0.000
 RMSDP=4.94D-03 MaxDP=1.37D+00 DE=-2.81D-01 OVMax= 7.60D-02

 Cycle   3  Pass 1  IDiag  1:
 RMSU=  2.66D-03    CP:  9.11D-01  8.77D-01
 E= -2159.35257574295     Delta-E=       -0.358680232865 Rises=F Damp=F
 DIIS: error= 2.79D-03 at cycle   3 NSaved=   3.
 NSaved= 3 IEnMin= 3 EnMin= -2159.35257574295     IErMin= 2 ErrMin= 2.76D-03
 ErrMax= 2.79D-03  0.00D+00 EMaxC= 1.00D-01 BMatC= 4.41D-02 BMatP= 7.87D-02
 IDIUse=3 WtCom= 9.72D-01 WtEn= 2.79D-02
 Coeff-Com: -0.708D-01 0.412D+00 0.659D+00
 Coeff-En:   0.000D+00 0.000D+00 0.100D+01
 Coeff:     -0.688D-01 0.400D+00 0.669D+00
 Gap=     0.275 Goal=   None    Shift=    0.000
 RMSDP=1.56D-03 MaxDP=3.68D-01 DE=-3.59D-01 OVMax= 1.63D-02

 Cycle   4  Pass 1  IDiag  1:
 RMSU=  1.20D-03    CP:  9.25D-01  1.01D+00  8.56D-01
 E= -2159.38042231059     Delta-E=       -0.027846567642 Rises=F Damp=F
 DIIS: error= 1.10D-03 at cycle   4 NSaved=   4.
 NSaved= 4 IEnMin= 4 EnMin= -2159.38042231059     IErMin= 4 ErrMin= 1.10D-03
 ErrMax= 1.10D-03  0.00D+00 EMaxC= 1.00D-01 BMatC= 5.42D-03 BMatP= 4.41D-02
 IDIUse=3 WtCom= 9.89D-01 WtEn= 1.10D-02
 Coeff-Com: -0.369D-01 0.125D+00 0.335D+00 0.576D+00
 Coeff-En:   0.000D+00 0.000D+00 0.565D-01 0.943D+00
 Coeff:     -0.365D-01 0.124D+00 0.332D+00 0.580D+00
 Gap=     0.268 Goal=   None    Shift=    0.000
 RMSDP=1.28D-03 MaxDP=3.96D-01 DE=-2.78D-02 OVMax= 5.61D-03

 Cycle   5  Pass 1  IDiag  1:
 RMSU=  3.73D-04    CP:  9.02D-01  9.64D-01  8.57D-01  5.80D-01
 E= -2159.38500010379     Delta-E=       -0.004577793203 Rises=F Damp=F
 DIIS: error= 2.98D-04 at cycle   5 NSaved=   5.
 NSaved= 5 IEnMin= 5 EnMin= -2159.38500010379     IErMin= 5 ErrMin= 2.98D-04
 ErrMax= 2.98D-04  0.00D+00 EMaxC= 1.00D-01 BMatC= 2.58D-04 BMatP= 5.42D-03
 IDIUse=3 WtCom= 9.97D-01 WtEn= 2.98D-03
 Coeff-Com: -0.117D-01 0.264D-01 0.100D+00 0.254D+00 0.631D+00
 Coeff-En:   0.000D+00 0.000D+00 0.000D+00 0.000D+00 0.100D+01
 Coeff:     -0.117D-01 0.263D-01 0.100D+00 0.253D+00 0.632D+00
 Gap=     0.268 Goal=   None    Shift=    0.000
 RMSDP=2.16D-04 MaxDP=4.52D-02 DE=-4.58D-03 OVMax= 1.60D-03

 Cycle   6  Pass 1  IDiag  1:
 RMSU=  8.72D-05    CP:  9.05D-01  9.74D-01  8.72D-01  5.92D-01  7.03D-01
 E= -2159.38519642470     Delta-E=       -0.000196320909 Rises=F Damp=F
 DIIS: error= 5.69D-05 at cycle   6 NSaved=   6.
 NSaved= 6 IEnMin= 6 EnMin= -2159.38519642470     IErMin= 6 ErrMin= 5.69D-05
 ErrMax= 5.69D-05  0.00D+00 EMaxC= 1.00D-01 BMatC= 1.73D-05 BMatP= 2.58D-04
 IDIUse=1 WtCom= 1.00D+00 WtEn= 0.00D+00
 Coeff-Com: -0.364D-02 0.642D-02 0.312D-01 0.920D-01 0.302D+00 0.572D+00
 Coeff:     -0.364D-02 0.642D-02 0.312D-01 0.920D-01 0.302D+00 0.572D+00
 Gap=     0.268 Goal=   None    Shift=    0.000
 RMSDP=4.01D-05 MaxDP=1.26D-02 DE=-1.96D-04 OVMax= 4.43D-04

 Cycle   7  Pass 1  IDiag  1:
 RMSU=  1.71D-05    CP:  9.05D-01  9.74D-01  8.73D-01  6.06D-01  7.30D-01
                    CP:  6.80D-01
 E= -2159.38520976799     Delta-E=       -0.000013343293 Rises=F Damp=F
 DIIS: error= 1.63D-05 at cycle   7 NSaved=   7.
 NSaved= 7 IEnMin= 7 EnMin= -2159.38520976799     IErMin= 7 ErrMin= 1.63D-05
 ErrMax= 1.63D-05  0.00D+00 EMaxC= 1.00D-01 BMatC= 1.24D-06 BMatP= 1.73D-05
 IDIUse=1 WtCom= 1.00D+00 WtEn= 0.00D+00
 Coeff-Com: -0.977D-03 0.136D-02 0.870D-02 0.288D-01 0.106D+00 0.276D+00
 Coeff-Com:  0.580D+00
 Coeff:     -0.977D-03 0.136D-02 0.870D-02 0.288D-01 0.106D+00 0.276D+00
 Coeff:      0.580D+00
 Gap=     0.268 Goal=   None    Shift=    0.000
 RMSDP=7.59D-06 MaxDP=2.60D-03 DE=-1.33D-05 OVMax= 1.15D-04

 Cycle   8  Pass 1  IDiag  1:
 RMSU=  6.15D-06    CP:  9.05D-01  9.74D-01  8.73D-01  6.08D-01  7.31D-01
                    CP:  6.63D-01  8.14D-01
 E= -2159.38521055525     Delta-E=       -0.000000787259 Rises=F Damp=F
 DIIS: error= 6.08D-06 at cycle   8 NSaved=   8.
 NSaved= 8 IEnMin= 8 EnMin= -2159.38521055525     IErMin= 8 ErrMin= 6.08D-06
 ErrMax= 6.08D-06  0.00D+00 EMaxC= 1.00D-01 BMatC= 1.36D-07 BMatP= 1.24D-06
 IDIUse=1 WtCom= 1.00D+00 WtEn= 0.00D+00
 Coeff-Com:  0.121D-04-0.197D-03 0.108D-03 0.186D-02 0.102D-01 0.555D-01
 Coeff-Com:  0.280D+00 0.652D+00
 Coeff:      0.121D-04-0.197D-03 0.108D-03 0.186D-02 0.102D-01 0.555D-01
 Coeff:      0.280D+00 0.652D+00
 Gap=     0.268 Goal=   None    Shift=    0.000
 RMSDP=3.26D-06 MaxDP=1.25D-03 DE=-7.87D-07 OVMax= 4.01D-05

 Cycle   9  Pass 1  IDiag  1:
 RMSU=  2.01D-06    CP:  9.05D-01  9.74D-01  8.73D-01  6.07D-01  7.33D-01
                    CP:  6.74D-01  8.40D-01  8.40D-01
 E= -2159.38521064789     Delta-E=       -0.000000092637 Rises=F Damp=F
 DIIS: error= 1.45D-06 at cycle   9 NSaved=   9.
 NSaved= 9 IEnMin= 9 EnMin= -2159.38521064789     IErMin= 9 ErrMin= 1.45D-06
 ErrMax= 1.45D-06  0.00D+00 EMaxC= 1.00D-01 BMatC= 1.16D-08 BMatP= 1.36D-07
 IDIUse=1 WtCom= 1.00D+00 WtEn= 0.00D+00
 Coeff-Com:  0.688D-04-0.180D-03-0.550D-03-0.105D-02-0.256D-02 0.627D-02
 Coeff-Com:  0.893D-01 0.313D+00 0.596D+00
 Coeff:      0.688D-04-0.180D-03-0.550D-03-0.105D-02-0.256D-02 0.627D-02
 Coeff:      0.893D-01 0.313D+00 0.596D+00
 Gap=     0.268 Goal=   None    Shift=    0.000
 RMSDP=9.42D-07 MaxDP=1.95D-04 DE=-9.26D-08 OVMax= 1.02D-05

 Cycle  10  Pass 1  IDiag  1:
 RMSU=  6.23D-07    CP:  9.05D-01  9.74D-01  8.73D-01  6.07D-01  7.32D-01
                    CP:  6.75D-01  8.43D-01  8.70D-01  7.19D-01
 E= -2159.38521065628     Delta-E=       -0.000000008393 Rises=F Damp=F
 DIIS: error= 4.98D-07 at cycle  10 NSaved=  10.
 NSaved=10 IEnMin=10 EnMin= -2159.38521065628     IErMin=10 ErrMin= 4.98D-07
 ErrMax= 4.98D-07  0.00D+00 EMaxC= 1.00D-01 BMatC= 1.26D-09 BMatP= 1.16D-08
 IDIUse=1 WtCom= 1.00D+00 WtEn= 0.00D+00
 Coeff-Com:  0.310D-04-0.712D-04-0.283D-03-0.641D-03-0.200D-02-0.796D-03
 Coeff-Com:  0.245D-01 0.110D+00 0.312D+00 0.557D+00
 Coeff:      0.310D-04-0.712D-04-0.283D-03-0.641D-03-0.200D-02-0.796D-03
 Coeff:      0.245D-01 0.110D+00 0.312D+00 0.557D+00
 Gap=     0.268 Goal=   None    Shift=    0.000
 RMSDP=2.98D-07 MaxDP=4.61D-05 DE=-8.39D-09 OVMax= 3.31D-06

 Cycle  11  Pass 1  IDiag  1:
 RMSU=  1.58D-07    CP:  9.05D-01  9.74D-01  8.73D-01  6.07D-01  7.32D-01
                    CP:  6.75D-01  8.50D-01  8.70D-01  7.25D-01  7.02D-01
 E= -2159.38521065733     Delta-E=       -0.000000001051 Rises=F Damp=F
 DIIS: error= 1.59D-07 at cycle  11 NSaved=  11.
 NSaved=11 IEnMin=11 EnMin= -2159.38521065733     IErMin=11 ErrMin= 1.59D-07
 ErrMax= 1.59D-07  0.00D+00 EMaxC= 1.00D-01 BMatC= 1.11D-10 BMatP= 1.26D-09
 IDIUse=1 WtCom= 1.00D+00 WtEn= 0.00D+00
 Coeff-Com:  0.819D-05-0.176D-04-0.920D-04-0.217D-03-0.746D-03-0.957D-03
 Coeff-Com:  0.390D-02 0.255D-01 0.100D+00 0.281D+00 0.591D+00
 Coeff:      0.819D-05-0.176D-04-0.920D-04-0.217D-03-0.746D-03-0.957D-03
[...]
 ,0.00001124,0.00019530,0.00052775,-0.00000962,-0.00017740,-0.00021631,
 -0.00001110,0.00002283,0.00002943,-0.00000424,-0.00000853,-0.00003708,
 0.00001010,0.00000809,0.00000027,-0.00002997,-0.00001299,-0.00001292,-
 0.00003814,-0.00001412,0.00006512,-0.00063979,0.00101521,0.00206276,-0
 .01141721,0.00158158,0.00370114,-0.00030050,0.00003492,-0.00046868,0.0
 0000126,-0.00003848,0.00003624,0.00007403,0.00003882,-0.00003381,-0.00
 009138,0.00006533,0.00014816,0.00002169,-0.00000544,-0.00000509,-0.000
 00105,-0.00002113,0.00001944,-0.00000907,0.00000216,-0.00002003,0.0000
 1040,-0.00001143,0.00001681,-0.00011952,0.00018274,-0.00040625,-0.0001
 0971,0.00006486,0.00002485,0.00142184,0.00247223,-0.00291196,0.0000515
 8,-0.00000394,0.00000565,-0.00004137,-0.00000340,-0.00001146,0.0000011
 3,-0.00000985,0.00001040,0.00007112,-0.00011202,0.00000229,-0.00015962
 ,-0.00020148,-0.00005026,-0.00001421,-0.00003418,0.00000997,-0.0000132
 5,0.00001283,0.00001348,-0.00000927,-0.00000461,0.00000073,-0.00000898
 ,-0.00000476,-0.00000913,0.00012402,0.00005660,-0.00006873,0.00011109,
 -0.00008994,0.00012622,0.00007597,-0.00042329,0.00086068,-0.00038496,-
 0.00019444,-0.00012240,-0.00001719,0.00012872,0.00017233,-0.00008431,-
 0.00003715,-0.00005907,-0.00000891,0.00001836,-0.00001557,0.00000256,-
 0.00002040,0.00003135,0.00002362,0.00002907,0.00001550,-0.00000098,0.0
 0001453,0.00005246,-0.00000033,0.00003002,0.00000841,0.00002019,0.0000
 0795,0.00001691,-0.00000380,-0.00001927,-0.00000733,0.00000969,-0.0000
 0165,0.00000905,-0.00001620,0.00001920,0.00001016,-0.00000573,0.000003
 82,-0.00001096,0.00000648,-0.00000107,0.00000921,-0.00000422,0.0000040
 1,-0.00000551,0.00000760,-0.00000305,0.00000813,-0.00003954,0.00002819
 ,-0.00009704,0.00013340,0.00008638,-0.00006581,0.00000935,0.00000562,-
 0.00004870,-0.00041677,-0.00016800,0.00015699,0.01137620,-0.00011527,0
 .00002803,-0.00012599,-0.00005160,-0.00006495,0.00024777,0.00019633,-0
 .00008946,-0.00006678,0.00009513,-0.00023224,-0.00008625,0.00020611,0.
 00012315,-0.00001200,0.00001909,-0.00000343,0.00006884,0.00001811,0.00
 001357,-0.00000714,-0.00013187,-0.00004138,-0.00024589,-0.00017017,-0.
 00013895,-0.00001820,-0.00037793,0.00046212,-0.00044556,-0.00010092,0.
 00017163,0.00002307,0.00009690,0.00003543,-0.00012442,-0.00008090,0.00
 001747,-0.00000516,-0.00040050,-0.00000028,0.00028046,0.00005616,0.000
 08874,-0.00020348,0.00111434,-0.00057713,0.00029741,-0.00003007,-0.000
 23785,-0.00018247,-0.00006103,0.00006755,-0.00008261,0.00000049,-0.000
 02994,0.00000945,0.00001308,-0.00000006,0.00001718,-0.00001290,-0.0000
 0289,-0.00004051,0.00015896,0.00013126,0.00024283,-0.00053486,-0.00308
 523,-0.00345820,0.00006620,0.01505021,-0.01960722,-0.00108114,0.002342
 47,-0.00542896,0.00012481,-0.00008038,-0.00004175,-0.00022269,-0.00066
 582,0.00109396,0.00047294,0.00171822,-0.00093956,0.00003483,-0.0004832
 0,-0.00023931,-0.00015481,-0.00001484,0.00000937,-0.00006850,-0.000272
 22,0.00031319,-0.00011827,-0.00010661,-0.00019871,-0.00001259,0.000001
 59,-0.00001196,0.00000443,0.00000958,-0.00001389,0.00000453,0.00000686
 ,-0.00001295,0.00002362,0.00001693,0.00004014,-0.00004351,-0.00011803,
 -0.00002070,0.00144777,-0.00002267,0.00111203,0.00175362,-0.27234443,0
 .25634595,-0.00003263,0.00034734,-0.00054903,-0.00000233,0.00001131,-0
 .00001966,-0.00015238,-0.00007732,0.00009502,0.00012733,0.00002282,-0.
 00007215,-0.00002711,-0.00000360,-0.00000700,-0.00001430,0.00001565,-0
 .00002152,-0.00000950,-0.00000295,0.00000651,0.00000323,0.00000492,-0.
 00000684,0.00018663,-0.00004086,0.00033075,0.00004777,0.00005329,-0.00
 000407,0.00085530,-0.00154002,0.00161517,0.00002526,-0.00007115,0.0000
 0842,0.00000075,0.00000816,-0.00000043,0.00005048,-0.00013297,-0.00003
 371,-0.00001866,-0.00012691,0.00004901,-0.00065037,-0.00009326,0.00025
 735,-0.00001076,0.00004179,0.00006153,0.00000771,0.00000805,-0.0000048
 7,0.00000217,-0.00000239,-0.00000676,-0.00000441,-0.00000113,0.0000037
 0,0.00000113,-0.00000470,0.00003832,-0.00019094,0.00005038,0.00007354,
 0.00070509,-0.00018134,-0.00118033,0.00028802,-0.00027414,0.00044618,0
 .00005021,-0.00004425,-0.00007667,-0.00003569,0.00000197,0.00005877,-0
 .00003014,0.00007891,-0.00017484,0.00000727,-0.00002734,0.00005514,-0.
 00000080,0.00001756,0.00003159,0.00000080,0.00002070,0.00005998,0.0000
 0985,0.00000077,-0.00000234,0.00001018,-0.00000049,0.00001116,-0.00001
 144,-0.00002392,-0.00000119,0.00001058,-0.00000556,0.00000982,-0.00001
 906,0.00001487,-0.00000442,-0.00000332,0.00000737,-0.00000796,0.000002
 47,-0.00001033,0.00000590,-0.00000261,0.00000563,-0.00000616,0.0000025
 2,-0.00000922,0.00000507,-0.00004423,0.00008623,-0.00005554,0.00011308
 ,0.00009459,-0.00004953,0.00000625,0.00014834,0.00010244,0.00002411,-0
 .00010336,0.00152041,-0.00308752,0.26052041,0.00004886,0.00000192,-0.0
 0007890,-0.00018947,0.00008982,0.00025382,0.00003971,0.00006759,0.0000
 5844,-0.00014461,0.00025223,0.00090106,0.00001612,-0.00004826,-0.00017
 597,-0.00003840,0.00000058,0.00003805,-0.00014491,0.00011638,0.0000454
 8,0.00017733,-0.00016840,0.00002159,0.00001379,0.00001199,-0.00005243,
 0.00150009,-0.00080937,-0.00066340,-0.00005774,-0.00005096,-0.00026587
 ,0.00017533,-0.00010254,-0.00014958,-0.00007876,-0.00000961,-0.0000546
 1,-0.00022408,0.00016262,0.00030872,0.00005598,-0.00010421,-0.00027739
 ,0.00029821,-0.00036382,0.00009597,-0.00005987,0.00038625,-0.00029043,
 0.00011592,-0.00027747,0.00013032,-0.00004435,0.00019152,-0.00000031,-
 0.00000565,0.00001742,-0.00003126,0.00003450,-0.00005233,0.00003013,-0
 .00006414,-0.00042809,0.00099271,0.00032477,-0.00550247,-0.00518793,-0
 .00059019,0.02345768,-0.03272280,-0.00143759,0.00077725,-0.00017120,0.
 00013613,0.00055317,-0.00145496,-0.00009392,-0.00038806,0.00056985,0.0
 0026270,0.00206202,-0.00087870,0.00010724,-0.00059985,-0.00039451,-0.0
 0007628,0.00000206,0.00013658,0.00044494,0.00053302,0.00085518,0.00005
 754,-0.00027289,-0.00029273,-0.00003517,0.00003348,0.00007468,0.000004
 12,0.00001513,-0.00002199,0.00000212,0.00000199,-0.00000114,-0.0000550
 9,-0.00002494,-0.00002575,0.00004213,-0.00002185,0.00002506,0.00073556
 ,0.00064998,-0.00053064,0.00469207,0.20925295,-0.28394601,-0.00026217,
 -0.00036177,-0.00030094,-0.00000452,-0.00000227,-0.00001907,-0.0000174
 4,-0.00003861,0.00011069,0.00012699,-0.00001349,-0.00020631,0.00007356
 ,-0.00002292,0.00000093,0.00000177,-0.00000095,-0.00001473,0.00001898,
 -0.00000253,-0.00000054,0.00001323,-0.00001488,-0.00000779,-0.00014013
 ,0.00010921,-0.00010854,0.00001365,-0.00002448,0.00003727,-0.00234983,
 0.00112831,0.00103473,0.00003005,-0.00004963,0.00005792,0.00002552,-0.
 00002017,0.00000741,0.00001684,-0.00011819,-0.00002129,-0.00001127,0.0
 0000891,0.00013614,-0.00018963,0.00067381,-0.00011609,-0.00002674,-0.0
 0002300,0.00005179,-0.00000616,-0.00002702,-0.00000635,-0.00000293,0.0
 0000337,0.00000378,0.00001176,-0.00001154,0.00000254,-0.00003204,0.000
 03894,-0.00001048,-0.00003541,-0.00023918,0.00047021,0.00064853,0.0006
 2429,0.00127084,-0.00009095,-0.00009237,-0.00000196,0.00003749,-0.0000
 0149,0.00006818,0.00003764,-0.00003794,-0.00004859,-0.00002217,0.00014
 067,-0.00013917,0.00000975,-0.00001974,0.00001905,-0.00002808,0.000027
 72,-0.00003192,-0.00000798,0.00002457,0.00004621,-0.00001237,0.0000271
 8,0.00002526,0.00004347,0.00001033,0.00001469,0.00000639,-0.00000748,-
 0.00001393,0.00002330,-0.00000227,0.00001776,-0.00003296,0.00000610,0.
 00001270,0.00000102,0.00000439,-0.00002321,0.00000933,0.00000117,0.000
 00726,0.00000799,0.00000425,-0.00000103,0.00000666,-0.00000133,0.00000
 877,-0.00010068,0.00003358,-0.00007199,0.00001000,0.00004632,-0.000047
 03,-0.00002340,0.00005519,0.00001907,-0.00004781,0.00003213,0.00082672
 ,-0.00430435,-0.23178080,0.31948211,0.00000092,-0.00009911,0.00014320,
 0.00020251,0.00011122,-0.00029694,-0.00039716,0.00017900,0.00011810,-0
 .00011829,0.00022112,0.00032761,-0.00012301,-0.00001193,-0.00006037,0.
 00002810,0.00006302,-0.00006063,-0.00007410,0.00004252,0.00001541,0.00
 012497,-0.00014313,0.00019176,0.00013300,0.00000321,0.00000988,0.00068
 860,-0.00040988,-0.00004429,0.00013995,-0.00027546,-0.00015412,-0.0000
 5140,-0.00058097,0.00043457,0.00061530,0.00252269,0.00014058,-0.005795
 27,0.00096606,-0.00488543,0.00014567,-0.00048459,-0.00007966,-0.002794
 07,0.03722763,-0.01037367,0.00049115,0.00043093,-0.00017890,-0.0002211
 5,-0.00023920,-0.00012787,-0.00001792,0.00011323,0.00024399,0.00012962
 ,0.00010473,-0.00003557,-0.00011080,-0.00016855,0.00005071,-0.00077978
 ,-0.00079266,0.00012590,0.00032334,0.00057210,-0.00045643,0.00066537,-
 0.00152439,-0.00306669,-0.00023594,0.00031095,0.00070101,0.00007920,0.
 00001514,-0.00054674,-0.00006209,-0.00008148,0.00015870,-0.00001454,-0
 .00025058,-0.00003018,-0.00001967,0.00017274,-0.00000651,0.00002163,-0
 .00011865,0.00007460,0.00017770,0.00028280,0.00035619,0.00001833,-0.00
 014382,-0.00015228,-0.00001235,0.00001701,0.00003010,-0.00000223,-0.00
 000044,-0.00001835,0.00000301,0.00000284,0.00000428,-0.00004597,-0.000
 02032,-0.00003524,0.00002155,0.00001944,0.00004460,0.00007359,0.000316
 35,0.00010454,0.00165036,0.00252036,0.00140085,-0.03251494,-0.06825968
 ,-0.00313977,0.00001109,-0.00002979,-0.00001591,0.00009308,0.00010974,
 0.00002402,-0.00002916,-0.00002815,-0.00000725,0.00003603,-0.00001073,
 0.00000544,0.00000688,-0.00001571,0.00001136,0.00000716,-0.00000022,-0
 .00001130,0.00001181,-0.00001174,0.00001116,-0.00018987,0.00013746,-0.
 00029206,-0.00005463,-0.00000221,0.00001987,-0.00097866,0.00030866,0.0
 0000921,-0.00000295,0.00008319,0.00000118,-0.00059793,0.00007362,-0.00
 038599,0.00010807,-0.00010213,-0.00011780,-0.00005759,0.00001661,0.000
 18880,0.00001184,0.00069484,0.00045154,-0.00009427,-0.00016856,0.00017
 240,-0.00001608,-0.00001081,-0.00000383,-0.00001770,-0.00000835,-0.000
 01102,0.00001253,-0.00002918,0.00000293,0.00005268,0.00007971,-0.00008
 686,-0.00018120,0.00002852,-0.00008540,-0.00007540,0.00034337,0.000348
 58,-0.00007382,-0.00005385,-0.00002024,0.00000388,0.00002601,0.0000476
 2,-0.00000484,0.00006520,0.00004621,0.00002133,-0.00002364,0.00005135,
 0.00000122,-0.00001919,0.00000437,-0.00000208,0.00011543,-0.00000740,-
 0.00000388,0.00000430,0.00002075,-0.00000542,0.00002024,0.00000812,0.0
 0001866,0.00000636,0.00001128,0.00000229,-0.00000652,-0.00000770,0.000
 01044,-0.00000047,0.00000643,-0.00001349,0.00000811,0.00001123,-0.0000
 0167,0.00000044,-0.00001377,0.00000772,0.00000385,0.00000560,0.0000027
 1,0.00000183,-0.00000092,0.00000472,0.00000044,0.00000619,-0.00004976,
 -0.00000331,-0.00004071,0.00000665,0.00002881,-0.00003594,-0.00001063,
 -0.00001680,-0.00004584,-0.00002643,-0.00007780,0.00004694,0.00018724,
 -0.00032791,0.00063017,0.03952625,-0.00038808,-0.00006032,-0.00004153,
 0.00046754,-0.00013549,-0.00021189,0.00030471,-0.00002959,-0.00007405,
 -0.00006493,0.00035022,0.00023234,0.00007122,-0.00001015,-0.00006197,0
 .00016902,0.00016829,0.00000322,-0.00005302,0.00003131,0.00001745,-0.0
 0000277,-0.00021109,0.00000739,-0.00008294,-0.00013319,0.00000328,0.00
 043157,-0.00070261,-0.00006730,-0.00019914,0.00000713,0.00011571,-0.00
 056958,0.00038164,0.00000352,0.00000465,-0.00063083,-0.00010946,0.0020
 9919,0.00009048,0.00101258,-0.00029932,0.00085797,0.00044332,-0.000502
 71,-0.01010887,0.00092341,-0.00083783,0.00280512,0.00109510,-0.0005162
 4,-0.00031532,-0.00163209,0.00010260,-0.00048193,0.00011051,0.00018509
 ,0.00008335,0.00006159,-0.00016340,-0.00018901,-0.00006112,-0.00050574
 ,-0.00180542,0.00052801,0.00007049,0.00068058,-0.00046241,-0.00054709,
 -0.00098410,-0.00228856,-0.00012193,0.00010920,0.00039478,-0.00008091,
 0.00011375,-0.00054025,-0.00000701,-0.00022435,0.00020683,0.00003079,-
 0.00017749,0.00006786,-0.00008173,0.00023195,-0.00001829,0.00010610,-0
 .00028541,0.00001311,0.00020647,0.00018552,0.00032180,-0.00000383,-0.0
 0010407,-0.00014380,-0.00001831,0.00001295,0.00002251,0.00000369,0.000
 00790,-0.00001188,-0.00000341,0.00000394,-0.00000166,-0.00000822,-0.00
 000252,0.00000290,0.00001544,-0.00006836,-0.00001427,0.00014917,0.0001
 4259,0.00013047,0.00276514,0.00019129,0.00090758,-0.02497153,-0.501713
 07,0.11110591,0.00000685,-0.00002894,0.00003505,0.00008687,0.00004701,
 -0.00008074,-0.00001218,-0.00001532,0.00000331,0.00003887,-0.00000734,
 -0.00000445,-0.00002275,-0.00001434,-0.00000259,-0.00000697,-0.0000121
 0,-0.00001104,0.00001857,-0.00000304,0.00000670,-0.00001806,0.00014160
 ,-0.00008614,-0.00000790,0.00003000,0.00000130,-0.00063819,0.00089665,
 -0.00002564,0.00007725,-0.00005870,-0.00003977,0.00000527,0.00008145,0
 .00011832,-0.00003711,0.00033907,-0.00010995,-0.00025778,-0.00056866,0
 .00008906,-0.00202110,0.00103467,-0.00159884,0.00002964,-0.00011072,0.
 00004476,-0.00000928,0.00000537,0.00001806,-0.00001457,-0.00000733,-0.
 00001395,-0.00002918,-0.00001262,-0.00000293,0.00010327,0.00008016,0.0
 0000593,0.00007757,0.00005572,0.00011316,-0.00004645,-0.00022878,-0.00
 001802,0.00005567,0.00001651,0.00000490,0.00002535,-0.00001981,0.00002
 171,0.00001690,-0.00002886,-0.00005177,0.00001209,-0.00004359,0.000028
 98,-0.00001140,0.00002172,0.00003706,0.00001020,0.00027505,0.00009786,
 -0.00000831,0.00000913,0.00002002,0.00000039,0.00000721,0.00001301,0.0
 0001869,0.00000359,0.00000682,0.00000278,-0.00000850,-0.00000420,0.000
 01138,-0.00000293,0.00000815,-0.00001661,0.00000575,0.00000173,-0.0000
 0067,0.00000234,-0.00001276,0.00000546,-0.00000331,0.00000411,0.000004
 08,0.00000521,-0.00000361,0.00000293,-0.00000165,0.00000857,-0.0000680
 8,0.00004008,-0.00004116,0.00001010,0.00006002,-0.00003544,-0.00000744
 ,0.00012414,0.00006645,-0.00003742,-0.00005585,0.00005229,-0.00068204,
 -0.00045665,0.00050173,0.02618008,0.51032459,0.00001970,0.00005761,-0.
 00014590,-0.00025031,-0.00007014,0.00031030,0.00027874,-0.00001236,-0.
 00000068,-0.00003278,0.00006977,0.00013359,0.00005891,-0.00001074,0.00
 000555,0.00000472,-0.00001747,0.00005808,-0.00008046,0.00007076,0.0000
 3137,0.00008883,-0.00004502,-0.00014913,-0.00004616,-0.00001542,-0.000
 03691,0.00000777,-0.00007918,-0.00023487,-0.00012948,0.00010095,-0.000
 12972,0.00017071,-0.00006793,-0.00028400,0.00000782,0.00069131,0.00050
 991,-0.00232596,-0.00119849,-0.00279884,0.00121959,-0.00069204,0.00035
 748,-0.00025845,0.02738215,-0.00828643,-0.00206249,0.00497531,-0.00245
 290,0.00067779,-0.00127814,0.00021727,-0.00011089,0.00050803,0.0002270
 1,-0.00003058,-0.00008914,-0.00007396,0.00014050,-0.00006047,-0.000028
 50,0.00159122,-0.00058887,0.00247835,-0.00206562,-0.00142014,-0.000257
 49,-0.00099116,-0.00024450,0.00089031,-0.00003568,-0.00038487,-0.00023
 640,-0.00017894,-0.00037277,0.00028128,0.00034520,0.00051637,-0.000035
 72,-0.00011685,-0.00023097,-0.00020430,-0.00014795,0.00007505,-0.00006
 304,0.00026460,-0.00006269,0.00003901,0.00014278,0.00014102,-0.0000300
 5,-0.00002317,-0.00006795,-0.00004242,-0.00000708,-0.00000148,-0.00000
 018,0.00000313,0.00000199,0.00000300,-0.00000936,-0.00000096,0.0000053
 7,-0.00003639,-0.00002202,-0.00003157,0.00011450,0.00001426,-0.0000415
 6,0.00010200,0.00022705,-0.00028707,0.00005733,-0.00019889,-0.00318034
 ,-0.01448748,0.08336019,-0.03790255,-0.00001037,0.00001620,-0.00001373
 ,-0.00003684,-0.00008443,0.00011247,0.00004859,0.00002383,-0.00004750,
 0.00001042,-0.00000368,-0.00000495,-0.00000187,0.00000249,-0.00001333,
 0.00001408,-0.00000387,0.00000190,-0.00000021,-0.00000252,-0.00000704,
 0.00000844,-0.00002241,0.00015706,0.00001195,0.00000179,0.00000907,0.0
 0007413,0.00007093,0.00021782,0.00004311,-0.00009301,0.00008350,-0.000
 09852,0.00001139,-0.00016917,0.00013007,-0.00018676,-0.00001715,-0.000
 97062,0.00071246,0.00107717,-0.00026594,-0.00095180,0.00135405,0.00006
 126,0.00007285,-0.00004515,-0.00000383,-0.00007938,-0.00002045,-0.0000
 0997,0.00000959,-0.00001858,0.00005436,-0.00001771,0.00003878,-0.00010
 853,0.00000419,0.00008368,0.00026542,0.00009274,-0.00000381,0.00004596
 ,-0.00030118,-0.00003781,0.00004971,0.00007460,-0.00000224,-0.00000304
 ,0.00000521,-0.00002413,0.00001298,-0.00004261,-0.00001100,0.00003785,
 0.00000836,0.00003377,0.00001459,0.00003586,-0.00009440,-0.00008762,0.
 00009854,-0.00001414,-0.00000551,-0.00000428,-0.00001095,-0.00000349,0
 .00000855,0.00000562,0.00000446,-0.00000058,0.00000420,0.00000630,0.00
 000342,-0.00000591,0.00000870,0.00000296,0.00000323,-0.00000956,-0.000
 00047,0.00000470,0.00000426,-0.00000635,-0.00001149,0.00000480,0.00000
 332,0.00000123,0.00001273,0.00000504,0.00000311,-0.00000398,0.00000332
 ,0.00000262,-0.00004991,-0.00000704,0.00001335,-0.00018796,-0.00006895
 ,0.00004609,-0.00002668,0.00005045,0.00005664,-0.00001936,0.00001841,0
 .00002696,0.00099080,0.00073802,0.00058984,0.01812025,-0.11115671,0.04
 803269\\0.00000717,-0.00000489,0.00000266,-0.00000635,0.00000098,-0.00
 000528,0.00000767,0.00000139,0.00000553,0.00000034,-0.00000840,0.00000
 905,0.00000188,-0.00001141,0.00000256,-0.00000202,-0.00000303,0.000005
 47,0.00000527,-0.00000573,-0.00000080,0.00001255,0.00000024,0.00000969
 ,0.00000538,-0.00000071,0.00000394,0.00001080,0.00000119,-0.00001105,-
 0.00000133,-0.00000744,0.00000414,-0.00000520,-0.00000176,0.00000908,-
 0.00000426,0.00000079,-0.00000244,0.00000416,-0.00000011,0.00001047,-0
 .00000953,0.00000688,0.00000077,-0.00000926,0.00000189,-0.00001478,-0.
 00001377,-0.00000914,-0.00000476,0.00000469,0.00000446,0.00000396,-0.0
 0000162,-0.00000792,0.00000102,-0.00001427,-0.00000296,0.00000093,0.00
 000292,-0.00000139,0.00000746,0.00002118,0.00001418,-0.00000963,-0.000
 01897,-0.00000324,0.00000688,0.00000362,-0.00001116,-0.00001327,0.0000
 0236,0.00000418,0.00000159,-0.00000341,0.00000776,-0.00002245,0.000001
 87,0.00000025,0.00000619,-0.00000778,-0.00000698,-0.00001111,0.0000008
 9,0.00000001,-0.00000164,-0.00000146,0.00001428,-0.00001015,0.00000244
 ,0.00000506,0.00000334,0.00000157,-0.00000376,-0.00000882,0.00000353,0
 .00000154,-0.00000423,-0.00000024,0.00000180,-0.00000299,-0.00000098,-
 0.00000201,-0.00000199,0.00000033,0.00000779,0.00000645,-0.00000066,0.
 00000938,-0.00000475,0.00000812,-0.00000017,0.00000009,-0.00000626,0.0
 0000450,0.00000390,0.00001436,0.00000248,0.00000216,0.00000240,0.00000
 104,0.00000492,0.00000404,-0.00000536,0.00000228,0.00000510,-0.0000046
 1,0.00000389,0.00000233,-0.00000187,0.00000736,-0.00000229,-0.00000139
 ,0.00000523,-0.00000341,-0.00000179,0.00000620,-0.00000301,0.00000111,
 0.00000404,-0.00001150,0.00000121,-0.00000678,0.00000106,-0.00000749,0
 .00000609,-0.00000039,-0.00000168,0.00000287,0.00000596,-0.00000088,0.
 00000363,-0.00000435,0.00000201,0.00000092,0.00000068,0.00000388,-0.00
 000164,0.00000527,-0.00000732,0.00000087,0.00000029,0.00000024,0.00000
 178,0.00000413,0.00000542,-0.00000042,-0.00000077,0.00000790,0.0000018
 8,-0.00000389,0.00000332,0.00000084,-0.00000262,0.00000640,0.00000522,
 -0.00000362,0.00000303,-0.00000218,-0.00000155,0.00000103,-0.00000052,
 0.00000307,0.00000009,-0.00000692,0.00000025,0.00000307,-0.00000080,0.
 00000860,-0.00000279,-0.00000101,0.00000338,0.00000042,-0.00000185,-0.
 00000273,0.00000447,-0.00000429,-0.00000085,0.00000370,-0.00000148,-0.
 00000770,-0.00000619,0.00000226,0.00000084,0.00000286,-0.00000481,0.00
 000198,0.00000045,-0.00000459,0.00000089,-0.00000048,-0.00000423,0.000
 00140,-0.00000158,-0.00000129,-0.00000130,0.00000031,0.00000038,0.0000
 0113,-0.00000003,0.00000275,-0.00000082,0.00000353,-0.00000161,-0.0000
 0445,0.00000176,-0.00000028,-0.00000375,-0.00000013,0.00000138,-0.0000
 0264,0.00000024,-0.00000225,0.00000047,-0.00000013,0.00000157,0.000002
 27,-0.00000006,0.00000698,-0.00001147,-0.00000618,0.00000810,0.0000002
 6,-0.00000527,-0.00000646,0.00000417,-0.00000013,-0.00000217,-0.000002
 59,-0.00000095,-0.00000307\\\@


 WE STILL HAVE JUDGEMENT HERE,
 THAT WE TEACH BUT BLOODY INSTRUCTIONS,
 WHICH, BEING TAUGHT,
 RETURN TO PLAGUE THE INVENTOR.
           MACBETH ACT I, SCENE VII
 Job cpu time:      20 days 15 hours 33 minutes 30.2 seconds.
 File lengths (MBytes):  RWF=  17251 Int=      0 D2E=      0 Chk=     97 Scr=      1
 Normal termination of Gaussian 09 at Thu Jun  9 19:08:13 2016.
