 Entering Gaussian System, Link 0=g16
 Input=input.com
 Output=input.log
 Initial command:
 /home/matma/Programs/gaussian/G16_x86_SSE4/tar/g16/l1.exe "/scratch-data/gaussian/Gau-23198.inp" -scrdir="/scratch-data/gaussian/"
 Entering Link 1 = /home/matma/Programs/gaussian/G16_x86_SSE4/tar/g16/l1.exe PID=     23201.
  
 Copyright (c) 1988-2017, Gaussian, Inc.  All Rights Reserved.
  
 This is part of the Gaussian(R) 16 program.  It is based on
 the Gaussian(R) 09 system (copyright 2009, Gaussian, Inc.),
 the Gaussian(R) 03 system (copyright 2003, Gaussian, Inc.),
 the Gaussian(R) 98 system (copyright 1998, Gaussian, Inc.),
 the Gaussian(R) 94 system (copyright 1995, Gaussian, Inc.),
 the Gaussian 92(TM) system (copyright 1992, Gaussian, Inc.),
 the Gaussian 90(TM) system (copyright 1990, Gaussian, Inc.),
 the Gaussian 88(TM) system (copyright 1988, Gaussian, Inc.),
 the Gaussian 86(TM) system (copyright 1986, Carnegie Mellon
 University), and the Gaussian 82(TM) system (copyright 1983,
 Carnegie Mellon University). Gaussian is a federally registered
 trademark of Gaussian, Inc.
  
 This software contains proprietary and confidential information,
 including trade secrets, belonging to Gaussian, Inc.
  
 This software is provided under written license and may be
 used, copied, transmitted, or stored only in accord with that
 written license.
  
 The following legend is applicable only to US Government
 contracts under FAR:
  
                    RESTRICTED RIGHTS LEGEND
  
 Use, reproduction and disclosure by the US Government is
 subject to restrictions as set forth in subparagraphs (a)
 and (c) of the Commercial Computer Software - Restricted
 Rights clause in FAR 52.227-19.
  
 Gaussian, Inc.
 340 Quinnipiac St., Bldg. 40, Wallingford CT 06492
  
  
 ---------------------------------------------------------------
 Warning -- This program may not be used in any manner that
 competes with the business of Gaussian, Inc. or will provide
 assistance to any competitor of Gaussian, Inc.  The licensee
 of this program is prohibited from giving any competitor of
 Gaussian, Inc. access to this program.  By using this program,
 the user acknowledges that Gaussian, Inc. is engaged in the
 business of creating and licensing software in the field of
 computational chemistry and represents and warrants to the
 licensee that it is not a competitor of Gaussian, Inc. and that
 it will not use this program in any manner prohibited above.
 ---------------------------------------------------------------
  

 Cite this work as:
 Gaussian 16, Revision B.01,
 M. J. Frisch, G. W. Trucks, H. B. Schlegel, G. E. Scuseria, 
 M. A. Robb, J. R. Cheeseman, G. Scalmani, V. Barone, 
 G. A. Petersson, H. Nakatsuji, X. Li, M. Caricato, A. V. Marenich, 
 J. Bloino, B. G. Janesko, R. Gomperts, B. Mennucci, H. P. Hratchian, 
 J. V. Ortiz, A. F. Izmaylov, J. L. Sonnenberg, D. Williams-Young, 
 F. Ding, F. Lipparini, F. Egidi, J. Goings, B. Peng, A. Petrone, 
 T. Henderson, D. Ranasinghe, V. G. Zakrzewski, J. Gao, N. Rega, 
 G. Zheng, W. Liang, M. Hada, M. Ehara, K. Toyota, R. Fukuda, 
 J. Hasegawa, M. Ishida, T. Nakajima, Y. Honda, O. Kitao, H. Nakai, 
 T. Vreven, K. Throssell, J. A. Montgomery, Jr., J. E. Peralta, 
 F. Ogliaro, M. J. Bearpark, J. J. Heyd, E. N. Brothers, K. N. Kudin, 
 V. N. Staroverov, T. A. Keith, R. Kobayashi, J. Normand, 
 K. Raghavachari, A. P. Rendell, J. C. Burant, S. S. Iyengar, 
 J. Tomasi, M. Cossi, J. M. Millam, M. Klene, C. Adamo, R. Cammi, 
 J. W. Ochterski, R. L. Martin, K. Morokuma, O. Farkas, 
 J. B. Foresman, and D. J. Fox, Gaussian, Inc., Wallingford CT, 2016.
 
 ******************************************
 Gaussian 16:  ES64L-G16RevB.01 20-Dec-2017
                22-Jun-2021 
 ******************************************
 %nproc=12
 Will use up to   12 processors via shared memory.
 %mem=16GB
 --------------------------------------
 #P pm6 opt=loose freq int=(grid=99590)
 --------------------------------------
 1/7=-1,18=20,19=15,26=1,38=1/1,3;
 2/9=110,12=2,17=6,18=5,40=1/2;
 3/5=2,25=1,41=3900000,71=1,75=99590/1,2,3;
 4/35=1/1;
 5/5=2,35=1,38=5/2;
 6/7=2,8=2,9=2,10=2,28=1/1;
 7//1,2,3,16;
 1/7=-1,18=20,19=15,26=1/3(2);
 2/9=110/2;
 99//99;
 2/9=110/2;
 3/5=2,25=1,41=3900000,71=1,75=99590,135=20/1,2,3;
 4/5=5,16=3,35=1/1;
 5/5=2,35=1,38=5/2;
 7//1,2,3,16;
 1/7=-1,18=20,19=15,26=1/3(-5);
 2/9=110/2;
 6/7=2,8=2,9=2,10=2,19=2,28=1/1;
 99/9=1/99;
 Leave Link    1 at Tue Jun 22 14:21:01 2021, MaxMem=  2147483648 cpu:               0.2 elap:               0.0
 (Enter /home/matma/Programs/gaussian/G16_x86_SSE4/tar/g16/l101.exe)
 ------------
 offspring-01
 ------------
 Symbolic Z-matrix:
 Charge =  0 Multiplicity = 1
 O                     1.964     0.956     0.206 
 C                     2.445     2.126     0.881 
 C                     3.127     1.707     2.203 
 O                     3.988     0.63      1.811 
 C                     2.07      1.193     3.204 
 C                     1.086     2.332     3.534 
 O                     1.056     3.347     2.536 
 C                     1.213     3.022     1.138 
 C                    -0.098     2.419     0.616 
 O                    -1.207     3.117     1.212 
 O                    -1.369     0.32      7.958 
 C                    -1.705     1.439     7.119 
 C                    -0.593     1.614     6.061 
 C                    -1.032     2.517     4.886 
 C                    -2.525     2.38      4.481 
 O                    -3.428     2.091     5.551 
 C                    -3.045     1.045     6.476 
 C                    -4.22      1.021     7.477 
 O                    -3.788     1.166     8.825 
 O                    -2.991     3.656     4.047 
 O                    -0.288     1.994     3.765 
 O                     0.437     2.259     6.801 
 O                     2.802     0.88      4.391 
 H                     3.178     2.625     0.206 
 H                     3.745     2.518     2.648 
 H                     4.348     0.189     2.621 
 H                     1.565     0.279     2.809 
 H                     1.352     2.916     4.452 
 H                     1.373     4.052     0.73 
 H                    -0.227     2.567    -0.472 
 H                    -0.195     1.34      0.851 
 H                    -0.975     3.338     2.17 
 H                    -1.797     2.353     7.755 
 H                    -0.232     0.631     5.677 
 H                    -0.762     3.58      5.088 
 H                    -2.684     1.677     3.637 
 H                    -2.958     0.091     5.912 
 H                    -4.886     1.897     7.321 
 H                    -4.803     0.088     7.379 
 H                    -3.097     0.483     9.043 
 H                     1.339     2.164     6.331 
 H                    -0.509     0.508     8.412 
 H                     2.369     0.113     4.859 
 H                    -3.576     4.063     4.739 
 H                     2.678     0.262     0.202 
 
 ITRead=  0  0  0  0  0  0  0  0  0  0  0  0  0  0  0  0  0  0  0  0
 ITRead=  0  0  0  0  0  0  0  0  0  0  0  0  0  0  0  0  0  0  0  0
 ITRead=  0  0  0  0  0
 MicOpt= -1 -1 -1 -1 -1 -1 -1 -1 -1 -1 -1 -1 -1 -1 -1 -1 -1 -1 -1 -1
 MicOpt= -1 -1 -1 -1 -1 -1 -1 -1 -1 -1 -1 -1 -1 -1 -1 -1 -1 -1 -1 -1
 MicOpt= -1 -1 -1 -1 -1
 NAtoms=     45 NQM=       45 NQMF=       0 NMMI=      0 NMMIF=      0
                NMic=       0 NMicF=      0.
                    Isotopes and Nuclear Properties:
 (Nuclear quadrupole moments (NQMom) in fm**2, nuclear magnetic moments (NMagM)
  in nuclear magnetons)

  Atom         1           2           3           4           5           6           7           8           9          10
 IAtWgt=          16          12          12          16          12          12          16          12          12          16
 AtmWgt=  15.9949146  12.0000000  12.0000000  15.9949146  12.0000000  12.0000000  15.9949146  12.0000000  12.0000000  15.9949146
 NucSpn=           0           0           0           0           0           0           0           0           0           0
 AtZEff=  -0.0000000  -0.0000000  -0.0000000  -0.0000000  -0.0000000  -0.0000000  -0.0000000  -0.0000000  -0.0000000  -0.0000000
 NQMom=    0.0000000   0.0000000   0.0000000   0.0000000   0.0000000   0.0000000   0.0000000   0.0000000   0.0000000   0.0000000
 NMagM=    0.0000000   0.0000000   0.0000000   0.0000000   0.0000000   0.0000000   0.0000000   0.0000000   0.0000000   0.0000000
 AtZNuc=   8.0000000   6.0000000   6.0000000   8.0000000   6.0000000   6.0000000   8.0000000   6.0000000   6.0000000   8.0000000

  Atom        11          12          13          14          15          16          17          18          19          20
 IAtWgt=          16          12          12          12          12          16          12          12          16          16
 AtmWgt=  15.9949146  12.0000000  12.0000000  12.0000000  12.0000000  15.9949146  12.0000000  12.0000000  15.9949146  15.9949146
 NucSpn=           0           0           0           0           0           0           0           0           0           0
 AtZEff=  -0.0000000  -0.0000000  -0.0000000  -0.0000000  -0.0000000  -0.0000000  -0.0000000  -0.0000000  -0.0000000  -0.0000000
 NQMom=    0.0000000   0.0000000   0.0000000   0.0000000   0.0000000   0.0000000   0.0000000   0.0000000   0.0000000   0.0000000
 NMagM=    0.0000000   0.0000000   0.0000000   0.0000000   0.0000000   0.0000000   0.0000000   0.0000000   0.0000000   0.0000000
 AtZNuc=   8.0000000   6.0000000   6.0000000   6.0000000   6.0000000   8.0000000   6.0000000   6.0000000   8.0000000   8.0000000

  Atom        21          22          23          24          25          26          27          28          29          30
 IAtWgt=          16          16          16           1           1           1           1           1           1           1
 AtmWgt=  15.9949146  15.9949146  15.9949146   1.0078250   1.0078250   1.0078250   1.0078250   1.0078250   1.0078250   1.0078250
 NucSpn=           0           0           0           1           1           1           1           1           1           1
 AtZEff=  -0.0000000  -0.0000000  -0.0000000  -0.0000000  -0.0000000  -0.0000000  -0.0000000  -0.0000000  -0.0000000  -0.0000000
 NQMom=    0.0000000   0.0000000   0.0000000   0.0000000   0.0000000   0.0000000   0.0000000   0.0000000   0.0000000   0.0000000
 NMagM=    0.0000000   0.0000000   0.0000000   2.7928460   2.7928460   2.7928460   2.7928460   2.7928460   2.7928460   2.7928460
 AtZNuc=   8.0000000   8.0000000   8.0000000   1.0000000   1.0000000   1.0000000   1.0000000   1.0000000   1.0000000   1.0000000

  Atom        31          32          33          34          35          36          37          38          39          40
 IAtWgt=           1           1           1           1           1           1           1           1           1           1
 AtmWgt=   1.0078250   1.0078250   1.0078250   1.0078250   1.0078250   1.0078250   1.0078250   1.0078250   1.0078250   1.0078250
 NucSpn=           1           1           1           1           1           1           1           1           1           1
 AtZEff=  -0.0000000  -0.0000000  -0.0000000  -0.0000000  -0.0000000  -0.0000000  -0.0000000  -0.0000000  -0.0000000  -0.0000000
 NQMom=    0.0000000   0.0000000   0.0000000   0.0000000   0.0000000   0.0000000   0.0000000   0.0000000   0.0000000   0.0000000
 NMagM=    2.7928460   2.7928460   2.7928460   2.7928460   2.7928460   2.7928460   2.7928460   2.7928460   2.7928460   2.7928460
 AtZNuc=   1.0000000   1.0000000   1.0000000   1.0000000   1.0000000   1.0000000   1.0000000   1.0000000   1.0000000   1.0000000

  Atom        41          42          43          44          45
 IAtWgt=           1           1           1           1           1
 AtmWgt=   1.0078250   1.0078250   1.0078250   1.0078250   1.0078250
 NucSpn=           1           1           1           1           1
 AtZEff=  -0.0000000  -0.0000000  -0.0000000  -0.0000000  -0.0000000
 NQMom=    0.0000000   0.0000000   0.0000000   0.0000000   0.0000000
 NMagM=    2.7928460   2.7928460   2.7928460   2.7928460   2.7928460
 AtZNuc=   1.0000000   1.0000000   1.0000000   1.0000000   1.0000000
 Leave Link  101 at Tue Jun 22 14:21:01 2021, MaxMem=  2147483648 cpu:               2.5 elap:               0.2
 (Enter /home/matma/Programs/gaussian/G16_x86_SSE4/tar/g16/l103.exe)

 GradGradGradGradGradGradGradGradGradGradGradGradGradGradGradGradGradGrad
 Berny optimization.
 Initialization pass.
                           ----------------------------
                           !    Initial Parameters    !
                           ! (Angstroms and Degrees)  !
 --------------------------                            --------------------------
 ! Name  Definition              Value          Derivative Info.                !
 --------------------------------------------------------------------------------
 ! R1    R(1,2)                  1.4338         estimate D2E/DX2                !
 ! R2    R(1,45)                 0.9957         estimate D2E/DX2                !
 ! R3    R(2,3)                  1.5454         estimate D2E/DX2                !
 ! R4    R(2,8)                  1.5449         estimate D2E/DX2                !
 ! R5    R(2,24)                 1.1144         estimate D2E/DX2                !
 ! R6    R(3,4)                  1.4335         estimate D2E/DX2                !
 ! R7    R(3,5)                  1.5438         estimate D2E/DX2                !
 ! R8    R(3,25)                 1.1125         estimate D2E/DX2                !
 ! R9    R(4,26)                 0.99           estimate D2E/DX2                !
 ! R10   R(5,6)                  1.5409         estimate D2E/DX2                !
 ! R11   R(5,23)                 1.4293         estimate D2E/DX2                !
 ! R12   R(5,27)                 1.1164         estimate D2E/DX2                !
 ! R13   R(6,7)                  1.4238         estimate D2E/DX2                !
 ! R14   R(6,21)                 1.4337         estimate D2E/DX2                !
 ! R15   R(6,28)                 1.1201         estimate D2E/DX2                !
 ! R16   R(7,8)                  1.4438         estimate D2E/DX2                !
 ! R17   R(8,9)                  1.5345         estimate D2E/DX2                !
 ! R18   R(8,29)                 1.1194         estimate D2E/DX2                !
 ! R19   R(9,10)                 1.4395         estimate D2E/DX2                !
 ! R20   R(9,30)                 1.1056         estimate D2E/DX2                !
 ! R21   R(9,31)                 1.1085         estimate D2E/DX2                !
 ! R22   R(10,32)                1.0102         estimate D2E/DX2                !
 ! R23   R(11,12)                1.4384         estimate D2E/DX2                !
 ! R24   R(11,42)                0.9905         estimate D2E/DX2                !
 ! R25   R(12,13)                1.5448         estimate D2E/DX2                !
 ! R26   R(12,17)                1.5376         estimate D2E/DX2                !
 ! R27   R(12,33)                1.1173         estimate D2E/DX2                !
 ! R28   R(13,14)                1.5456         estimate D2E/DX2                !
 ! R29   R(13,22)                1.4229         estimate D2E/DX2                !
 ! R30   R(13,34)                1.1154         estimate D2E/DX2                !
 ! R31   R(14,15)                1.553          estimate D2E/DX2                !
 ! R32   R(14,21)                1.4435         estimate D2E/DX2                !
 ! R33   R(14,35)                1.1152         estimate D2E/DX2                !
 ! R34   R(15,16)                1.4296         estimate D2E/DX2                !
 ! R35   R(15,20)                1.4261         estimate D2E/DX2                !
 ! R36   R(15,36)                1.1099         estimate D2E/DX2                !
 ! R37   R(16,17)                1.4479         estimate D2E/DX2                !
 ! R38   R(17,18)                1.5438         estimate D2E/DX2                !
 ! R39   R(17,37)                1.1117         estimate D2E/DX2                !
 ! R40   R(18,19)                1.4229         estimate D2E/DX2                !
 ! R41   R(18,38)                1.1114         estimate D2E/DX2                !
 ! R42   R(18,39)                1.1045         estimate D2E/DX2                !
 ! R43   R(19,40)                0.9957         estimate D2E/DX2                !
 ! R44   R(20,44)                0.9933         estimate D2E/DX2                !
 ! R45   R(22,41)                1.0215         estimate D2E/DX2                !
 ! R46   R(23,43)                0.9974         estimate D2E/DX2                !
 ! A1    A(2,1,45)             109.2734         estimate D2E/DX2                !
 ! A2    A(1,2,3)              109.2391         estimate D2E/DX2                !
 ! A3    A(1,2,8)              106.502          estimate D2E/DX2                !
 ! A4    A(1,2,24)             107.5107         estimate D2E/DX2                !
 ! A5    A(3,2,8)              111.5222         estimate D2E/DX2                !
 ! A6    A(3,2,24)             110.4425         estimate D2E/DX2                !
 ! A7    A(8,2,24)             111.4443         estimate D2E/DX2                !
 ! A8    A(2,3,4)              103.5817         estimate D2E/DX2                !
 ! A9    A(2,3,5)              110.0456         estimate D2E/DX2                !
 ! A10   A(2,3,25)             112.9338         estimate D2E/DX2                !
 ! A11   A(4,3,5)              109.7789         estimate D2E/DX2                !
 ! A12   A(4,3,25)             108.8701         estimate D2E/DX2                !
 ! A13   A(5,3,25)             111.3265         estimate D2E/DX2                !
 ! A14   A(3,4,26)             109.2283         estimate D2E/DX2                !
 ! A15   A(3,5,6)              109.2666         estimate D2E/DX2                !
 ! A16   A(3,5,23)             105.1143         estimate D2E/DX2                !
 ! A17   A(3,5,27)             110.6621         estimate D2E/DX2                !
 ! A18   A(6,5,23)             108.1234         estimate D2E/DX2                !
 ! A19   A(6,5,27)             113.0824         estimate D2E/DX2                !
 ! A20   A(23,5,27)            110.2558         estimate D2E/DX2                !
 ! A21   A(5,6,7)              112.9723         estimate D2E/DX2                !
 ! A22   A(5,6,21)             118.1791         estimate D2E/DX2                !
 ! A23   A(5,6,28)             114.1589         estimate D2E/DX2                !
 ! A24   A(7,6,21)             105.1184         estimate D2E/DX2                !
 ! A25   A(7,6,28)             101.9936         estimate D2E/DX2                !
 ! A26   A(21,6,28)            102.6189         estimate D2E/DX2                !
 ! A27   A(6,7,8)              121.0603         estimate D2E/DX2                !
 ! A28   A(2,8,7)              112.2307         estimate D2E/DX2                !
 ! A29   A(2,8,9)              113.3787         estimate D2E/DX2                !
 ! A30   A(2,8,29)             111.042          estimate D2E/DX2                !
 ! A31   A(7,8,9)              108.9607         estimate D2E/DX2                !
 ! A32   A(7,8,29)              99.2847         estimate D2E/DX2                !
 ! A33   A(9,8,29)             111.0824         estimate D2E/DX2                !
 ! A34   A(8,9,10)             109.074          estimate D2E/DX2                !
 ! A35   A(8,9,30)             112.4478         estimate D2E/DX2                !
 ! A36   A(8,9,31)             112.6513         estimate D2E/DX2                !
 ! A37   A(10,9,30)            104.6338         estimate D2E/DX2                !
 ! A38   A(10,9,31)            108.4679         estimate D2E/DX2                !
 ! A39   A(30,9,31)            109.1905         estimate D2E/DX2                !
 ! A40   A(9,10,32)            108.7711         estimate D2E/DX2                !
 ! A41   A(12,11,42)           108.8153         estimate D2E/DX2                !
 ! A42   A(11,12,13)           108.6299         estimate D2E/DX2                !
 ! A43   A(11,12,17)           104.3679         estimate D2E/DX2                !
 ! A44   A(11,12,33)           108.8812         estimate D2E/DX2                !
 ! A45   A(13,12,17)           111.7116         estimate D2E/DX2                !
 ! A46   A(13,12,33)           110.8821         estimate D2E/DX2                !
 ! A47   A(17,12,33)           112.0797         estimate D2E/DX2                !
 ! A48   A(12,13,14)           112.4817         estimate D2E/DX2                !
 ! A49   A(12,13,22)           102.4883         estimate D2E/DX2                !
 ! A50   A(12,13,34)           111.649          estimate D2E/DX2                !
 ! A51   A(14,13,22)           109.6426         estimate D2E/DX2                !
 ! A52   A(14,13,34)           110.1885         estimate D2E/DX2                !
 ! A53   A(22,13,34)           110.1373         estimate D2E/DX2                !
 ! A54   A(13,14,15)           114.8208         estimate D2E/DX2                !
 ! A55   A(13,14,21)           103.4331         estimate D2E/DX2                !
 ! A56   A(13,14,35)           110.5138         estimate D2E/DX2                !
 ! A57   A(15,14,21)           105.1302         estimate D2E/DX2                !
 ! A58   A(15,14,35)           111.3508         estimate D2E/DX2                !
 ! A59   A(21,14,35)           111.1759         estimate D2E/DX2                !
 ! A60   A(14,15,16)           115.4597         estimate D2E/DX2                !
 ! A61   A(14,15,20)           108.3353         estimate D2E/DX2                !
 ! A62   A(14,15,36)           113.0735         estimate D2E/DX2                !
 ! A63   A(16,15,20)           101.6688         estimate D2E/DX2                !
 ! A64   A(16,15,36)           110.5254         estimate D2E/DX2                !
 ! A65   A(20,15,36)           106.7685         estimate D2E/DX2                !
 ! A66   A(15,16,17)           117.2006         estimate D2E/DX2                !
 ! A67   A(12,17,16)           108.2138         estimate D2E/DX2                !
 ! A68   A(12,17,18)           113.3367         estimate D2E/DX2                !
 ! A69   A(12,17,37)           111.3374         estimate D2E/DX2                !
 ! A70   A(16,17,18)           102.9523         estimate D2E/DX2                !
 ! A71   A(16,17,37)           108.4542         estimate D2E/DX2                !
 ! A72   A(18,17,37)           112.0367         estimate D2E/DX2                !
 ! A73   A(17,18,19)           112.4333         estimate D2E/DX2                !
 ! A74   A(17,18,38)           110.6602         estimate D2E/DX2                !
 ! A75   A(17,18,39)           110.9372         estimate D2E/DX2                !
 ! A76   A(19,18,38)           103.5666         estimate D2E/DX2                !
 ! A77   A(19,18,39)           109.2916         estimate D2E/DX2                !
 ! A78   A(38,18,39)           109.6962         estimate D2E/DX2                !
 ! A79   A(18,19,40)           110.3766         estimate D2E/DX2                !
 ! A80   A(15,20,44)           110.3065         estimate D2E/DX2                !
 ! A81   A(6,21,14)            122.2531         estimate D2E/DX2                !
 ! A82   A(13,22,41)           110.9619         estimate D2E/DX2                !
 ! A83   A(5,23,43)            109.6185         estimate D2E/DX2                !
 ! D1    D(45,1,2,3)           -46.7431         estimate D2E/DX2                !
 ! D2    D(45,1,2,8)          -167.3168         estimate D2E/DX2                !
 ! D3    D(45,1,2,24)           73.1255         estimate D2E/DX2                !
 ! D4    D(1,2,3,4)             47.6974         estimate D2E/DX2                !
 ! D5    D(1,2,3,5)            -69.6074         estimate D2E/DX2                !
 ! D6    D(1,2,3,25)           165.3109         estimate D2E/DX2                !
 ! D7    D(8,2,3,4)            165.1511         estimate D2E/DX2                !
 ! D8    D(8,2,3,5)             47.8463         estimate D2E/DX2                !
 ! D9    D(8,2,3,25)           -77.2354         estimate D2E/DX2                !
 ! D10   D(24,2,3,4)           -70.349          estimate D2E/DX2                !
 ! D11   D(24,2,3,5)           172.3462         estimate D2E/DX2                !
 ! D12   D(24,2,3,25)           47.2645         estimate D2E/DX2                !
 ! D13   D(1,2,8,7)            123.9412         estimate D2E/DX2                !
 ! D14   D(1,2,8,9)             -0.052          estimate D2E/DX2                !
 ! D15   D(1,2,8,29)          -125.939          estimate D2E/DX2                !
 ! D16   D(3,2,8,7)              4.8465         estimate D2E/DX2                !
 ! D17   D(3,2,8,9)           -119.1467         estimate D2E/DX2                !
 ! D18   D(3,2,8,29)           114.9663         estimate D2E/DX2                !
 ! D19   D(24,2,8,7)          -119.0895         estimate D2E/DX2                !
 ! D20   D(24,2,8,9)           116.9173         estimate D2E/DX2                !
 ! D21   D(24,2,8,29)           -8.9697         estimate D2E/DX2                !
 ! D22   D(2,3,4,26)          -169.961          estimate D2E/DX2                !
 ! D23   D(5,3,4,26)           -52.4698         estimate D2E/DX2                !
 ! D24   D(25,3,4,26)           69.6266         estimate D2E/DX2                !
 ! D25   D(2,3,5,6)            -62.3082         estimate D2E/DX2                !
 ! D26   D(2,3,5,23)          -178.1403         estimate D2E/DX2                !
 ! D27   D(2,3,5,27)            62.8392         estimate D2E/DX2                !
 ! D28   D(4,3,5,6)           -175.69           estimate D2E/DX2                !
 ! D29   D(4,3,5,23)            68.4779         estimate D2E/DX2                !
 ! D30   D(4,3,5,27)           -50.5427         estimate D2E/DX2                !
 ! D31   D(25,3,5,6)            63.6886         estimate D2E/DX2                !
 ! D32   D(25,3,5,23)          -52.1435         estimate D2E/DX2                !
 ! D33   D(25,3,5,27)         -171.1641         estimate D2E/DX2                !
 ! D34   D(3,5,6,7)             21.9387         estimate D2E/DX2                !
 ! D35   D(3,5,6,21)           145.2007         estimate D2E/DX2                !
 ! D36   D(3,5,6,28)           -94.0065         estimate D2E/DX2                !
 ! D37   D(23,5,6,7)           135.8324         estimate D2E/DX2                !
 ! D38   D(23,5,6,21)         -100.9057         estimate D2E/DX2                !
 ! D39   D(23,5,6,28)           19.8871         estimate D2E/DX2                !
 ! D40   D(27,5,6,7)          -101.7916         estimate D2E/DX2                !
 ! D41   D(27,5,6,21)           21.4704         estimate D2E/DX2                !
 ! D42   D(27,5,6,28)          142.2632         estimate D2E/DX2                !
 ! D43   D(3,5,23,43)         -147.8529         estimate D2E/DX2                !
 ! D44   D(6,5,23,43)           95.5297         estimate D2E/DX2                !
 ! D45   D(27,5,23,43)         -28.5607         estimate D2E/DX2                !
 ! D46   D(5,6,7,8)             35.1917         estimate D2E/DX2                !
 ! D47   D(21,6,7,8)           -95.0355         estimate D2E/DX2                !
 ! D48   D(28,6,7,8)           158.1819         estimate D2E/DX2                !
 ! D49   D(5,6,21,14)          133.2983         estimate D2E/DX2                !
 ! D50   D(7,6,21,14)          -99.5898         estimate D2E/DX2                !
 ! D51   D(28,6,21,14)           6.7338         estimate D2E/DX2                !
 ! D52   D(6,7,8,2)            -50.0793         estimate D2E/DX2                !
 ! D53   D(6,7,8,9)             76.3396         estimate D2E/DX2                !
 ! D54   D(6,7,8,29)          -167.4568         estimate D2E/DX2                !
 ! D55   D(2,8,9,10)           164.2096         estimate D2E/DX2                !
 ! D56   D(2,8,9,30)           -80.1903         estimate D2E/DX2                !
 ! D57   D(2,8,9,31)            43.7131         estimate D2E/DX2                !
 ! D58   D(7,8,9,10)            38.4529         estimate D2E/DX2                !
 ! D59   D(7,8,9,30)           154.053          estimate D2E/DX2                !
 ! D60   D(7,8,9,31)           -82.0435         estimate D2E/DX2                !
 ! D61   D(29,8,9,10)          -69.9249         estimate D2E/DX2                !
 ! D62   D(29,8,9,30)           45.6752         estimate D2E/DX2                !
 ! D63   D(29,8,9,31)          169.5786         estimate D2E/DX2                !
 ! D64   D(8,9,10,32)          -37.4977         estimate D2E/DX2                !
 ! D65   D(30,9,10,32)        -158.0187         estimate D2E/DX2                !
 ! D66   D(31,9,10,32)          85.5336         estimate D2E/DX2                !
 ! D67   D(42,11,12,13)         60.9453         estimate D2E/DX2                !
 ! D68   D(42,11,12,17)       -179.7567         estimate D2E/DX2                !
 ! D69   D(42,11,12,33)        -59.9081         estimate D2E/DX2                !
 ! D70   D(11,12,13,14)        164.1167         estimate D2E/DX2                !
 ! D71   D(11,12,13,22)        -78.2201         estimate D2E/DX2                !
 ! D72   D(11,12,13,34)         39.638          estimate D2E/DX2                !
 ! D73   D(17,12,13,14)         49.5281         estimate D2E/DX2                !
 ! D74   D(17,12,13,22)        167.1913         estimate D2E/DX2                !
 ! D75   D(17,12,13,34)        -74.9506         estimate D2E/DX2                !
 ! D76   D(33,12,13,14)        -76.2715         estimate D2E/DX2                !
 ! D77   D(33,12,13,22)         41.3917         estimate D2E/DX2                !
 ! D78   D(33,12,13,34)        159.2498         estimate D2E/DX2                !
 ! D79   D(11,12,17,16)       -176.9404         estimate D2E/DX2                !
 ! D80   D(11,12,17,18)         69.5472         estimate D2E/DX2                !
 ! D81   D(11,12,17,37)        -57.8423         estimate D2E/DX2                !
 ! D82   D(13,12,17,16)        -59.7501         estimate D2E/DX2                !
 ! D83   D(13,12,17,18)       -173.2625         estimate D2E/DX2                !
 ! D84   D(13,12,17,37)         59.348          estimate D2E/DX2                !
 ! D85   D(33,12,17,16)         65.388          estimate D2E/DX2                !
 ! D86   D(33,12,17,18)        -48.1244         estimate D2E/DX2                !
 ! D87   D(33,12,17,37)       -175.514          estimate D2E/DX2                !
 ! D88   D(12,13,14,15)        -35.3636         estimate D2E/DX2                !
 ! D89   D(12,13,14,21)       -149.3259         estimate D2E/DX2                !
 ! D90   D(12,13,14,35)         91.6024         estimate D2E/DX2                !
 ! D91   D(22,13,14,15)       -148.7041         estimate D2E/DX2                !
 ! D92   D(22,13,14,21)         97.3336         estimate D2E/DX2                !
 ! D93   D(22,13,14,35)        -21.7381         estimate D2E/DX2                !
 ! D94   D(34,13,14,15)         89.916          estimate D2E/DX2                !
 ! D95   D(34,13,14,21)        -24.0463         estimate D2E/DX2                !
 ! D96   D(34,13,14,35)       -143.118          estimate D2E/DX2                !
 ! D97   D(12,13,22,41)        161.1434         estimate D2E/DX2                !
 ! D98   D(14,13,22,41)        -79.1931         estimate D2E/DX2                !
 ! D99   D(34,13,22,41)         42.2177         estimate D2E/DX2                !
 ! D100  D(13,14,15,16)         32.8871         estimate D2E/DX2                !
 ! D101  D(13,14,15,20)        146.0766         estimate D2E/DX2                !
 ! D102  D(13,14,15,36)        -95.7892         estimate D2E/DX2                !
 ! D103  D(21,14,15,16)        145.8542         estimate D2E/DX2                !
 ! D104  D(21,14,15,20)       -100.9564         estimate D2E/DX2                !
 ! D105  D(21,14,15,36)         17.1778         estimate D2E/DX2                !
 ! D106  D(35,14,15,16)        -93.6501         estimate D2E/DX2                !
 ! D107  D(35,14,15,20)         19.5394         estimate D2E/DX2                !
 ! D108  D(35,14,15,36)        137.6735         estimate D2E/DX2                !
 ! D109  D(13,14,21,6)         -80.4864         estimate D2E/DX2                !
 ! D110  D(15,14,21,6)         158.7386         estimate D2E/DX2                !
 ! D111  D(35,14,21,6)          38.1276         estimate D2E/DX2                !
 ! D112  D(14,15,16,17)        -46.4118         estimate D2E/DX2                !
 ! D113  D(20,15,16,17)       -163.4183         estimate D2E/DX2                !
 ! D114  D(36,15,16,17)         83.5099         estimate D2E/DX2                !
 ! D115  D(14,15,20,44)       -105.5848         estimate D2E/DX2                !
 ! D116  D(16,15,20,44)         16.4792         estimate D2E/DX2                !
 ! D117  D(36,15,20,44)        132.3377         estimate D2E/DX2                !
 ! D118  D(15,16,17,12)         59.236          estimate D2E/DX2                !
 ! D119  D(15,16,17,18)        179.4741         estimate D2E/DX2                !
 ! D120  D(15,16,17,37)        -61.6695         estimate D2E/DX2                !
 ! D121  D(12,17,18,19)         -9.1065         estimate D2E/DX2                !
 ! D122  D(12,17,18,38)        106.1645         estimate D2E/DX2                !
 ! D123  D(12,17,18,39)       -131.8346         estimate D2E/DX2                !
 ! D124  D(16,17,18,19)       -125.7555         estimate D2E/DX2                !
 ! D125  D(16,17,18,38)        -10.4846         estimate D2E/DX2                !
 ! D126  D(16,17,18,39)        111.5164         estimate D2E/DX2                !
 ! D127  D(37,17,18,19)        117.9168         estimate D2E/DX2                !
 ! D128  D(37,17,18,38)       -126.8123         estimate D2E/DX2                !
 ! D129  D(37,17,18,39)         -4.8113         estimate D2E/DX2                !
 ! D130  D(17,18,19,40)        -54.0709         estimate D2E/DX2                !
 ! D131  D(38,18,19,40)       -173.5623         estimate D2E/DX2                !
 ! D132  D(39,18,19,40)         69.5786         estimate D2E/DX2                !
 --------------------------------------------------------------------------------
 Trust Radius=3.00D-01 FncErr=1.00D-07 GrdErr=1.00D-07 EigMax=2.50D+02 EigMin=1.00D-04
 Number of steps in this run=    270 maximum allowed number of steps=    270.
 GradGradGradGradGradGradGradGradGradGradGradGradGradGradGradGradGradGrad

 Leave Link  103 at Tue Jun 22 14:21:01 2021, MaxMem=  2147483648 cpu:               0.1 elap:               0.0
 (Enter /home/matma/Programs/gaussian/G16_x86_SSE4/tar/g16/l202.exe)
                          Input orientation:                          
 ---------------------------------------------------------------------
 Center     Atomic      Atomic             Coordinates (Angstroms)
 Number     Number       Type             X           Y           Z
 ---------------------------------------------------------------------
      1          8           0        1.964000    0.956000    0.206000
      2          6           0        2.445000    2.126000    0.881000
      3          6           0        3.127000    1.707000    2.203000
      4          8           0        3.988000    0.630000    1.811000
      5          6           0        2.070000    1.193000    3.204000
      6          6           0        1.086000    2.332000    3.534000
      7          8           0        1.056000    3.347000    2.536000
      8          6           0        1.213000    3.022000    1.138000
      9          6           0       -0.098000    2.419000    0.616000
     10          8           0       -1.207000    3.117000    1.212000
     11          8           0       -1.369000    0.320000    7.958000
     12          6           0       -1.705000    1.439000    7.119000
     13          6           0       -0.593000    1.614000    6.061000
     14          6           0       -1.032000    2.517000    4.886000
     15          6           0       -2.525000    2.380000    4.481000
     16          8           0       -3.428000    2.091000    5.551000
     17          6           0       -3.045000    1.045000    6.476000
     18          6           0       -4.220000    1.021000    7.477000
     19          8           0       -3.788000    1.166000    8.825000
     20          8           0       -2.991000    3.656000    4.047000
     21          8           0       -0.288000    1.994000    3.765000
     22          8           0        0.437000    2.259000    6.801000
     23          8           0        2.802000    0.880000    4.391000
     24          1           0        3.178000    2.625000    0.206000
     25          1           0        3.745000    2.518000    2.648000
     26          1           0        4.348000    0.189000    2.621000
     27          1           0        1.565000    0.279000    2.809000
     28          1           0        1.352000    2.916000    4.452000
     29          1           0        1.373000    4.052000    0.730000
     30          1           0       -0.227000    2.567000   -0.472000
     31          1           0       -0.195000    1.340000    0.851000
     32          1           0       -0.975000    3.338000    2.170000
     33          1           0       -1.797000    2.353000    7.755000
     34          1           0       -0.232000    0.631000    5.677000
     35          1           0       -0.762000    3.580000    5.088000
     36          1           0       -2.684000    1.677000    3.637000
     37          1           0       -2.958000    0.091000    5.912000
     38          1           0       -4.886000    1.897000    7.321000
     39          1           0       -4.803000    0.088000    7.379000
     40          1           0       -3.097000    0.483000    9.043000
     41          1           0        1.339000    2.164000    6.331000
     42          1           0       -0.509000    0.508000    8.412000
     43          1           0        2.369000    0.113000    4.859000
     44          1           0       -3.576000    4.063000    4.739000
     45          1           0        2.678000    0.262000    0.202000
 ---------------------------------------------------------------------
                    Distance matrix (angstroms):
                    1          2          3          4          5
     1  O    0.000000
     2  C    1.433836   0.000000
     3  C    2.429934   1.545435   0.000000
     4  O    2.603628   2.341744   1.433497   0.000000
     5  C    3.009221   2.531293   1.543841   2.436420   0.000000
     6  C    3.706730   2.987930   2.515525   3.779833   1.540934
     7  O    3.459804   2.481771   2.662617   4.062553   2.472678
     8  C    2.387673   1.544891   2.554769   3.724945   2.889299
     9  C    2.561311   2.573504   3.664169   4.617785   3.591802
    10  O    3.967014   3.798519   4.664090   5.790682   4.290521
    11  O    8.462085   8.239670   7.433560   8.159605   5.932063
    12  C    7.841200   7.523770   6.898341   7.825573   5.444113
    13  C    6.422791   6.026939   5.360150   6.325845   3.928264
    14  C    5.771927   5.318123   5.015164   6.181973   3.768886
    15  C    6.360387   6.142102   6.130850   7.253314   4.914644
    16  O    7.676647   7.503483   7.370521   8.433219   6.045066
    17  C    8.025640   7.912818   7.535938   8.449706   6.073805
    18  C    9.545340   9.441952   9.069955   9.981368   7.606064
    19  O   10.364206  10.142930   9.589619  10.485689   8.118653
    20  O    6.826075   6.474145   6.680484   7.928607   5.691286
    21  O    4.337676   3.975446   3.766223   4.895180   2.552741
    22  O    6.893734   6.252692   5.355596   6.337455   4.091632
    23  O    4.268752   3.741666   2.361546   2.850526   1.429252
    24  H    2.063821   1.114412   2.198484   2.685545   3.502327
    25  H    3.402230   2.228442   1.112506   2.079462   2.206895
    26  H    3.479076   3.225055   1.992458   0.990041   2.556793
    27  H    2.719033   2.811226   2.201423   2.643886   1.116443
    28  H    4.716424   3.817170   3.109712   4.375977   2.245386
    29  H    3.195164   2.209403   3.277998   4.440368   3.844524
    30  H    2.802764   3.027321   4.375448   5.170134   4.547204
    31  H    2.285774   2.754686   3.605312   4.350079   3.269318
    32  H    4.262504   3.850567   4.414482   5.665114   3.865515
    33  H    8.548926   8.080716   7.449013   8.471487   6.083658
    34  H    5.904226   5.692361   4.950690   5.723142   3.425022
    35  H    6.176599   5.486147   5.191885   6.481028   4.155412
    36  H    5.821985   5.839844   5.985397   6.996147   4.798152
    37  H    7.585034   7.657976   7.307213   8.084283   5.816223
    38  H    9.921250   9.760615   9.509900  10.522037   8.113645
    39  H    9.899376   9.945399   9.607135  10.420080   8.117252
    40  H   10.194607  10.001573   9.328556  10.125249   7.829170
    41  H    6.274194   5.561221   4.521745   5.459007   3.354897
    42  H    8.582241   8.249849   7.294503   7.988185   5.851814
    43  H    4.746060   4.458972   3.189002   3.489807   1.998706
    44  H    7.803406   7.408682   7.544020   8.807540   6.516935
    45  H    0.995715   1.997455   2.508710   2.107227   3.201317
                    6          7          8          9         10
     6  C    0.000000
     7  O    1.423773   0.000000
     8  C    2.496607   1.443841   0.000000
     9  C    3.150262   2.424727   1.534540   0.000000
    10  O    3.356450   2.631928   2.422994   1.439549   0.000000
    11  O    5.444901   6.666441   7.776884   7.741202   7.304654
    12  C    4.630265   5.680447   6.840539   6.769923   6.160871
    13  C    3.117739   4.260060   5.429551   5.526398   5.113590
    14  C    2.519534   3.251330   4.398017   4.372054   3.726782
    15  C    3.733421   4.188278   5.055735   4.563998   3.600924
    16  O    4.950007   5.547433   6.471492   5.962442   4.981208
    17  C    5.232293   6.135227   7.108680   6.701663   5.948203
    18  C    6.739407   7.593414   8.585127   8.125184   7.260965
    19  O    7.287669   8.232413   9.356533   9.087012   8.271985
    20  O    4.317184   4.330913   5.151490   4.655253   3.392698
    21  O    1.433695   2.268785   3.195452   3.183226   2.936579
    22  O    3.331639   4.444899   5.766621   6.210157   5.888618
    23  O    2.405703   3.546213   4.206554   5.002914   5.584111
    24  H    3.941814   3.233120   2.210760   3.307977   4.525740
    25  H    2.808892   2.816115   2.990843   4.348273   5.190684
    26  H    4.008324   4.562615   4.478103   5.362820   6.435564
    27  H    2.229322   3.121896   3.231129   3.486319   4.276522
    28  H    1.120061   1.986060   3.318607   4.130908   4.133580
    29  H    3.301997   1.964472   1.119359   2.200801   2.786207
    30  H    4.222230   3.361927   2.207425   1.105572   2.024538
    31  H    3.134249   2.903838   2.212229   1.108546   2.076582
    32  H    2.668380   2.063734   2.439718   2.007139   1.010163
    33  H    5.111651   6.030390   7.300161   7.338684   6.613822
    34  H    3.036935   4.347583   5.329862   5.369229   5.202600
    35  H    2.718000   3.141993   4.451347   4.667719   3.928838
    36  H    3.827863   4.241309   4.820854   4.045294   3.183670
    37  H    5.199125   6.173419   6.984202   6.453433   5.857702
    38  H    7.084870   7.765700   8.757449   8.255571   7.234868
    39  H    7.382404   8.270648   9.151540   8.562053   7.754866
    40  H    7.159984   8.233526   9.354766   9.151854   8.475530
    41  H    2.813440   3.985173   5.264911   5.898408   5.796075
    42  H    5.446640   6.710926   7.886479   8.037317   7.689869
    43  H    2.885425   4.192738   4.862557   5.422801   5.925572
    44  H    5.116897   5.178927   6.081563   5.639002   4.352793
    45  H    4.233390   4.194719   3.261889   3.539805   4.925886
                   11         12         13         14         15
    11  O    0.000000
    12  C    1.438394   0.000000
    13  C    2.423886   1.544841   0.000000
    14  C    3.791776   2.569300   1.545560   0.000000
    15  C    4.203506   2.918377   2.610705   1.553011   0.000000
    16  O    3.628990   2.419185   2.919735   2.522799   1.429626
    17  C    2.351792   1.537623   2.551135   2.957542   2.456145
    18  C    2.975057   2.574512   3.938507   4.372029   3.700800
    19  O    2.705359   2.706262   4.248344   4.993642   4.683941
    20  O    5.390334   4.000759   3.738498   2.416386   1.426074
    21  O    4.642422   3.683101   2.347135   1.443505   2.380299
    22  O    2.891367   2.315532   1.422858   2.427293   3.764370
    23  O    5.516732   5.297878   3.854047   4.198136   5.534892
    24  H    9.278024   8.546336   7.037300   6.295885   7.131610
    25  H    7.692873   7.131380   5.593213   5.275261   6.533899
    26  H    7.822073   7.644169   6.186898   6.284442   7.449712
    27  H    5.926402   5.533046   4.124887   4.008364   4.892636
    28  H    5.141507   4.317368   2.840266   2.455812   3.913983
    29  H    8.584310   7.557855   6.182925   5.041090   5.662154
    30  H    8.798754   7.815379   6.612281   5.418366   5.463331
    31  H    7.275172   6.448079   5.232359   4.285688   4.437049
    32  H    6.539457   5.350860   4.272936   2.837947   2.942955
    33  H    2.087458   1.117299   2.205759   2.973766   3.354071
    34  H    2.567577   2.214036   1.115377   2.196059   3.122061
    35  H    4.385539   3.098079   2.200101   1.115201   2.217345
    36  H    4.716112   3.624832   3.201879   2.234884   1.109877
    37  H    2.600669   2.200900   2.816905   3.263070   2.734003
    38  H    3.906659   3.220144   4.483028   4.600754   3.724676
    39  H    3.490189   3.389750   4.667965   5.131816   4.340617
    40  H    2.046895   2.559956   4.054812   5.067744   4.973695
    41  H    3.657968   3.226841   2.026826   2.798977   4.289482
    42  H    0.990485   1.992241   2.599518   4.091734   4.798062
    43  H    4.859969   4.843898   3.531466   4.164942   5.406793
    44  H    5.407667   4.006297   4.079654   2.980547   2.000913
    45  H    8.748549   8.272902   6.845088   6.386625   7.061655
                   16         17         18         19         20
    16  O    0.000000
    17  C    1.447905   0.000000
    18  C    2.341290   1.543762   0.000000
    19  O    3.421155   2.466676   1.422938   0.000000
    20  O    2.214093   3.566550   4.496506   5.446521   0.000000
    21  O    3.613697   3.981353   5.494206   6.207994   3.185589
    22  O    4.065581   3.701857   4.865929   4.810598   4.613817
    23  O    6.451746   6.209820   7.671490   7.947972   6.432990
    24  H    8.514307   8.974131  10.496221  11.177701   7.339809
    25  H    7.749946   7.932680   9.434059   9.835107   6.973230
    26  H    8.524593   8.381540   9.883501  10.278066   8.241025
    27  H    5.977621   5.940181   7.470409   8.101459   5.804645
    28  H    4.973613   5.189492   6.617313   6.971745   4.424169
    29  H    7.080760   7.847120   9.273113  10.024667   5.495798
    30  H    6.837361   7.650641   9.028885  10.053742   5.408048
    31  H    5.753807   6.312698   7.759269   8.747834   4.836930
    32  H    4.359287   5.299470   6.637979   7.544506   2.772816
    33  H    2.754346   2.214545   2.778927   2.553028   4.107640
    34  H    3.515948   2.953433   4.392749   4.779254   4.406768
    35  H    3.088535   3.683050   4.920728   5.380450   2.461280
    36  H    2.094834   2.930813   4.187509   5.328722   2.044209
    37  H    2.085958   1.111657   2.215123   3.214046   4.023498
    38  H    2.301369   2.197546   1.111426   2.000495   4.171832
    39  H    3.040431   2.195865   1.104528   2.069595   5.207321
    40  H    3.858664   2.628314   2.000732   0.995738   5.919390
    41  H    4.830944   4.526880   5.789840   5.788106   5.117775
    42  H    4.383123   3.235392   3.861206   3.369774   5.926504
    43  H    6.164135   5.726666   7.147958   7.399095   6.476248
    44  H    2.137763   3.522422   4.143084   5.013277   0.993347
    45  H    8.321074   8.528124  10.054059  10.815845   7.644660
                   21         22         23         24         25
    21  O    0.000000
    22  O    3.132594   0.000000
    23  O    3.343796   3.647323   0.000000
    24  H    5.007774   7.151298   4.549794   0.000000
    25  H    4.217506   5.315765   2.571059   2.509243   0.000000
    26  H    5.104827   6.087136   2.449591   3.624255   2.405947
    27  H    2.699772   4.596613   2.096209   3.857602   3.129128
    28  H    2.002911   2.605125   2.500303   4.631142   3.023122
    29  H    4.025607   6.399061   5.050401   2.359858   3.414420
    30  H    4.276005   7.309739   5.972401   3.472330   5.051097
    31  H    2.987936   6.053634   4.661031   3.666658   4.487816
    32  H    2.195980   4.960257   5.023976   4.648986   4.814487
    33  H    4.280895   2.430989   5.885323   9.044999   7.538066
    34  H    2.348755   2.088378   3.304687   6.748035   5.343420
    35  H    2.119057   2.473259   4.525252   6.345829   5.233975
    36  H    2.420266   4.482216   5.594633   6.858098   6.558768
    37  H    3.919173   4.125115   6.009456   8.753861   7.840551
    38  H    5.813446   5.360576   8.290026  10.778743   9.834466
    39  H    6.089258   5.701309   8.209229  11.026543  10.067550
    40  H    6.166919   4.546416   7.523092  11.047912   9.583852
    41  H    3.043088   1.021533   2.748204   6.411713   4.413461
    42  H    4.883815   2.560515   5.222025   9.241975   7.440451
    43  H    3.434333   3.479843   0.997398   5.349302   3.544844
    44  H    4.005044   4.859056   7.136629   8.260294   7.768935
    45  H    4.948934   7.249613   4.236156   2.415323   3.494416
                   26         27         28         29         30
    26  H    0.000000
    27  H    2.790794   0.000000
    28  H    4.445796   3.114255   0.000000
    29  H    5.229653   4.312150   3.891558   0.000000
    30  H    6.012666   4.383055   5.182742   2.491993   0.000000
    31  H    5.009646   2.838500   4.224238   3.134997   1.804683
    32  H    6.201123   4.027084   3.286417   2.845435   2.852036
    33  H    8.294690   6.329884   4.598150   7.892156   8.378199
    34  H    5.523667   3.402725   3.038241   6.225116   6.446574
    35  H    6.610376   4.637388   2.305296   4.875774   5.676794
    36  H    7.259161   4.549065   4.299842   5.527253   4.869582
    37  H    8.013608   5.488304   5.356148   7.829445   7.371865
    38  H   10.501144   8.036882   6.941337   9.341327   9.104177
    39  H   10.314532   7.840459   7.378952   9.902801   9.419311
    40  H    9.836490   7.787080   6.840349  10.090819  10.154565
    41  H    5.169024   4.001098   2.023935   5.910745   6.992537
    42  H    7.564912   5.978923   4.994335   8.666890   9.123840
    43  H    2.988455   2.208274   3.009443   5.792787   6.417234
    44  H    9.071029   6.668841   5.067856   6.369050   6.372467
    45  H    2.940372   2.834697   5.183097   4.043007   3.769128
                   31         32         33         34         35
    31  H    0.000000
    32  H    2.517968   0.000000
    33  H    7.159455   5.730457   0.000000
    34  H    4.877943   4.492098   3.119710   0.000000
    35  H    4.826102   2.935755   3.112819   3.053592   0.000000
    36  H    3.751065   2.798516   4.266341   3.356787   3.069347
    37  H    5.899821   5.336465   3.140257   2.788889   4.204107
    38  H    8.011032   6.626100   3.152493   5.095607   4.982585
    39  H    8.088013   7.235314   3.782544   4.907718   5.811405
    40  H    8.732979   7.738995   2.616456   4.422678   5.539464
    41  H    5.750003   4.903753   3.449347   2.290381   2.822110
    42  H    7.613116   6.869397   2.344060   2.751742   4.533229
    43  H    4.913623   5.367838   5.546167   2.775365   4.677146
    44  H    5.827730   3.727008   3.896819   4.882705   2.876402
    45  H    3.136465   5.165192   9.024728   6.211271   6.834890
                   36         37         38         39         40
    36  H    0.000000
    37  H    2.786772   0.000000
    38  H    4.297564   2.994011   0.000000
    39  H    4.584501   2.357143   1.811832   0.000000
    40  H    5.551670   3.158504   2.857482   2.415648   0.000000
    41  H    4.866142   4.789269   6.308884   6.567514   5.464321
    42  H    5.375668   3.524413   4.719929   4.436432   2.663931
    43  H    5.428829   5.430122   7.866329   7.601882   6.893469
    44  H    2.775439   4.187438   3.615851   4.927043   5.618742
    45  H    6.523227   8.024826  10.515107  10.368460  10.562327
                   41         42         43         44         45
    41  H    0.000000
    42  H    3.238518   0.000000
    43  H    2.726589   4.589414   0.000000
    44  H    5.504352   5.961161   7.138622   0.000000
    45  H    6.555545   8.810311   4.669618   8.610719   0.000000
 Stoichiometry    C12H22O11
 Framework group  C1[X(C12H22O11)]
 Deg. of freedom   129
 Full point group                 C1      NOp   1
 Largest Abelian subgroup         C1      NOp   1
 Largest concise Abelian subgroup C1      NOp   1
                         Standard orientation:                         
 ---------------------------------------------------------------------
 Center     Atomic      Atomic             Coordinates (Angstroms)
 Number     Number       Type             X           Y           Z
 ---------------------------------------------------------------------
      1          8           0        4.384588    0.394660   -1.423700
      2          6           0        4.256869    0.173290   -0.012825
      3          6           0        3.702876   -1.248607    0.231450
      4          8           0        4.514908   -2.075759   -0.611958
      5          6           0        2.229249   -1.327522   -0.222029
      6          6           0        1.384821   -0.352832    0.621415
      7          8           0        2.158768    0.687905    1.208784
      8          6           0        3.290498    1.256594    0.515634
      9          6           0        2.780428    2.203775   -0.578665
     10          8           0        1.633165    2.919160   -0.084384
     11          8           0       -3.643824   -2.114658   -0.499141
     12          6           0       -3.186656   -0.911499    0.143029
     13          6           0       -1.650387   -0.983113    0.288917
     14          6           0       -1.021326    0.394167    0.598978
     15          6           0       -1.716983    1.598891   -0.091343
     16          8           0       -3.128964    1.470617   -0.274886
     17          6           0       -3.615569    0.216322   -0.810039
     18          6           0       -5.143822    0.429603   -0.856501
     19          8           0       -5.855899   -0.592608   -0.168907
     20          8           0       -1.640748    2.722512    0.783501
     21          8           0        0.283842    0.311938   -0.012153
     22          8           0       -1.487526   -1.846236    1.408301
     23          8           0        1.814324   -2.659307    0.089336
     24          1           0        5.271386    0.278210    0.436242
     25          1           0        3.820370   -1.584472    1.285518
     26          1           0        4.128133   -2.986513   -0.645322
     27          1           0        2.144482   -1.142961   -1.319844
     28          1           0        0.904658   -0.820597    1.518731
     29          1           0        3.751044    1.828420    1.360546
     30          1           0        3.513839    2.991827   -0.830400
     31          1           0        2.488435    1.668566   -1.504497
     32          1           0        1.083009    2.295096    0.488592
     33          1           0       -3.678095   -0.826125    1.142806
     34          1           0       -1.171739   -1.430474   -0.613763
     35          1           0       -0.941349    0.548188    1.700592
     36          1           0       -1.226762    1.898569   -1.040923
     37          1           0       -3.183114    0.075103   -1.824346
     38          1           0       -5.427185    1.356162   -0.312020
     39          1           0       -5.502924    0.486146   -1.899492
     40          1           0       -5.592861   -1.489471   -0.512334
     41          1           0       -0.542533   -2.233138    1.437011
     42          1           0       -3.402531   -2.890560    0.067264
     43          1           0        1.140482   -2.965108   -0.579413
     44          1           0       -2.525835    2.896005    1.199746
     45          1           0        4.828026   -0.393079   -1.841166
 ---------------------------------------------------------------------
 Rotational constants (GHZ):           0.4845499           0.1402623           0.1177131
 Leave Link  202 at Tue Jun 22 14:21:01 2021, MaxMem=  2147483648 cpu:               0.0 elap:               0.0
 (Enter /home/matma/Programs/gaussian/G16_x86_SSE4/tar/g16/l301.exe)
 Standard basis: VSTO-6G (5D, 7F)
 Ernie: Thresh=  0.10000D-02 Tol=  0.10000D-05 Strict=F.
  NNHCO=     0 NNPyr=     0 NCTC=     0               EPep=         0.000000000
    EC=      1169.942720856  ECS=         8.993614428   EG=         0.734872156
   EHC=         0.002709205  EAt=      -175.965002454  AtH=         6.138669069
 EPDDG=         0.000000000  ECC=      1179.673916645 EAtT=       182.103671523
 There are   114 symmetry adapted cartesian basis functions of A   symmetry.
 There are   114 symmetry adapted basis functions of A   symmetry.
   114 basis functions,   684 primitive gaussians,   114 cartesian basis functions
    68 alpha electrons       68 beta electrons
       nuclear repulsion energy      1361.7775881683 Hartrees.
 IExCor=    0 DFT=F Ex=HF Corr=None ExCW=0 ScaHFX=  1.000000
 ScaDFX=  1.000000  1.000000  1.000000  1.000000 ScalE2=  1.000000  1.000000
 IRadAn=  99590 IRanWt=     -1 IRanGd=            0 ICorTp=0 IEmpDi=  4
 Integral buffers will be    131072 words long.
 Regular integral format.
 Two-electron integral symmetry is turned off.
 Leave Link  301 at Tue Jun 22 14:21:01 2021, MaxMem=  2147483648 cpu:               0.2 elap:               0.0
 (Enter /home/matma/Programs/gaussian/G16_x86_SSE4/tar/g16/l302.exe)
 Do NDO integrals.
 NPDir=0 NMtPBC=     1 NCelOv=     1 NCel=       1 NClECP=     1 NCelD=      1
         NCelK=      1 NCelE2=     1 NClLst=     1 CellRange=     0.0.
 One-electron integrals computed using PRISM.
 NBasis=   114 RedAO= F EigKep=  0.00D+00  NBF=   114
 NBsUse=   114 1.00D-04 EigRej=  0.00D+00 NBFU=   114
 Leave Link  302 at Tue Jun 22 14:21:01 2021, MaxMem=  2147483648 cpu:               0.6 elap:               0.0
 (Enter /home/matma/Programs/gaussian/G16_x86_SSE4/tar/g16/l303.exe)
 DipDrv:  MaxL=1.
 Leave Link  303 at Tue Jun 22 14:21:01 2021, MaxMem=  2147483648 cpu:               0.1 elap:               0.0
 (Enter /home/matma/Programs/gaussian/G16_x86_SSE4/tar/g16/l401.exe)
 Simple Huckel Guess.
 JPrj=0 DoOrth=F DoCkMO=F.
 Leave Link  401 at Tue Jun 22 14:21:01 2021, MaxMem=  2147483648 cpu:               0.2 elap:               0.0
 (Enter /home/matma/Programs/gaussian/G16_x86_SSE4/tar/g16/l502.exe)
 Keep J ints in memory in canonical form, NReq=892272.
 FoFCou: FMM=F IPFlag=           0 FMFlag=           0 FMFlg1=           0
         NFxFlg=           0 DoJE=F BraDBF=F KetDBF=F FulRan=T
         wScrn=  0.000000 ICntrl=       600 IOpCl=  2 I1Cent=           0 NGrid=           0
         NMat0=    1 NMatS0=    252 NMatT0=    0 NMatD0=    1 NMtDS0=    0 NMtDT0=    0
 Symmetry not used in FoFCou.
 Two-electron integral symmetry not used.
 Closed shell SCF:
 Using DIIS extrapolation, IDIIS=  1040.
 Overlap will be assumed to be unity.
 NGot=  2147483648 LenX=  2147363403 LenY=  2147349966
 Requested convergence on RMS density matrix=1.00D-08 within 128 cycles.
 Requested convergence on MAX density matrix=1.00D-06.
 Requested convergence on             energy=1.00D-06.
 No special actions if energy rises.

 Cycle   1  Pass 1  IDiag  1:
 E= 0.470053833229031    
 DIIS: error= 5.59D-02 at cycle   1 NSaved=   1.
 NSaved= 1 IEnMin= 1 EnMin= 0.470053833229031     IErMin= 1 ErrMin= 5.59D-02
 ErrMax= 5.59D-02  0.00D+00 EMaxC= 1.00D-01 BMatC= 3.16D-01 BMatP= 3.16D-01
 IDIUse=3 WtCom= 4.41D-01 WtEn= 5.59D-01
 Coeff-Com:  0.100D+01
 Coeff-En:   0.100D+01
 Coeff:      0.100D+01
 GapD=    2.000 DampG=2.000 DampE=0.500 DampFc=1.0000 IDamp=-1.
 RMSDP=8.20D-03 MaxDP=1.23D-01              OVMax= 0.00D+00

 Cycle   2  Pass 1  IDiag  1:
 E=-0.527684122188703     Delta-E=       -0.997737955418 Rises=F Damp=F
 DIIS: error= 1.70D-02 at cycle   2 NSaved=   2.
 NSaved= 2 IEnMin= 2 EnMin=-0.527684122188703     IErMin= 2 ErrMin= 1.70D-02
 ErrMax= 1.70D-02  0.00D+00 EMaxC= 1.00D-01 BMatC= 4.59D-02 BMatP= 3.16D-01
 IDIUse=3 WtCom= 8.30D-01 WtEn= 1.70D-01
 Coeff-Com: -0.438D+00 0.144D+01
 Coeff-En:   0.000D+00 0.100D+01
 Coeff:     -0.363D+00 0.136D+01
 RMSDP=4.81D-03 MaxDP=5.66D-02 DE=-9.98D-01 OVMax= 0.00D+00

 Cycle   3  Pass 1  IDiag  3:
 E=-0.736520328982806     Delta-E=       -0.208836206794 Rises=F Damp=F
 DIIS: error= 5.53D-03 at cycle   3 NSaved=   3.
 NSaved= 3 IEnMin= 3 EnMin=-0.736520328982806     IErMin= 3 ErrMin= 5.53D-03
 ErrMax= 5.53D-03  0.00D+00 EMaxC= 1.00D-01 BMatC= 4.75D-03 BMatP= 4.59D-02
 IDIUse=3 WtCom= 9.45D-01 WtEn= 5.53D-02
 Coeff-Com:  0.259D+00-0.105D+01 0.179D+01
 Coeff-En:   0.000D+00 0.000D+00 0.100D+01
 Coeff:      0.244D+00-0.990D+00 0.175D+01
 Gap=     0.373 Goal=   None    Shift=    0.000
 RMSDP=2.45D-03 MaxDP=3.92D-02 DE=-2.09D-01 OVMax= 2.92D-02

 Cycle   4  Pass 1  IDiag  3:
 E=-0.768071499988992     Delta-E=       -0.031551171006 Rises=F Damp=F
 DIIS: error= 1.07D-03 at cycle   4 NSaved=   4.
 NSaved= 4 IEnMin= 4 EnMin=-0.768071499988992     IErMin= 4 ErrMin= 1.07D-03
 ErrMax= 1.07D-03  0.00D+00 EMaxC= 1.00D-01 BMatC= 2.15D-04 BMatP= 4.75D-03
 IDIUse=3 WtCom= 9.89D-01 WtEn= 1.07D-02
 Coeff-Com: -0.565D-01 0.257D+00-0.636D+00 0.144D+01
 Coeff-En:   0.000D+00 0.000D+00 0.000D+00 0.100D+01
 Coeff:     -0.559D-01 0.254D+00-0.629D+00 0.143D+01
 Gap=     0.370 Goal=   None    Shift=    0.000
 RMSDP=5.86D-04 MaxDP=9.75D-03 DE=-3.16D-02 OVMax= 7.39D-03

 Cycle   5  Pass 1  IDiag  3:
 E=-0.769599879989528     Delta-E=       -0.001528380001 Rises=F Damp=F
 DIIS: error= 2.74D-04 at cycle   5 NSaved=   5.
 NSaved= 5 IEnMin= 5 EnMin=-0.769599879989528     IErMin= 5 ErrMin= 2.74D-04
 ErrMax= 2.74D-04  0.00D+00 EMaxC= 1.00D-01 BMatC= 1.09D-05 BMatP= 2.15D-04
 IDIUse=3 WtCom= 9.97D-01 WtEn= 2.74D-03
 Coeff-Com:  0.471D-02-0.229D-01 0.976D-01-0.437D+00 0.136D+01
 Coeff-En:   0.000D+00 0.000D+00 0.000D+00 0.000D+00 0.100D+01
 Coeff:      0.469D-02-0.228D-01 0.973D-01-0.436D+00 0.136D+01
 Gap=     0.371 Goal=   None    Shift=    0.000
 RMSDP=1.13D-04 MaxDP=2.35D-03 DE=-1.53D-03 OVMax= 1.86D-03

 Cycle   6  Pass 1  IDiag  3:
 E=-0.769670391066939     Delta-E=       -0.000070511077 Rises=F Damp=F
 DIIS: error= 1.13D-04 at cycle   6 NSaved=   6.
 NSaved= 6 IEnMin= 6 EnMin=-0.769670391066939     IErMin= 6 ErrMin= 1.13D-04
 ErrMax= 1.13D-04  0.00D+00 EMaxC= 1.00D-01 BMatC= 9.96D-07 BMatP= 1.09D-05
 IDIUse=3 WtCom= 9.99D-01 WtEn= 1.13D-03
 Coeff-Com:  0.149D-02-0.565D-02-0.820D-02 0.125D+00-0.678D+00 0.157D+01
 Coeff-En:   0.000D+00 0.000D+00 0.000D+00 0.000D+00 0.000D+00 0.100D+01
 Coeff:      0.149D-02-0.564D-02-0.819D-02 0.125D+00-0.677D+00 0.156D+01
 Gap=     0.371 Goal=   None    Shift=    0.000
 RMSDP=4.00D-05 MaxDP=1.09D-03 DE=-7.05D-05 OVMax= 8.20D-04

 Cycle   7  Pass 1  IDiag  3:
 E=-0.769677763742720     Delta-E=       -0.000007372676 Rises=F Damp=F
 DIIS: error= 3.21D-05 at cycle   7 NSaved=   7.
 NSaved= 7 IEnMin= 7 EnMin=-0.769677763742720     IErMin= 7 ErrMin= 3.21D-05
 ErrMax= 3.21D-05  0.00D+00 EMaxC= 1.00D-01 BMatC= 7.91D-08 BMatP= 9.96D-07
 IDIUse=1 WtCom= 1.00D+00 WtEn= 0.00D+00
 Coeff-Com: -0.945D-03 0.400D-02-0.760D-03-0.396D-01 0.268D+00-0.833D+00
 Coeff-Com:  0.160D+01
 Coeff:     -0.945D-03 0.400D-02-0.760D-03-0.396D-01 0.268D+00-0.833D+00
 Coeff:      0.160D+01
 Gap=     0.371 Goal=   None    Shift=    0.000
 RMSDP=1.19D-05 MaxDP=3.44D-04 DE=-7.37D-06 OVMax= 2.63D-04

 Cycle   8  Pass 1  IDiag  3:
 E=-0.769678383230030     Delta-E=       -0.000000619487 Rises=F Damp=F
 DIIS: error= 8.91D-06 at cycle   8 NSaved=   8.
 NSaved= 8 IEnMin= 8 EnMin=-0.769678383230030     IErMin= 8 ErrMin= 8.91D-06
 ErrMax= 8.91D-06  0.00D+00 EMaxC= 1.00D-01 BMatC= 6.55D-09 BMatP= 7.91D-08
 IDIUse=1 WtCom= 1.00D+00 WtEn= 0.00D+00
 Coeff-Com:  0.208D-03-0.994D-03 0.944D-04 0.996D-02-0.699D-01 0.241D+00
 Coeff-Com: -0.689D+00 0.151D+01
 Coeff:      0.208D-03-0.994D-03 0.944D-04 0.996D-02-0.699D-01 0.241D+00
 Coeff:     -0.689D+00 0.151D+01
 Gap=     0.371 Goal=   None    Shift=    0.000
 RMSDP=3.41D-06 MaxDP=9.74D-05 DE=-6.19D-07 OVMax= 7.31D-05

 Cycle   9  Pass 1  IDiag  3:
 E=-0.769678433713352     Delta-E=       -0.000000050483 Rises=F Damp=F
 DIIS: error= 3.58D-06 at cycle   9 NSaved=   9.
 NSaved= 9 IEnMin= 9 EnMin=-0.769678433713352     IErMin= 9 ErrMin= 3.58D-06
 ErrMax= 3.58D-06  0.00D+00 EMaxC= 1.00D-01 BMatC= 6.20D-10 BMatP= 6.55D-09
 IDIUse=1 WtCom= 1.00D+00 WtEn= 0.00D+00
 Coeff-Com: -0.363D-04 0.231D-03-0.940D-04-0.143D-02 0.129D-01-0.512D-01
 Coeff-Com:  0.188D+00-0.669D+00 0.152D+01
 Coeff:     -0.363D-04 0.231D-03-0.940D-04-0.143D-02 0.129D-01-0.512D-01
 Coeff:      0.188D+00-0.669D+00 0.152D+01
 Gap=     0.371 Goal=   None    Shift=    0.000
 RMSDP=9.96D-07 MaxDP=2.82D-05 DE=-5.05D-08 OVMax= 1.62D-05

 Cycle  10  Pass 1  IDiag  3:
 E=-0.769678438287656     Delta-E=       -0.000000004574 Rises=F Damp=F
 DIIS: error= 1.05D-06 at cycle  10 NSaved=  10.
 NSaved=10 IEnMin=10 EnMin=-0.769678438287656     IErMin=10 ErrMin= 1.05D-06
 ErrMax= 1.05D-06  0.00D+00 EMaxC= 1.00D-01 BMatC= 6.03D-11 BMatP= 6.20D-10
 IDIUse=1 WtCom= 1.00D+00 WtEn= 0.00D+00
 Coeff-Com:  0.162D-04-0.101D-03 0.998D-04 0.922D-04-0.263D-02 0.116D-01
 Coeff-Com: -0.456D-01 0.199D+00-0.718D+00 0.156D+01
 Coeff:      0.162D-04-0.101D-03 0.998D-04 0.922D-04-0.263D-02 0.116D-01
 Coeff:     -0.456D-01 0.199D+00-0.718D+00 0.156D+01
 Gap=     0.371 Goal=   None    Shift=    0.000
 RMSDP=3.19D-07 MaxDP=8.42D-06 DE=-4.57D-09 OVMax= 4.40D-06

 Cycle  11  Pass 1  IDiag  3:
 E=-0.769678438734218     Delta-E=       -0.000000000447 Rises=F Damp=F
 DIIS: error= 2.99D-07 at cycle  11 NSaved=  11.
 NSaved=11 IEnMin=11 EnMin=-0.769678438734218     IErMin=11 ErrMin= 2.99D-07
 ErrMax= 2.99D-07  0.00D+00 EMaxC= 1.00D-01 BMatC= 5.61D-12 BMatP= 6.03D-11
 IDIUse=1 WtCom= 1.00D+00 WtEn= 0.00D+00
 Coeff-Com: -0.918D-05 0.541D-04-0.718D-04 0.100D-03 0.490D-03-0.296D-02
 Coeff-Com:  0.130D-01-0.616D-01 0.261D+00-0.804D+00 0.159D+01
 Coeff:     -0.918D-05 0.541D-04-0.718D-04 0.100D-03 0.490D-03-0.296D-02
 Coeff:      0.130D-01-0.616D-01 0.261D+00-0.804D+00 0.159D+01
 Gap=     0.371 Goal=   None    Shift=    0.000
 RMSDP=9.80D-08 MaxDP=2.37D-06 DE=-4.47D-10 OVMax= 1.08D-06

 Cycle  12  Pass 1  IDiag  3:
 E=-0.769678438772417     Delta-E=       -0.000000000038 Rises=F Damp=F
 DIIS: error= 8.26D-08 at cycle  12 NSaved=  12.
 NSaved=12 IEnMin=12 EnMin=-0.769678438772417     IErMin=12 ErrMin= 8.26D-08
 ErrMax= 8.26D-08  0.00D+00 EMaxC= 1.00D-01 BMatC= 5.16D-13 BMatP= 5.61D-12
 IDIUse=1 WtCom= 1.00D+00 WtEn= 0.00D+00
 Coeff-Com:  0.394D-05-0.231D-04 0.349D-04-0.784D-04 0.546D-05 0.547D-03
 Coeff-Com: -0.325D-02 0.163D-01-0.725D-01 0.262D+00-0.782D+00 0.158D+01
 Coeff:      0.394D-05-0.231D-04 0.349D-04-0.784D-04 0.546D-05 0.547D-03
 Coeff:     -0.325D-02 0.163D-01-0.725D-01 0.262D+00-0.782D+00 0.158D+01
 Gap=     0.371 Goal=   None    Shift=    0.000
 RMSDP=3.04D-08 MaxDP=7.16D-07 DE=-3.82D-11 OVMax= 3.57D-07

 Cycle  13  Pass 1  IDiag  3:
 E=-0.769678438779920     Delta-E=       -0.000000000008 Rises=F Damp=F
 DIIS: error= 2.72D-08 at cycle  13 NSaved=  13.
 NSaved=13 IEnMin=13 EnMin=-0.769678438779920     IErMin=13 ErrMin= 2.72D-08
 ErrMax= 2.72D-08  0.00D+00 EMaxC= 1.00D-01 BMatC= 4.40D-14 BMatP= 5.16D-13
 IDIUse=1 WtCom= 1.00D+00 WtEn= 0.00D+00
 Coeff-Com: -0.122D-05 0.740D-05-0.129D-04 0.408D-04-0.877D-04 0.102D-03
 Coeff-Com:  0.216D-03-0.218D-02 0.123D-01-0.555D-01 0.225D+00-0.699D+00
 Coeff-Com:  0.152D+01
 Coeff:     -0.122D-05 0.740D-05-0.129D-04 0.408D-04-0.877D-04 0.102D-03
 Coeff:      0.216D-03-0.218D-02 0.123D-01-0.555D-01 0.225D+00-0.699D+00
 Coeff:      0.152D+01
 Gap=     0.371 Goal=   None    Shift=    0.000
 RMSDP=8.25D-09 MaxDP=1.93D-07 DE=-7.50D-12 OVMax= 9.32D-08

 Cycle  14  Pass 2  IDiag  1:
 SCF Done:  E(RPM6) = -0.769678438780     A.U. after   14 cycles
            NFock= 13  Conv=0.83D-08     -V/T= 0.9975
 KE=-3.042613704648D+02 PE=-2.325864123468D+03 EE= 1.267578227326D+03
 Leave Link  502 at Tue Jun 22 14:21:01 2021, MaxMem=  2147483648 cpu:               0.5 elap:               0.0
 (Enter /home/matma/Programs/gaussian/G16_x86_SSE4/tar/g16/l601.exe)
 Copying SCF densities to generalized density rwf, IOpCl= 0 IROHF=0.

 **********************************************************************

            Population analysis using the SCF Density.

 **********************************************************************

 Orbital symmetries:
       Occupied  (A) (A) (A) (A) (A) (A) (A) (A) (A) (A) (A) (A)
                 (A) (A) (A) (A) (A) (A) (A) (A) (A) (A) (A) (A)
                 (A) (A) (A) (A) (A) (A) (A) (A) (A) (A) (A) (A)
                 (A) (A) (A) (A) (A) (A) (A) (A) (A) (A) (A) (A)
                 (A) (A) (A) (A) (A) (A) (A) (A) (A) (A) (A) (A)
                 (A) (A) (A) (A) (A) (A) (A) (A)
       Virtual   (A) (A) (A) (A) (A) (A) (A) (A) (A) (A) (A) (A)
                 (A) (A) (A) (A) (A) (A) (A) (A) (A) (A) (A) (A)
                 (A) (A) (A) (A) (A) (A) (A) (A) (A) (A) (A) (A)
                 (A) (A) (A) (A) (A) (A) (A) (A) (A) (A)
 The electronic state is 1-A.
 Alpha  occ. eigenvalues --   -1.17816  -1.16701  -1.14494  -1.14203  -1.13869
 Alpha  occ. eigenvalues --   -1.12479  -1.10553  -1.09953  -1.09620  -1.08764
 Alpha  occ. eigenvalues --   -1.07106  -1.02335  -1.01427  -0.99692  -0.98393
 Alpha  occ. eigenvalues --   -0.92939  -0.90501  -0.87054  -0.86770  -0.83290
 Alpha  occ. eigenvalues --   -0.82542  -0.77334  -0.75664  -0.74511  -0.73550
 Alpha  occ. eigenvalues --   -0.70237  -0.70045  -0.69002  -0.68626  -0.66468
 Alpha  occ. eigenvalues --   -0.65445  -0.65143  -0.64079  -0.62825  -0.62242
 Alpha  occ. eigenvalues --   -0.61669  -0.60895  -0.59385  -0.58615  -0.58131
 Alpha  occ. eigenvalues --   -0.56490  -0.56042  -0.55574  -0.55140  -0.54112
 Alpha  occ. eigenvalues --   -0.52910  -0.52546  -0.50691  -0.50606  -0.50246
 Alpha  occ. eigenvalues --   -0.49891  -0.49506  -0.48720  -0.47913  -0.47437
 Alpha  occ. eigenvalues --   -0.45920  -0.45478  -0.44935  -0.44004  -0.43614
 Alpha  occ. eigenvalues --   -0.42257  -0.41863  -0.41649  -0.40877  -0.40383
 Alpha  occ. eigenvalues --   -0.39571  -0.38863  -0.36847
 Alpha virt. eigenvalues --    0.00154   0.02123   0.02713   0.03936   0.04782
 Alpha virt. eigenvalues --    0.04917   0.05639   0.06982   0.07168   0.07386
 Alpha virt. eigenvalues --    0.07696   0.07934   0.08509   0.08931   0.09126
 Alpha virt. eigenvalues --    0.09698   0.10052   0.10398   0.10944   0.11071
 Alpha virt. eigenvalues --    0.11834   0.12603   0.12731   0.13850   0.14077
 Alpha virt. eigenvalues --    0.14290   0.15400   0.15453   0.16156   0.16321
 Alpha virt. eigenvalues --    0.16607   0.16642   0.16889   0.17067   0.17408
 Alpha virt. eigenvalues --    0.17776   0.17831   0.18176   0.18619   0.19094
 Alpha virt. eigenvalues --    0.19258   0.19317   0.20074   0.21227   0.21230
 Alpha virt. eigenvalues --    0.23115
          Condensed to atoms (all electrons):
               1          2          3          4          5          6
     1  O    6.551500   0.000000   0.000000   0.000000   0.000000   0.000000
     2  C    0.000000   3.927985   0.000000   0.000000   0.000000   0.000000
     3  C    0.000000   0.000000   3.915238   0.000000   0.000000   0.000000
     4  O    0.000000   0.000000   0.000000   6.553419   0.000000   0.000000
     5  C    0.000000   0.000000   0.000000   0.000000   4.001542   0.000000
     6  C    0.000000   0.000000   0.000000   0.000000   0.000000   3.673479
     7  O    0.000000   0.000000   0.000000   0.000000   0.000000   0.000000
     8  C    0.000000   0.000000   0.000000   0.000000   0.000000   0.000000
     9  C    0.000000   0.000000   0.000000   0.000000   0.000000   0.000000
    10  O    0.000000   0.000000   0.000000   0.000000   0.000000   0.000000
    11  O    0.000000   0.000000   0.000000   0.000000   0.000000   0.000000
    12  C    0.000000   0.000000   0.000000   0.000000   0.000000   0.000000
    13  C    0.000000   0.000000   0.000000   0.000000   0.000000   0.000000
    14  C    0.000000   0.000000   0.000000   0.000000   0.000000   0.000000
    15  C    0.000000   0.000000   0.000000   0.000000   0.000000   0.000000
    16  O    0.000000   0.000000   0.000000   0.000000   0.000000   0.000000
    17  C    0.000000   0.000000   0.000000   0.000000   0.000000   0.000000
    18  C    0.000000   0.000000   0.000000   0.000000   0.000000   0.000000
    19  O    0.000000   0.000000   0.000000   0.000000   0.000000   0.000000
    20  O    0.000000   0.000000   0.000000   0.000000   0.000000   0.000000
    21  O    0.000000   0.000000   0.000000   0.000000   0.000000   0.000000
    22  O    0.000000   0.000000   0.000000   0.000000   0.000000   0.000000
    23  O    0.000000   0.000000   0.000000   0.000000   0.000000   0.000000
    24  H    0.000000   0.000000   0.000000   0.000000   0.000000   0.000000
    25  H    0.000000   0.000000   0.000000   0.000000   0.000000   0.000000
    26  H    0.000000   0.000000   0.000000   0.000000   0.000000   0.000000
    27  H    0.000000   0.000000   0.000000   0.000000   0.000000   0.000000
    28  H    0.000000   0.000000   0.000000   0.000000   0.000000   0.000000
    29  H    0.000000   0.000000   0.000000   0.000000   0.000000   0.000000
    30  H    0.000000   0.000000   0.000000   0.000000   0.000000   0.000000
    31  H    0.000000   0.000000   0.000000   0.000000   0.000000   0.000000
    32  H    0.000000   0.000000   0.000000   0.000000   0.000000   0.000000
    33  H    0.000000   0.000000   0.000000   0.000000   0.000000   0.000000
    34  H    0.000000   0.000000   0.000000   0.000000   0.000000   0.000000
    35  H    0.000000   0.000000   0.000000   0.000000   0.000000   0.000000
    36  H    0.000000   0.000000   0.000000   0.000000   0.000000   0.000000
    37  H    0.000000   0.000000   0.000000   0.000000   0.000000   0.000000
    38  H    0.000000   0.000000   0.000000   0.000000   0.000000   0.000000
    39  H    0.000000   0.000000   0.000000   0.000000   0.000000   0.000000
    40  H    0.000000   0.000000   0.000000   0.000000   0.000000   0.000000
    41  H    0.000000   0.000000   0.000000   0.000000   0.000000   0.000000
    42  H    0.000000   0.000000   0.000000   0.000000   0.000000   0.000000
    43  H    0.000000   0.000000   0.000000   0.000000   0.000000   0.000000
    44  H    0.000000   0.000000   0.000000   0.000000   0.000000   0.000000
    45  H    0.000000   0.000000   0.000000   0.000000   0.000000   0.000000
               7          8          9         10         11         12
     1  O    0.000000   0.000000   0.000000   0.000000   0.000000   0.000000
     2  C    0.000000   0.000000   0.000000   0.000000   0.000000   0.000000
     3  C    0.000000   0.000000   0.000000   0.000000   0.000000   0.000000
     4  O    0.000000   0.000000   0.000000   0.000000   0.000000   0.000000
     5  C    0.000000   0.000000   0.000000   0.000000   0.000000   0.000000
     6  C    0.000000   0.000000   0.000000   0.000000   0.000000   0.000000
     7  O    6.466088   0.000000   0.000000   0.000000   0.000000   0.000000
     8  C    0.000000   3.932305   0.000000   0.000000   0.000000   0.000000
     9  C    0.000000   0.000000   4.028844   0.000000   0.000000   0.000000
    10  O    0.000000   0.000000   0.000000   6.550568   0.000000   0.000000
    11  O    0.000000   0.000000   0.000000   0.000000   6.561970   0.000000
    12  C    0.000000   0.000000   0.000000   0.000000   0.000000   3.919317
    13  C    0.000000   0.000000   0.000000   0.000000   0.000000   0.000000
    14  C    0.000000   0.000000   0.000000   0.000000   0.000000   0.000000
    15  C    0.000000   0.000000   0.000000   0.000000   0.000000   0.000000
    16  O    0.000000   0.000000   0.000000   0.000000   0.000000   0.000000
    17  C    0.000000   0.000000   0.000000   0.000000   0.000000   0.000000
    18  C    0.000000   0.000000   0.000000   0.000000   0.000000   0.000000
    19  O    0.000000   0.000000   0.000000   0.000000   0.000000   0.000000
    20  O    0.000000   0.000000   0.000000   0.000000   0.000000   0.000000
    21  O    0.000000   0.000000   0.000000   0.000000   0.000000   0.000000
    22  O    0.000000   0.000000   0.000000   0.000000   0.000000   0.000000
    23  O    0.000000   0.000000   0.000000   0.000000   0.000000   0.000000
    24  H    0.000000   0.000000   0.000000   0.000000   0.000000   0.000000
    25  H    0.000000   0.000000   0.000000   0.000000   0.000000   0.000000
    26  H    0.000000   0.000000   0.000000   0.000000   0.000000   0.000000
    27  H    0.000000   0.000000   0.000000   0.000000   0.000000   0.000000
    28  H    0.000000   0.000000   0.000000   0.000000   0.000000   0.000000
    29  H    0.000000   0.000000   0.000000   0.000000   0.000000   0.000000
    30  H    0.000000   0.000000   0.000000   0.000000   0.000000   0.000000
    31  H    0.000000   0.000000   0.000000   0.000000   0.000000   0.000000
    32  H    0.000000   0.000000   0.000000   0.000000   0.000000   0.000000
    33  H    0.000000   0.000000   0.000000   0.000000   0.000000   0.000000
    34  H    0.000000   0.000000   0.000000   0.000000   0.000000   0.000000
    35  H    0.000000   0.000000   0.000000   0.000000   0.000000   0.000000
    36  H    0.000000   0.000000   0.000000   0.000000   0.000000   0.000000
    37  H    0.000000   0.000000   0.000000   0.000000   0.000000   0.000000
    38  H    0.000000   0.000000   0.000000   0.000000   0.000000   0.000000
    39  H    0.000000   0.000000   0.000000   0.000000   0.000000   0.000000
    40  H    0.000000   0.000000   0.000000   0.000000   0.000000   0.000000
    41  H    0.000000   0.000000   0.000000   0.000000   0.000000   0.000000
    42  H    0.000000   0.000000   0.000000   0.000000   0.000000   0.000000
    43  H    0.000000   0.000000   0.000000   0.000000   0.000000   0.000000
    44  H    0.000000   0.000000   0.000000   0.000000   0.000000   0.000000
    45  H    0.000000   0.000000   0.000000   0.000000   0.000000   0.000000
              13         14         15         16         17         18
     1  O    0.000000   0.000000   0.000000   0.000000   0.000000   0.000000
     2  C    0.000000   0.000000   0.000000   0.000000   0.000000   0.000000
     3  C    0.000000   0.000000   0.000000   0.000000   0.000000   0.000000
     4  O    0.000000   0.000000   0.000000   0.000000   0.000000   0.000000
     5  C    0.000000   0.000000   0.000000   0.000000   0.000000   0.000000
     6  C    0.000000   0.000000   0.000000   0.000000   0.000000   0.000000
     7  O    0.000000   0.000000   0.000000   0.000000   0.000000   0.000000
     8  C    0.000000   0.000000   0.000000   0.000000   0.000000   0.000000
     9  C    0.000000   0.000000   0.000000   0.000000   0.000000   0.000000
    10  O    0.000000   0.000000   0.000000   0.000000   0.000000   0.000000
    11  O    0.000000   0.000000   0.000000   0.000000   0.000000   0.000000
    12  C    0.000000   0.000000   0.000000   0.000000   0.000000   0.000000
    13  C    3.969548   0.000000   0.000000   0.000000   0.000000   0.000000
[...]
 .00564748,-0.01249708,0.00228580,-0.00116425,0.00340811,-0.00049307,0.
 00006263,-0.00041809,0.00076407,0.00034964,-0.00079734,-0.00020153,-0.
 00036569,0.00134553,-0.00066034,0.00016516,-0.00129090,-0.00011666,-0.
 00015496,-0.00020795,0.00099142,0.00019566,0.00043064,-0.00016940,-0.0
 0031143,0.00025397,-0.00064782,-0.00000351,0.00040485,-0.00128689,0.00
 158440,-0.00233562,-0.00009215,0.00016964,-0.00031428,-0.00000225,0.00
 000598,-0.00000467,0.00001167,0.00000641,0.00001089,0.00002530,-0.0000
 2131,0.00004159,0.00000471,-0.00000357,0.00000244,0.00003119,0.0000058
 2,0.00005805,0.00000525,0.00000238,-0.00000658,0.00000453,-0.00000629,
 -0.00001711,0.00001267,-0.00000013,-0.00003025,0.00006721,0.00001156,-
 0.00011316,0.00019964,0.00064286,0.00059915,-0.00001328,-0.00036600,0.
 00029999,0.00010051,0.00006507,-0.00002397,-0.00003438,-0.00006906,-0.
 00005948,0.00008764,-0.00024578,0.00002850,-0.00010648,0.00010408,-0.0
 0001183,-0.00007014,-0.00005768,-0.00004198,-0.00168753,-0.00073651,-0
 .00047484,0.00011763,-0.00065580,0.00040883,0.11435092,-0.00000471,-0.
 00001616,0.00000805,-0.00000332,0.00000571,0.00000262,0.00000301,0.000
 00178,-0.00000578,-0.00001210,-0.00001636,0.00000804,-0.00003334,-0.00
 001219,-0.00000545,0.00009348,0.00009808,-0.00006040,-0.00001844,-0.00
 005206,0.00001308,0.00000848,-0.00000954,0.00000716,0.00000332,0.00000
 212,0.00001199,-0.00001566,-0.00001752,0.00001555,-0.05514249,-0.04207
 977,-0.03442528,0.02437737,0.00295524,0.02602979,0.00091082,0.00011394
 ,0.00171952,-0.00000795,-0.00024027,-0.00029085,0.00042749,0.00024239,
 -0.00043824,0.00107219,-0.00019840,0.00172183,-0.00074309,-0.00427984,
 0.00266957,-0.00015655,0.00004547,0.00048198,-0.00026235,-0.00026851,-
 0.00062577,-0.00003090,-0.00019660,0.00003732,-0.00015919,-0.00001516,
 0.00005133,-0.00004972,-0.00011440,-0.00117866,0.00000208,-0.00005848,
 0.00001239,0.00000285,0.00000379,-0.00000244,0.00000451,0.00000821,0.0
 0000636,0.00000869,0.00001196,-0.00000581,0.00001251,0.00001125,-0.000
 00316,0.00000662,0.00001544,0.00003837,-0.00000057,0.00000973,-0.00000
 303,0.00000044,0.00000156,-0.00000589,0.00000413,0.00000579,-0.0000114
 2,0.00001668,0.00001621,-0.00002635,0.00099653,-0.00092166,0.00202991,
 -0.00002072,0.00014253,-0.00018992,0.00005497,0.00005551,0.00006242,-0
 .00002643,-0.00001985,-0.00004138,-0.00024087,-0.00018515,-0.00011200,
 0.00002333,0.00000608,-0.00000206,0.00006978,-0.00003598,-0.00004615,0
 .00022392,0.00043610,0.00006412,-0.00005857,0.00000345,-0.00023286,0.0
 2864877,0.04438524,-0.00004921,0.00005209,0.00009906,-0.00003151,-0.00
 003870,-0.00002701,0.00010779,-0.00003511,-0.00009699,-0.00017376,0.00
 008352,0.00005836,0.00000988,-0.00014201,0.00010767,0.00064932,0.00058
 376,-0.00045293,-0.00008437,-0.00022426,0.00042795,0.00004097,-0.00012
 890,-0.00019209,-0.00003015,0.00005359,0.00009206,-0.00000198,-0.00004
 863,0.00007976,-0.08204137,-0.00858055,-0.09434678,-0.02527819,0.00237
 354,-0.03703108,0.00118120,0.00148571,-0.00268675,0.00013953,-0.000341
 57,-0.00035673,-0.00056368,0.00034606,-0.00037570,-0.00036407,-0.00025
 245,-0.00001293,-0.00078389,0.00307335,-0.00280639,-0.00010230,-0.0001
 5089,0.00090934,0.00026704,-0.00004704,-0.00105164,0.00028432,-0.00053
 426,0.00020795,-0.00084570,-0.00011864,0.00076892,-0.00120439,-0.00086
 911,-0.00007588,-0.00017945,0.00008675,-0.00001071,0.00001720,0.000024
 36,-0.00001734,0.00002048,0.00002065,0.00002027,0.00007453,-0.00001887
 ,0.00001355,0.00000971,-0.00000891,-0.00003912,0.00001894,0.00000356,0
 .00002709,-0.00000066,0.00005103,0.00000701,0.00000765,-0.00001501,-0.
 00004678,0.00001015,0.00000167,-0.00006240,0.00002101,0.00003338,-0.00
 010766,-0.00039133,0.00038721,0.00247753,0.00030456,-0.00022121,-0.000
 73423,0.00007049,0.00015479,0.00010512,0.00005407,-0.00006017,-0.00006
 985,0.00019146,-0.00006059,0.00008400,-0.00006416,0.00007230,-0.000071
 50,-0.00005057,-0.00005282,-0.00012553,-0.00070893,0.00022869,0.001310
 65,0.00059594,0.00005372,-0.00001123,0.10884490,0.00271493,0.13401372,
 -0.00009883,-0.00013109,-0.00019433,0.00058810,0.00035634,-0.00033026,
 -0.00285030,0.00046506,-0.00247489,-0.00007579,0.00039239,0.00022140,0
 .00544684,0.02510314,-0.01672014,-0.00095554,0.00219924,-0.00409959,-0
 .00048152,0.00033993,0.00087753,0.00012637,-0.00015445,-0.00016056,0.0
 0016227,-0.00006205,0.00007747,-0.00017882,0.00006999,0.00007693,0.000
 10800,0.00002394,-0.00016317,-0.00005400,-0.00012277,0.00011175,0.0000
 5799,-0.00001630,-0.00008266,-0.00014212,-0.00027468,-0.00011417,-0.00
 017222,0.00022976,-0.00014024,0.00005807,-0.00006192,0.00011005,-0.000
 03869,0.00003508,-0.00012271,-0.00000238,-0.00001701,0.00007685,0.0000
 5901,0.00000775,-0.00005630,0.00006048,-0.00020569,0.00010307,-0.00019
 417,-0.00058624,0.00114872,0.00012479,-0.00020818,-0.00006379,-0.05124
 387,-0.07308449,0.03094043,-0.00017988,0.00002297,-0.00009784,-0.00025
 433,-0.00017927,0.00006428,-0.00005206,-0.00049637,0.00015355,0.000376
 28,0.00081903,-0.00128261,-0.00016093,0.00001575,-0.00015620,0.0000199
 8,-0.00003332,0.00005140,0.00002044,0.00000629,0.00000448,0.00002163,0
 .00004072,-0.00006213,0.00005544,0.00000328,-0.00010507,0.00001083,0.0
 0005319,0.00000002,-0.00020790,0.00016173,0.00014669,0.00002918,0.0000
 5361,-0.00005036,0.00002785,0.00000310,-0.00002104,-0.00001936,0.00000
 654,0.00001104,-0.00001405,0.00001761,-0.00000798,-0.00000882,-0.00000
 734,-0.00001149,-0.00005360,-0.00001041,0.00002841,-0.00005605,0.00027
 463,0.00020493,-0.00003394,0.00001827,0.00010191,0.05019859,0.00002827
 ,-0.00060629,-0.00050475,0.00051119,0.00046641,0.00019805,-0.00138780,
 0.00131138,0.00069747,0.00097041,-0.00121811,-0.00012906,0.00158851,-0
 .01985203,0.01580980,0.00279764,-0.00185166,0.00036968,-0.00054616,0.0
 0040313,-0.00063846,0.00013362,0.00029174,0.00035020,0.00032155,-0.000
 19881,-0.00005261,-0.00034537,0.00013190,0.00001826,0.00011084,-0.0002
 4387,0.00023657,0.00002385,0.00014972,-0.00022530,0.00001698,0.0000584
 6,0.00005644,0.00026833,-0.00039538,-0.00055668,0.00047318,0.00008089,
 -0.00007048,-0.00030172,-0.00018265,0.00025779,-0.00003530,0.00012833,
 -0.00009790,0.00001631,-0.00003945,-0.00006346,-0.00003161,-0.00006228
 ,0.00009857,-0.00022714,0.00001224,0.00002708,-0.00132233,-0.00001349,
 0.00051773,-0.00025082,-0.00024604,0.00024476,-0.04666702,-0.13151536,
 0.08796872,-0.00016205,-0.00005977,-0.00002126,-0.00011546,-0.00014888
 ,-0.00024270,-0.00040573,0.00074799,-0.00023675,-0.00060710,0.00318602
 ,-0.00130825,-0.00002730,-0.00036350,-0.00011541,0.00001986,-0.0001465
 2,-0.00004638,-0.00000056,0.00006012,0.00008854,0.00002566,0.00006973,
 0.00001061,0.00011673,-0.00000556,-0.00005972,-0.00000904,-0.00001415,
 -0.00000563,-0.00002734,0.00025652,0.00000820,0.00005842,-0.00003081,-
 0.00000122,-0.00001820,0.00005973,0.00001649,-0.00001062,0.00006028,0.
 00001277,0.00001394,0.00000566,-0.00000087,0.00000284,0.00002627,0.000
 01004,0.00000676,0.00006181,-0.00003646,0.00027329,0.00010084,-0.00041
 859,-0.00007459,0.00005403,-0.00005926,0.04486528,0.14922341,0.0000556
 2,-0.00031121,0.00025567,0.00066833,0.00044373,-0.00055820,-0.00318733
 ,0.00225683,-0.00463552,-0.00036957,-0.00047325,0.00095014,0.00326822,
 0.03227546,-0.02873066,-0.00077752,0.00004628,0.00098667,0.00047224,-0
 .00086578,-0.00001998,-0.00002488,0.00000979,-0.00009103,-0.00019832,0
 .00010376,0.00001429,0.00023173,-0.00014744,-0.00006812,-0.00025477,0.
 00009839,-0.00008441,-0.00001354,-0.00002294,0.00002047,0.00038347,0.0
 0012232,0.00039530,-0.00020617,0.00032864,0.00050442,-0.00012919,-0.00
 016208,0.00014029,0.00012540,0.00012849,-0.00030635,0.00007472,-0.0001
 2400,0.00021451,-0.00000999,0.00002576,-0.00000510,-0.00006886,0.00002
 256,-0.00005076,0.00007235,0.00010529,-0.00012795,0.00075882,-0.000138
 03,-0.00130307,-0.00073965,0.00026499,-0.00030870,0.00702686,0.0689306
 6,-0.05657217,-0.00011157,0.00008445,-0.00013701,-0.00014171,-0.000044
 48,0.00019552,0.00059809,0.00039299,-0.00048541,-0.00037485,-0.0004208
 9,-0.00024525,0.00029228,-0.00009027,0.00024512,-0.00000819,0.00006242
 ,-0.00003135,-0.00000959,0.00000567,-0.00003647,-0.00003663,0.00000631
 ,0.00000180,-0.00008239,0.00002309,0.00010291,0.00000731,-0.00002966,0
 .00001021,0.00020089,-0.00016835,-0.00003807,0.00000154,-0.00001460,0.
 00002547,-0.00003256,0.00001648,0.00003524,0.00000064,0.00000084,0.000
 00269,0.00000743,-0.00001359,0.00000906,0.00000807,-0.00000129,0.00000
 762,0.00007200,-0.00002097,0.00000618,0.00052369,-0.00058281,-0.000045
 04,0.00017787,-0.00002704,-0.00002969,-0.00812230,-0.10223448,0.090022
 43,0.00007380,-0.00013016,-0.00015381,0.00004527,0.00007470,0.00003654
 ,-0.00014098,0.00003767,0.00010141,0.00020908,-0.00013222,-0.00006298,
 -0.00007267,0.00014707,-0.00018451,-0.00067948,-0.00019472,0.00020175,
 0.00038144,0.00000679,-0.00050235,-0.00010311,0.00013517,0.00042858,0.
 00012000,-0.00016320,-0.00020738,-0.00027432,0.00008331,-0.00015245,-0
 .00026294,-0.00020400,0.00033127,0.00027954,0.00031628,-0.00043365,-0.
 00034545,-0.00010387,-0.00050990,-0.00140978,0.00144917,-0.00078085,-0
 .00824054,0.01335309,0.00354585,0.00016751,0.00064566,-0.00105957,-0.0
 0091521,0.00003996,0.00084684,0.00000325,0.00004277,0.00007067,-0.0002
 9460,0.00013529,-0.00005660,-0.04994565,0.06788696,0.05445468,0.000733
 41,-0.00038634,-0.00025104,0.00025889,-0.00006089,0.00045236,0.0001846
 9,-0.00018283,0.00012986,-0.00001591,-0.00003891,0.00002746,-0.0000233
 2,-0.00001735,-0.00001510,-0.00007706,0.00003483,-0.00002321,0.0000183
 2,0.00003746,0.00002884,-0.00004817,0.00002741,-0.00004191,-0.00001912
 ,-0.00004956,0.00003409,-0.00000963,0.00005409,0.00008963,-0.00003937,
 0.00004594,0.00013779,0.00008276,-0.00001198,0.00027249,0.00006223,-0.
 00003566,-0.00004889,0.00000355,0.00004575,0.00009869,-0.00085683,0.00
 049445,-0.00051545,0.00100392,-0.00115677,0.00102768,0.00002341,0.0000
 8214,-0.00014600,0.00008043,-0.00036029,0.00025710,-0.00004141,-0.0000
 2936,0.00004866,0.00018409,-0.00005999,0.00000029,-0.00014285,0.000074
 17,-0.00009472,0.00003924,-0.00000468,-0.00011259,-0.00002326,0.000101
 91,-0.00003779,0.06008382,-0.00005057,-0.00000851,0.00007944,-0.000029
 10,-0.00001707,-0.00002033,0.00007334,-0.00000670,-0.00007794,-0.00013
 656,0.00003616,0.00005229,-0.00001514,-0.00016541,0.00013486,0.0007230
 3,0.00075392,-0.00063537,-0.00014663,-0.00038837,0.00032595,0.00010409
 ,-0.00018261,-0.00006868,0.00005311,0.00010367,0.00018134,-0.00024331,
 -0.00034286,0.00034408,-0.00026013,0.00003321,-0.00046571,0.00014479,-
 0.00011958,0.00017828,-0.00004280,-0.00010129,0.00032987,0.00069045,0.
 00030685,-0.00115512,0.02715450,-0.04909933,-0.01698102,-0.00228472,-0
 .00122596,-0.00056134,0.00090771,-0.00103283,0.00133304,-0.00012826,0.
 00018109,0.00030950,0.00007671,0.00006093,-0.00062707,0.05485520,-0.08
 226673,-0.04144207,-0.00095882,-0.00019145,0.00041411,-0.00063162,-0.0
 0020848,-0.00042291,-0.00011931,0.00005219,-0.00004446,0.00001405,0.00
 003290,-0.00001941,0.00001999,0.00003185,0.00001899,0.00005572,-0.0000
 0170,0.00000510,0.00001730,-0.00000873,-0.00001811,0.00000755,0.000021
 24,0.00006807,-0.00004368,0.00013713,-0.00000303,0.00002769,-0.0000174
 7,-0.00006631,0.00006572,-0.00001402,-0.00013039,0.00032844,0.00074702
 ,-0.00117717,-0.00004056,0.00027408,0.00010231,0.00003296,-0.00008507,
 -0.00005364,0.00024679,0.00072039,0.00011296,0.00139911,-0.00525120,0.
 00187842,0.00001267,-0.00002586,-0.00027255,-0.00015474,0.00020769,0.0
 0000835,-0.00001259,-0.00007273,-0.00004417,-0.00000748,-0.00012376,0.
 00011106,0.00019771,-0.00001706,-0.00004369,0.00010834,0.00010088,0.00
 014827,0.00004035,-0.00003387,-0.00000095,-0.08207867,0.13721470,-0.00
 003950,0.00000843,0.00003787,-0.00001010,-0.00000683,-0.00000707,0.000
 04041,-0.00001142,-0.00004332,-0.00008659,0.00003318,0.00001709,-0.000
 00179,-0.00011576,0.00008390,0.00035850,0.00040360,-0.00037288,-0.0000
 6001,-0.00016383,0.00013577,0.00004053,-0.00004513,-0.00002348,-0.0000
 4127,0.00000647,-0.00004398,0.00006380,-0.00009862,-0.00023892,0.00020
 278,-0.00012561,-0.00017094,-0.00026174,-0.00002713,0.00015711,-0.0000
 9466,0.00004787,0.00026164,-0.00028918,0.00240194,-0.00177787,-0.01094
 324,0.00905323,0.01577955,0.00045658,-0.00221167,-0.00198993,0.0006723
 5,0.00008312,-0.00011382,-0.00002494,-0.00007807,0.00012586,0.00001964
 ,-0.00019817,-0.00009519,0.06921858,-0.07001548,-0.09954826,-0.0004264
 6,-0.00039544,0.00009090,-0.00034638,-0.00031328,-0.00039681,-0.000072
 54,0.00004970,-0.00007270,0.00000766,0.00001379,-0.00000907,0.00001299
 ,0.00001695,0.00001268,0.00003534,-0.00000668,0.00001180,0.00002100,-0
 .00000228,-0.00000909,-0.00002836,0.00001522,0.00006941,0.00000378,0.0
 0002188,-0.00000291,0.00002434,-0.00001411,-0.00002269,0.00001525,0.00
 005350,-0.00006730,-0.00025898,-0.00040805,0.00105851,-0.00012175,0.00
 032991,-0.00003427,0.00009637,0.00000439,-0.00006068,-0.00021837,0.000
 64802,0.00017939,-0.00076184,0.00243869,-0.00197259,-0.00005052,-0.000
 06765,0.00007678,0.00007486,0.00034732,-0.00011085,0.00005980,-0.00000
 048,0.00000298,-0.00005759,0.00006557,-0.00000951,0.00008158,0.0000160
 4,-0.00004004,-0.00005708,0.00004207,0.00007521,0.00001539,-0.00002300
 ,0.00002022,-0.05729134,0.05823947,0.08905777,-0.13612603,0.09305549,0
 .02801906,0.01103823,-0.00412295,0.00142427,0.00279543,-0.00418709,-0.
 00297792,-0.00259423,0.00059581,0.00100270,-0.00006017,-0.00021672,0.0
 0074749,-0.00027726,-0.00110377,0.00086516,0.00039438,0.00014187,-0.00
 168439,-0.00189162,-0.00201690,-0.00006446,-0.00116528,0.00042061,-0.0
 0022108,0.00049231,-0.00024110,0.00006096,-0.00002006,0.00005326,-0.00
 011042,-0.00002614,-0.00005206,0.00006955,0.00008222,0.00002313,0.0000
 4954,-0.00013918,0.00007587,0.00015335,-0.00016498,-0.00007932,0.00014
 671,0.00011413,0.00006545,-0.00016869,0.00003063,-0.00006329,0.0000632
 9,-0.00001019,0.00001057,0.00005007,0.00001552,0.00002430,-0.00007091,
 0.00011423,0.00001878,-0.00010402,0.00036305,0.00022530,-0.00034880,-0
 .00008017,0.00000979,-0.00009818,-0.00047618,0.00057188,-0.00024442,-0
 .00013738,-0.00162214,-0.00212646,-0.00037419,0.00060966,0.00015911,0.
 00063006,0.00109294,0.00075896,0.00015251,-0.00001039,0.00022748,0.000
 01583,0.00015559,-0.00000459,0.00022515,0.00014887,-0.00019276,-0.0000
 2728,0.00002201,-0.00008050,0.00006405,0.00002535,0.00011314,-0.000160
 24,0.00007719,0.00014566,0.00000040,0.00001398,0.00000882,0.00000243,-
 0.00002161,-0.00000194,-0.00000885,-0.00000488,0.00002535,-0.00001517,
 0.00000753,0.00003056,-0.00000447,-0.00000689,0.00000109,-0.00000934,0
 .00000279,0.00000165,-0.00000387,-0.00000973,-0.00000447,-0.00000846,-
 0.00002280,0.00002226,0.00003936,-0.00003163,0.00004196,0.00002204,0.0
 0000152,0.00003971,0.00000058,-0.00017247,-0.00009032,-0.00005629,0.00
 002757,0.00002322,0.12724463,0.06359014,-0.08403034,-0.03554515,0.0239
 4802,-0.03884442,-0.01765389,-0.00130922,0.00186596,-0.00195888,-0.002
 51941,-0.00274430,-0.00302533,-0.00002512,-0.00004808,-0.00041499,0.00
 025802,0.00086489,-0.00066559,0.00033353,-0.00052747,0.00104990,-0.001
 15596,-0.00321188,-0.00285371,0.00065387,-0.00009546,0.00016953,-0.000
 77505,0.00024697,0.00023663,0.00002157,-0.00006493,0.00008346,0.000018
 23,0.00004194,-0.00006790,-0.00003612,-0.00001327,-0.00002844,0.000086
 47,-0.00010794,-0.00014418,0.00014551,0.00015772,-0.00017372,-0.000112
 39,-0.00010011,0.00016400,-0.00002788,0.00006453,-0.00006640,0.0000098
 4,-0.00001946,-0.00002596,-0.00001641,-0.00002820,0.00004653,-0.000104
 93,-0.00010087,0.00011766,-0.00038909,-0.00027297,0.00035451,0.0000275
 2,-0.00004068,0.00007810,0.00012782,-0.00068206,0.00021942,-0.00067127
 ,-0.00178718,-0.00000616,0.00035469,-0.00052196,0.00017919,-0.00005676
 ,0.00048666,0.00011956,0.00002719,0.00039303,0.00029829,0.00000320,-0.
 00013448,0.00000825,0.00021892,-0.00023324,-0.00000222,0.00060272,-0.0
 0002430,-0.00010755,0.00003291,0.00014929,-0.00016146,0.00014488,0.000
 00513,-0.00028087,-0.00000158,-0.00000390,-0.00000480,-0.00000489,0.00
 004083,0.00001253,0.00001393,0.00001364,-0.00002833,0.00001393,0.00002
 640,-0.00000327,0.00000009,0.00002298,0.00000921,0.00000708,0.00000464
 ,-0.00000179,0.00000356,0.00001302,0.00000493,0.00000677,0.00002463,-0
 .00001563,-0.00001234,0.00003968,-0.00004292,-0.00001714,0.00000621,-0
 .00002457,0.00002660,0.00028232,0.00013892,0.00004994,-0.00000747,-0.0
 0001202,-0.08349224,0.12889552,0.01099950,-0.03148274,-0.01676214,0.01
 654445,-0.02141288,-0.01325014,-0.00045375,-0.00392375,-0.00404453,-0.
 00183475,-0.00037129,-0.00250623,-0.00009009,0.00023496,-0.00052809,0.
 00066596,-0.00079831,0.00030146,-0.00001657,0.00018574,-0.00091919,-0.
 00071850,-0.00351087,-0.00144175,0.00008558,-0.00016046,0.00003676,-0.
 00020264,0.00018084,-0.00008946,-0.00003769,-0.00003940,0.00010985,0.0
 0004202,0.00005554,-0.00007038,-0.00007563,0.00001362,-0.00000145,0.00
 010846,-0.00010295,-0.00024953,0.00026190,-0.00008597,0.00005904,-0.00
 015010,-0.00002316,0.00005349,-0.00000020,0.00003297,0.00000522,0.0000
 0717,0.00000094,-0.00005426,-0.00004162,-0.00001455,0.00005489,-0.0001
 3610,0.00013740,-0.00003029,-0.00042780,0.00027276,0.00031485,-0.00002
 787,0.00001783,0.00007518,-0.00002686,-0.00008228,0.00075563,0.0003633
 8,0.00046800,0.00158661,-0.00004765,-0.00031116,0.00015110,-0.00026171
 ,0.00100176,-0.00007057,0.00020086,-0.00001773,-0.00056650,-0.00011583
 ,0.00006485,-0.00005729,0.00032941,-0.00019842,-0.00006842,0.00034181,
 -0.00010881,0.00008735,0.00006191,-0.00005531,0.00003978,0.00000543,-0
 .00003202,-0.00000023,0.00000047,-0.00002399,-0.00000875,0.00002616,-0
 .00000638,-0.00002062,-0.00000025,-0.00003714,0.00000683,0.00000077,0.
 00000337,0.00000029,0.00000946,0.00000442,-0.00000496,0.00001472,-0.00
 001091,0.00000409,0.00000745,0.00000881,0.00000858,0.00003218,0.000014
 29,-0.00001990,0.00003293,-0.00001200,-0.00006692,0.00000805,-0.000007
 67,-0.00004617,0.00011305,0.00015039,-0.00025537,0.00005916,-0.0000434
 9,-0.00001923,-0.02565661,0.06002481,0.03750118\\0.00002208,0.00000311
 ,0.00002498,-0.00000053,-0.00001858,-0.00003067,-0.00000154,-0.0000097
 5,-0.00000750,-0.00002484,-0.00000044,-0.00001060,-0.00001013,0.000033
 91,0.00004259,0.00001523,-0.00004599,-0.00003399,0.00002951,0.00002899
 ,-0.00001584,-0.00003773,-0.00003459,0.00002265,0.00003649,-0.00000225
 ,0.00001608,-0.00002249,0.00001504,0.00004322,0.00001340,0.00000447,-0
 .00002761,-0.00005359,-0.00000843,0.00003357,0.00002749,-0.00003730,0.
 00000842,0.00005818,-0.00000317,-0.00005384,-0.00001382,-0.00002306,-0
 .00000620,0.00001040,0.00002188,-0.00000154,0.00000603,-0.00001459,0.0
 0002423,0.00000705,-0.00000379,-0.00001194,-0.00000228,0.00001295,0.00
 000409,0.00000748,0.00000990,0.00000131,-0.00005161,0.00000963,0.00001
 181,0.00002670,-0.00000009,-0.00002917,-0.00001420,-0.00002561,0.00000
 184,0.00000956,-0.00000023,0.00000930,0.00000325,0.00000198,0.00001105
 ,0.00001088,0.00000611,0.00000956,-0.00000010,-0.00001584,-0.00001142,
 0.00001193,0.00001567,0.00001900,-0.00000507,0.00001624,-0.00000660,-0
 .00000038,0.00000042,-0.00001626,-0.00000672,0.00000270,0.00000180,0.0
 0000547,-0.00001003,-0.00004208,0.00001303,0.00000305,-0.00001137,-0.0
 0001223,0.00002574,0.00000071,-0.00000972,0.00000146,0.00000916,0.0000
 0403,0.00000443,0.00000939,-0.00000539,0.00000256,-0.00000650,-0.00000
 369,-0.00000146,-0.00000060,-0.00000302,-0.00000125,0.00000058,0.00000
 324,-0.00001118,0.00000410,-0.00003417,0.00000013,0.00002097,0.0000005
 5,0.00000661,0.00001260,0.00001088,0.00002834,-0.00001350,-0.00000143,
 -0.00000873,-0.00000542,-0.00001817,0.00002107,-0.00000032\\\@


 YOU CAN LEAD A BOY TO COLLEGE....
 BUT YOU CANNOT MAKE HIM THINK....
           ELBERT HUBBARD
 Job cpu time:       0 days  0 hours  0 minutes 10.9 seconds.
 Elapsed time:       0 days  0 hours  0 minutes  0.9 seconds.
 File lengths (MBytes):  RWF=    217 Int=      0 D2E=      0 Chk=      4 Scr=      1
 Normal termination of Gaussian 16 at Tue Jun 22 14:21:10 2021.
