 Entering Gaussian System, Link 0=g09
 Initial command:
 /share/apps//g09/l1.exe "/scratch/Gau-7909.inp" -scrdir="/scratch/"
 Entering Link 1 = /share/apps//g09/l1.exe PID=      7911.
  
 Copyright (c) 1988,1990,1992,1993,1995,1998,2003,2009,2013,
            Gaussian, Inc.  All Rights Reserved.
  
 This is part of the Gaussian(R) 09 program.  It is based on
 the Gaussian(R) 03 system (copyright 2003, Gaussian, Inc.),
 the Gaussian(R) 98 system (copyright 1998, Gaussian, Inc.),
 the Gaussian(R) 94 system (copyright 1995, Gaussian, Inc.),
 the Gaussian 92(TM) system (copyright 1992, Gaussian, Inc.),
 the Gaussian 90(TM) system (copyright 1990, Gaussian, Inc.),
 the Gaussian 88(TM) system (copyright 1988, Gaussian, Inc.),
 the Gaussian 86(TM) system (copyright 1986, Carnegie Mellon
 University), and the Gaussian 82(TM) system (copyright 1983,
 Carnegie Mellon University). Gaussian is a federally registered
 trademark of Gaussian, Inc.
  
 This software contains proprietary and confidential information,
 including trade secrets, belonging to Gaussian, Inc.
  
 This software is provided under written license and may be
 used, copied, transmitted, or stored only in accord with that
 written license.
  
 The following legend is applicable only to US Government
 contracts under FAR:
  
                    RESTRICTED RIGHTS LEGEND
  
 Use, reproduction and disclosure by the US Government is
 subject to restrictions as set forth in subparagraphs (a)
 and (c) of the Commercial Computer Software - Restricted
 Rights clause in FAR 52.227-19.
  
 Gaussian, Inc.
 340 Quinnipiac St., Bldg. 40, Wallingford CT 06492
  
  
 ---------------------------------------------------------------
 Warning -- This program may not be used in any manner that
 competes with the business of Gaussian, Inc. or will provide
 assistance to any competitor of Gaussian, Inc.  The licensee
 of this program is prohibited from giving any competitor of
 Gaussian, Inc. access to this program.  By using this program,
 the user acknowledges that Gaussian, Inc. is engaged in the
 business of creating and licensing software in the field of
 computational chemistry and represents and warrants to the
 licensee that it is not a competitor of Gaussian, Inc. and that
 it will not use this program in any manner prohibited above.
 ---------------------------------------------------------------
  

 Cite this work as:
 Gaussian 09, Revision D.01,
 M. J. Frisch, G. W. Trucks, H. B. Schlegel, G. E. Scuseria, 
 M. A. Robb, J. R. Cheeseman, G. Scalmani, V. Barone, B. Mennucci, 
 G. A. Petersson, H. Nakatsuji, M. Caricato, X. Li, H. P. Hratchian, 
 A. F. Izmaylov, J. Bloino, G. Zheng, J. L. Sonnenberg, M. Hada, 
 M. Ehara, K. Toyota, R. Fukuda, J. Hasegawa, M. Ishida, T. Nakajima, 
 Y. Honda, O. Kitao, H. Nakai, T. Vreven, J. A. Montgomery, Jr., 
 J. E. Peralta, F. Ogliaro, M. Bearpark, J. J. Heyd, E. Brothers, 
 K. N. Kudin, V. N. Staroverov, T. Keith, R. Kobayashi, J. Normand, 
 K. Raghavachari, A. Rendell, J. C. Burant, S. S. Iyengar, J. Tomasi, 
 M. Cossi, N. Rega, J. M. Millam, M. Klene, J. E. Knox, J. B. Cross, 
 V. Bakken, C. Adamo, J. Jaramillo, R. Gomperts, R. E. Stratmann, 
 O. Yazyev, A. J. Austin, R. Cammi, C. Pomelli, J. W. Ochterski, 
 R. L. Martin, K. Morokuma, V. G. Zakrzewski, G. A. Voth, 
 P. Salvador, J. J. Dannenberg, S. Dapprich, A. D. Daniels, 
 O. Farkas, J. B. Foresman, J. V. Ortiz, J. Cioslowski, 
 and D. J. Fox, Gaussian, Inc., Wallingford CT, 2013.
 
 ******************************************
 Gaussian 09:  EM64L-G09RevD.01 24-Apr-2013
                20-May-2016 
 ******************************************
 %nproc=20
 Will use up to   20 processors via shared memory.
 %mem=80GB
 %chk=Tri_A154_of.chk
 ----------------------------------------------------------------------
 #P PBE1PBE/6-311+G(d,p) opt=ModRedundant optcyc=999 freq EmpiricalDisp
 ersion=GD3
 ----------------------------------------------------------------------
 1/6=999,14=-1,18=120,19=15,26=3,38=1/1,3;
 2/9=110,12=2,17=6,18=5,40=1/2;
 3/5=4,6=6,7=111,11=2,16=1,25=1,30=1,71=1,74=-13,124=31/1,2,3;
 4//1;
 5/5=2,38=5/2;
 6/7=2,8=2,9=2,10=2,28=1/1;
 7//1,2,3,16;
 1/6=999,14=-1,18=20,19=15,26=3/3(2);
 2/9=110/2;
 99//99;
 2/9=110/2;
 3/5=4,6=6,7=111,11=2,16=1,25=1,30=1,71=1,74=-13,124=31/1,2,3;
 4/5=5,16=3,69=1/1;
 5/5=2,38=5/2;
 7//1,2,3,16;
 1/6=999,14=-1,18=20,19=15,26=3/3(-5);
 2/9=110/2;
 6/7=2,8=2,9=2,10=2,19=2,28=1/1;
 99/9=1/99;
 Leave Link    1 at Fri May 20 01:28:36 2016, MaxMem= 10737418240 cpu:         2.4
 (Enter /share/apps//g09/l101.exe)
 -------
 disacch
 -------
 Symbolic Z-matrix:
 Charge =  1 Multiplicity = 1
 O                     3.20074   0.00862   2.28383 
 C                     1.86873  -0.33975   2.02463 
 C                     1.67209  -0.91282   0.62031 
 C                     2.05044   0.14423  -0.44569 
 C                     3.26897   1.04565   0.00891 
 C                     4.03254   0.34341   1.13838 
 C                     5.24569   1.06218   1.72587 
 O                     4.95799   2.26481   2.45483 
 O                     2.80544   2.34934   0.36295 
 O                     0.94838   0.99488  -0.78298 
 O                     2.49611  -2.07721   0.5409 
 O                     1.05733   0.85763   2.14044 
 C                    -0.09473   0.82576   3.00199 
 C                    -1.36219   1.04031   2.17386 
 O                    -1.35692   0.13793   1.05734 
 C                    -1.46063   2.47121   1.65617 
 C                    -1.34036   3.49277   2.79683 
 O                    -0.13882   3.24931   3.54556 
 C                     0.03415   1.92993   4.0763 
 C                     1.42819   1.94808   4.72062 
 O                     2.40355   2.49292   3.81317 
 O                    -1.29888   4.82899   2.36249 
 C                    -0.24735   5.18957   1.44396 
 C                    -0.86796   5.65335   0.12312 
 C                     0.18835   6.23824  -0.81071 
 C                     1.01532   7.31389  -0.10652 
 O                     1.57397   6.7587    1.09881 
 C                     0.5649    6.36044   2.0417 
 C                     1.27481   6.06418   3.35915 
 O                     2.35707   5.13968   3.22469 
 O                     2.05522   7.64849  -0.96517 
 C                     2.86929   8.77332  -0.54297 
 C                     4.3045    8.5144   -0.98757 
 C                     4.87696   7.1755   -0.497 
 C                     5.0309    7.06647   1.02627 
 C                     5.40487   5.66737   1.50795 
 N                     4.26932   4.70052   1.37077 
 O                    -0.51946   6.73322  -1.94494 
 O                    -1.51934   4.55675  -0.53816 
 O                    -2.69711   2.57423   0.97081 
 H                     1.56884  -1.06138   2.80153 
 H                     0.60625  -1.16882   0.50827 
 H                     2.35202  -0.40178  -1.354 
 H                     3.97254   1.13029  -0.84061 
 H                     4.41434  -0.60011   0.70545 
 H                     5.93255   1.34207   0.91443 
 H                     5.77425   0.35595   2.3863 
 H                     4.29913   2.06294   3.15594 
 H                     1.88804   2.3506   -0.00846 
 H                     0.18941   0.7586   -0.20235 
 H                     2.14976  -2.65361  -0.16141 
 H                    -0.14593  -0.15423   3.50753 
 H                    -2.23796   0.83006   2.81733 
 H                    -2.16107   0.36591   0.54846 
 H                    -0.61654   2.62942   0.96176 
 H                    -2.22921   3.44484   3.45218 
 H                    -0.72117   1.72985   4.86329 
 H                     1.42459   2.59493   5.60751 
 H                     1.71359   0.9297    5.03482 
 H                     2.20897   2.0434    2.95308 
 H                     0.43837   4.34398   1.27539 
 H                    -1.61724   6.4343    0.35515 
 H                     0.89148   5.43356  -1.10293 
 H                     0.39187   8.19646   0.15463 
 H                    -0.13269   7.20092   2.23617 
 H                     1.70148   7.00789   3.73066 
 H                     0.54149   5.69985   4.09089 
 H                     2.10056   4.21971   3.49565 
 H                     2.80143   8.87813   0.55015 
 H                     2.47463   9.69236  -1.00651 
 H                     4.92591   9.35538  -0.63793 
 H                     4.34529   8.53553  -2.08757 
 H                     5.85782   7.01352  -0.97203 
 H                     4.21263   6.38064  -0.87546 
 H                     4.10247   7.36891   1.53528 
 H                     5.81544   7.75898   1.3699 
 H                     6.26208   5.26064   0.95168 
 H                     5.6692    5.67322   2.57347 
 H                     3.92998   4.60649   0.40705 
 H                     3.44765   4.99522   1.97772 
 H                     4.53852   3.73161   1.69679 
 H                     0.13641   7.03715  -2.59771 
 H                    -1.76674   4.88598  -1.42377 
 H                    -2.58893   3.33069   0.34918 
 
 The following ModRedundant input section has been read:
 
 NAtoms=     84 NQM=       84 NQMF=       0 NMMI=      0 NMMIF=      0
                NMic=       0 NMicF=      0.
                    Isotopes and Nuclear Properties:
 (Nuclear quadrupole moments (NQMom) in fm**2, nuclear magnetic moments (NMagM)
  in nuclear magnetons)

  Atom         1           2           3           4           5           6           7           8           9          10
 IAtWgt=          16          12          12          12          12          12          12          16          16          16
 AtmWgt=  15.9949146  12.0000000  12.0000000  12.0000000  12.0000000  12.0000000  12.0000000  15.9949146  15.9949146  15.9949146
 NucSpn=           0           0           0           0           0           0           0           0           0           0
 AtZEff=   0.0000000   0.0000000   0.0000000   0.0000000   0.0000000   0.0000000   0.0000000   0.0000000   0.0000000   0.0000000
 NQMom=    0.0000000   0.0000000   0.0000000   0.0000000   0.0000000   0.0000000   0.0000000   0.0000000   0.0000000   0.0000000
 NMagM=    0.0000000   0.0000000   0.0000000   0.0000000   0.0000000   0.0000000   0.0000000   0.0000000   0.0000000   0.0000000
 AtZNuc=   8.0000000   6.0000000   6.0000000   6.0000000   6.0000000   6.0000000   6.0000000   8.0000000   8.0000000   8.0000000

  Atom        11          12          13          14          15          16          17          18          19          20
 IAtWgt=          16          16          12          12          16          12          12          16          12          12
 AtmWgt=  15.9949146  15.9949146  12.0000000  12.0000000  15.9949146  12.0000000  12.0000000  15.9949146  12.0000000  12.0000000
 NucSpn=           0           0           0           0           0           0           0           0           0           0
 AtZEff=   0.0000000   0.0000000   0.0000000   0.0000000   0.0000000   0.0000000   0.0000000   0.0000000   0.0000000   0.0000000
 NQMom=    0.0000000   0.0000000   0.0000000   0.0000000   0.0000000   0.0000000   0.0000000   0.0000000   0.0000000   0.0000000
 NMagM=    0.0000000   0.0000000   0.0000000   0.0000000   0.0000000   0.0000000   0.0000000   0.0000000   0.0000000   0.0000000
 AtZNuc=   8.0000000   8.0000000   6.0000000   6.0000000   8.0000000   6.0000000   6.0000000   8.0000000   6.0000000   6.0000000

  Atom        21          22          23          24          25          26          27          28          29          30
 IAtWgt=          16          16          12          12          12          12          16          12          12          16
 AtmWgt=  15.9949146  15.9949146  12.0000000  12.0000000  12.0000000  12.0000000  15.9949146  12.0000000  12.0000000  15.9949146
 NucSpn=           0           0           0           0           0           0           0           0           0           0
 AtZEff=   0.0000000   0.0000000   0.0000000   0.0000000   0.0000000   0.0000000   0.0000000   0.0000000   0.0000000   0.0000000
 NQMom=    0.0000000   0.0000000   0.0000000   0.0000000   0.0000000   0.0000000   0.0000000   0.0000000   0.0000000   0.0000000
 NMagM=    0.0000000   0.0000000   0.0000000   0.0000000   0.0000000   0.0000000   0.0000000   0.0000000   0.0000000   0.0000000
 AtZNuc=   8.0000000   8.0000000   6.0000000   6.0000000   6.0000000   6.0000000   8.0000000   6.0000000   6.0000000   8.0000000

  Atom        31          32          33          34          35          36          37          38          39          40
 IAtWgt=          16          12          12          12          12          12          14          16          16          16
 AtmWgt=  15.9949146  12.0000000  12.0000000  12.0000000  12.0000000  12.0000000  14.0030740  15.9949146  15.9949146  15.9949146
 NucSpn=           0           0           0           0           0           0           2           0           0           0
 AtZEff=   0.0000000   0.0000000   0.0000000   0.0000000   0.0000000   0.0000000   0.0000000   0.0000000   0.0000000   0.0000000
 NQMom=    0.0000000   0.0000000   0.0000000   0.0000000   0.0000000   0.0000000   2.0440000   0.0000000   0.0000000   0.0000000
 NMagM=    0.0000000   0.0000000   0.0000000   0.0000000   0.0000000   0.0000000   0.4037610   0.0000000   0.0000000   0.0000000
 AtZNuc=   8.0000000   6.0000000   6.0000000   6.0000000   6.0000000   6.0000000   7.0000000   8.0000000   8.0000000   8.0000000

  Atom        41          42          43          44          45          46          47          48          49          50
 IAtWgt=           1           1           1           1           1           1           1           1           1           1
 AtmWgt=   1.0078250   1.0078250   1.0078250   1.0078250   1.0078250   1.0078250   1.0078250   1.0078250   1.0078250   1.0078250
 NucSpn=           1           1           1           1           1           1           1           1           1           1
 AtZEff=   0.0000000   0.0000000   0.0000000   0.0000000   0.0000000   0.0000000   0.0000000   0.0000000   0.0000000   0.0000000
 NQMom=    0.0000000   0.0000000   0.0000000   0.0000000   0.0000000   0.0000000   0.0000000   0.0000000   0.0000000   0.0000000
 NMagM=    2.7928460   2.7928460   2.7928460   2.7928460   2.7928460   2.7928460   2.7928460   2.7928460   2.7928460   2.7928460
 AtZNuc=   1.0000000   1.0000000   1.0000000   1.0000000   1.0000000   1.0000000   1.0000000   1.0000000   1.0000000   1.0000000

  Atom        51          52          53          54          55          56          57          58          59          60
 IAtWgt=           1           1           1           1           1           1           1           1           1           1
 AtmWgt=   1.0078250   1.0078250   1.0078250   1.0078250   1.0078250   1.0078250   1.0078250   1.0078250   1.0078250   1.0078250
 NucSpn=           1           1           1           1           1           1           1           1           1           1
 AtZEff=   0.0000000   0.0000000   0.0000000   0.0000000   0.0000000   0.0000000   0.0000000   0.0000000   0.0000000   0.0000000
 NQMom=    0.0000000   0.0000000   0.0000000   0.0000000   0.0000000   0.0000000   0.0000000   0.0000000   0.0000000   0.0000000
 NMagM=    2.7928460   2.7928460   2.7928460   2.7928460   2.7928460   2.7928460   2.7928460   2.7928460   2.7928460   2.7928460
 AtZNuc=   1.0000000   1.0000000   1.0000000   1.0000000   1.0000000   1.0000000   1.0000000   1.0000000   1.0000000   1.0000000

  Atom        61          62          63          64          65          66          67          68          69          70
 IAtWgt=           1           1           1           1           1           1           1           1           1           1
 AtmWgt=   1.0078250   1.0078250   1.0078250   1.0078250   1.0078250   1.0078250   1.0078250   1.0078250   1.0078250   1.0078250
 NucSpn=           1           1           1           1           1           1           1           1           1           1
 AtZEff=   0.0000000   0.0000000   0.0000000   0.0000000   0.0000000   0.0000000   0.0000000   0.0000000   0.0000000   0.0000000
 NQMom=    0.0000000   0.0000000   0.0000000   0.0000000   0.0000000   0.0000000   0.0000000   0.0000000   0.0000000   0.0000000
 NMagM=    2.7928460   2.7928460   2.7928460   2.7928460   2.7928460   2.7928460   2.7928460   2.7928460   2.7928460   2.7928460
 AtZNuc=   1.0000000   1.0000000   1.0000000   1.0000000   1.0000000   1.0000000   1.0000000   1.0000000   1.0000000   1.0000000

  Atom        71          72          73          74          75          76          77          78          79          80
 IAtWgt=           1           1           1           1           1           1           1           1           1           1
 AtmWgt=   1.0078250   1.0078250   1.0078250   1.0078250   1.0078250   1.0078250   1.0078250   1.0078250   1.0078250   1.0078250
 NucSpn=           1           1           1           1           1           1           1           1           1           1
 AtZEff=   0.0000000   0.0000000   0.0000000   0.0000000   0.0000000   0.0000000   0.0000000   0.0000000   0.0000000   0.0000000
 NQMom=    0.0000000   0.0000000   0.0000000   0.0000000   0.0000000   0.0000000   0.0000000   0.0000000   0.0000000   0.0000000
 NMagM=    2.7928460   2.7928460   2.7928460   2.7928460   2.7928460   2.7928460   2.7928460   2.7928460   2.7928460   2.7928460
 AtZNuc=   1.0000000   1.0000000   1.0000000   1.0000000   1.0000000   1.0000000   1.0000000   1.0000000   1.0000000   1.0000000

  Atom        81          82          83          84
 IAtWgt=           1           1           1           1
 AtmWgt=   1.0078250   1.0078250   1.0078250   1.0078250
 NucSpn=           1           1           1           1
 AtZEff=   0.0000000   0.0000000   0.0000000   0.0000000
 NQMom=    0.0000000   0.0000000   0.0000000   0.0000000
 NMagM=    2.7928460   2.7928460   2.7928460   2.7928460
 AtZNuc=   1.0000000   1.0000000   1.0000000   1.0000000
 Leave Link  101 at Fri May 20 01:28:37 2016, MaxMem= 10737418240 cpu:         4.9
 (Enter /share/apps//g09/l103.exe)

 GradGradGradGradGradGradGradGradGradGradGradGradGradGradGradGradGradGrad
 Berny optimization.
 Initialization pass.
                           ----------------------------
                           !    Initial Parameters    !
                           ! (Angstroms and Degrees)  !
 --------------------------                            --------------------------
 ! Name  Definition              Value          Derivative Info.                !
 --------------------------------------------------------------------------------
 ! R1    R(1,2)                  1.401          estimate D2E/DX2                !
 ! R2    R(1,6)                  1.4547         estimate D2E/DX2                !
 ! R3    R(2,3)                  1.5294         estimate D2E/DX2                !
 ! R4    R(2,12)                 1.451          estimate D2E/DX2                !
 ! R5    R(2,41)                 1.1019         estimate D2E/DX2                !
 ! R6    R(3,4)                  1.5482         estimate D2E/DX2                !
 ! R7    R(3,11)                 1.4287         estimate D2E/DX2                !
 ! R8    R(3,42)                 1.1019         estimate D2E/DX2                !
 ! R9    R(4,5)                  1.5824         estimate D2E/DX2                !
 ! R10   R(4,10)                 1.4324         estimate D2E/DX2                !
 ! R11   R(4,43)                 1.1019         estimate D2E/DX2                !
 ! R12   R(5,6)                  1.5336         estimate D2E/DX2                !
 ! R13   R(5,9)                  1.4282         estimate D2E/DX2                !
 ! R14   R(5,44)                 1.1063         estimate D2E/DX2                !
 ! R15   R(6,7)                  1.5276         estimate D2E/DX2                !
 ! R16   R(6,45)                 1.1061         estimate D2E/DX2                !
 ! R17   R(7,8)                  1.4354         estimate D2E/DX2                !
 ! R18   R(7,46)                 1.0993         estimate D2E/DX2                !
 ! R19   R(7,47)                 1.102          estimate D2E/DX2                !
 ! R20   R(8,48)                 0.9831         estimate D2E/DX2                !
 ! R21   R(9,49)                 0.9897         estimate D2E/DX2                !
 ! R22   R(10,50)                0.9844         estimate D2E/DX2                !
 ! R23   R(11,51)                0.9723         estimate D2E/DX2                !
 ! R24   R(12,13)                1.4389         estimate D2E/DX2                !
 ! R25   R(13,14)                1.5291         estimate D2E/DX2                !
 ! R26   R(13,19)                1.5459         estimate D2E/DX2                !
 ! R27   R(13,52)                1.1039         estimate D2E/DX2                !
 ! R28   R(14,15)                1.4356         estimate D2E/DX2                !
 ! R29   R(14,16)                1.5249         estimate D2E/DX2                !
 ! R30   R(14,53)                1.1069         estimate D2E/DX2                !
 ! R31   R(15,54)                0.9786         estimate D2E/DX2                !
 ! R32   R(16,17)                1.536          estimate D2E/DX2                !
 ! R33   R(16,40)                1.4175         estimate D2E/DX2                !
 ! R34   R(16,55)                1.1044         estimate D2E/DX2                !
 ! R35   R(17,18)                1.4365         estimate D2E/DX2                !
 ! R36   R(17,22)                1.4057         estimate D2E/DX2                !
 ! R37   R(17,56)                1.1054         estimate D2E/DX2                !
 ! R38   R(18,19)                1.4326         estimate D2E/DX2                !
 ! R39   R(19,20)                1.5358         estimate D2E/DX2                !
 ! R40   R(19,57)                1.109          estimate D2E/DX2                !
 ! R41   R(20,21)                1.4393         estimate D2E/DX2                !
 ! R42   R(20,58)                1.0977         estimate D2E/DX2                !
 ! R43   R(20,59)                1.1033         estimate D2E/DX2                !
 ! R44   R(21,60)                0.9898         estimate D2E/DX2                !
 ! R45   R(22,23)                1.442          estimate D2E/DX2                !
 ! R46   R(23,24)                1.5313         estimate D2E/DX2                !
 ! R47   R(23,28)                1.5453         estimate D2E/DX2                !
 ! R48   R(23,61)                1.1017         estimate D2E/DX2                !
 ! R49   R(24,25)                1.5264         estimate D2E/DX2                !
 ! R50   R(24,39)                1.4367         estimate D2E/DX2                !
 ! R51   R(24,62)                1.1069         estimate D2E/DX2                !
 ! R52   R(25,26)                1.5287         estimate D2E/DX2                !
 ! R53   R(25,38)                1.4256         estimate D2E/DX2                !
 ! R54   R(25,63)                1.1078         estimate D2E/DX2                !
 ! R55   R(26,27)                1.4398         estimate D2E/DX2                !
 ! R56   R(26,31)                1.3895         estimate D2E/DX2                !
 ! R57   R(26,64)                1.1117         estimate D2E/DX2                !
 ! R58   R(27,28)                1.4373         estimate D2E/DX2                !
 ! R59   R(28,29)                1.5256         estimate D2E/DX2                !
 ! R60   R(28,65)                1.1094         estimate D2E/DX2                !
 ! R61   R(29,30)                1.4297         estimate D2E/DX2                !
 ! R62   R(29,66)                1.1003         estimate D2E/DX2                !
 ! R63   R(29,67)                1.0982         estimate D2E/DX2                !
 ! R64   R(30,68)                0.9928         estimate D2E/DX2                !
 ! R65   R(31,32)                1.4513         estimate D2E/DX2                !
 ! R66   R(32,33)                1.5246         estimate D2E/DX2                !
 ! R67   R(32,69)                1.1002         estimate D2E/DX2                !
 ! R68   R(32,70)                1.1024         estimate D2E/DX2                !
 ! R69   R(33,34)                1.5366         estimate D2E/DX2                !
 ! R70   R(33,71)                1.1026         estimate D2E/DX2                !
 ! R71   R(33,72)                1.101          estimate D2E/DX2                !
 ! R72   R(34,35)                1.5349         estimate D2E/DX2                !
 ! R73   R(34,73)                1.1018         estimate D2E/DX2                !
 ! R74   R(34,74)                1.1029         estimate D2E/DX2                !
 ! R75   R(35,36)                1.5262         estimate D2E/DX2                !
 ! R76   R(35,75)                1.1012         estimate D2E/DX2                !
 ! R77   R(35,76)                1.1014         estimate D2E/DX2                !
 ! R78   R(36,37)                1.4977         estimate D2E/DX2                !
 ! R79   R(36,77)                1.0999         estimate D2E/DX2                !
 ! R80   R(36,78)                1.0978         estimate D2E/DX2                !
 ! R81   R(37,79)                1.026          estimate D2E/DX2                !
 ! R82   R(37,80)                1.0632         estimate D2E/DX2                !
 ! R83   R(37,81)                1.0571         estimate D2E/DX2                !
 ! R84   R(38,82)                0.974          estimate D2E/DX2                !
 ! R85   R(39,83)                0.9767         estimate D2E/DX2                !
 ! R86   R(40,84)                0.9851         estimate D2E/DX2                !
 ! A1    A(2,1,6)              117.0781         estimate D2E/DX2                !
 ! A2    A(1,2,3)              112.6614         estimate D2E/DX2                !
 ! A3    A(1,2,12)             108.1614         estimate D2E/DX2                !
 ! A4    A(1,2,41)             106.9268         estimate D2E/DX2                !
 ! A5    A(3,2,12)             108.0942         estimate D2E/DX2                !
 ! A6    A(3,2,41)             111.53           estimate D2E/DX2                !
 ! A7    A(12,2,41)            109.3869         estimate D2E/DX2                !
 ! A8    A(2,3,4)              110.1801         estimate D2E/DX2                !
 ! A9    A(2,3,11)             106.3951         estimate D2E/DX2                !
 ! A10   A(2,3,42)             107.7452         estimate D2E/DX2                !
 ! A11   A(4,3,11)             112.1629         estimate D2E/DX2                !
 ! A12   A(4,3,42)             108.9662         estimate D2E/DX2                !
 ! A13   A(11,3,42)            111.2789         estimate D2E/DX2                !
 ! A14   A(3,4,5)              112.2914         estimate D2E/DX2                !
 ! A15   A(3,4,10)             112.307          estimate D2E/DX2                !
 ! A16   A(3,4,43)             107.2267         estimate D2E/DX2                !
 ! A17   A(5,4,10)             108.7718         estimate D2E/DX2                !
 ! A18   A(5,4,43)             107.959          estimate D2E/DX2                !
 ! A19   A(10,4,43)            108.1038         estimate D2E/DX2                !
 ! A20   A(4,5,6)              109.5202         estimate D2E/DX2                !
 ! A21   A(4,5,9)              109.9546         estimate D2E/DX2                !
 ! A22   A(4,5,44)             108.2225         estimate D2E/DX2                !
 ! A23   A(6,5,9)              113.3912         estimate D2E/DX2                !
 ! A24   A(6,5,44)             106.4953         estimate D2E/DX2                !
 ! A25   A(9,5,44)             109.0822         estimate D2E/DX2                !
 ! A26   A(1,6,5)              113.6169         estimate D2E/DX2                !
 ! A27   A(1,6,7)              105.0446         estimate D2E/DX2                !
 ! A28   A(1,6,45)             108.0149         estimate D2E/DX2                !
 ! A29   A(5,6,7)              117.5938         estimate D2E/DX2                !
 ! A30   A(5,6,45)             105.9146         estimate D2E/DX2                !
 ! A31   A(7,6,45)             106.1273         estimate D2E/DX2                !
 ! A32   A(6,7,8)              115.4898         estimate D2E/DX2                !
 ! A33   A(6,7,46)             109.3971         estimate D2E/DX2                !
 ! A34   A(6,7,47)             108.051          estimate D2E/DX2                !
 ! A35   A(8,7,46)             106.6639         estimate D2E/DX2                !
 ! A36   A(8,7,47)             109.1914         estimate D2E/DX2                !
 ! A37   A(46,7,47)            107.8096         estimate D2E/DX2                !
 ! A38   A(7,8,48)             108.9333         estimate D2E/DX2                !
 ! A39   A(5,9,49)             102.062          estimate D2E/DX2                !
 ! A40   A(4,10,50)            108.1652         estimate D2E/DX2                !
 ! A41   A(3,11,51)            108.5322         estimate D2E/DX2                !
 ! A42   A(2,12,13)            118.5037         estimate D2E/DX2                !
 ! A43   A(12,13,14)           109.6489         estimate D2E/DX2                !
 ! A44   A(12,13,19)           109.4822         estimate D2E/DX2                !
 ! A45   A(12,13,52)           109.3294         estimate D2E/DX2                !
 ! A46   A(14,13,19)           110.1959         estimate D2E/DX2                !
 ! A47   A(14,13,52)           109.5197         estimate D2E/DX2                !
 ! A48   A(19,13,52)           108.6442         estimate D2E/DX2                !
 ! A49   A(13,14,15)           109.2663         estimate D2E/DX2                !
 ! A50   A(13,14,16)           111.656          estimate D2E/DX2                !
 ! A51   A(13,14,53)           108.3196         estimate D2E/DX2                !
 ! A52   A(15,14,16)           109.0286         estimate D2E/DX2                !
 ! A53   A(15,14,53)           109.6108         estimate D2E/DX2                !
 ! A54   A(16,14,53)           108.9368         estimate D2E/DX2                !
 ! A55   A(14,15,54)           104.7728         estimate D2E/DX2                !
 ! A56   A(14,16,17)           111.5268         estimate D2E/DX2                !
 ! A57   A(14,16,40)           106.7782         estimate D2E/DX2                !
 ! A58   A(14,16,55)           107.3706         estimate D2E/DX2                !
 ! A59   A(17,16,40)           112.2742         estimate D2E/DX2                !
 ! A60   A(17,16,55)           108.1689         estimate D2E/DX2                !
 ! A61   A(40,16,55)           110.6268         estimate D2E/DX2                !
 ! A62   A(16,17,18)           109.8676         estimate D2E/DX2                !
 ! A63   A(16,17,22)           113.8964         estimate D2E/DX2                !
 ! A64   A(16,17,56)           110.3951         estimate D2E/DX2                !
 ! A65   A(18,17,22)           107.3062         estimate D2E/DX2                !
 ! A66   A(18,17,56)           110.8685         estimate D2E/DX2                !
 ! A67   A(22,17,56)           104.3678         estimate D2E/DX2                !
 ! A68   A(17,18,19)           116.7545         estimate D2E/DX2                !
 ! A69   A(13,19,18)           112.9714         estimate D2E/DX2                !
 ! A70   A(13,19,20)           112.0641         estimate D2E/DX2                !
 ! A71   A(13,19,57)           107.9089         estimate D2E/DX2                !
 ! A72   A(18,19,20)           104.7218         estimate D2E/DX2                !
 ! A73   A(18,19,57)           110.2931         estimate D2E/DX2                !
 ! A74   A(20,19,57)           108.8214         estimate D2E/DX2                !
 ! A75   A(19,20,21)           110.7972         estimate D2E/DX2                !
 ! A76   A(19,20,58)           110.0556         estimate D2E/DX2                !
 ! A77   A(19,20,59)           110.0816         estimate D2E/DX2                !
 ! A78   A(21,20,58)           106.7707         estimate D2E/DX2                !
 ! A79   A(21,20,59)           110.7111         estimate D2E/DX2                !
 ! A80   A(58,20,59)           108.341          estimate D2E/DX2                !
 ! A81   A(20,21,60)           104.0472         estimate D2E/DX2                !
 ! A82   A(17,22,23)           117.1319         estimate D2E/DX2                !
 ! A83   A(22,23,24)           109.2461         estimate D2E/DX2                !
 ! A84   A(22,23,28)           109.0481         estimate D2E/DX2                !
 ! A85   A(22,23,61)           111.0649         estimate D2E/DX2                !
 ! A86   A(24,23,28)           108.4933         estimate D2E/DX2                !
 ! A87   A(24,23,61)           110.6557         estimate D2E/DX2                !
 ! A88   A(28,23,61)           108.2759         estimate D2E/DX2                !
 ! A89   A(23,24,25)           111.3023         estimate D2E/DX2                !
 ! A90   A(23,24,39)           110.4626         estimate D2E/DX2                !
 ! A91   A(23,24,62)           107.8921         estimate D2E/DX2                !
 ! A92   A(25,24,39)           108.9435         estimate D2E/DX2                !
 ! A93   A(25,24,62)           109.0475         estimate D2E/DX2                !
 ! A94   A(39,24,62)           109.1537         estimate D2E/DX2                !
 ! A95   A(24,25,26)           111.2338         estimate D2E/DX2                !
 ! A96   A(24,25,38)           106.0328         estimate D2E/DX2                !
 ! A97   A(24,25,63)           108.8002         estimate D2E/DX2                !
 ! A98   A(26,25,38)           113.0027         estimate D2E/DX2                !
 ! A99   A(26,25,63)           106.8138         estimate D2E/DX2                !
 ! A100  A(38,25,63)           110.9432         estimate D2E/DX2                !
 ! A101  A(25,26,27)           108.9173         estimate D2E/DX2                !
 ! A102  A(25,26,31)           106.8371         estimate D2E/DX2                !
 ! A103  A(25,26,64)           111.3132         estimate D2E/DX2                !
 ! A104  A(27,26,31)           108.6504         estimate D2E/DX2                !
 ! A105  A(27,26,64)           109.0908         estimate D2E/DX2                !
 ! A106  A(31,26,64)           111.9449         estimate D2E/DX2                !
 ! A107  A(26,27,28)           112.5576         estimate D2E/DX2                !
 ! A108  A(23,28,27)           108.9784         estimate D2E/DX2                !
 ! A109  A(23,28,29)           115.562          estimate D2E/DX2                !
 ! A110  A(23,28,65)           108.1382         estimate D2E/DX2                !
 ! A111  A(27,28,29)           107.0752         estimate D2E/DX2                !
 ! A112  A(27,28,65)           110.2741         estimate D2E/DX2                !
 ! A113  A(29,28,65)           106.7584         estimate D2E/DX2                !
 ! A114  A(28,29,30)           113.3662         estimate D2E/DX2                !
 ! A115  A(28,29,66)           107.7864         estimate D2E/DX2                !
 ! A116  A(28,29,67)           109.2151         estimate D2E/DX2                !
 ! A117  A(30,29,66)           107.0272         estimate D2E/DX2                !
 ! A118  A(30,29,67)           110.7094         estimate D2E/DX2                !
 ! A119  A(66,29,67)           108.5731         estimate D2E/DX2                !
 ! A120  A(29,30,68)           112.2079         estimate D2E/DX2                !
 ! A121  A(26,31,32)           115.2569         estimate D2E/DX2                !
 ! A122  A(31,32,33)           108.154          estimate D2E/DX2                !
 ! A123  A(31,32,69)           109.164          estimate D2E/DX2                !
 ! A124  A(31,32,70)           108.8451         estimate D2E/DX2                !
 ! A125  A(33,32,69)           111.3438         estimate D2E/DX2                !
 ! A126  A(33,32,70)           110.8526         estimate D2E/DX2                !
 ! A127  A(69,32,70)           108.4376         estimate D2E/DX2                !
 ! A128  A(32,33,34)           113.9276         estimate D2E/DX2                !
 ! A129  A(32,33,71)           107.9712         estimate D2E/DX2                !
 ! A130  A(32,33,72)           108.8428         estimate D2E/DX2                !
 ! A131  A(34,33,71)           110.6961         estimate D2E/DX2                !
 ! A132  A(34,33,72)           108.7783         estimate D2E/DX2                !
 ! A133  A(71,33,72)           106.339          estimate D2E/DX2                !
 ! A134  A(33,34,35)           114.5889         estimate D2E/DX2                !
 ! A135  A(33,34,73)           108.791          estimate D2E/DX2                !
 ! A136  A(33,34,74)           107.0992         estimate D2E/DX2                !
 ! A137  A(35,34,73)           109.1561         estimate D2E/DX2                !
 ! A138  A(35,34,74)           110.4732         estimate D2E/DX2                !
 ! A139  A(73,34,74)           106.3995         estimate D2E/DX2                !
 ! A140  A(34,35,36)           113.7598         estimate D2E/DX2                !
 ! A141  A(34,35,75)           110.7736         estimate D2E/DX2                !
 ! A142  A(34,35,76)           109.6574         estimate D2E/DX2                !
 ! A143  A(36,35,75)           108.2092         estimate D2E/DX2                !
 ! A144  A(36,35,76)           107.6602         estimate D2E/DX2                !
 ! A145  A(75,35,76)           106.4788         estimate D2E/DX2                !
 ! A146  A(35,36,37)           112.1542         estimate D2E/DX2                !
 ! A147  A(35,36,77)           111.7375         estimate D2E/DX2                !
 ! A148  A(35,36,78)           111.1264         estimate D2E/DX2                !
 ! A149  A(37,36,77)           107.8108         estimate D2E/DX2                !
 ! A150  A(37,36,78)           105.9556         estimate D2E/DX2                !
 ! A151  A(77,36,78)           107.7699         estimate D2E/DX2                !
 ! A152  A(36,37,79)           113.3253         estimate D2E/DX2                !
 ! A153  A(36,37,80)           110.7771         estimate D2E/DX2                !
 ! A154  A(36,37,81)           111.7377         estimate D2E/DX2                !
 ! A155  A(79,37,80)           107.8188         estimate D2E/DX2                !
 ! A156  A(79,37,81)           106.8515         estimate D2E/DX2                !
 ! A157  A(80,37,81)           105.9498         estimate D2E/DX2                !
 ! A158  A(25,38,82)           107.892          estimate D2E/DX2                !
 ! A159  A(24,39,83)           105.9567         estimate D2E/DX2                !
 ! A160  A(16,40,84)           105.375          estimate D2E/DX2                !
 ! D1    D(6,1,2,3)             25.9754         estimate D2E/DX2                !
 ! D2    D(6,1,2,12)           -93.4422         estimate D2E/DX2                !
 ! D3    D(6,1,2,41)           148.8474         estimate D2E/DX2                !
 ! D4    D(2,1,6,5)             33.7731         estimate D2E/DX2                !
 ! D5    D(2,1,6,7)            163.64           estimate D2E/DX2                !
 ! D6    D(2,1,6,45)           -83.4136         estimate D2E/DX2                !
 ! D7    D(1,2,3,4)            -61.9238         estimate D2E/DX2                !
 ! D8    D(1,2,3,11)            59.8849         estimate D2E/DX2                !
 ! D9    D(1,2,3,42)           179.3137         estimate D2E/DX2                !
 ! D10   D(12,2,3,4)            57.5328         estimate D2E/DX2                !
 ! D11   D(12,2,3,11)          179.3415         estimate D2E/DX2                !
 ! D12   D(12,2,3,42)          -61.2297         estimate D2E/DX2                !
 ! D13   D(41,2,3,4)           177.8185         estimate D2E/DX2                !
 ! D14   D(41,2,3,11)          -60.3728         estimate D2E/DX2                !
 ! D15   D(41,2,3,42)           59.056          estimate D2E/DX2                !
 ! D16   D(1,2,12,13)         -127.403          estimate D2E/DX2                !
 ! D17   D(3,2,12,13)          110.3369         estimate D2E/DX2                !
 ! D18   D(41,2,12,13)         -11.282          estimate D2E/DX2                !
 ! D19   D(2,3,4,5)             35.4944         estimate D2E/DX2                !
 ! D20   D(2,3,4,10)           -87.4699         estimate D2E/DX2                !
 ! D21   D(2,3,4,43)           153.9191         estimate D2E/DX2                !
 ! D22   D(11,3,4,5)           -82.8272         estimate D2E/DX2                !
 ! D23   D(11,3,4,10)          154.2084         estimate D2E/DX2                !
 ! D24   D(11,3,4,43)           35.5975         estimate D2E/DX2                !
 ! D25   D(42,3,4,5)           153.5072         estimate D2E/DX2                !
 ! D26   D(42,3,4,10)           30.5428         estimate D2E/DX2                !
 ! D27   D(42,3,4,43)          -88.0681         estimate D2E/DX2                !
 ! D28   D(2,3,11,51)          157.6737         estimate D2E/DX2                !
 ! D29   D(4,3,11,51)          -81.7869         estimate D2E/DX2                !
 ! D30   D(42,3,11,51)          40.5744         estimate D2E/DX2                !
 ! D31   D(3,4,5,6)             18.9498         estimate D2E/DX2                !
 ! D32   D(3,4,5,9)           -106.2785         estimate D2E/DX2                !
 ! D33   D(3,4,5,44)           134.6632         estimate D2E/DX2                !
 ! D34   D(10,4,5,6)           143.8821         estimate D2E/DX2                !
 ! D35   D(10,4,5,9)            18.6539         estimate D2E/DX2                !
 ! D36   D(10,4,5,44)         -100.4045         estimate D2E/DX2                !
 ! D37   D(43,4,5,6)           -99.0419         estimate D2E/DX2                !
 ! D38   D(43,4,5,9)           135.7298         estimate D2E/DX2                !
 ! D39   D(43,4,5,44)           16.6715         estimate D2E/DX2                !
 ! D40   D(3,4,10,50)            4.1209         estimate D2E/DX2                !
 ! D41   D(5,4,10,50)         -120.8023         estimate D2E/DX2                !
 ! D42   D(43,4,10,50)         122.2142         estimate D2E/DX2                !
 ! D43   D(4,5,6,1)            -56.3062         estimate D2E/DX2                !
 ! D44   D(4,5,6,7)           -179.5486         estimate D2E/DX2                !
 ! D45   D(4,5,6,45)            62.096          estimate D2E/DX2                !
 ! D46   D(9,5,6,1)             66.9139         estimate D2E/DX2                !
 ! D47   D(9,5,6,7)            -56.3285         estimate D2E/DX2                !
 ! D48   D(9,5,6,45)          -174.6839         estimate D2E/DX2                !
 ! D49   D(44,5,6,1)          -173.114          estimate D2E/DX2                !
 ! D50   D(44,5,6,7)            63.6437         estimate D2E/DX2                !
 ! D51   D(44,5,6,45)          -54.7118         estimate D2E/DX2                !
 ! D52   D(4,5,9,49)           -13.933          estimate D2E/DX2                !
 ! D53   D(6,5,9,49)          -136.914          estimate D2E/DX2                !
 ! D54   D(44,5,9,49)          104.5973         estimate D2E/DX2                !
 ! D55   D(1,6,7,8)            -60.1885         estimate D2E/DX2                !
 ! D56   D(1,6,7,46)           179.5026         estimate D2E/DX2                !
 ! D57   D(1,6,7,47)            62.3865         estimate D2E/DX2                !
 ! D58   D(5,6,7,8)             67.2969         estimate D2E/DX2                !
 ! D59   D(5,6,7,46)           -53.0119         estimate D2E/DX2                !
 ! D60   D(5,6,7,47)          -170.1281         estimate D2E/DX2                !
 ! D61   D(45,6,7,8)          -174.4611         estimate D2E/DX2                !
 ! D62   D(45,6,7,46)           65.23           estimate D2E/DX2                !
 ! D63   D(45,6,7,47)          -51.8861         estimate D2E/DX2                !
 ! D64   D(6,7,8,48)            54.6308         estimate D2E/DX2                !
 ! D65   D(46,7,8,48)          176.4177         estimate D2E/DX2                !
 ! D66   D(47,7,8,48)          -67.3357         estimate D2E/DX2                !
 ! D67   D(2,12,13,14)        -116.9886         estimate D2E/DX2                !
 ! D68   D(2,12,13,19)         122.0038         estimate D2E/DX2                !
 ! D69   D(2,12,13,52)           3.0925         estimate D2E/DX2                !
 ! D70   D(12,13,14,15)         50.488          estimate D2E/DX2                !
 ! D71   D(12,13,14,16)        -70.2024         estimate D2E/DX2                !
 ! D72   D(12,13,14,53)        169.8453         estimate D2E/DX2                !
 ! D73   D(19,13,14,15)        171.0635         estimate D2E/DX2                !
 ! D74   D(19,13,14,16)         50.3731         estimate D2E/DX2                !
 ! D75   D(19,13,14,53)        -69.5792         estimate D2E/DX2                !
 ! D76   D(52,13,14,15)        -69.477          estimate D2E/DX2                !
 ! D77   D(52,13,14,16)        169.8326         estimate D2E/DX2                !
 ! D78   D(52,13,14,53)         49.8803         estimate D2E/DX2                !
 ! D79   D(12,13,19,18)         71.4796         estimate D2E/DX2                !
 ! D80   D(12,13,19,20)        -46.5313         estimate D2E/DX2                !
 ! D81   D(12,13,19,57)       -166.3215         estimate D2E/DX2                !
 ! D82   D(14,13,19,18)        -49.196          estimate D2E/DX2                !
 ! D83   D(14,13,19,20)       -167.2069         estimate D2E/DX2                !
 ! D84   D(14,13,19,57)         73.0029         estimate D2E/DX2                !
 ! D85   D(52,13,19,18)       -169.186          estimate D2E/DX2                !
 ! D86   D(52,13,19,20)         72.8031         estimate D2E/DX2                !
 ! D87   D(52,13,19,57)        -46.9871         estimate D2E/DX2                !
 ! D88   D(13,14,15,54)       -176.7402         estimate D2E/DX2                !
 ! D89   D(16,14,15,54)        -54.4591         estimate D2E/DX2                !
 ! D90   D(53,14,15,54)         64.7045         estimate D2E/DX2                !
 ! D91   D(13,14,16,17)        -53.9186         estimate D2E/DX2                !
 ! D92   D(13,14,16,40)       -176.9096         estimate D2E/DX2                !
 ! D93   D(13,14,16,55)         64.4154         estimate D2E/DX2                !
 ! D94   D(15,14,16,17)       -174.7477         estimate D2E/DX2                !
 ! D95   D(15,14,16,40)         62.2612         estimate D2E/DX2                !
 ! D96   D(15,14,16,55)        -56.4138         estimate D2E/DX2                !
 ! D97   D(53,14,16,17)         65.67           estimate D2E/DX2                !
 ! D98   D(53,14,16,40)        -57.3211         estimate D2E/DX2                !
 ! D99   D(53,14,16,55)       -175.9961         estimate D2E/DX2                !
 ! D100  D(14,16,17,18)         53.9635         estimate D2E/DX2                !
 ! D101  D(14,16,17,22)        174.3656         estimate D2E/DX2                !
 ! D102  D(14,16,17,56)        -68.6149         estimate D2E/DX2                !
 ! D103  D(40,16,17,18)        173.759          estimate D2E/DX2                !
 ! D104  D(40,16,17,22)        -65.839          estimate D2E/DX2                !
 ! D105  D(40,16,17,56)         51.1806         estimate D2E/DX2                !
 ! D106  D(55,16,17,18)        -63.8912         estimate D2E/DX2                !
 ! D107  D(55,16,17,22)         56.5108         estimate D2E/DX2                !
 ! D108  D(55,16,17,56)        173.5304         estimate D2E/DX2                !
 ! D109  D(14,16,40,84)       -157.2321         estimate D2E/DX2                !
 ! D110  D(17,16,40,84)         80.2439         estimate D2E/DX2                !
 ! D111  D(55,16,40,84)        -40.7016         estimate D2E/DX2                !
 ! D112  D(16,17,18,19)        -55.0623         estimate D2E/DX2                !
 ! D113  D(22,17,18,19)       -179.377          estimate D2E/DX2                !
 ! D114  D(56,17,18,19)         67.2356         estimate D2E/DX2                !
 ! D115  D(16,17,22,23)        -57.7349         estimate D2E/DX2                !
 ! D116  D(18,17,22,23)         64.0944         estimate D2E/DX2                !
 ! D117  D(56,17,22,23)       -178.1968         estimate D2E/DX2                !
 ! D118  D(17,18,19,13)         53.7122         estimate D2E/DX2                !
 ! D119  D(17,18,19,20)        175.9358         estimate D2E/DX2                !
 ! D120  D(17,18,19,57)        -67.1405         estimate D2E/DX2                !
 ! D121  D(13,19,20,21)         73.5979         estimate D2E/DX2                !
 ! D122  D(13,19,20,58)       -168.5471         estimate D2E/DX2                !
 ! D123  D(13,19,20,59)        -49.1978         estimate D2E/DX2                !
 ! D124  D(18,19,20,21)        -49.2157         estimate D2E/DX2                !
 ! D125  D(18,19,20,58)         68.6393         estimate D2E/DX2                !
 ! D126  D(18,19,20,59)       -172.0114         estimate D2E/DX2                !
 ! D127  D(57,19,20,21)       -167.1468         estimate D2E/DX2                !
 ! D128  D(57,19,20,58)        -49.2918         estimate D2E/DX2                !
 ! D129  D(57,19,20,59)         70.0575         estimate D2E/DX2                !
 ! D130  D(19,20,21,60)        -45.5986         estimate D2E/DX2                !
 ! D131  D(58,20,21,60)       -165.4392         estimate D2E/DX2                !
 ! D132  D(59,20,21,60)         76.8314         estimate D2E/DX2                !
 ! D133  D(17,22,23,24)        117.822          estimate D2E/DX2                !
 ! D134  D(17,22,23,28)       -123.7549         estimate D2E/DX2                !
 ! D135  D(17,22,23,61)         -4.5128         estimate D2E/DX2                !
 ! D136  D(22,23,24,25)        171.6941         estimate D2E/DX2                !
 ! D137  D(22,23,24,39)        -67.1474         estimate D2E/DX2                !
 ! D138  D(22,23,24,62)         52.0922         estimate D2E/DX2                !
 ! D139  D(28,23,24,25)         52.9251         estimate D2E/DX2                !
 ! D140  D(28,23,24,39)        174.0836         estimate D2E/DX2                !
 ! D141  D(28,23,24,62)        -66.6768         estimate D2E/DX2                !
 ! D142  D(61,23,24,25)        -65.7259         estimate D2E/DX2                !
 ! D143  D(61,23,24,39)         55.4326         estimate D2E/DX2                !
 ! D144  D(61,23,24,62)        174.6722         estimate D2E/DX2                !
 ! D145  D(22,23,28,27)       -177.408          estimate D2E/DX2                !
 ! D146  D(22,23,28,29)         62.0155         estimate D2E/DX2                !
 ! D147  D(22,23,28,65)        -57.5238         estimate D2E/DX2                !
 ! D148  D(24,23,28,27)        -58.5141         estimate D2E/DX2                !
 ! D149  D(24,23,28,29)       -179.0906         estimate D2E/DX2                !
 ! D150  D(24,23,28,65)         61.3701         estimate D2E/DX2                !
 ! D151  D(61,23,28,27)         61.6299         estimate D2E/DX2                !
 ! D152  D(61,23,28,29)        -58.9465         estimate D2E/DX2                !
 ! D153  D(61,23,28,65)       -178.4859         estimate D2E/DX2                !
 ! D154  D(23,24,25,26)        -51.9665         estimate D2E/DX2                !
 ! D155  D(23,24,25,38)       -175.1868         estimate D2E/DX2                !
 ! D156  D(23,24,25,63)         65.4269         estimate D2E/DX2                !
 ! D157  D(39,24,25,26)       -174.0093         estimate D2E/DX2                !
 ! D158  D(39,24,25,38)         62.7704         estimate D2E/DX2                !
 ! D159  D(39,24,25,63)        -56.616          estimate D2E/DX2                !
 ! D160  D(62,24,25,26)         66.9465         estimate D2E/DX2                !
 ! D161  D(62,24,25,38)        -56.2738         estimate D2E/DX2                !
 ! D162  D(62,24,25,63)       -175.6602         estimate D2E/DX2                !
 ! D163  D(23,24,39,83)       -171.4463         estimate D2E/DX2                !
 ! D164  D(25,24,39,83)        -48.8966         estimate D2E/DX2                !
 ! D165  D(62,24,39,83)         70.0813         estimate D2E/DX2                !
 ! D166  D(24,25,26,27)         54.7579         estimate D2E/DX2                !
 ! D167  D(24,25,26,31)        171.9455         estimate D2E/DX2                !
 ! D168  D(24,25,26,64)        -65.5622         estimate D2E/DX2                !
 ! D169  D(38,25,26,27)        173.8918         estimate D2E/DX2                !
 ! D170  D(38,25,26,31)        -68.9206         estimate D2E/DX2                !
 ! D171  D(38,25,26,64)         53.5716         estimate D2E/DX2                !
 ! D172  D(63,25,26,27)        -63.8357         estimate D2E/DX2                !
 ! D173  D(63,25,26,31)         53.3519         estimate D2E/DX2                !
 ! D174  D(63,25,26,64)        175.8441         estimate D2E/DX2                !
 ! D175  D(24,25,38,82)       -174.718          estimate D2E/DX2                !
 ! D176  D(26,25,38,82)         63.1833         estimate D2E/DX2                !
 ! D177  D(63,25,38,82)        -56.7478         estimate D2E/DX2                !
 ! D178  D(25,26,27,28)        -62.9759         estimate D2E/DX2                !
 ! D179  D(31,26,27,28)       -179.0052         estimate D2E/DX2                !
 ! D180  D(64,26,27,28)         58.7054         estimate D2E/DX2                !
 ! D181  D(25,26,31,32)        173.0412         estimate D2E/DX2                !
 ! D182  D(27,26,31,32)        -69.5951         estimate D2E/DX2                !
 ! D183  D(64,26,31,32)         50.9452         estimate D2E/DX2                !
 ! D184  D(26,27,28,23)         65.6303         estimate D2E/DX2                !
 ! D185  D(26,27,28,29)       -168.7101         estimate D2E/DX2                !
 ! D186  D(26,27,28,65)        -52.9236         estimate D2E/DX2                !
 ! D187  D(23,28,29,30)         68.7925         estimate D2E/DX2                !
 ! D188  D(23,28,29,66)       -172.9394         estimate D2E/DX2                !
 ! D189  D(23,28,29,67)        -55.1614         estimate D2E/DX2                !
 ! D190  D(27,28,29,30)        -52.8111         estimate D2E/DX2                !
 ! D191  D(27,28,29,66)         65.4569         estimate D2E/DX2                !
 ! D192  D(27,28,29,67)       -176.765          estimate D2E/DX2                !
 ! D193  D(65,28,29,30)       -170.9144         estimate D2E/DX2                !
 ! D194  D(65,28,29,66)        -52.6464         estimate D2E/DX2                !
 ! D195  D(65,28,29,67)         65.1316         estimate D2E/DX2                !
 ! D196  D(28,29,30,68)        -99.8588         estimate D2E/DX2                !
 ! D197  D(66,29,30,68)        141.4346         estimate D2E/DX2                !
 ! D198  D(67,29,30,68)         23.2765         estimate D2E/DX2                !
 ! D199  D(26,31,32,33)        145.8121         estimate D2E/DX2                !
 ! D200  D(26,31,32,69)         24.5164         estimate D2E/DX2                !
 ! D201  D(26,31,32,70)        -93.6742         estimate D2E/DX2                !
 ! D202  D(31,32,33,34)        -54.8644         estimate D2E/DX2                !
 ! D203  D(31,32,33,71)       -178.2585         estimate D2E/DX2                !
 ! D204  D(31,32,33,72)         66.7055         estimate D2E/DX2                !
 ! D205  D(69,32,33,34)         65.072          estimate D2E/DX2                !
 ! D206  D(69,32,33,71)        -58.3221         estimate D2E/DX2                !
 ! D207  D(69,32,33,72)       -173.3581         estimate D2E/DX2                !
 ! D208  D(70,32,33,34)       -174.1169         estimate D2E/DX2                !
 ! D209  D(70,32,33,71)         62.489          estimate D2E/DX2                !
 ! D210  D(70,32,33,72)        -52.547          estimate D2E/DX2                !
 ! D211  D(32,33,34,35)        -64.9678         estimate D2E/DX2                !
 ! D212  D(32,33,34,73)        172.5604         estimate D2E/DX2                !
 ! D213  D(32,33,34,74)         57.9345         estimate D2E/DX2                !
 ! D214  D(71,33,34,35)         56.9339         estimate D2E/DX2                !
 ! D215  D(71,33,34,73)        -65.5379         estimate D2E/DX2                !
 ! D216  D(71,33,34,74)        179.8363         estimate D2E/DX2                !
 ! D217  D(72,33,34,35)        173.4266         estimate D2E/DX2                !
 ! D218  D(72,33,34,73)         50.9548         estimate D2E/DX2                !
 ! D219  D(72,33,34,74)        -63.6711         estimate D2E/DX2                !
 ! D220  D(33,34,35,36)        171.5371         estimate D2E/DX2                !
 ! D221  D(33,34,35,75)         49.3859         estimate D2E/DX2                !
 ! D222  D(33,34,35,76)        -67.8504         estimate D2E/DX2                !
 ! D223  D(73,34,35,36)        -66.189          estimate D2E/DX2                !
 ! D224  D(73,34,35,75)        171.6598         estimate D2E/DX2                !
 ! D225  D(73,34,35,76)         54.4234         estimate D2E/DX2                !
 ! D226  D(74,34,35,36)         50.4731         estimate D2E/DX2                !
 ! D227  D(74,34,35,75)        -71.6781         estimate D2E/DX2                !
 ! D228  D(74,34,35,76)        171.0855         estimate D2E/DX2                !
 ! D229  D(34,35,36,37)        -71.2111         estimate D2E/DX2                !
 ! D230  D(34,35,36,77)         49.9787         estimate D2E/DX2                !
 ! D231  D(34,35,36,78)        170.3959         estimate D2E/DX2                !
 ! D232  D(75,35,36,37)         52.3457         estimate D2E/DX2                !
 ! D233  D(75,35,36,77)        173.5355         estimate D2E/DX2                !
 ! D234  D(75,35,36,78)        -66.0473         estimate D2E/DX2                !
 ! D235  D(76,35,36,37)        167.0614         estimate D2E/DX2                !
 ! D236  D(76,35,36,77)        -71.7488         estimate D2E/DX2                !
 ! D237  D(76,35,36,78)         48.6684         estimate D2E/DX2                !
 ! D238  D(35,36,37,79)         58.6261         estimate D2E/DX2                !
 ! D239  D(35,36,37,80)        -62.7074         estimate D2E/DX2                !
 ! D240  D(35,36,37,81)        179.4087         estimate D2E/DX2                !
 ! D241  D(77,36,37,79)        -64.7968         estimate D2E/DX2                !
 ! D242  D(77,36,37,80)        173.8697         estimate D2E/DX2                !
 ! D243  D(77,36,37,81)         55.9858         estimate D2E/DX2                !
 ! D244  D(78,36,37,79)       -179.9638         estimate D2E/DX2                !
 ! D245  D(78,36,37,80)         58.7027         estimate D2E/DX2                !
 ! D246  D(78,36,37,81)        -59.1812         estimate D2E/DX2                !
 --------------------------------------------------------------------------------
 Trust Radius=3.00D-01 FncErr=1.00D-07 GrdErr=1.00D-06
 Number of steps in this run=    504 maximum allowed number of steps=    504.
 GradGradGradGradGradGradGradGradGradGradGradGradGradGradGradGradGradGrad

 Leave Link  103 at Fri May 20 01:28:37 2016, MaxMem= 10737418240 cpu:         0.5
 (Enter /share/apps//g09/l202.exe)
 Stoichiometry    C23H44NO16(1+)
 Framework group  C1[X(C23H44NO16)]
 Deg. of freedom   246
 Full point group                 C1      NOp   1
 Largest Abelian subgroup         C1      NOp   1
 Largest concise Abelian subgroup C1      NOp   1
                         Standard orientation:                         
 ---------------------------------------------------------------------
 Center     Atomic      Atomic             Coordinates (Angstroms)
 Number     Number       Type             X           Y           Z
 ---------------------------------------------------------------------
      1          8           0        3.335822    2.208839    0.249761
      2          6           0        3.820912    0.949441   -0.126271
      3          6           0        4.078821    0.842240   -1.629994
      4          6           0        2.758585    1.040914   -2.413809
      5          6           0        1.805353    2.099892   -1.725370
      6          6           0        2.619245    2.971201   -0.760859
      7          6           0        1.872853    4.054856    0.015091
      8          8           0        0.931344    3.579843    0.988947
      9          8           0        0.708216    1.433565   -1.099182
     10          8           0        2.038056   -0.185248   -2.584901
     11          8           0        5.048538    1.842954   -1.945171
     12          8           0        2.825907   -0.043996    0.232266
     13          6           0        3.236784   -1.172406    1.024981
     14          6           0        3.040128   -2.461150    0.225761
     15          8           0        3.648657   -2.314831   -1.066221
     16          6           0        1.562450   -2.791144    0.044821
     17          6           0        0.825222   -2.832694    1.391641
     18          8           0        1.041759   -1.604659    2.104809
     19          6           0        2.403593   -1.219047    2.326349
     20          6           0        2.314490    0.156357    3.003955
     21          8           0        1.428366    1.027463    2.277593
     22          8           0       -0.564433   -3.009000    1.274896
     23          6           0       -1.288201   -2.033046    0.498297
     24          6           0       -1.939756   -2.725566   -0.702019
     25          6           0       -2.883191   -1.781135   -1.442225
     26          6           0       -3.884434   -1.135699   -0.484252
     27          8           0       -3.161925   -0.490042    0.580761
     28          6           0       -2.403068   -1.417918    1.373893
     29          6           0       -1.927249   -0.664301    2.612066
     30          8           0       -1.241324    0.552361    2.306602
     31          8           0       -4.567629   -0.166796   -1.208889
     32          6           0       -5.679001    0.456859   -0.514546
     33          6           0       -5.759327    1.913264   -0.958355
     34          6           0       -4.451063    2.696122   -0.767036
     35          6           0       -4.019864    2.871671    0.695560
     36          6           0       -2.624508    3.468313    0.857891
     37          7           0       -1.548446    2.503040    0.466192
     38          8           0       -3.507964   -2.564005   -2.456745
     39          8           0       -0.936233   -3.194163   -1.617156
     40          8           0        1.500877   -4.030758   -0.639853
     41          1           0        4.740102    0.772953    0.455278
     42          1           0        4.467088   -0.168791   -1.832898
     43          1           0        3.026092    1.423007   -3.412082
     44          1           0        1.417372    2.777224   -2.509303
     45          1           0        3.365269    3.498464   -1.384455
     46          1           0        1.308794    4.684357   -0.687844
     47          1           0        2.619655    4.693019    0.514429
     48          1           0        1.390656    2.964955    1.603233
     49          1           0        0.766289    0.526508   -1.490902
     50          1           0        2.518466   -0.893862   -2.099035
     51          1           0        5.494949    1.591325   -2.771509
     52          1           0        4.302308   -1.062868    1.291874
     53          1           0        3.528453   -3.288983    0.774816
     54          1           0        3.439491   -3.147234   -1.536268
     55          1           0        1.117364   -1.986383   -0.566721
     56          1           0        1.162484   -3.699570    1.988814
     57          1           0        2.896191   -1.929080    3.021399
     58          1           0        1.898182    0.051990    4.014300
     59          1           0        3.319678    0.603519    3.087125
     60          1           0        1.692648    0.904525    1.331694
     61          1           0       -0.623307   -1.220593    0.164404
     62          1           0       -2.517933   -3.590070   -0.323223
     63          1           0       -2.288805   -0.958588   -1.886539
     64          1           0       -4.573346   -1.892296   -0.049764
     65          1           0       -3.055217   -2.241159    1.731429
     66          1           0       -2.815223   -0.393959    3.202889
     67          1           0       -1.293129   -1.326349    3.216651
     68          1           0       -0.255046    0.448668    2.352057
     69          1           0       -5.517187    0.377317    0.570807
     70          1           0       -6.605944   -0.082701   -0.769324
     71          1           0       -6.584435    2.392277   -0.405735
     72          1           0       -6.039383    1.945750   -2.022603
     73          1           0       -4.559760    3.688374   -1.233510
     74          1           0       -3.670103    2.167198   -1.338621
     75          1           0       -4.046492    1.908642    1.228860
     76          1           0       -4.729542    3.535600    1.213933
     77          1           0       -2.497379    4.377689    0.252459
     78          1           0       -2.426465    3.732461    1.904907
     79          1           0       -1.626531    2.179490   -0.504359
     80          1           0       -1.561940    1.647009    1.096594
     81          1           0       -0.585482    2.926282    0.571599
     82          1           0       -4.053673   -1.968337   -3.000831
     83          1           0       -1.417270   -3.494936   -2.412168
     84          1           0        0.614264   -4.048470   -1.068760
 ---------------------------------------------------------------------
 Rotational constants (GHZ):      0.1205190      0.0775448      0.0630719
 Leave Link  202 at Fri May 20 01:28:38 2016, MaxMem= 10737418240 cpu:         4.9
 (Enter /share/apps//g09/l301.exe)
 Standard basis: 6-311+G(d,p) (5D, 7F)
 Ernie: Thresh=  0.10000D-02 Tol=  0.10000D-05 Strict=F.
 There are  1184 symmetry adapted cartesian basis functions of A   symmetry.
 There are  1144 symmetry adapted basis functions of A   symmetry.
  1144 basis functions,  1792 primitive gaussians,  1184 cartesian basis functions
   158 alpha electrons      158 beta electrons
       nuclear repulsion energy      6041.4909205890 Hartrees.
 IExCor= 1009 DFT=T Ex+Corr=PBE1PBE ExCW=0 ScaHFX=  0.250000
 ScaDFX=  0.750000  0.750000  1.000000  1.000000 ScalE2=  1.000000  1.000000
 IRadAn=      0 IRanWt=     -1 IRanGd=            0 ICorTp=0 IEmpDi=131
 NAtoms=   84 NActive=   84 NUniq=   84 SFac= 1.00D+00 NAtFMM=   60 NAOKFM=T Big=T
 Integral buffers will be    131072 words long.
 Raffenetti 2 integral format.
 Two-electron integral symmetry is turned on.
 R6Disp:  Grimme-D3 Dispersion energy=       -0.0874777438 Hartrees.
 Nuclear repulsion after empirical dispersion term =     6041.4034428451 Hartrees.
 Leave Link  301 at Fri May 20 01:28:38 2016, MaxMem= 10737418240 cpu:         4.4
 (Enter /share/apps//g09/l302.exe)
 NPDir=0 NMtPBC=     1 NCelOv=     1 NCel=       1 NClECP=     1 NCelD=      1
         NCelK=      1 NCelE2=     1 NClLst=     1 CellRange=     0.0.
 One-electron integrals computed using PRISM.
 NBasis=  1144 RedAO= T EigKep=  1.40D-06  NBF=  1144
 NBsUse=  1144 1.00D-06 EigRej= -1.00D+00 NBFU=  1144
 Precomputing XC quadrature grid using
 IXCGrd= 4 IRadAn=           0 IRanWt=          -1 IRanGd=           0 AccXCQ= 0.00D+00.
 Generated NRdTot=       0 NPtTot=           0 NUsed=           0 NTot=          32
 NSgBfM=  1080  1081  1081  1081  1082 MxSgAt=    84 MxSgA2=    84.
 Leave Link  302 at Fri May 20 01:28:43 2016, MaxMem= 10737418240 cpu:        57.7
 (Enter /share/apps//g09/l303.exe)
 DipDrv:  MaxL=1.
 Leave Link  303 at Fri May 20 01:28:45 2016, MaxMem= 10737418240 cpu:        32.3
 (Enter /share/apps//g09/l401.exe)
 ExpMin= 4.38D-02 ExpMax= 8.59D+03 ExpMxC= 1.30D+03 IAcc=2 IRadAn=         4 AccDes= 0.00D+00
 Harris functional with IExCor= 1009 and IRadAn=       4 diagonalized for initial guess.
 HarFok:  IExCor= 1009 AccDes= 0.00D+00 IRadAn=         4 IDoV= 1 UseB2=F ITyADJ=14
 ICtDFT=  3500011 ScaDFX=  1.000000  1.000000  1.000000  1.000000
 FoFCou: FMM=F IPFlag=           0 FMFlag=      100000 FMFlg1=        2001
         NFxFlg=           0 DoJE=T BraDBF=F KetDBF=T FulRan=T
         wScrn=  0.000000 ICntrl=     500 IOpCl=  0 I1Cent=   200000004 NGrid=           0
         NMat0=    1 NMatS0=      1 NMatT0=    0 NMatD0=    1 NMtDS0=    0 NMtDT0=    0
 Petite list used in FoFCou.
 Harris En= -2159.71136595715    
 JPrj=0 DoOrth=F DoCkMO=F.
 Leave Link  401 at Fri May 20 01:28:52 2016, MaxMem= 10737418240 cpu:       125.9
 (Enter /share/apps//g09/l502.exe)
 Closed shell SCF:
 Using DIIS extrapolation, IDIIS=  1040.
 Integral symmetry usage will be decided dynamically.
 IVT=     4256630 IEndB=     4256630 NGot= 10737418240 MDV= 10734581291
 LenX= 10734581291 LenY= 10733178251
 Requested convergence on RMS density matrix=1.00D-08 within 128 cycles.
 Requested convergence on MAX density matrix=1.00D-06.
 Requested convergence on             energy=1.00D-06.
 No special actions if energy rises.
 Fock matrices will be formed incrementally for  20 cycles.

 Cycle   1  Pass 1  IDiag  1:
 FoFJK:  IHMeth= 1 ICntrl=       0 DoSepK=F KAlg= 0 I1Cent=   0 FoldK=F
 IRaf= 800000000 NMat=   1 IRICut=       1 DoRegI=T DoRafI=F ISym2E= 0.
 FoFCou: FMM=T IPFlag=           0 FMFlag=      100000 FMFlg1=        2001
         NFxFlg=           0 DoJE=F BraDBF=F KetDBF=F FulRan=T
         wScrn=  0.000000 ICntrl=       0 IOpCl=  0 I1Cent=           0 NGrid=           0
         NMat0=    1 NMatS0=      1 NMatT0=    0 NMatD0=    1 NMtDS0=    0 NMtDT0=    0
 Symmetry not used in FoFCou.
 FMM levels:  10  Number of levels for PrismC:   9
 E= -2158.72066132754    
 DIIS: error= 1.16D-02 at cycle   1 NSaved=   1.
 NSaved= 1 IEnMin= 1 EnMin= -2158.72066132754     IErMin= 1 ErrMin= 1.16D-02
 ErrMax= 1.16D-02  0.00D+00 EMaxC= 1.00D-01 BMatC= 1.01D+00 BMatP= 1.01D+00
 IDIUse=3 WtCom= 8.84D-01 WtEn= 1.16D-01
 Coeff-Com:  0.100D+01
 Coeff-En:   0.100D+01
 Coeff:      0.100D+01
 Gap=     0.273 Goal=   None    Shift=    0.000
 GapD=    0.273 DampG=1.000 DampE=0.500 DampFc=0.5000 IDamp=-1.
 Damping current iteration by 5.00D-01
 RMSDP=1.20D-02 MaxDP=3.06D+00              OVMax= 1.31D-01

 Cycle   2  Pass 1  IDiag  1:
 RMSU=  5.92D-03    CP:  1.02D+00
 E= -2159.00027575014     Delta-E=       -0.279614422594 Rises=F Damp=T
 DIIS: error= 2.68D-03 at cycle   2 NSaved=   2.
 NSaved= 2 IEnMin= 2 EnMin= -2159.00027575014     IErMin= 2 ErrMin= 2.68D-03
 ErrMax= 2.68D-03  0.00D+00 EMaxC= 1.00D-01 BMatC= 7.84D-02 BMatP= 1.01D+00
 IDIUse=3 WtCom= 9.73D-01 WtEn= 2.68D-02
 Coeff-Com:  0.539D-01 0.946D+00
 Coeff-En:   0.148D+00 0.852D+00
 Coeff:      0.564D-01 0.944D+00
 Gap=     0.305 Goal=   None    Shift=    0.000
 RMSDP=6.03D-03 MaxDP=1.67D+00 DE=-2.80D-01 OVMax= 8.41D-02

 Cycle   3  Pass 1  IDiag  1:
 RMSU=  2.81D-03    CP:  9.24D-01  8.33D-01
 E= -2159.35846324407     Delta-E=       -0.358187493934 Rises=F Damp=F
 DIIS: error= 2.96D-03 at cycle   3 NSaved=   3.
 NSaved= 3 IEnMin= 3 EnMin= -2159.35846324407     IErMin= 2 ErrMin= 2.68D-03
 ErrMax= 2.96D-03  0.00D+00 EMaxC= 1.00D-01 BMatC= 4.41D-02 BMatP= 7.84D-02
 IDIUse=3 WtCom= 9.70D-01 WtEn= 2.96D-02
 Coeff-Com: -0.701D-01 0.412D+00 0.658D+00
 Coeff-En:   0.000D+00 0.000D+00 0.100D+01
 Coeff:     -0.680D-01 0.400D+00 0.668D+00
 Gap=     0.279 Goal=   None    Shift=    0.000
 RMSDP=1.76D-03 MaxDP=5.45D-01 DE=-3.58D-01 OVMax= 1.62D-02

 Cycle   4  Pass 1  IDiag  1:
 RMSU=  1.31D-03    CP:  9.38D-01  9.62D-01  8.30D-01
 E= -2159.38628232913     Delta-E=       -0.027819085055 Rises=F Damp=F
 DIIS: error= 9.04D-04 at cycle   4 NSaved=   4.
 NSaved= 4 IEnMin= 4 EnMin= -2159.38628232913     IErMin= 4 ErrMin= 9.04D-04
 ErrMax= 9.04D-04  0.00D+00 EMaxC= 1.00D-01 BMatC= 5.78D-03 BMatP= 4.41D-02
 IDIUse=3 WtCom= 9.91D-01 WtEn= 9.04D-03
 Coeff-Com: -0.369D-01 0.125D+00 0.340D+00 0.572D+00
 Coeff-En:   0.000D+00 0.000D+00 0.724D-01 0.928D+00
 Coeff:     -0.366D-01 0.124D+00 0.338D+00 0.575D+00
 Gap=     0.272 Goal=   None    Shift=    0.000
 RMSDP=1.41D-03 MaxDP=4.02D-01 DE=-2.78D-02 OVMax= 6.19D-03

 Cycle   5  Pass 1  IDiag  1:
 RMSU=  3.36D-04    CP:  9.15D-01  9.21D-01  8.47D-01  6.20D-01
 E= -2159.39120101092     Delta-E=       -0.004918681789 Rises=F Damp=F
 DIIS: error= 2.47D-04 at cycle   5 NSaved=   5.
 NSaved= 5 IEnMin= 5 EnMin= -2159.39120101092     IErMin= 5 ErrMin= 2.47D-04
 ErrMax= 2.47D-04  0.00D+00 EMaxC= 1.00D-01 BMatC= 2.57D-04 BMatP= 5.78D-03
 IDIUse=3 WtCom= 9.98D-01 WtEn= 2.47D-03
 Coeff-Com: -0.119D-01 0.270D-01 0.104D+00 0.250D+00 0.631D+00
 Coeff-En:   0.000D+00 0.000D+00 0.000D+00 0.000D+00 0.100D+01
 Coeff:     -0.119D-01 0.270D-01 0.104D+00 0.250D+00 0.631D+00
 Gap=     0.272 Goal=   None    Shift=    0.000
 RMSDP=2.61D-04 MaxDP=7.87D-02 DE=-4.92D-03 OVMax= 1.49D-03

 Cycle   6  Pass 1  IDiag  1:
 RMSU=  9.66D-05    CP:  9.19D-01  9.24D-01  8.57D-01  6.03D-01  6.90D-01
 E= -2159.39138528608     Delta-E=       -0.000184275159 Rises=F Damp=F
 DIIS: error= 7.25D-05 at cycle   6 NSaved=   6.
 NSaved= 6 IEnMin= 6 EnMin= -2159.39138528608     IErMin= 6 ErrMin= 7.25D-05
 ErrMax= 7.25D-05  0.00D+00 EMaxC= 1.00D-01 BMatC= 2.46D-05 BMatP= 2.57D-04
 IDIUse=1 WtCom= 1.00D+00 WtEn= 0.00D+00
 Coeff-Com: -0.409D-02 0.733D-02 0.354D-01 0.989D-01 0.327D+00 0.535D+00
 Coeff:     -0.409D-02 0.733D-02 0.354D-01 0.989D-01 0.327D+00 0.535D+00
 Gap=     0.272 Goal=   None    Shift=    0.000
 RMSDP=4.20D-05 MaxDP=9.00D-03 DE=-1.84D-04 OVMax= 4.58D-04

 Cycle   7  Pass 1  IDiag  1:
 RMSU=  2.24D-05    CP:  9.19D-01  9.26D-01  8.59D-01  6.20D-01  7.02D-01
                    CP:  7.39D-01
 E= -2159.39140290326     Delta-E=       -0.000017617183 Rises=F Damp=F
 DIIS: error= 2.34D-05 at cycle   7 NSaved=   7.
 NSaved= 7 IEnMin= 7 EnMin= -2159.39140290326     IErMin= 7 ErrMin= 2.34D-05
 ErrMax= 2.34D-05  0.00D+00 EMaxC= 1.00D-01 BMatC= 1.85D-06 BMatP= 2.46D-05
 IDIUse=1 WtCom= 1.00D+00 WtEn= 0.00D+00
 Coeff-Com: -0.118D-02 0.172D-02 0.105D-01 0.329D-01 0.122D+00 0.277D+00
 Coeff-Com:  0.557D+00
 Coeff:     -0.118D-02 0.172D-02 0.105D-01 0.329D-01 0.122D+00 0.277D+00
 Coeff:      0.557D+00
 Gap=     0.272 Goal=   None    Shift=    0.000
 RMSDP=1.06D-05 MaxDP=2.46D-03 DE=-1.76D-05 OVMax= 1.38D-04

 Cycle   8  Pass 1  IDiag  1:
 RMSU=  7.67D-06    CP:  9.19D-01  9.26D-01  8.58D-01  6.23D-01  7.08D-01
                    CP:  7.23D-01  8.24D-01
 E= -2159.39140412200     Delta-E=       -0.000001218737 Rises=F Damp=F
 DIIS: error= 5.92D-06 at cycle   8 NSaved=   8.
 NSaved= 8 IEnMin= 8 EnMin= -2159.39140412200     IErMin= 8 ErrMin= 5.92D-06
 ErrMax= 5.92D-06  0.00D+00 EMaxC= 1.00D-01 BMatC= 1.50D-07 BMatP= 1.85D-06
 IDIUse=1 WtCom= 1.00D+00 WtEn= 0.00D+00
 Coeff-Com: -0.758D-05-0.177D-03 0.236D-03 0.235D-02 0.124D-01 0.549D-01
 Coeff-Com:  0.256D+00 0.674D+00
 Coeff:     -0.758D-05-0.177D-03 0.236D-03 0.235D-02 0.124D-01 0.549D-01
 Coeff:      0.256D+00 0.674D+00
 Gap=     0.272 Goal=   None    Shift=    0.000
 RMSDP=3.49D-06 MaxDP=8.56D-04 DE=-1.22D-06 OVMax= 3.95D-05

 Cycle   9  Pass 1  IDiag  1:
 RMSU=  2.17D-06    CP:  9.19D-01  9.26D-01  8.58D-01  6.23D-01  7.10D-01
                    CP:  7.24D-01  8.00D-01  8.82D-01
 E= -2159.39140422791     Delta-E=       -0.000000105914 Rises=F Damp=F
 DIIS: error= 1.73D-06 at cycle   9 NSaved=   9.
 NSaved= 9 IEnMin= 9 EnMin= -2159.39140422791     IErMin= 9 ErrMin= 1.73D-06
 ErrMax= 1.73D-06  0.00D+00 EMaxC= 1.00D-01 BMatC= 1.41D-08 BMatP= 1.50D-07
 IDIUse=1 WtCom= 1.00D+00 WtEn= 0.00D+00
 Coeff-Com:  0.718D-04-0.193D-03-0.595D-03-0.103D-02-0.230D-02 0.692D-02
 Coeff-Com:  0.838D-01 0.325D+00 0.589D+00
 Coeff:      0.718D-04-0.193D-03-0.595D-03-0.103D-02-0.230D-02 0.692D-02
 Coeff:      0.838D-01 0.325D+00 0.589D+00
 Gap=     0.272 Goal=   None    Shift=    0.000
 RMSDP=1.36D-06 MaxDP=3.04D-04 DE=-1.06D-07 OVMax= 1.03D-05

 Cycle  10  Pass 1  IDiag  1:
 RMSU=  6.80D-07    CP:  9.19D-01  9.26D-01  8.58D-01  6.22D-01  7.09D-01
                    CP:  7.31D-01  8.24D-01  8.83D-01  7.95D-01
 E= -2159.39140423802     Delta-E=       -0.000000010114 Rises=F Damp=F
 DIIS: error= 5.78D-07 at cycle  10 NSaved=  10.
 NSaved=10 IEnMin=10 EnMin= -2159.39140423802     IErMin=10 ErrMin= 5.78D-07
 ErrMax= 5.78D-07  0.00D+00 EMaxC= 1.00D-01 BMatC= 1.64D-09 BMatP= 1.41D-08
 IDIUse=1 WtCom= 1.00D+00 WtEn= 0.00D+00
 Coeff-Com:  0.329D-04-0.759D-04-0.313D-03-0.674D-03-0.213D-02-0.101D-02
 Coeff-Com:  0.211D-01 0.107D+00 0.310D+00 0.566D+00
 Coeff:      0.329D-04-0.759D-04-0.313D-03-0.674D-03-0.213D-02-0.101D-02
 Coeff:      0.211D-01 0.107D+00 0.310D+00 0.566D+00
 Gap=     0.272 Goal=   None    Shift=    0.000
 RMSDP=4.23D-07 MaxDP=9.39D-05 DE=-1.01D-08 OVMax= 3.36D-06

 Cycle  11  Pass 1  IDiag  1:
 RMSU=  2.02D-07    CP:  9.19D-01  9.26D-01  8.58D-01  6.23D-01  7.10D-01
                    CP:  7.30D-01  8.23D-01  8.94D-01  8.14D-01  6.31D-01
 E= -2159.39140423896     Delta-E=       -0.000000000935 Rises=F Damp=F
 DIIS: error= 1.48D-07 at cycle  11 NSaved=  11.
 NSaved=11 IEnMin=11 EnMin= -2159.39140423896     IErMin=11 ErrMin= 1.48D-07
 ErrMax= 1.48D-07  0.00D+00 EMaxC= 1.00D-01 BMatC= 1.18D-10 BMatP= 1.64D-09
 IDIUse=1 WtCom= 1.00D+00 WtEn= 0.00D+00
 Coeff-Com:  0.867D-05-0.185D-04-0.100D-03-0.227D-03-0.790D-03-0.981D-03
 Coeff-Com:  0.318D-02 0.234D-01 0.991D-01 0.273D+00 0.603D+00
 Coeff:      0.867D-05-0.185D-04-0.100D-03-0.227D-03-0.790D-03-0.981D-03
 Coeff:      0.318D-02 0.234D-01 0.991D-01 0.273D+00 0.603D+00
 Gap=     0.272 Goal=   None    Shift=    0.000
 RMSDP=1.33D-07 MaxDP=3.39D-05 DE=-9.35D-10 OVMax= 9.56D-07

 Cycle  12  Pass 1  IDiag  1:
 RMSU=  5.01D-08    CP:  9.19D-01  9.26D-01  8.58D-01  6.23D-01  7.09D-01
                    CP:  7.30D-01  8.25D-01  8.97D-01  8.16D-01  6.66D-01
                    CP:  7.62D-01
 E= -2159.39140423927     Delta-E=       -0.000000000309 Rises=F Damp=F
 DIIS: error= 4.60D-08 at cycle  12 NSaved=  12.
 NSaved=12 IEnMin=12 EnMin= -2159.39140423927     IErMin=12 ErrMin= 4.60D-08
 ErrMax= 4.60D-08  0.00D+00 EMaxC= 1.00D-01 BMatC= 8.76D-12 BMatP= 1.18D-10
 IDIUse=1 WtCom= 1.00D+00 WtEn= 0.00D+00
 Coeff-Com:  0.384D-06-0.418D-06-0.142D-04-0.341D-04-0.138D-03-0.325D-03
 Coeff-Com: -0.760D-03-0.769D-03 0.114D-01 0.634D-01 0.263D+00 0.664D+00
 Coeff:      0.384D-06-0.418D-06-0.142D-04-0.341D-04-0.138D-03-0.325D-03
 Coeff:     -0.760D-03-0.769D-03 0.114D-01 0.634D-01 0.263D+00 0.664D+00
 Gap=     0.272 Goal=   None    Shift=    0.000
 RMSDP=2.54D-08 MaxDP=5.22D-06 DE=-3.09D-10 OVMax= 3.02D-07

 Cycle  13  Pass 1  IDiag  1:
 RMSU=  1.45D-08    CP:  9.19D-01  9.26D-01  8.58D-01  6.23D-01  7.09D-01
                    CP:  7.30D-01  8.24D-01  8.97D-01  8.20D-01  6.75D-01
                    CP:  7.51D-01  9.01D-01
 E= -2159.39140423920     Delta-E=        0.000000000065 Rises=F Damp=F
 DIIS: error= 1.56D-08 at cycle  13 NSaved=  13.
 NSaved=13 IEnMin=12 EnMin= -2159.39140423927     IErMin=13 ErrMin= 1.56D-08
 ErrMax= 1.56D-08  0.00D+00 EMaxC= 1.00D-01 BMatC= 8.99D-13 BMatP= 8.76D-12
 IDIUse=1 WtCom= 1.00D+00 WtEn= 0.00D+00
 Coeff-Com: -0.389D-06 0.101D-05-0.229D-06-0.137D-05-0.129D-04-0.882D-04
 Coeff-Com: -0.583D-03-0.199D-02-0.148D-02 0.116D-01 0.835D-01 0.323D+00
 Coeff-Com:  0.586D+00
 Coeff:     -0.389D-06 0.101D-05-0.229D-06-0.137D-05-0.129D-04-0.882D-04
 Coeff:     -0.583D-03-0.199D-02-0.148D-02 0.116D-01 0.835D-01 0.323D+00
 Coeff:      0.586D+00
 Gap=     0.272 Goal=   None    Shift=    0.000
 RMSDP=8.76D-09 MaxDP=1.63D-06 DE= 6.55D-11 OVMax= 1.18D-07

 Cycle  14  Pass 1  IDiag  1:
[...]
 8530,0.00043941,-0.00020619,-0.00041015,-0.00012622,0.00001036,0.00007
 223,0.00003474,-0.00003128,-0.00002980,-0.00003659,0.00000645,0.000003
 20,-0.00001344,-0.00001991,0.00001268,0.00000375,-0.00001422,-0.000047
 39,0.00005854,0.00068833,0.00192907,0.00079644,-0.03500956,0.00784162,
 -0.09122045,-0.00135171,-0.00190851,0.00070619,-0.00000544,-0.00000081
 ,0.00001959,0.00000624,-0.00000839,-0.00000311,0.00001212,-0.00000842,
 -0.00000915,-0.00000937,-0.00000032,-0.00000610,0.00000385,-0.00000330
 ,0.00001301,-0.00001133,0.00000273,-0.00000121,0.00000886,-0.00000426,
 0.00000957,0.00001597,-0.00000057,-0.00003598,-0.00002609,0.00013966,-
 0.00022192,0.00012986,0.00006469,-0.00009193,0.00001101,0.00003372,-0.
 00000304,-0.00001123,-0.00000459,0.00000490,0.00000874,-0.00000072,0.0
 0001255,0.00007637,0.00000842,0.00005757,-0.00003930,0.00000106,-0.000
 08440,-0.00000553,-0.00002715,0.00003847,-0.00000888,0.00000341,0.0000
 0824,-0.00000210,0.00000220,0.00000432,-0.00000222,-0.00000645,0.,0.00
 002577,0.00000179,-0.00004962,0.00016307,0.00001928,0.00028614,0.00074
 557,0.00028184,0.00076574,-0.00076580,-0.00013598,0.00017999,0.0001284
 5,0.00022984,0.00013532,-0.00005619,-0.00002719,0.00001549,-0.00008367
 ,0.00004692,-0.00016516,0.00002992,-0.00001711,0.00005316,0.00000578,0
 .00001303,-0.00001052,0.00003139,0.00005509,0.00004250,0.00001525,0.00
 005594,-0.00000405,0.00005158,0.00000682,0.00000183,-0.00000920,-0.000
 02534,0.00000436,0.00003024,-0.00000223,0.00001123,-0.00002878,0.00004
 036,0.00000393,-0.00001408,-0.00000200,-0.00002406,0.00001272,0.000003
 82,0.00001142,-0.00000315,-0.00000345,-0.00000824,0.00000669,-0.000004
 15,0.00001012,-0.00007820,0.00002886,-0.00005798,0.00008274,0.00001386
 ,-0.00013423,-0.00001743,0.00008206,-0.00004376,-0.00012131,0.00023805
 ,0.00070144,0.04234866,-0.00001802,-0.00002059,-0.00005211,-0.00001342
 ,0.00007892,0.00008769,-0.00001606,-0.00004449,0.00003517,0.00031992,-
 0.00013127,0.00000530,-0.00001030,0.00005496,0.00001251,-0.00000154,-0
 .00004123,0.00003011,0.00001154,0.00006369,0.00002648,-0.00000624,-0.0
 0008603,-0.00003198,-0.00009566,-0.00009355,-0.00009842,-0.00042598,0.
 00017226,-0.00026705,-0.00003658,0.00007653,-0.00005181,0.00008129,-0.
 00008004,-0.00011070,-0.00008141,0.00002083,0.00000696,-0.00022833,0.0
 0025651,0.00031150,0.00003118,-0.00011645,-0.00030210,0.00028617,-0.00
 027902,-0.00008201,-0.00011311,-0.00004025,-0.00024886,0.00003740,-0.0
 0006627,0.00007179,-0.00001627,0.00006021,-0.00002618,-0.00000736,-0.0
 0000654,0.00000944,0.00001163,-0.00002994,-0.00002758,0.00029293,0.000
 02970,0.00056542,-0.00238722,-0.00547343,-0.00129143,-0.01034577,0.006
 46498,-0.03578452,-0.00368520,0.00113846,-0.00347264,-0.00000156,-0.00
 011299,-0.00047958,0.00034263,-0.00011868,0.00112528,-0.00028260,0.001
 23529,-0.00191432,-0.00021914,-0.00061712,0.00002221,-0.00004026,0.000
 04419,0.00007123,0.00035894,0.00012260,0.00037400,-0.00020843,-0.00022
 695,-0.00007171,-0.00001316,0.00002241,0.00001062,0.00000781,0.0000061
 7,-0.00001506,-0.00000374,-0.00000739,-0.00000935,0.00002314,0.0000473
 3,0.00000205,-0.00001930,-0.00008667,0.00003418,0.00187002,-0.00014996
 ,-0.00065874,0.02217241,-0.08124524,0.15434857,-0.00060707,-0.00113218
 ,0.00024514,-0.00000039,-0.00000601,-0.00001705,-0.00001251,-0.0000082
 3,0.00001467,-0.00001182,0.00000885,0.00000627,0.00000350,-0.00000357,
 0.00000072,0.00000586,-0.00000089,0.00000175,0.00000408,0.00000061,0.0
 0000164,-0.00000707,-0.00001017,-0.00001106,0.00000724,0.00000991,0.00
 001599,0.00013231,0.00010151,0.00016849,0.00004051,-0.00006883,0.00027
 027,0.00000975,-0.00002429,0.00000680,0.00001528,-0.00000419,0.0000026
 3,0.00003455,-0.00012345,0.00000698,-0.00001768,-0.00001886,0.00019112
 ,-0.00037765,0.00030111,0.00008119,0.00000646,0.00004326,0.00002782,0.
 00000074,-0.00000915,-0.00000029,-0.00000201,-0.00000224,-0.00000369,0
 .00000395,-0.00000125,0.00000436,-0.00000049,0.00003285,0.00003498,-0.
 00008384,0.00008164,0.00018793,0.00013406,-0.00083763,-0.00109393,0.00
 059526,-0.00018265,0.00037097,-0.00000752,-0.00011187,-0.00007298,0.00
 002494,0.00005216,0.00003552,-0.00009649,0.00001276,-0.00018860,0.0000
 2539,-0.00000771,0.00004344,-0.00001354,0.00002202,0.00000545,0.000026
 43,0.00004710,0.00003107,0.00000550,0.00000864,0.00000056,0.00002677,-
 0.00000238,0.00000232,-0.00000963,-0.00001359,0.00000636,0.00002474,-0
 .00000478,0.00000858,-0.00003040,0.00001703,0.00000153,-0.00000614,0.0
 0000283,-0.00001870,0.00000485,-0.00000363,0.00000568,0.00000007,-0.00
 000456,-0.00000562,-0.00000101,-0.00000864,0.00000778,-0.00001768,0.00
 007149,-0.00000975,0.00002591,0.00003130,-0.00006026,-0.00000093,0.000
 09739,-0.00001781,0.00089248,0.00069826,0.00134178,-0.01015515,0.07911
 632,0.00012777,-0.00000491,-0.00005359,-0.00019819,0.00016250,0.000055
 77,-0.00001902,0.00003445,0.00002235,-0.00003154,0.00001373,0.00002307
 ,-0.00004897,0.00008215,0.00006152,-0.00003611,-0.00002484,0.00004959,
 -0.00002337,0.00003518,0.00001883,0.00005355,-0.00002963,-0.00003059,0
 .00007606,-0.00011337,-0.00010793,0.00009690,-0.00010584,-0.00018128,0
 .00003960,-0.00006536,-0.00004737,0.00022318,-0.00017061,-0.00008974,-
 0.00016907,-0.00002242,0.00003824,-0.00001187,0.00026208,0.00017481,0.
 00004562,-0.00023168,-0.00012229,-0.00010184,-0.00025719,0.00002624,-0
 .00013733,0.00032529,-0.00035216,0.00025388,-0.00022904,0.00030639,-0.
 00001139,0.00019781,-0.00011357,-0.00005383,-0.00001476,-0.00000377,0.
 00010438,-0.00003823,-0.00000770,0.00002966,-0.00022848,0.00082033,-0.
 00007442,-0.00293018,-0.00043992,-0.00687315,0.00238906,-0.01875831,0.
 00141658,0.00130683,0.00418343,-0.00047614,0.00005417,-0.00087734,-0.0
 0001571,0.00000063,-0.00049661,-0.00052391,0.00042311,-0.00021946,-0.0
 0007920,-0.00017828,-0.00006856,0.00015302,0.00000087,0.00004664,0.000
 59954,0.00051211,-0.00019168,0.00006667,-0.00014710,-0.00003252,0.0000
 1460,0.00005077,0.00003706,0.00000312,0.00000701,-0.00000261,-0.000011
 90,0.00000232,0.00001097,-0.00003840,-0.00003234,-0.00000500,0.0000701
 5,0.00000361,-0.00003704,-0.00084269,-0.00090695,-0.00145315,-0.107106
 29,0.11196663,-0.45228056,0.00025375,-0.00063683,0.00057917,0.00000453
 ,-0.00000779,-0.00000913,-0.00000452,0.00001216,0.00001591,0.00002518,
 -0.00003204,-0.00000688,0.00003067,-0.00001216,-0.00001717,0.00000869,
 -0.00000821,-0.00000378,0.00000574,0.00000378,-0.00000547,-0.00000023,
 -0.00000680,0.00000124,-0.00005498,0.00001141,0.00001931,-0.00011825,0
 .00011529,0.00008402,-0.00009123,0.00011698,0.00012615,-0.00000196,0.0
 0001021,0.00001871,0.00004261,-0.00002387,0.00000792,-0.00000873,-0.00
 005652,0.00001209,0.00001039,0.00014307,0.00006111,-0.00012316,0.00023
 808,-0.00015323,-0.00000606,-0.00000747,0.00003435,-0.00000969,-0.0000
 2909,0.00000999,0.00000127,0.00000789,-0.00000306,0.00001666,-0.000009
 75,0.00000305,-0.00006211,0.00003574,0.00001113,0.00010669,-0.00004892
 ,0.00019850,0.00051429,0.00107488,0.00032342,-0.00018789,0.00002675,-0
 .00011115,0.00002646,-0.00002033,0.00001537,0.00005356,-0.00003654,-0.
 00004843,0.00001853,0.00003853,-0.00002010,-0.00001009,-0.00000819,-0.
 00002765,-0.00005913,0.00001440,-0.00003742,-0.00001382,-0.00000558,-0
 .00001206,0.00000260,0.00002896,0.00001032,0.00002278,-0.00000351,-0.0
 0000869,0.00000993,0.00000219,-0.00001855,0.00001341,-0.00000017,-0.00
 000029,-0.00000953,0.00000078,0.00001658,-0.00000281,-0.00001050,-0.00
 001014,0.00000498,0.00000357,-0.00000530,0.00001104,0.00000113,-0.0000
 0058,-0.00000261,0.00000520,-0.00000184,-0.00002490,-0.00000088,0.0000
 3354,-0.00012468,0.00000752,0.00006959,-0.00001963,0.00001050,0.000004
 80,0.00010478,-0.00000427,-0.00024467,0.11278603,-0.11489625,0.4711069
 5,-0.00021930,-0.00006953,0.00010361,0.00027841,-0.00012175,-0.0000774
 2,0.00003420,0.00005764,-0.00007577,-0.00022872,0.00013285,-0.00004873
 ,-0.00005175,0.00015378,0.00005791,0.00007894,0.00004152,-0.00014582,-
 0.00002647,0.00002641,0.00004039,0.00002722,-0.00009344,0.00004267,0.0
 0010531,-0.00029279,0.00004901,0.00027817,-0.00038109,0.00008194,-0.00
 001158,-0.00008778,0.00007689,-0.00030350,-0.00007244,0.00037294,0.000
 96757,0.00228767,-0.00089894,-0.00763211,-0.00033063,-0.00398658,0.000
 13531,-0.00037867,0.00020503,-0.00199094,0.03261952,-0.03006459,-0.000
 39263,0.00197286,-0.00130435,-0.00036740,-0.00079112,0.00000911,0.0000
 7354,0.00036363,0.00023752,0.00017249,0.00000293,-0.00013522,-0.000139
 37,-0.00019022,0.00013300,-0.00032611,-0.00130997,0.00105687,-0.000075
 75,0.00018909,-0.00094366,-0.00175786,-0.00310899,-0.00334233,0.000152
 24,0.00078067,0.00078205,-0.00036437,-0.00034504,-0.00060533,0.0001344
 8,0.00004342,0.00021676,-0.00013405,-0.00033599,0.00018852,-0.00007971
 ,0.00030921,-0.00015478,0.00017114,-0.00025401,0.00016408,0.00060508,0
 .00052602,0.00005815,-0.00014281,-0.00030119,-0.00008125,0.00000254,0.
 00005114,0.00002586,-0.00001276,-0.00001439,-0.00001919,-0.00001085,0.
 00000738,0.00000248,-0.00003460,-0.00000886,-0.00000657,0.00006441,-0.
 00007124,0.00001200,0.00026471,0.00048439,-0.00026568,-0.00237950,0.00
 196394,-0.00050004,-0.04711090,-0.06448956,0.04109388,0.00000451,-0.00
 003938,0.00003915,0.00000766,-0.00001526,-0.00001556,0.00003030,-0.000
 04177,0.00000003,0.00000816,-0.00002200,-0.00000694,0.00000096,-0.0000
 0404,0.00002247,-0.00001454,-0.00000196,-0.00000264,0.00001389,-0.0000
 0760,0.00000726,0.00002821,0.00001671,-0.00003586,-0.00017527,0.000195
 89,-0.00007210,0.00003093,0.00036766,-0.00016737,0.00001013,0.00003558
 ,-0.00000794,-0.00064044,0.00008220,-0.00037510,0.00011414,-0.00038035
 ,-0.00002755,-0.00004542,0.00001666,0.00025053,-0.00010340,0.00117847,
 0.00015574,-0.00000952,-0.00004548,0.00029484,-0.00002175,-0.00002788,
 0.00001518,-0.00004077,-0.00001167,-0.00001178,0.00001898,-0.00003295,
 0.00002994,0.00004904,0.00009869,-0.00004289,-0.00022296,0.00001489,-0
 .00006756,0.00031398,0.00084119,0.00032341,-0.00008728,-0.00005504,0.0
 0003273,0.00004275,0.00003455,0.00002022,0.00002355,0.00005981,-0.0000
 0230,0.00006539,-0.00001811,0.00007092,0.00000223,-0.00001091,0.000006
 05,0.00001355,0.00024268,-0.00012156,0.00000572,0.00001887,0.00001873,
 0.00001296,0.00004217,-0.00000249,0.00003814,0.00000332,0.00000163,-0.
 00000122,-0.00001599,-0.00000527,0.00002671,-0.00000255,0.00000307,-0.
 00002320,0.00002753,0.00001126,-0.00001446,-0.00001270,-0.00002247,0.0
 0001469,0.00000379,0.00000354,0.00000825,-0.00000068,-0.00000957,-0.00
 000054,0.00000323,0.00000781,-0.00006785,0.00003046,-0.00001013,-0.000
 09528,0.00003984,-0.00000930,-0.00003408,0.00012995,-0.00005439,-0.000
 00049,-0.00002953,0.00016324,0.00273892,0.00183805,0.00037150,0.058221
 97,-0.00051350,-0.00011634,0.00006692,0.00070638,-0.00029659,-0.000056
 61,0.00010987,-0.00007795,-0.00006114,0.00034914,-0.00019503,0.0000419
 0,-0.00002316,0.00017117,0.00001764,0.00014353,0.00000292,-0.00018454,
 0.00001860,0.00011744,0.00008784,-0.00004156,-0.00023467,-0.00000265,-
 0.00019476,-0.00039084,0.00007236,-0.00073076,0.00013907,0.00020095,-0
 .00017980,0.00015771,0.00007542,-0.00086366,0.00040911,0.00000352,0.00
 038738,-0.00006012,0.00019351,0.00081133,-0.00084847,0.00043440,-0.000
 11728,0.00089596,0.00004829,0.00520347,-0.00370784,0.00352605,-0.00134
 596,0.00591930,-0.00172049,-0.00110474,-0.00170364,-0.00119576,0.00004
 505,-0.00011324,0.00041664,0.00026449,-0.00002020,-0.00007709,-0.00027
 344,-0.00030450,0.00005021,0.00034359,-0.00227765,0.00221366,-0.000829
 40,0.00079884,-0.00098025,-0.00310099,-0.00530638,-0.00389122,0.000261
 66,0.00111956,0.00103103,-0.00067970,-0.00027605,-0.00098653,0.0002684
 9,-0.00011401,0.00045564,0.00010268,-0.00040421,0.00029303,-0.00020817
 ,0.00054082,-0.00019993,0.00028457,-0.00058890,0.00019188,0.00087778,0
 .00066085,0.00012295,-0.00021111,-0.00038902,-0.00012612,-0.00000718,0
 .00007297,0.00003358,0.00000192,-0.00001246,-0.00002790,-0.00002623,0.
 00000667,-0.00000194,0.00002166,0.00005761,-0.00000438,0.00004512,-0.0
 0021480,0.00002205,0.00042198,0.00042196,-0.00022329,0.00376940,0.0000
 8525,-0.00116363,-0.03012005,-0.28166190,0.23307353,-0.00002350,0.0000
 2877,0.00002074,0.00000880,-0.00007788,-0.00003156,-0.00006922,0.00004
 562,0.00001061,-0.00003343,-0.00001577,0.00001634,-0.00000165,0.000002
 96,0.00003760,-0.00001340,-0.00000977,0.00000484,0.00000217,-0.0000193
 4,-0.00001640,0.00010042,0.00003758,-0.00001498,0.00034731,0.00038550,
 -0.00013937,0.00066890,-0.00038436,-0.00024381,0.00003354,-0.00002802,
 -0.00003014,-0.00009154,0.00007713,-0.00003679,0.00009721,-0.00003248,
 -0.00004679,-0.00023328,-0.00079242,0.00053913,-0.00313450,0.00054659,
 -0.00026451,0.00000665,-0.00009619,0.00015761,-0.00001178,0.00000233,0
 .00003196,-0.00004871,-0.00001793,-0.00002278,-0.00000641,-0.00001396,
 0.00003687,0.00019252,0.00016190,0.00008297,0.00030677,0.00005858,-0.0
 0000560,0.00004038,0.00028786,0.00036590,0.00001204,-0.00007400,-0.000
 00651,0.00007343,0.00000406,0.00003700,-0.00002170,-0.00010524,-0.0000
 5701,0.00007256,-0.00005064,0.00009092,0.00000775,0.00002822,0.0000118
 8,0.00010204,0.00051262,-0.00013772,0.00000301,0.00003665,0.00002544,0
 .00002206,0.00004722,0.00000828,0.00005363,-0.00000165,-0.00000097,0.0
 0000093,-0.00002444,-0.00000201,0.00004188,-0.00000426,0.00000682,-0.0
 0004893,0.00003134,0.00000780,-0.00001838,-0.00001138,-0.00003270,0.00
 001617,-0.00000571,0.00000876,0.00000792,-0.00000565,-0.00001603,-0.00
 000606,-0.00000193,0.00001366,-0.00006590,0.00013050,-0.00002451,-0.00
 011944,0.00010311,-0.00001207,-0.00002300,0.00030359,-0.00008304,-0.00
 001870,-0.00003313,0.00020808,0.00141645,0.00101278,0.00185755,0.02648
 831,0.28569880,0.00044207,0.00006690,-0.00015770,-0.00066391,0.0003812
 1,0.00015332,-0.00012018,0.00001196,0.00010846,0.00013950,-0.00006973,
 0.00004827,-0.00001000,-0.00004806,-0.00000686,-0.00015768,-0.00006860
 ,0.00023121,-0.00001344,0.00001118,-0.00002616,0.00006880,0.00007813,-
 0.00008406,0.00003581,0.00019610,-0.00020206,-0.00007397,0.00021407,-0
 .00040304,0.00011650,-0.00005345,-0.00015086,0.00075573,-0.00038119,-0
 .00029727,-0.00040141,-0.00001037,0.00041255,-0.00108613,-0.00095530,-
 0.00052186,0.00145807,-0.00099146,0.00022703,-0.00436469,0.01632008,-0
 .01578019,-0.00205772,0.00025728,-0.00318666,0.00135113,-0.00004956,0.
 00139404,-0.00000826,0.00043113,-0.00037897,-0.00028976,-0.00011690,0.
 00012206,0.00035847,0.00013510,-0.00012576,0.00262051,0.00172160,-0.00
 005429,-0.00213588,-0.00178994,0.00213645,0.00074435,0.00345714,0.0060
 8830,-0.00052497,-0.00157271,-0.00114788,0.00047324,0.00012450,0.00139
 852,0.00012520,0.00044202,-0.00079180,-0.00025238,0.00009291,-0.000227
 03,0.00000025,-0.00031670,0.00014799,0.00004379,0.00032512,-0.00019529
 ,-0.00062834,-0.00053543,-0.00026996,0.00012237,0.00027816,0.00012739,
 -0.00000519,-0.00006576,-0.00002902,0.00001079,0.00001392,0.00002710,0
 .00000419,-0.00000059,0.00001095,-0.00002815,-0.00005219,-0.00000243,0
 .00004113,0.00010704,-0.00007177,-0.00029759,-0.00029171,-0.00022236,-
 0.00402153,-0.00421611,-0.00806728,0.00947080,0.22045837,-0.20924053,0
 .00001565,-0.00000795,-0.00005042,-0.00002124,0.00005803,0.00006081,0.
 00001798,0.00000285,-0.00001501,0.00002840,0.00000701,-0.00001860,0.00
 001131,-0.00000641,-0.00003457,0.00002032,0.00000745,-0.00000782,-0.00
 001302,-0.00000054,-0.00000017,-0.00013597,-0.00000144,0.00006776,-0.0
 0000993,-0.00015721,0.00026237,-0.00026106,-0.00017305,0.00059906,-0.0
 0001386,-0.00000380,0.00003943,0.00017979,-0.00012476,0.00006435,-0.00
 002669,-0.00007048,0.00000627,-0.00075500,0.00159107,0.00078869,0.0019
 4421,-0.00043015,0.00208121,0.00002011,0.00017991,-0.00024218,-0.00001
 074,-0.00006466,0.00000425,0.00002617,0.00001672,-0.00000267,0.0000675
 7,0.00001351,-0.00000915,-0.00018584,-0.00002572,0.00004864,0.00011129
 ,-0.00001599,-0.00014466,-0.00018776,-0.00091175,-0.00032153,0.0000834
 0,0.00011858,-0.00005903,-0.00007174,-0.00001931,-0.00005305,0.0000216
 5,0.00001361,0.00005427,-0.00000257,0.00004786,-0.00006873,-0.00003369
 ,-0.00004065,-0.00012193,-0.00016966,-0.00030466,0.00008402,-0.0000116
 4,-0.00003793,-0.00002845,-0.00001650,-0.00003016,-0.00000549,-0.00004
 106,0.00000037,0.00000344,0.00000357,0.00001900,-0.00000684,-0.0000221
 9,0.00000376,-0.00000879,0.00002707,-0.00002307,0.00000008,0.00001235,
 -0.00000256,0.00001951,-0.00000837,0.00000394,-0.00000884,0.00000500,0
 .00000528,0.00000865,-0.00000412,0.00000397,-0.00001108,0.00004845,-0.
 00005859,0.00004488,-0.00007787,-0.00003751,0.00014642,0.00000905,-0.0
 0015763,0.00007087,0.00001600,0.00008810,-0.00013919,0.00130255,0.0011
 1183,-0.00192010,-0.00313290,-0.23412501,0.22783079\\-0.00001071,-0.00
 000125,-0.00000509,0.00000711,-0.00001201,-0.00000871,-0.00000480,0.00
 000621,0.00000478,-0.00000529,-0.00000812,-0.00000545,-0.00000238,-0.0
 0000374,-0.00001027,-0.00000465,-0.00000644,0.00000136,-0.00000968,-0.
 00000589,-0.00000994,0.00000218,-0.00000800,-0.00000402,-0.00000099,0.
 00000719,-0.00000249,0.00000015,0.00000930,0.00000288,-0.00001180,-0.0
 0000207,-0.00001154,-0.00000585,0.00000591,-0.00000324,-0.00000828,0.0
 0000164,-0.00000020,0.00000153,0.00000901,-0.00000797,-0.00000864,0.00
 000513,-0.00000038,0.00000466,-0.00000515,0.00000891,-0.00000580,-0.00
 000984,0.00000163,0.00000327,0.00000523,0.00000675,-0.00001263,0.,0.00
 000006,-0.00000660,-0.00000448,0.00000507,0.00000785,0.00000194,0.0000
 0090,0.00000046,0.00000752,-0.00000285,0.00000859,0.00000754,0.0000046
 6,-0.00000019,0.00000193,0.00001529,0.00001141,0.00000531,-0.00000670,
 -0.00000543,0.00000680,0.00001287,0.00000335,0.00000217,0.00000053,0.0
 0000520,-0.00000664,-0.00000158,0.00001028,0.00000433,0.00000512,0.000
 00342,0.00000968,-0.00001198,0.00001418,-0.00000369,0.00000304,0.00000
 247,0.00000423,0.00000510,0.00000311,-0.00000050,-0.00000151,0.0000035
 9,-0.00000373,0.00000217,0.00000566,-0.00001098,-0.00000030,0.00001126
 ,0.00000650,0.00000064,-0.00000251,-0.00001502,-0.00001959,0.00000565,
 0.00000327,0.00000464,-0.00000372,0.00000608,0.00000705,-0.00000548,0.
 00001160,0.00000161,-0.00000639,0.00000032,-0.00000488,-0.00000770,0.0
 0000295,-0.00000356,-0.00000661,0.00000131,-0.00000369,-0.00000954,-0.
 00000099,-0.00000173,-0.00000509,-0.00000477,-0.00000599,-0.00000263,-
 0.00000596,-0.00000178,-0.00000449,-0.00000877,-0.00000624,-0.00000163
 ,-0.00000883,-0.00000011,-0.00001197,0.00000205,-0.00000187,-0.0000046
 3,0.00000446,-0.00000404,-0.00001006,0.00000188,-0.00000265,-0.0000049
 8,0.00000408,-0.00000028,-0.00000298,0.00000262,-0.00000059,-0.0000044
 7,0.00000848,0.00000162,-0.00000248,0.00000280,0.00000147,0.00000753,0
 .00000741,0.00000348,0.00000353,0.00000082,0.00000070,0.00000286,-0.00
 000451,-0.00000225,-0.00000032,-0.00000168,-0.00000335,-0.00000255,-0.
 00000780,-0.00000885,-0.00000335,0.00000399,0.00000065,0.00000482,0.00
 000775,0.00000105,-0.00000246,0.00000620,0.00000049,0.00000659,0.00000
 153,0.00000387,0.00000731,0.00000078,0.00000583,0.00000471,-0.00000150
 ,0.00000596,0.00000658,-0.00000090,0.00000058,0.00000045,-0.00001451,0
 .00000717,0.00000816,-0.00000263,0.00000128,0.00000567,0.00000121,0.00
 000459,0.00000706,-0.00000435,0.00000371,0.00000625,-0.00000139,0.0000
 0346,0.00000330,-0.00000436,-0.00000026,0.00000514,-0.00000266,0.00000
 160,0.00000882,-0.00000295,0.00000116,0.00000538,-0.00000497,0.0000018
 2,-0.00000023,-0.00000819,-0.00000260,0.00000286,-0.00001014,-0.000002
 52,0.00000260,0.00000482,0.00000432,-0.00000494,-0.00000201,0.00000435
 ,0.00000020,-0.00000207,0.00000583,-0.00000185,0.00000607,0.00000578,0
 .00000077,0.00000759,0.00000580,0.00000079,0.00000587,-0.00000055\\\@


 THERE IS NO SUBJECT, HOWEVER COMPLEX,
 WHICH, IF STUDIED WITH PATIENCE AND INTELLIGIENCE
 WILL NOT BECOME
 MORE COMPLEX
                        QUOTED BY D. GORDON ROHMAN
 Job cpu time:      21 days  6 hours 49 minutes  5.8 seconds.
 File lengths (MBytes):  RWF=  24109 Int=      0 D2E=      0 Chk=     97 Scr=      1
 Normal termination of Gaussian 09 at Sun May 22 17:48:39 2016.
