 Entering Gaussian System, Link 0=g16
 Input=input.com
 Output=input.log
 Initial command:
 /home/matma/Programs/gaussian/G16_x86_SSE4/tar/g16/l1.exe "/scratch-data/gaussian/Gau-18174.inp" -scrdir="/scratch-data/gaussian/"
 Entering Link 1 = /home/matma/Programs/gaussian/G16_x86_SSE4/tar/g16/l1.exe PID=     18176.
  
 Copyright (c) 1988-2017, Gaussian, Inc.  All Rights Reserved.
  
 This is part of the Gaussian(R) 16 program.  It is based on
 the Gaussian(R) 09 system (copyright 2009, Gaussian, Inc.),
 the Gaussian(R) 03 system (copyright 2003, Gaussian, Inc.),
 the Gaussian(R) 98 system (copyright 1998, Gaussian, Inc.),
 the Gaussian(R) 94 system (copyright 1995, Gaussian, Inc.),
 the Gaussian 92(TM) system (copyright 1992, Gaussian, Inc.),
 the Gaussian 90(TM) system (copyright 1990, Gaussian, Inc.),
 the Gaussian 88(TM) system (copyright 1988, Gaussian, Inc.),
 the Gaussian 86(TM) system (copyright 1986, Carnegie Mellon
 University), and the Gaussian 82(TM) system (copyright 1983,
 Carnegie Mellon University). Gaussian is a federally registered
 trademark of Gaussian, Inc.
  
 This software contains proprietary and confidential information,
 including trade secrets, belonging to Gaussian, Inc.
  
 This software is provided under written license and may be
 used, copied, transmitted, or stored only in accord with that
 written license.
  
 The following legend is applicable only to US Government
 contracts under FAR:
  
                    RESTRICTED RIGHTS LEGEND
  
 Use, reproduction and disclosure by the US Government is
 subject to restrictions as set forth in subparagraphs (a)
 and (c) of the Commercial Computer Software - Restricted
 Rights clause in FAR 52.227-19.
  
 Gaussian, Inc.
 340 Quinnipiac St., Bldg. 40, Wallingford CT 06492
  
  
 ---------------------------------------------------------------
 Warning -- This program may not be used in any manner that
 competes with the business of Gaussian, Inc. or will provide
 assistance to any competitor of Gaussian, Inc.  The licensee
 of this program is prohibited from giving any competitor of
 Gaussian, Inc. access to this program.  By using this program,
 the user acknowledges that Gaussian, Inc. is engaged in the
 business of creating and licensing software in the field of
 computational chemistry and represents and warrants to the
 licensee that it is not a competitor of Gaussian, Inc. and that
 it will not use this program in any manner prohibited above.
 ---------------------------------------------------------------
  

 Cite this work as:
 Gaussian 16, Revision B.01,
 M. J. Frisch, G. W. Trucks, H. B. Schlegel, G. E. Scuseria, 
 M. A. Robb, J. R. Cheeseman, G. Scalmani, V. Barone, 
 G. A. Petersson, H. Nakatsuji, X. Li, M. Caricato, A. V. Marenich, 
 J. Bloino, B. G. Janesko, R. Gomperts, B. Mennucci, H. P. Hratchian, 
 J. V. Ortiz, A. F. Izmaylov, J. L. Sonnenberg, D. Williams-Young, 
 F. Ding, F. Lipparini, F. Egidi, J. Goings, B. Peng, A. Petrone, 
 T. Henderson, D. Ranasinghe, V. G. Zakrzewski, J. Gao, N. Rega, 
 G. Zheng, W. Liang, M. Hada, M. Ehara, K. Toyota, R. Fukuda, 
 J. Hasegawa, M. Ishida, T. Nakajima, Y. Honda, O. Kitao, H. Nakai, 
 T. Vreven, K. Throssell, J. A. Montgomery, Jr., J. E. Peralta, 
 F. Ogliaro, M. J. Bearpark, J. J. Heyd, E. N. Brothers, K. N. Kudin, 
 V. N. Staroverov, T. A. Keith, R. Kobayashi, J. Normand, 
 K. Raghavachari, A. P. Rendell, J. C. Burant, S. S. Iyengar, 
 J. Tomasi, M. Cossi, J. M. Millam, M. Klene, C. Adamo, R. Cammi, 
 J. W. Ochterski, R. L. Martin, K. Morokuma, O. Farkas, 
 J. B. Foresman, and D. J. Fox, Gaussian, Inc., Wallingford CT, 2016.
 
 ******************************************
 Gaussian 16:  ES64L-G16RevB.01 20-Dec-2017
                22-Jun-2021 
 ******************************************
 %nproc=12
 Will use up to   12 processors via shared memory.
 %mem=16GB
 --------------------------------------
 #P pm6 opt=loose freq int=(grid=99590)
 --------------------------------------
 1/7=-1,18=20,19=15,26=1,38=1/1,3;
 2/9=110,12=2,17=6,18=5,40=1/2;
 3/5=2,25=1,41=3900000,71=1,75=99590/1,2,3;
 4/35=1/1;
 5/5=2,35=1,38=5/2;
 6/7=2,8=2,9=2,10=2,28=1/1;
 7//1,2,3,16;
 1/7=-1,18=20,19=15,26=1/3(2);
 2/9=110/2;
 99//99;
 2/9=110/2;
 3/5=2,25=1,41=3900000,71=1,75=99590,135=20/1,2,3;
 4/5=5,16=3,35=1/1;
 5/5=2,35=1,38=5/2;
 7//1,2,3,16;
 1/7=-1,18=20,19=15,26=1/3(-5);
 2/9=110/2;
 6/7=2,8=2,9=2,10=2,19=2,28=1/1;
 99/9=1/99;
 Leave Link    1 at Tue Jun 22 14:18:04 2021, MaxMem=  2147483648 cpu:               0.2 elap:               0.0
 (Enter /home/matma/Programs/gaussian/G16_x86_SSE4/tar/g16/l101.exe)
 ----------
 initial-03
 ----------
 Symbolic Z-matrix:
 Charge =  0 Multiplicity = 1
 O                     3.185    -0.561     0.901 
 C                     3.472    -0.369     2.307 
 C                     3.308    -1.694     3.082 
 O                     4.251    -2.66      2.588 
 C                     1.857    -2.209     2.918 
 C                     0.776    -1.089     3.175 
 O                     1.087     0.166     2.541 
 C                     2.421     0.615     2.871 
 C                     2.579     2.025     2.272 
 O                     3.939     2.42      2.508 
 O                    -0.621    -0.386     5.383 
 C                    -1.695    -1.004     4.632 
 C                    -1.342    -2.181     3.682 
 C                    -2.647    -2.738     3.062 
 C                    -3.687    -3.105     4.154 
 O                    -3.927    -2.006     5.039 
 C                    -2.755    -1.489     5.678 
 C                    -3.325    -0.34      6.523 
 O                    -4.002     0.602     5.655 
 O                    -4.925    -3.317     3.502 
 O                    -2.264    -3.865     2.27 
 O                    -0.506    -1.709     2.617 
 O                     1.707    -3.3       3.836 
 H                     4.49      0.038     2.438 
 H                     3.489    -1.489     4.157 
 H                     4.012    -3.498     3.078 
 H                     1.761    -2.56      1.876 
 H                     0.693    -0.944     4.275 
 H                     2.545     0.672     3.97 
 H                     2.346     1.98      1.19 
 H                     1.849     2.698     2.757 
 H                     3.953     3.408     2.377 
 H                    -2.171    -0.229     4.006 
 H                    -0.85     -2.987     4.264 
 H                    -3.098    -1.937     2.44 
 H                    -3.343    -4.        4.72 
 H                    -2.277    -2.235     6.342 
 H                    -4.085    -0.736     7.214 
 H                    -2.525     0.141     7.108 
 H                    -3.284     1.171     5.259 
 H                    -3.091    -4.137     1.783 
 H                    -0.635     0.758     5.247 
 H                     0.933    -3.819     3.474 
 H                    -5.562    -3.763     4.065 
 H                     3.844    -1.106     0.452 
 
 Add virtual bond connecting atoms H42        and O11        Dist= 2.18D+00.
 ITRead=  0  0  0  0  0  0  0  0  0  0  0  0  0  0  0  0  0  0  0  0
 ITRead=  0  0  0  0  0  0  0  0  0  0  0  0  0  0  0  0  0  0  0  0
 ITRead=  0  0  0  0  0
 MicOpt= -1 -1 -1 -1 -1 -1 -1 -1 -1 -1 -1 -1 -1 -1 -1 -1 -1 -1 -1 -1
 MicOpt= -1 -1 -1 -1 -1 -1 -1 -1 -1 -1 -1 -1 -1 -1 -1 -1 -1 -1 -1 -1
 MicOpt= -1 -1 -1 -1 -1
 NAtoms=     45 NQM=       45 NQMF=       0 NMMI=      0 NMMIF=      0
                NMic=       0 NMicF=      0.
                    Isotopes and Nuclear Properties:
 (Nuclear quadrupole moments (NQMom) in fm**2, nuclear magnetic moments (NMagM)
  in nuclear magnetons)

  Atom         1           2           3           4           5           6           7           8           9          10
 IAtWgt=          16          12          12          16          12          12          16          12          12          16
 AtmWgt=  15.9949146  12.0000000  12.0000000  15.9949146  12.0000000  12.0000000  15.9949146  12.0000000  12.0000000  15.9949146
 NucSpn=           0           0           0           0           0           0           0           0           0           0
 AtZEff=  -0.0000000  -0.0000000  -0.0000000  -0.0000000  -0.0000000  -0.0000000  -0.0000000  -0.0000000  -0.0000000  -0.0000000
 NQMom=    0.0000000   0.0000000   0.0000000   0.0000000   0.0000000   0.0000000   0.0000000   0.0000000   0.0000000   0.0000000
 NMagM=    0.0000000   0.0000000   0.0000000   0.0000000   0.0000000   0.0000000   0.0000000   0.0000000   0.0000000   0.0000000
 AtZNuc=   8.0000000   6.0000000   6.0000000   8.0000000   6.0000000   6.0000000   8.0000000   6.0000000   6.0000000   8.0000000

  Atom        11          12          13          14          15          16          17          18          19          20
 IAtWgt=          16          12          12          12          12          16          12          12          16          16
 AtmWgt=  15.9949146  12.0000000  12.0000000  12.0000000  12.0000000  15.9949146  12.0000000  12.0000000  15.9949146  15.9949146
 NucSpn=           0           0           0           0           0           0           0           0           0           0
 AtZEff=  -0.0000000  -0.0000000  -0.0000000  -0.0000000  -0.0000000  -0.0000000  -0.0000000  -0.0000000  -0.0000000  -0.0000000
 NQMom=    0.0000000   0.0000000   0.0000000   0.0000000   0.0000000   0.0000000   0.0000000   0.0000000   0.0000000   0.0000000
 NMagM=    0.0000000   0.0000000   0.0000000   0.0000000   0.0000000   0.0000000   0.0000000   0.0000000   0.0000000   0.0000000
 AtZNuc=   8.0000000   6.0000000   6.0000000   6.0000000   6.0000000   8.0000000   6.0000000   6.0000000   8.0000000   8.0000000

  Atom        21          22          23          24          25          26          27          28          29          30
 IAtWgt=          16          16          16           1           1           1           1           1           1           1
 AtmWgt=  15.9949146  15.9949146  15.9949146   1.0078250   1.0078250   1.0078250   1.0078250   1.0078250   1.0078250   1.0078250
 NucSpn=           0           0           0           1           1           1           1           1           1           1
 AtZEff=  -0.0000000  -0.0000000  -0.0000000  -0.0000000  -0.0000000  -0.0000000  -0.0000000  -0.0000000  -0.0000000  -0.0000000
 NQMom=    0.0000000   0.0000000   0.0000000   0.0000000   0.0000000   0.0000000   0.0000000   0.0000000   0.0000000   0.0000000
 NMagM=    0.0000000   0.0000000   0.0000000   2.7928460   2.7928460   2.7928460   2.7928460   2.7928460   2.7928460   2.7928460
 AtZNuc=   8.0000000   8.0000000   8.0000000   1.0000000   1.0000000   1.0000000   1.0000000   1.0000000   1.0000000   1.0000000

  Atom        31          32          33          34          35          36          37          38          39          40
 IAtWgt=           1           1           1           1           1           1           1           1           1           1
 AtmWgt=   1.0078250   1.0078250   1.0078250   1.0078250   1.0078250   1.0078250   1.0078250   1.0078250   1.0078250   1.0078250
 NucSpn=           1           1           1           1           1           1           1           1           1           1
 AtZEff=  -0.0000000  -0.0000000  -0.0000000  -0.0000000  -0.0000000  -0.0000000  -0.0000000  -0.0000000  -0.0000000  -0.0000000
 NQMom=    0.0000000   0.0000000   0.0000000   0.0000000   0.0000000   0.0000000   0.0000000   0.0000000   0.0000000   0.0000000
 NMagM=    2.7928460   2.7928460   2.7928460   2.7928460   2.7928460   2.7928460   2.7928460   2.7928460   2.7928460   2.7928460
 AtZNuc=   1.0000000   1.0000000   1.0000000   1.0000000   1.0000000   1.0000000   1.0000000   1.0000000   1.0000000   1.0000000

  Atom        41          42          43          44          45
 IAtWgt=           1           1           1           1           1
 AtmWgt=   1.0078250   1.0078250   1.0078250   1.0078250   1.0078250
 NucSpn=           1           1           1           1           1
 AtZEff=  -0.0000000  -0.0000000  -0.0000000  -0.0000000  -0.0000000
 NQMom=    0.0000000   0.0000000   0.0000000   0.0000000   0.0000000
 NMagM=    2.7928460   2.7928460   2.7928460   2.7928460   2.7928460
 AtZNuc=   1.0000000   1.0000000   1.0000000   1.0000000   1.0000000
 Leave Link  101 at Tue Jun 22 14:18:04 2021, MaxMem=  2147483648 cpu:               3.0 elap:               0.2
 (Enter /home/matma/Programs/gaussian/G16_x86_SSE4/tar/g16/l103.exe)

 GradGradGradGradGradGradGradGradGradGradGradGradGradGradGradGradGradGrad
 Berny optimization.
 Initialization pass.
                           ----------------------------
                           !    Initial Parameters    !
                           ! (Angstroms and Degrees)  !
 --------------------------                            --------------------------
 ! Name  Definition              Value          Derivative Info.                !
 --------------------------------------------------------------------------------
 ! R1    R(1,2)                  1.4478         estimate D2E/DX2                !
 ! R2    R(1,45)                 0.9659         estimate D2E/DX2                !
 ! R3    R(2,3)                  1.5437         estimate D2E/DX2                !
 ! R4    R(2,8)                  1.5463         estimate D2E/DX2                !
 ! R5    R(2,24)                 1.1041         estimate D2E/DX2                !
 ! R6    R(3,4)                  1.4375         estimate D2E/DX2                !
 ! R7    R(3,5)                  1.5484         estimate D2E/DX2                !
 ! R8    R(3,25)                 1.1092         estimate D2E/DX2                !
 ! R9    R(4,26)                 0.9997         estimate D2E/DX2                !
 ! R10   R(5,6)                  1.5777         estimate D2E/DX2                !
 ! R11   R(5,23)                 1.4337         estimate D2E/DX2                !
 ! R12   R(5,27)                 1.1037         estimate D2E/DX2                !
 ! R13   R(6,7)                  1.44           estimate D2E/DX2                !
 ! R14   R(6,22)                 1.5295         estimate D2E/DX2                !
 ! R15   R(6,28)                 1.1126         estimate D2E/DX2                !
 ! R16   R(7,8)                  1.4457         estimate D2E/DX2                !
 ! R17   R(8,9)                  1.5401         estimate D2E/DX2                !
 ! R18   R(8,29)                 1.1074         estimate D2E/DX2                !
 ! R19   R(9,10)                 1.4357         estimate D2E/DX2                !
 ! R20   R(9,30)                 1.1077         estimate D2E/DX2                !
 ! R21   R(9,31)                 1.105          estimate D2E/DX2                !
 ! R22   R(10,32)                0.9967         estimate D2E/DX2                !
 ! R23   R(11,12)                1.4489         estimate D2E/DX2                !
 ! R24   R(11,42)                1.1521         estimate D2E/DX2                !
 ! R25   R(12,13)                1.5532         estimate D2E/DX2                !
 ! R26   R(12,17)                1.5662         estimate D2E/DX2                !
 ! R27   R(12,33)                1.1041         estimate D2E/DX2                !
 ! R28   R(13,14)                1.5484         estimate D2E/DX2                !
 ! R29   R(13,22)                1.4338         estimate D2E/DX2                !
 ! R30   R(13,34)                1.1092         estimate D2E/DX2                !
 ! R31   R(14,15)                1.552          estimate D2E/DX2                !
 ! R32   R(14,21)                1.4297         estimate D2E/DX2                !
 ! R33   R(14,35)                1.1099         estimate D2E/DX2                !
 ! R34   R(15,16)                1.4313         estimate D2E/DX2                !
 ! R35   R(15,20)                1.4152         estimate D2E/DX2                !
 ! R36   R(15,36)                1.1134         estimate D2E/DX2                !
 ! R37   R(16,17)                1.4315         estimate D2E/DX2                !
 ! R38   R(17,18)                1.5359         estimate D2E/DX2                !
 ! R39   R(17,37)                1.1072         estimate D2E/DX2                !
 ! R40   R(18,19)                1.4488         estimate D2E/DX2                !
 ! R41   R(18,38)                1.1009         estimate D2E/DX2                !
 ! R42   R(18,39)                1.1016         estimate D2E/DX2                !
 ! R43   R(19,40)                0.998          estimate D2E/DX2                !
 ! R44   R(20,44)                0.96           estimate D2E/DX2                !
 ! R45   R(21,41)                0.9975         estimate D2E/DX2                !
 ! R46   R(23,43)                0.9997         estimate D2E/DX2                !
 ! A1    A(2,1,45)             113.0185         estimate D2E/DX2                !
 ! A2    A(1,2,3)              110.6497         estimate D2E/DX2                !
 ! A3    A(1,2,8)              107.6905         estimate D2E/DX2                !
 ! A4    A(1,2,24)             110.2961         estimate D2E/DX2                !
 ! A5    A(3,2,8)              106.9104         estimate D2E/DX2                !
 ! A6    A(3,2,24)             110.779          estimate D2E/DX2                !
 ! A7    A(8,2,24)             110.4153         estimate D2E/DX2                !
 ! A8    A(2,3,4)              109.546          estimate D2E/DX2                !
 ! A9    A(2,3,5)              109.3814         estimate D2E/DX2                !
 ! A10   A(2,3,25)             108.0936         estimate D2E/DX2                !
 ! A11   A(4,3,5)              110.7829         estimate D2E/DX2                !
 ! A12   A(4,3,25)             110.4991         estimate D2E/DX2                !
 ! A13   A(5,3,25)             108.4832         estimate D2E/DX2                !
 ! A14   A(3,4,26)             103.77           estimate D2E/DX2                !
 ! A15   A(3,5,6)              112.875          estimate D2E/DX2                !
 ! A16   A(3,5,23)             106.4587         estimate D2E/DX2                !
 ! A17   A(3,5,27)             106.6949         estimate D2E/DX2                !
 ! A18   A(6,5,23)             111.36           estimate D2E/DX2                !
 ! A19   A(6,5,27)             108.6604         estimate D2E/DX2                !
 ! A20   A(23,5,27)            110.6953         estimate D2E/DX2                !
 ! A21   A(5,6,7)              113.5154         estimate D2E/DX2                !
 ! A22   A(5,6,22)             103.1275         estimate D2E/DX2                !
 ! A23   A(5,6,28)             107.7392         estimate D2E/DX2                !
 ! A24   A(7,6,22)             111.9428         estimate D2E/DX2                !
 ! A25   A(7,6,28)             109.7434         estimate D2E/DX2                !
 ! A26   A(22,6,28)            110.5482         estimate D2E/DX2                !
 ! A27   A(6,7,8)              111.6818         estimate D2E/DX2                !
 ! A28   A(2,8,7)              110.2601         estimate D2E/DX2                !
 ! A29   A(2,8,9)              111.7786         estimate D2E/DX2                !
 ! A30   A(2,8,29)             108.5793         estimate D2E/DX2                !
 ! A31   A(7,8,9)              106.8715         estimate D2E/DX2                !
 ! A32   A(7,8,29)             110.2323         estimate D2E/DX2                !
 ! A33   A(9,8,29)             109.1089         estimate D2E/DX2                !
 ! A34   A(8,9,10)             106.5667         estimate D2E/DX2                !
 ! A35   A(8,9,30)             108.7317         estimate D2E/DX2                !
 ! A36   A(8,9,31)             108.6094         estimate D2E/DX2                !
 ! A37   A(10,9,30)            111.7763         estimate D2E/DX2                !
 ! A38   A(10,9,31)            112.7104         estimate D2E/DX2                !
 ! A39   A(30,9,31)            108.3308         estimate D2E/DX2                !
 ! A40   A(9,10,32)            105.3318         estimate D2E/DX2                !
 ! A41   A(12,11,42)           110.6904         estimate D2E/DX2                !
 ! A42   A(11,12,13)           118.1494         estimate D2E/DX2                !
 ! A43   A(11,12,17)           106.7136         estimate D2E/DX2                !
 ! A44   A(11,12,33)           108.3029         estimate D2E/DX2                !
 ! A45   A(13,12,17)           109.126          estimate D2E/DX2                !
 ! A46   A(13,12,33)           106.4456         estimate D2E/DX2                !
 ! A47   A(17,12,33)           107.7125         estimate D2E/DX2                !
 ! A48   A(12,13,14)           109.0231         estimate D2E/DX2                !
 ! A49   A(12,13,22)           109.716          estimate D2E/DX2                !
 ! A50   A(12,13,34)           109.3            estimate D2E/DX2                !
 ! A51   A(14,13,22)           108.2036         estimate D2E/DX2                !
 ! A52   A(14,13,34)           108.8153         estimate D2E/DX2                !
 ! A53   A(22,13,34)           111.7339         estimate D2E/DX2                !
 ! A54   A(13,14,15)           111.5974         estimate D2E/DX2                !
 ! A55   A(13,14,21)           106.2357         estimate D2E/DX2                !
 ! A56   A(13,14,35)           107.8933         estimate D2E/DX2                !
 ! A57   A(15,14,21)           112.5118         estimate D2E/DX2                !
 ! A58   A(15,14,35)           107.0179         estimate D2E/DX2                !
 ! A59   A(21,14,35)           111.5487         estimate D2E/DX2                !
 ! A60   A(14,15,16)           111.4595         estimate D2E/DX2                !
 ! A61   A(14,15,20)           107.3054         estimate D2E/DX2                !
 ! A62   A(14,15,36)           109.9205         estimate D2E/DX2                !
 ! A63   A(16,15,20)           104.6677         estimate D2E/DX2                !
 ! A64   A(16,15,36)           110.7746         estimate D2E/DX2                !
 ! A65   A(20,15,36)           112.5857         estimate D2E/DX2                !
 ! A66   A(15,16,17)           114.5845         estimate D2E/DX2                !
 ! A67   A(12,17,16)           111.5818         estimate D2E/DX2                !
 ! A68   A(12,17,18)           112.764          estimate D2E/DX2                !
 ! A69   A(12,17,37)           108.4805         estimate D2E/DX2                !
 ! A70   A(16,17,18)           102.2348         estimate D2E/DX2                !
 ! A71   A(16,17,37)           112.1987         estimate D2E/DX2                !
 ! A72   A(18,17,37)           109.5308         estimate D2E/DX2                !
 ! A73   A(17,18,19)           109.2805         estimate D2E/DX2                !
 ! A74   A(17,18,38)           109.4162         estimate D2E/DX2                !
 ! A75   A(17,18,39)           110.4432         estimate D2E/DX2                !
 ! A76   A(19,18,38)           106.6989         estimate D2E/DX2                !
 ! A77   A(19,18,39)           111.9372         estimate D2E/DX2                !
 ! A78   A(38,18,39)           108.9706         estimate D2E/DX2                !
 ! A79   A(18,19,40)           105.7968         estimate D2E/DX2                !
 ! A80   A(15,20,44)           112.3252         estimate D2E/DX2                !
 ! A81   A(14,21,41)           105.2656         estimate D2E/DX2                !
 ! A82   A(6,22,13)            110.5588         estimate D2E/DX2                !
 ! A83   A(5,23,43)            104.1343         estimate D2E/DX2                !
 ! D1    D(45,1,2,3)           -68.4503         estimate D2E/DX2                !
 ! D2    D(45,1,2,8)           175.0316         estimate D2E/DX2                !
 ! D3    D(45,1,2,24)           54.4785         estimate D2E/DX2                !
 ! D4    D(1,2,3,4)             62.2352         estimate D2E/DX2                !
 ! D5    D(1,2,3,5)            -59.3683         estimate D2E/DX2                !
 ! D6    D(1,2,3,25)          -177.305          estimate D2E/DX2                !
 ! D7    D(8,2,3,4)            179.2352         estimate D2E/DX2                !
 ! D8    D(8,2,3,5)             57.6317         estimate D2E/DX2                !
 ! D9    D(8,2,3,25)           -60.3049         estimate D2E/DX2                !
 ! D10   D(24,2,3,4)           -60.4128         estimate D2E/DX2                !
 ! D11   D(24,2,3,5)           177.9837         estimate D2E/DX2                !
 ! D12   D(24,2,3,25)           60.047          estimate D2E/DX2                !
 ! D13   D(1,2,8,7)             51.939          estimate D2E/DX2                !
 ! D14   D(1,2,8,9)            -66.7871         estimate D2E/DX2                !
 ! D15   D(1,2,8,29)           172.8013         estimate D2E/DX2                !
 ! D16   D(3,2,8,7)            -66.9986         estimate D2E/DX2                !
 ! D17   D(3,2,8,9)            174.2752         estimate D2E/DX2                !
 ! D18   D(3,2,8,29)            53.8636         estimate D2E/DX2                !
 ! D19   D(24,2,8,7)           172.417          estimate D2E/DX2                !
 ! D20   D(24,2,8,9)            53.6909         estimate D2E/DX2                !
 ! D21   D(24,2,8,29)          -66.7207         estimate D2E/DX2                !
 ! D22   D(2,3,4,26)          -174.6302         estimate D2E/DX2                !
 ! D23   D(5,3,4,26)           -53.8734         estimate D2E/DX2                !
 ! D24   D(25,3,4,26)           66.3853         estimate D2E/DX2                !
 ! D25   D(2,3,5,6)            -47.8066         estimate D2E/DX2                !
 ! D26   D(2,3,5,23)          -170.276          estimate D2E/DX2                !
 ! D27   D(2,3,5,27)            71.474          estimate D2E/DX2                !
 ! D28   D(4,3,5,6)           -168.661          estimate D2E/DX2                !
 ! D29   D(4,3,5,23)            68.8696         estimate D2E/DX2                !
 ! D30   D(4,3,5,27)           -49.3803         estimate D2E/DX2                !
 ! D31   D(25,3,5,6)            69.886          estimate D2E/DX2                !
 ! D32   D(25,3,5,23)          -52.5834         estimate D2E/DX2                !
 ! D33   D(25,3,5,27)         -170.8334         estimate D2E/DX2                !
 ! D34   D(3,5,6,7)             44.6804         estimate D2E/DX2                !
 ! D35   D(3,5,6,22)           166.0086         estimate D2E/DX2                !
 ! D36   D(3,5,6,28)           -77.0545         estimate D2E/DX2                !
 ! D37   D(23,5,6,7)           164.3628         estimate D2E/DX2                !
 ! D38   D(23,5,6,22)          -74.3091         estimate D2E/DX2                !
 ! D39   D(23,5,6,28)           42.6279         estimate D2E/DX2                !
 ! D40   D(27,5,6,7)           -73.4564         estimate D2E/DX2                !
 ! D41   D(27,5,6,22)           47.8718         estimate D2E/DX2                !
 ! D42   D(27,5,6,28)          164.8087         estimate D2E/DX2                !
 ! D43   D(3,5,23,43)         -158.8482         estimate D2E/DX2                !
 ! D44   D(6,5,23,43)           77.7323         estimate D2E/DX2                !
 ! D45   D(27,5,23,43)         -43.2651         estimate D2E/DX2                !
 ! D46   D(5,6,7,8)            -52.2213         estimate D2E/DX2                !
 ! D47   D(22,6,7,8)          -168.4741         estimate D2E/DX2                !
 ! D48   D(28,6,7,8)            68.3896         estimate D2E/DX2                !
 ! D49   D(5,6,22,13)          103.1242         estimate D2E/DX2                !
 ! D50   D(7,6,22,13)         -134.4876         estimate D2E/DX2                !
 ! D51   D(28,6,22,13)         -11.8075         estimate D2E/DX2                !
 ! D52   D(6,7,8,2)             64.5106         estimate D2E/DX2                !
 ! D53   D(6,7,8,9)           -173.806          estimate D2E/DX2                !
 ! D54   D(6,7,8,29)           -55.3578         estimate D2E/DX2                !
 ! D55   D(2,8,9,10)           -54.6791         estimate D2E/DX2                !
 ! D56   D(2,8,9,30)            65.9564         estimate D2E/DX2                !
 ! D57   D(2,8,9,31)          -176.3596         estimate D2E/DX2                !
 ! D58   D(7,8,9,10)          -175.3991         estimate D2E/DX2                !
 ! D59   D(7,8,9,30)           -54.7637         estimate D2E/DX2                !
 ! D60   D(7,8,9,31)            62.9204         estimate D2E/DX2                !
 ! D61   D(29,8,9,10)           65.4226         estimate D2E/DX2                !
 ! D62   D(29,8,9,30)         -173.9419         estimate D2E/DX2                !
 ! D63   D(29,8,9,31)          -56.2579         estimate D2E/DX2                !
 ! D64   D(8,9,10,32)         -163.1452         estimate D2E/DX2                !
 ! D65   D(30,9,10,32)          78.1934         estimate D2E/DX2                !
 ! D66   D(31,9,10,32)         -44.1052         estimate D2E/DX2                !
 ! D67   D(42,11,12,13)        128.7516         estimate D2E/DX2                !
 ! D68   D(42,11,12,17)       -107.9737         estimate D2E/DX2                !
 ! D69   D(42,11,12,33)          7.7424         estimate D2E/DX2                !
 ! D70   D(11,12,13,14)        176.3616         estimate D2E/DX2                !
 ! D71   D(11,12,13,22)        -65.3066         estimate D2E/DX2                !
 ! D72   D(11,12,13,34)         57.5322         estimate D2E/DX2                !
 ! D73   D(17,12,13,14)         54.3037         estimate D2E/DX2                !
 ! D74   D(17,12,13,22)        172.6355         estimate D2E/DX2                !
 ! D75   D(17,12,13,34)        -64.5257         estimate D2E/DX2                !
 ! D76   D(33,12,13,14)        -61.6802         estimate D2E/DX2                !
 ! D77   D(33,12,13,22)         56.6516         estimate D2E/DX2                !
 ! D78   D(33,12,13,34)        179.4904         estimate D2E/DX2                !
 ! D79   D(11,12,17,16)        174.4883         estimate D2E/DX2                !
 ! D80   D(11,12,17,18)         60.0865         estimate D2E/DX2                !
 ! D81   D(11,12,17,37)        -61.4144         estimate D2E/DX2                !
 ! D82   D(13,12,17,16)        -56.7934         estimate D2E/DX2                !
 ! D83   D(13,12,17,18)       -171.1952         estimate D2E/DX2                !
 ! D84   D(13,12,17,37)         67.3039         estimate D2E/DX2                !
 ! D85   D(33,12,17,16)         58.3773         estimate D2E/DX2                !
 ! D86   D(33,12,17,18)        -56.0245         estimate D2E/DX2                !
 ! D87   D(33,12,17,37)       -177.5254         estimate D2E/DX2                !
 ! D88   D(12,13,14,15)        -53.4536         estimate D2E/DX2                !
 ! D89   D(12,13,14,21)       -176.4216         estimate D2E/DX2                !
 ! D90   D(12,13,14,35)         63.842          estimate D2E/DX2                !
 ! D91   D(22,13,14,15)       -172.7304         estimate D2E/DX2                !
 ! D92   D(22,13,14,21)         64.3017         estimate D2E/DX2                !
 ! D93   D(22,13,14,35)        -55.4348         estimate D2E/DX2                !
 ! D94   D(34,13,14,15)         65.6781         estimate D2E/DX2                !
 ! D95   D(34,13,14,21)        -57.2898         estimate D2E/DX2                !
 ! D96   D(34,13,14,35)       -177.0262         estimate D2E/DX2                !
 ! D97   D(12,13,22,6)          58.6707         estimate D2E/DX2                !
 ! D98   D(14,13,22,6)         177.5091         estimate D2E/DX2                !
 ! D99   D(34,13,22,6)         -62.7167         estimate D2E/DX2                !
 ! D100  D(13,14,15,16)         53.3021         estimate D2E/DX2                !
 ! D101  D(13,14,15,20)        167.3468         estimate D2E/DX2                !
 ! D102  D(13,14,15,36)        -69.9158         estimate D2E/DX2                !
 ! D103  D(21,14,15,16)        172.6149         estimate D2E/DX2                !
 ! D104  D(21,14,15,20)        -73.3404         estimate D2E/DX2                !
 ! D105  D(21,14,15,36)         49.397          estimate D2E/DX2                !
 ! D106  D(35,14,15,16)        -64.521          estimate D2E/DX2                !
 ! D107  D(35,14,15,20)         49.5237         estimate D2E/DX2                !
 ! D108  D(35,14,15,36)        172.2611         estimate D2E/DX2                !
 ! D109  D(13,14,21,41)       -172.6582         estimate D2E/DX2                !
 ! D110  D(15,14,21,41)         64.9514         estimate D2E/DX2                !
 ! D111  D(35,14,21,41)        -55.3324         estimate D2E/DX2                !
 ! D112  D(14,15,16,17)        -56.0897         estimate D2E/DX2                !
 ! D113  D(20,15,16,17)       -171.7655         estimate D2E/DX2                !
 ! D114  D(36,15,16,17)         66.64           estimate D2E/DX2                !
 ! D115  D(14,15,20,44)        165.26           estimate D2E/DX2                !
 ! D116  D(16,15,20,44)        -76.208          estimate D2E/DX2                !
 ! D117  D(36,15,20,44)         44.1878         estimate D2E/DX2                !
 ! D118  D(15,16,17,12)         58.5103         estimate D2E/DX2                !
 ! D119  D(15,16,17,18)        179.2777         estimate D2E/DX2                !
 ! D120  D(15,16,17,37)        -63.4671         estimate D2E/DX2                !
 ! D121  D(12,17,18,19)         61.6753         estimate D2E/DX2                !
 ! D122  D(12,17,18,38)        178.1672         estimate D2E/DX2                !
 ! D123  D(12,17,18,39)        -61.8831         estimate D2E/DX2                !
 ! D124  D(16,17,18,19)        -58.2694         estimate D2E/DX2                !
 ! D125  D(16,17,18,38)         58.2225         estimate D2E/DX2                !
 ! D126  D(16,17,18,39)        178.1722         estimate D2E/DX2                !
 ! D127  D(37,17,18,19)       -177.4211         estimate D2E/DX2                !
 ! D128  D(37,17,18,38)        -60.9292         estimate D2E/DX2                !
 ! D129  D(37,17,18,39)         59.0205         estimate D2E/DX2                !
 ! D130  D(17,18,19,40)        -80.5796         estimate D2E/DX2                !
 ! D131  D(38,18,19,40)        161.2153         estimate D2E/DX2                !
 ! D132  D(39,18,19,40)         42.0907         estimate D2E/DX2                !
 --------------------------------------------------------------------------------
 Trust Radius=3.00D-01 FncErr=1.00D-07 GrdErr=1.00D-07 EigMax=2.50D+02 EigMin=1.00D-04
 Number of steps in this run=    270 maximum allowed number of steps=    270.
 GradGradGradGradGradGradGradGradGradGradGradGradGradGradGradGradGradGrad

 Leave Link  103 at Tue Jun 22 14:18:04 2021, MaxMem=  2147483648 cpu:               0.0 elap:               0.0
 (Enter /home/matma/Programs/gaussian/G16_x86_SSE4/tar/g16/l202.exe)
                          Input orientation:                          
 ---------------------------------------------------------------------
 Center     Atomic      Atomic             Coordinates (Angstroms)
 Number     Number       Type             X           Y           Z
 ---------------------------------------------------------------------
      1          8           0        3.185000   -0.561000    0.901000
      2          6           0        3.472000   -0.369000    2.307000
      3          6           0        3.308000   -1.694000    3.082000
      4          8           0        4.251000   -2.660000    2.588000
      5          6           0        1.857000   -2.209000    2.918000
      6          6           0        0.776000   -1.089000    3.175000
      7          8           0        1.087000    0.166000    2.541000
      8          6           0        2.421000    0.615000    2.871000
      9          6           0        2.579000    2.025000    2.272000
     10          8           0        3.939000    2.420000    2.508000
     11          8           0       -0.621000   -0.386000    5.383000
     12          6           0       -1.695000   -1.004000    4.632000
     13          6           0       -1.342000   -2.181000    3.682000
     14          6           0       -2.647000   -2.738000    3.062000
     15          6           0       -3.687000   -3.105000    4.154000
     16          8           0       -3.927000   -2.006000    5.039000
     17          6           0       -2.755000   -1.489000    5.678000
     18          6           0       -3.325000   -0.340000    6.523000
     19          8           0       -4.002000    0.602000    5.655000
     20          8           0       -4.925000   -3.317000    3.502000
     21          8           0       -2.264000   -3.865000    2.270000
     22          8           0       -0.506000   -1.709000    2.617000
     23          8           0        1.707000   -3.300000    3.836000
     24          1           0        4.490000    0.038000    2.438000
     25          1           0        3.489000   -1.489000    4.157000
     26          1           0        4.012000   -3.498000    3.078000
     27          1           0        1.761000   -2.560000    1.876000
     28          1           0        0.693000   -0.944000    4.275000
     29          1           0        2.545000    0.672000    3.970000
     30          1           0        2.346000    1.980000    1.190000
     31          1           0        1.849000    2.698000    2.757000
     32          1           0        3.953000    3.408000    2.377000
     33          1           0       -2.171000   -0.229000    4.006000
     34          1           0       -0.850000   -2.987000    4.264000
     35          1           0       -3.098000   -1.937000    2.440000
     36          1           0       -3.343000   -4.000000    4.720000
     37          1           0       -2.277000   -2.235000    6.342000
     38          1           0       -4.085000   -0.736000    7.214000
     39          1           0       -2.525000    0.141000    7.108000
     40          1           0       -3.284000    1.171000    5.259000
     41          1           0       -3.091000   -4.137000    1.783000
     42          1           0       -0.635000    0.758000    5.247000
     43          1           0        0.933000   -3.819000    3.474000
     44          1           0       -5.562000   -3.763000    4.065000
     45          1           0        3.844000   -1.106000    0.452000
 ---------------------------------------------------------------------
                    Distance matrix (angstroms):
                    1          2          3          4          5
     1  O    0.000000
     2  C    1.447781   0.000000
     3  C    2.460809   1.543744   0.000000
     4  O    2.896226   2.436079   1.437512   0.000000
     5  C    2.923658   2.523320   1.548393   2.458361   0.000000
     6  C    3.354570   2.922369   2.604937   3.858528   1.577660
     7  O    2.760386   2.455444   2.947053   4.242568   2.525006
     8  C    2.418175   1.546271   2.482493   3.762262   2.880153
     9  C    2.989025   2.555369   3.875371   4.984442   4.343427
    10  O    3.469485   2.834962   4.201504   5.090201   5.092196
    11  O    5.882566   5.120031   4.737352   6.059660   3.942085
    12  C    6.158816   5.701468   5.282860   6.501937   4.123897
    13  C    5.554466   5.324337   4.713774   5.719084   3.289085
    14  C    6.589497   6.604873   6.045855   6.914706   4.537245
    15  C    8.017377   7.883425   7.215964   8.103223   5.750343
    16  O    8.354137   8.055358   7.501494   8.562406   6.163968
    17  C    7.678835   7.168931   6.598576   7.746185   5.422780
    18  C    8.604407   7.998419   7.594109   8.846604   6.583488
    19  O    8.695174   8.246976   8.082577   9.389310   7.051296
    20  O    8.951695   8.979328   8.401953   9.244783   6.896684
    21  O    6.517835   6.717520   6.034879   6.633127   4.488305
    22  O    4.229189   4.209060   3.842271   4.851215   2.434003
    23  O    4.277947   3.747509   2.389760   2.905003   1.433703
    24  H    2.103377   1.104144   2.193555   2.712715   3.494581
    25  H    3.399285   2.162681   1.109239   2.100868   2.171853
    26  H    3.748230   3.267519   1.936504   0.999732   2.516177
    27  H    2.640909   2.813141   2.144202   2.591726   1.103712
    28  H    4.211963   3.453475   2.970517   4.295345   2.190107
    29  H    3.368776   2.169926   2.639824   3.990311   3.143280
    30  H    2.691491   2.834319   4.243039   5.207017   4.557722
    31  H    3.981295   3.499017   4.639393   5.874209   4.909647
    32  H    4.303645   3.808148   5.190708   6.078976   6.019683
    33  H    6.199837   5.894883   5.746255   7.011602   4.618325
    34  H    5.785885   5.418806   4.511977   5.379229   3.121674
    35  H    6.613470   6.755828   6.442674   7.385962   4.985428
    36  H    8.308205   8.090176   7.227481   8.000616   5.787477
    37  H    7.889246   7.267337   6.489415   7.542408   5.367905
    38  H    9.630031   9.017848   8.523358   9.725767   7.478817
    39  H    8.463082   7.698942   7.321188   8.613372   6.502348
    40  H    7.989991   7.531895   7.510128   8.864932   6.582899
    41  H    7.276941   7.585866   6.971574   7.532232   5.430296
    42  H    5.934634   5.175053   5.123161   6.528859   4.520774
    43  H    4.722965   4.439697   3.210905   3.624555   1.937785
    44  H    9.837363   9.809330   9.161002   9.984644   7.666295
    45  H    0.965871   2.030413   2.747715   2.672651   3.353496
                    6          7          8          9         10
     6  C    0.000000
     7  O    1.440035   0.000000
     8  C    2.387898   1.445703   0.000000
     9  C    3.709881   2.398813   1.540086   0.000000
    10  O    4.771010   3.635314   2.386235   1.435730   0.000000
    11  O    2.705750   3.361388   4.070124   5.072597   6.077241
    12  C    2.869828   3.671608   4.760645   5.745565   6.926551
    13  C    2.436275   3.565155   4.757679   5.920539   7.101862
    14  C    3.801171   4.758930   6.079779   7.114868   8.383751
    15  C    4.994103   6.007686   7.265821   8.313939   9.559854
    16  O    5.141361   6.008143   7.201873   8.138384   9.373868
    17  C    4.346604   5.228839   6.252763   7.238825   8.374892
    18  C    5.346803   5.964738   6.875001   7.649931   8.746629
    19  O    5.642620   5.982058   7.000411   7.535196   8.733167
    20  O    6.129626   7.014197   8.355986   9.293002  10.605268
    21  O    4.215068   5.248962   6.510056   7.625402   8.833747
    22  O    1.529473   2.461514   3.746041   4.855822   6.067829
    23  O    2.488414   3.751610   4.094905   5.618016   6.282023
    24  H    3.950581   3.406964   2.191159   2.761819   2.445900
    25  H    2.912850   3.334679   2.687236   4.090174   4.266378
    26  H    4.035392   4.718992   4.414850   5.762521   5.945835
    27  H    2.195784   2.885754   3.392086   4.674202   5.472066
    28  H    1.112616   2.096209   2.718029   4.047711   4.997529
    29  H    2.619639   2.103293   1.107441   2.171398   2.671364
    30  H    3.977925   2.588605   2.166705   1.107717   2.113853
    31  H    3.958209   2.652984   2.163116   1.105013   2.123060
    32  H    5.563555   4.330291   3.223648   1.952329   0.996745
    33  H    3.180404   3.593997   4.804896   5.536224   6.825929
    34  H    2.726206   4.081924   5.061057   6.391107   7.433284
    35  H    4.033262   4.684766   6.095722   6.924882   8.276922
    36  H    5.275140   6.459760   7.611880   8.795647   9.956750
    37  H    4.545769   5.615060   6.499350   7.635001   8.660672
    38  H    6.329886   7.028522   7.938192   8.743877   9.823001
    39  H    5.279961   5.822771   6.529913   7.279229   8.254522
    40  H    5.092569   5.244348   6.209566   6.635228   7.829414
    41  H    5.116801   6.045333   7.358491   8.387983   9.640580
    42  H    3.113762   3.261623   3.873624   4.559135   5.584428
    43  H    2.750809   4.095660   4.715730   6.189221   6.992447
    44  H    6.936326   7.872028   9.182636  10.148481  11.442147
    45  H    4.102151   3.685506   3.292162   3.836116   4.082749
                   11         12         13         14         15
    11  O    0.000000
    12  C    1.448931   0.000000
    13  C    2.575901   1.553202   0.000000
    14  C    3.876032   2.525462   1.548442   0.000000
    15  C    4.278289   2.934408   2.564290   1.552016   0.000000
    16  O    3.697617   2.480217   2.924773   2.466324   1.431302
    17  C    2.420246   1.566187   2.541545   2.900883   2.408870
    18  C    2.934848   2.583346   3.923372   4.264811   3.659020
    19  O    3.532887   2.991323   4.325901   4.440189   4.011742
    20  O    5.536546   4.130347   3.763082   2.391260   1.415165
    21  O    4.949107   3.753415   2.383209   1.429714   2.480320
    22  O    3.068275   2.443557   1.433843   2.416764   3.798677
    23  O    4.037845   4.180770   3.251504   4.457829   5.406883
    24  H    5.913977   6.644819   6.362682   7.683249   8.926726
    25  H    4.428520   5.228260   4.903371   6.356848   7.355708
    26  H    6.038399   6.419097   5.546586   6.702249   7.783754
    27  H    4.764373   4.686215   3.610247   4.568232   5.930178
    28  H    1.807104   2.415283   2.454189   3.980629   4.885587
    29  H    3.624843   4.607040   4.830251   6.277693   7.289541
    30  H    5.655289   6.089442   6.093056   7.119969   8.428500
    31  H    4.744242   5.457139   5.902775   7.060959   8.140867
    32  H    6.659726   7.513366   7.808775   9.044476  10.195416
    33  H    2.079249   1.104118   2.145349   2.722644   3.254464
    34  H    2.840740   2.186719   1.109245   2.176238   2.841583
    35  H    4.147575   2.764735   2.164633   1.109904   2.156140
    36  H    4.572729   3.420477   2.896585   2.196821   1.113426
    37  H    2.660981   2.185906   2.820060   3.338908   2.744512
    38  H    3.933746   3.528548   4.699691   4.828556   3.890265
    39  H    2.622703   2.851403   4.304492   4.967257   4.540141
    40  H    3.087263   2.765624   4.182606   4.529112   4.434818
    41  H    5.755945   4.458846   3.239003   1.946838   2.653654
    42  H    1.152141   2.146269   3.403938   4.587416   5.043027
    43  H    4.224297   4.021389   2.811038   3.762274   4.724044
    44  H    6.128192   4.784063   4.523031   3.248670   1.989098
    45  H    6.690993   6.939980   6.203477   7.183913   8.626515
                   16         17         18         19         20
    16  O    0.000000
    17  C    1.431501   0.000000
    18  C    2.310891   1.535945   0.000000
    19  O    2.680811   2.434711   1.448833   0.000000
    20  O    2.253241   3.575676   4.533097   4.565731   0.000000
    21  O    3.726770   4.183410   5.624887   5.867960   2.983127
    22  O    4.202087   3.804750   5.007770   5.176116   4.785024
    23  O    5.904541   5.155786   6.426709   7.150318   6.640427
    24  H    9.043729   8.082039   8.826343   9.098420  10.051385
    25  H    7.486138   6.426584   7.304023   7.920314   8.635161
    26  H    8.312599   7.522524   8.698998   9.363500   8.948883
    27  H    6.531832   5.999708   7.238122   7.582299   6.922393
    28  H    4.801660   3.762199   4.643559   5.132011   6.147404
    29  H    7.085283   5.973038   6.480652   6.760720   8.481276
    30  H    8.369798   7.628650   8.123025   7.882399   9.288218
    31  H    7.790848   6.874593   7.083959   6.857538   9.089682
    32  H    9.924316   8.937252   9.176388   9.049914  11.194201
    33  H    2.703397   2.173532   2.771160   2.600447   4.168246
    34  H    3.321282   2.805784   4.270283   4.975028   4.158746
    35  H    2.728883   3.286791   4.390083   4.195231   2.523920
    36  H    2.102107   2.751114   4.080041   4.742036   2.110151
    37  H    2.114888   1.107202   2.173037   3.390599   4.030909
    38  H    2.523587   2.166842   1.100862   2.056116   4.598489
    39  H    3.294841   2.180527   1.101629   2.122560   5.542653
    40  H    3.248873   2.744267   1.970406   0.998049   5.091373
    41  H    3.980150   4.721846   6.077793   6.187118   2.644034
    42  H    4.303513   3.119162   3.173307   3.395216   6.168853
    43  H    5.418099   4.887521   6.287321   6.975402   5.879537
    44  H    2.590164   3.956273   4.771044   4.900503   0.960028
    45  H    9.068573   8.426421   9.425410   9.568082   9.543919
                   21         22         23         24         25
    21  O    0.000000
    22  O    2.803446   0.000000
    23  O    4.305859   2.985735   0.000000
    24  H    7.802445   5.295665   4.565275   0.000000
    25  H    6.504087   4.287193   2.560915   2.507726   0.000000
    26  H    6.338433   4.881123   2.434501   3.625104   2.339626
    27  H    4.249575   2.532305   2.095738   3.809579   3.055485
    28  H    4.614771   2.184443   2.602240   4.330832   2.851064
    29  H    6.826482   4.099801   4.061648   2.555779   2.365592
    30  H    7.522136   4.876367   5.940373   3.150493   4.705688
    31  H    7.760600   4.998727   6.095934   3.761947   4.709625
    32  H    9.568650   6.791463   7.222912   3.413062   5.231090
    33  H    4.030241   2.625252   4.949629   6.848272   5.800517
    34  H    2.597367   2.112872   2.611398   6.403163   4.591555
    35  H    2.107520   2.608022   5.186001   7.840815   6.821830
    36  H    2.680479   4.209496   5.174356   9.103233   7.300569
    37  H    4.386143   4.157973   4.825611   8.136340   6.211079
    38  H    6.127791   5.906639   7.178596   9.845805   8.202301
    39  H    6.286684   5.260033   6.360526   8.427914   6.894454
    40  H    5.944394   4.794982   6.850172   8.347263   7.359588
    41  H    0.997538   3.643208   5.285469   8.679355   7.479584
    42  H    5.734832   3.608272   4.893184   5.888506   4.821253
    43  H    3.416510   2.693932   0.999740   5.348083   3.525411
    44  H    3.756226   5.646128   7.287329  10.869105   9.332746
    45  H    6.944413   4.896257   4.564193   2.381228   3.741623
                   26         27         28         29         30
    26  H    0.000000
    27  H    2.718759   0.000000
    28  H    4.355627   3.083388   0.000000
    29  H    4.509618   3.930053   2.476769   0.000000
    30  H    6.028979   4.628652   4.560637   3.078777   0.000000
    31  H    6.570542   5.332023   4.111548   2.461800   1.793885
    32  H    6.941737   6.377530   5.759332   3.464940   2.455728
    33  H    7.055284   5.042924   2.964133   4.801432   5.763057
    34  H    5.030583   3.564014   2.560238   5.000074   6.658452
    35  H    7.307247   4.931136   4.327234   6.402439   6.822208
    36  H    7.552761   6.017703   5.081974   7.553716   8.976972
    37  H    7.197249   6.029612   3.841884   6.109723   8.104410
    38  H    9.502450   8.123850   5.613401   7.514180   9.220791
    39  H    8.497976   7.282789   4.422515   5.986143   7.882340
    40  H    8.932409   7.128610   4.610641   5.990640   6.993436
    41  H    7.248307   5.102694   5.542921   7.724891   8.205505
    42  H    6.664286   5.302224   2.367524   3.427904   5.180627
    43  H    3.120913   2.196422   2.994132   4.797253   6.390745
    44  H    9.628389   7.737264   6.864101   9.241304  10.187450
    45  H    3.556088   2.912178   4.956851   4.150302   3.508852
                   31         32         33         34         35
    31  H    0.000000
    32  H    2.252846   0.000000
    33  H    5.127156   7.306489   0.000000
    34  H    6.471080   8.217396   3.068904   0.000000
    35  H    6.786496   8.848141   2.495786   3.079445   0.000000
    36  H    8.699048  10.658317   4.012957   2.729314   3.084541
    37  H    7.362784   9.293954   3.080936   2.630574   3.998556
    38  H    8.177381  10.255669   3.769842   4.922878   5.020722
    39  H    6.678422   8.661416   3.143982   4.547345   5.141657
    40  H    5.910958   8.104583   2.183753   4.919690   4.200122
    41  H    8.489376  10.339139   4.589182   3.535526   2.296018
    42  H    4.016710   6.025707   2.207611   3.877827   4.605284
    43  H    6.620003   7.909067   4.775557   2.120239   4.567279
    44  H    9.918584  12.033612   4.898114   4.779615   3.470763
    45  H    4.874779   4.908534   7.041326   6.332704   7.268705
                   36         37         38         39         40
    36  H    0.000000
    37  H    2.623445   0.000000
    38  H    4.174242   2.505244   0.000000
    39  H    4.849696   2.508712   1.792753   0.000000
    40  H    5.199350   3.713189   2.846098   2.248507   0.000000
    41  H    2.950973   5.006464   6.484643   6.853996   6.347810
    42  H    5.499960   3.585141   4.243068   2.723254   2.681029
    43  H    4.457516   4.586783   6.976590   6.391034   6.772696
    44  H    2.325759   4.279105   4.610907   5.807274   5.564106
    45  H    8.845565   8.569328  10.427396   9.296317   8.893838
                   41         42         43         44         45
    41  H    0.000000
    42  H    6.480143   0.000000
    43  H    4.376435   5.152774   0.000000
    44  H    3.384264   6.790574   6.522073   0.000000
    45  H    7.684579   6.821141   4.996676  10.420473   0.000000
 Stoichiometry    C12H22O11
 Framework group  C1[X(C12H22O11)]
 Deg. of freedom   129
 Full point group                 C1      NOp   1
 Largest Abelian subgroup         C1      NOp   1
 Largest concise Abelian subgroup C1      NOp   1
                         Standard orientation:                         
 ---------------------------------------------------------------------
 Center     Atomic      Atomic             Coordinates (Angstroms)
 Number     Number       Type             X           Y           Z
 ---------------------------------------------------------------------
      1          8           0        4.014725   -0.809748   -1.259377
      2          6           0        3.896767   -0.135858    0.016565
      3          6           0        3.177792   -1.036664    1.043585
      4          8           0        3.953436   -2.226345    1.266019
      5          6           0        1.766023   -1.391866    0.516081
      6          6           0        0.974548   -0.133812   -0.012953
      7          8           0        1.767973    0.738124   -0.839939
      8          6           0        3.005014    1.110221   -0.190839
      9          6           0        3.685957    2.156468   -1.092809
     10          8           0        4.962101    2.440182   -0.499275
     11          8           0       -0.807767    1.520890    1.172962
     12          6           0       -1.719569    0.802020    0.306218
     13          6           0       -1.399401   -0.681217   -0.025355
     14          6           0       -2.548196   -1.265926   -0.883293
     15          6           0       -3.929173   -1.059798   -0.205674
     16          8           0       -4.145176    0.313299    0.135754
     17          6           0       -3.134382    0.884966    0.972824
     18          6           0       -3.628828    2.329508    1.139995
     19          8           0       -3.749884    2.947726   -0.164715
     20          8           0       -4.920327   -1.348559   -1.173621
     21          8           0       -2.236242   -2.647091   -1.081158
     22          8           0       -0.187824   -0.755618   -0.788541
     23          8           0        1.074750   -2.025587    1.600538
     24          1           0        4.893801    0.161284    0.386380
     25          1           0        3.066853   -0.463303    1.986644
     26          1           0        3.374483   -2.779407    1.864685
     27          1           0        1.908443   -2.097093   -0.320909
     28          1           0        0.598419    0.426625    0.871553
     29          1           0        2.797350    1.564012    0.797784
     30          1           0        3.791289    1.733595   -2.111201
     31          1           0        3.035450    3.047743   -1.152168
     32          1           0        5.262162    3.294755   -0.915411
     33          1           0       -1.771694    1.334057   -0.659854
     34          1           0       -1.326884   -1.260346    0.917923
     35          1           0       -2.572072   -0.711618   -1.844573
     36          1           0       -4.010001   -1.708326    0.695767
     37          1           0       -3.084776    0.393687    1.963824
     38          1           0       -4.637278    2.322357    1.581440
     39          1           0       -2.952299    2.893637    1.801549
     40          1           0       -2.826889    3.230597   -0.418026
     41          1           0       -2.915239   -2.979062   -1.732188
     42          1           0       -0.492876    2.520076    0.693485
     43          1           0        0.344454   -2.543192    1.155303
     44          1           0       -5.789169   -1.465304   -0.782291
     45          1           0        4.621024   -1.561222   -1.234980
 ---------------------------------------------------------------------
 Rotational constants (GHZ):           0.4216606           0.1363630           0.1167223
 Leave Link  202 at Tue Jun 22 14:18:04 2021, MaxMem=  2147483648 cpu:               0.0 elap:               0.0
 (Enter /home/matma/Programs/gaussian/G16_x86_SSE4/tar/g16/l301.exe)
 Standard basis: VSTO-6G (5D, 7F)
 Ernie: Thresh=  0.10000D-02 Tol=  0.10000D-05 Strict=F.
  NNHCO=     0 NNPyr=     0 NCTC=     0               EPep=         0.000000000
    EC=      1151.891366564  ECS=         8.858128182   EG=         0.747039954
   EHC=         0.002743766  EAt=      -175.965002454  AtH=         6.138669069
 EPDDG=         0.000000000  ECC=      1161.499278466 EAtT=       182.103671523
 There are   114 symmetry adapted cartesian basis functions of A   symmetry.
 There are   114 symmetry adapted basis functions of A   symmetry.
   114 basis functions,   684 primitive gaussians,   114 cartesian basis functions
    68 alpha electrons       68 beta electrons
       nuclear repulsion energy      1343.6029499888 Hartrees.
 IExCor=    0 DFT=F Ex=HF Corr=None ExCW=0 ScaHFX=  1.000000
 ScaDFX=  1.000000  1.000000  1.000000  1.000000 ScalE2=  1.000000  1.000000
 IRadAn=  99590 IRanWt=     -1 IRanGd=            0 ICorTp=0 IEmpDi=  4
 Integral buffers will be    131072 words long.
 Regular integral format.
 Two-electron integral symmetry is turned off.
 Leave Link  301 at Tue Jun 22 14:18:04 2021, MaxMem=  2147483648 cpu:               0.2 elap:               0.0
 (Enter /home/matma/Programs/gaussian/G16_x86_SSE4/tar/g16/l302.exe)
 Do NDO integrals.
 NPDir=0 NMtPBC=     1 NCelOv=     1 NCel=       1 NClECP=     1 NCelD=      1
         NCelK=      1 NCelE2=     1 NClLst=     1 CellRange=     0.0.
 One-electron integrals computed using PRISM.
 NBasis=   114 RedAO= F EigKep=  0.00D+00  NBF=   114
 NBsUse=   114 1.00D-04 EigRej=  0.00D+00 NBFU=   114
 Leave Link  302 at Tue Jun 22 14:18:04 2021, MaxMem=  2147483648 cpu:               0.6 elap:               0.0
 (Enter /home/matma/Programs/gaussian/G16_x86_SSE4/tar/g16/l303.exe)
 DipDrv:  MaxL=1.
 Leave Link  303 at Tue Jun 22 14:18:04 2021, MaxMem=  2147483648 cpu:               0.1 elap:               0.0
 (Enter /home/matma/Programs/gaussian/G16_x86_SSE4/tar/g16/l401.exe)
 Simple Huckel Guess.
 JPrj=0 DoOrth=F DoCkMO=F.
 Leave Link  401 at Tue Jun 22 14:18:04 2021, MaxMem=  2147483648 cpu:               0.2 elap:               0.0
 (Enter /home/matma/Programs/gaussian/G16_x86_SSE4/tar/g16/l502.exe)
 Keep J ints in memory in canonical form, NReq=892272.
 FoFCou: FMM=F IPFlag=           0 FMFlag=           0 FMFlg1=           0
         NFxFlg=           0 DoJE=F BraDBF=F KetDBF=F FulRan=T
         wScrn=  0.000000 ICntrl=       600 IOpCl=  2 I1Cent=           0 NGrid=           0
         NMat0=    1 NMatS0=    252 NMatT0=    0 NMatD0=    1 NMtDS0=    0 NMtDT0=    0
 Symmetry not used in FoFCou.
 Two-electron integral symmetry not used.
 Closed shell SCF:
 Using DIIS extrapolation, IDIIS=  1040.
 Overlap will be assumed to be unity.
 NGot=  2147483648 LenX=  2147363403 LenY=  2147349966
 Requested convergence on RMS density matrix=1.00D-08 within 128 cycles.
 Requested convergence on MAX density matrix=1.00D-06.
 Requested convergence on             energy=1.00D-06.
 No special actions if energy rises.

 Cycle   1  Pass 1  IDiag  1:
 E= 0.552010210034723    
 DIIS: error= 5.52D-02 at cycle   1 NSaved=   1.
 NSaved= 1 IEnMin= 1 EnMin= 0.552010210034723     IErMin= 1 ErrMin= 5.52D-02
 ErrMax= 5.52D-02  0.00D+00 EMaxC= 1.00D-01 BMatC= 3.12D-01 BMatP= 3.12D-01
 IDIUse=3 WtCom= 4.48D-01 WtEn= 5.52D-01
 Coeff-Com:  0.100D+01
 Coeff-En:   0.100D+01
 Coeff:      0.100D+01
 GapD=    2.000 DampG=2.000 DampE=0.500 DampFc=1.0000 IDamp=-1.
 RMSDP=8.19D-03 MaxDP=1.27D-01              OVMax= 0.00D+00

 Cycle   2  Pass 1  IDiag  1:
 E=-0.444453701812790     Delta-E=       -0.996463911848 Rises=F Damp=F
 DIIS: error= 1.69D-02 at cycle   2 NSaved=   2.
 NSaved= 2 IEnMin= 2 EnMin=-0.444453701812790     IErMin= 2 ErrMin= 1.69D-02
 ErrMax= 1.69D-02  0.00D+00 EMaxC= 1.00D-01 BMatC= 4.73D-02 BMatP= 3.12D-01
 IDIUse=3 WtCom= 8.31D-01 WtEn= 1.69D-01
 Coeff-Com: -0.439D+00 0.144D+01
 Coeff-En:   0.000D+00 0.100D+01
 Coeff:     -0.365D+00 0.137D+01
 RMSDP=4.92D-03 MaxDP=6.09D-02 DE=-9.96D-01 OVMax= 0.00D+00

 Cycle   3  Pass 1  IDiag  3:
 E=-0.663195126355049     Delta-E=       -0.218741424542 Rises=F Damp=F
 DIIS: error= 5.82D-03 at cycle   3 NSaved=   3.
 NSaved= 3 IEnMin= 3 EnMin=-0.663195126355049     IErMin= 3 ErrMin= 5.82D-03
 ErrMax= 5.82D-03  0.00D+00 EMaxC= 1.00D-01 BMatC= 4.98D-03 BMatP= 4.73D-02
 IDIUse=3 WtCom= 9.42D-01 WtEn= 5.82D-02
 Coeff-Com:  0.241D+00-0.992D+00 0.175D+01
 Coeff-En:   0.000D+00 0.000D+00 0.100D+01
 Coeff:      0.227D+00-0.935D+00 0.171D+01
 Gap=     0.369 Goal=   None    Shift=    0.000
 RMSDP=2.47D-03 MaxDP=3.68D-02 DE=-2.19D-01 OVMax= 3.53D-02

 Cycle   4  Pass 1  IDiag  3:
 E=-0.695581729341029     Delta-E=       -0.032386602986 Rises=F Damp=F
 DIIS: error= 1.06D-03 at cycle   4 NSaved=   4.
 NSaved= 4 IEnMin= 4 EnMin=-0.695581729341029     IErMin= 4 ErrMin= 1.06D-03
 ErrMax= 1.06D-03  0.00D+00 EMaxC= 1.00D-01 BMatC= 2.15D-04 BMatP= 4.98D-03
 IDIUse=3 WtCom= 9.89D-01 WtEn= 1.06D-02
 Coeff-Com: -0.517D-01 0.242D+00-0.606D+00 0.142D+01
 Coeff-En:   0.000D+00 0.000D+00 0.000D+00 0.100D+01
 Coeff:     -0.511D-01 0.240D+00-0.600D+00 0.141D+01
 Gap=     0.371 Goal=   None    Shift=    0.000
 RMSDP=5.55D-04 MaxDP=9.32D-03 DE=-3.24D-02 OVMax= 8.08D-03

 Cycle   5  Pass 1  IDiag  3:
 E=-0.697042731380634     Delta-E=       -0.001461002040 Rises=F Damp=F
 DIIS: error= 2.69D-04 at cycle   5 NSaved=   5.
 NSaved= 5 IEnMin= 5 EnMin=-0.697042731380634     IErMin= 5 ErrMin= 2.69D-04
 ErrMax= 2.69D-04  0.00D+00 EMaxC= 1.00D-01 BMatC= 1.23D-05 BMatP= 2.15D-04
 IDIUse=3 WtCom= 9.97D-01 WtEn= 2.69D-03
 Coeff-Com:  0.538D-02-0.268D-01 0.100D+00-0.453D+00 0.137D+01
 Coeff-En:   0.000D+00 0.000D+00 0.000D+00 0.000D+00 0.100D+01
 Coeff:      0.537D-02-0.268D-01 0.100D+00-0.452D+00 0.137D+01
 Gap=     0.371 Goal=   None    Shift=    0.000
 RMSDP=1.18D-04 MaxDP=2.23D-03 DE=-1.46D-03 OVMax= 1.93D-03

 Cycle   6  Pass 1  IDiag  3:
 E=-0.697119674518717     Delta-E=       -0.000076943138 Rises=F Damp=F
 DIIS: error= 9.81D-05 at cycle   6 NSaved=   6.
 NSaved= 6 IEnMin= 6 EnMin=-0.697119674518717     IErMin= 6 ErrMin= 9.81D-05
 ErrMax= 9.81D-05  0.00D+00 EMaxC= 1.00D-01 BMatC= 9.89D-07 BMatP= 1.23D-05
 IDIUse=1 WtCom= 1.00D+00 WtEn= 0.00D+00
 Coeff-Com:  0.123D-02-0.430D-02-0.633D-02 0.115D+00-0.631D+00 0.153D+01
 Coeff:      0.123D-02-0.430D-02-0.633D-02 0.115D+00-0.631D+00 0.153D+01
 Gap=     0.371 Goal=   None    Shift=    0.000
 RMSDP=3.69D-05 MaxDP=7.71D-04 DE=-7.69D-05 OVMax= 6.49D-04

 Cycle   7  Pass 1  IDiag  3:
 E=-0.697126308859424     Delta-E=       -0.000006634341 Rises=F Damp=F
 DIIS: error= 2.70D-05 at cycle   7 NSaved=   7.
 NSaved= 7 IEnMin= 7 EnMin=-0.697126308859424     IErMin= 7 ErrMin= 2.70D-05
 ErrMax= 2.70D-05  0.00D+00 EMaxC= 1.00D-01 BMatC= 6.86D-08 BMatP= 9.89D-07
 IDIUse=1 WtCom= 1.00D+00 WtEn= 0.00D+00
 Coeff-Com: -0.761D-03 0.299D-02 0.163D-03-0.435D-01 0.275D+00-0.842D+00
 Coeff-Com:  0.161D+01
 Coeff:     -0.761D-03 0.299D-02 0.163D-03-0.435D-01 0.275D+00-0.842D+00
 Coeff:      0.161D+01
 Gap=     0.371 Goal=   None    Shift=    0.000
 RMSDP=1.02D-05 MaxDP=2.12D-04 DE=-6.63D-06 OVMax= 1.60D-04

 Cycle   8  Pass 1  IDiag  3:
 E=-0.697126809215888     Delta-E=       -0.000000500356 Rises=F Damp=F
 DIIS: error= 7.86D-06 at cycle   8 NSaved=   8.
 NSaved= 8 IEnMin= 8 EnMin=-0.697126809215888     IErMin= 8 ErrMin= 7.86D-06
 ErrMax= 7.86D-06  0.00D+00 EMaxC= 1.00D-01 BMatC= 5.98D-09 BMatP= 6.86D-08
 IDIUse=1 WtCom= 1.00D+00 WtEn= 0.00D+00
 Coeff-Com:  0.184D-03-0.792D-03-0.514D-03 0.152D-01-0.954D-01 0.315D+00
 Coeff-Com: -0.843D+00 0.161D+01
 Coeff:      0.184D-03-0.792D-03-0.514D-03 0.152D-01-0.954D-01 0.315D+00
 Coeff:     -0.843D+00 0.161D+01
 Gap=     0.371 Goal=   None    Shift=    0.000
 RMSDP=3.31D-06 MaxDP=6.64D-05 DE=-5.00D-07 OVMax= 5.78D-05

 Cycle   9  Pass 1  IDiag  3:
 E=-0.697126855108536     Delta-E=       -0.000000045893 Rises=F Damp=F
 DIIS: error= 2.01D-06 at cycle   9 NSaved=   9.
 NSaved= 9 IEnMin= 9 EnMin=-0.697126855108536     IErMin= 9 ErrMin= 2.01D-06
 ErrMax= 2.01D-06  0.00D+00 EMaxC= 1.00D-01 BMatC= 4.10D-10 BMatP= 5.98D-09
 IDIUse=1 WtCom= 1.00D+00 WtEn= 0.00D+00
 Coeff-Com: -0.414D-04 0.219D-03 0.214D-03-0.440D-02 0.285D-01-0.995D-01
 Coeff-Com:  0.297D+00-0.762D+00 0.154D+01
 Coeff:     -0.414D-04 0.219D-03 0.214D-03-0.440D-02 0.285D-01-0.995D-01
 Coeff:      0.297D+00-0.762D+00 0.154D+01
 Gap=     0.371 Goal=   None    Shift=    0.000
 RMSDP=8.27D-07 MaxDP=1.68D-05 DE=-4.59D-08 OVMax= 1.56D-05

 Cycle  10  Pass 1  IDiag  3:
 E=-0.697126858072352     Delta-E=       -0.000000002964 Rises=F Damp=F
 DIIS: error= 5.24D-07 at cycle  10 NSaved=  10.
 NSaved=10 IEnMin=10 EnMin=-0.697126858072352     IErMin=10 ErrMin= 5.24D-07
 ErrMax= 5.24D-07  0.00D+00 EMaxC= 1.00D-01 BMatC= 3.23D-11 BMatP= 4.10D-10
 IDIUse=1 WtCom= 1.00D+00 WtEn= 0.00D+00
 Coeff-Com:  0.133D-04-0.809D-04 0.114D-04 0.663D-03-0.545D-02 0.206D-01
 Coeff-Com: -0.658D-01 0.200D+00-0.640D+00 0.149D+01
 Coeff:      0.133D-04-0.809D-04 0.114D-04 0.663D-03-0.545D-02 0.206D-01
 Coeff:     -0.658D-01 0.200D+00-0.640D+00 0.149D+01
 Gap=     0.371 Goal=   None    Shift=    0.000
 RMSDP=2.29D-07 MaxDP=4.63D-06 DE=-2.96D-09 OVMax= 4.33D-06

 Cycle  11  Pass 1  IDiag  3:
 E=-0.697126858294496     Delta-E=       -0.000000000222 Rises=F Damp=F
 DIIS: error= 2.10D-07 at cycle  11 NSaved=  11.
 NSaved=11 IEnMin=11 EnMin=-0.697126858294496     IErMin=11 ErrMin= 2.10D-07
 ErrMax= 2.10D-07  0.00D+00 EMaxC= 1.00D-01 BMatC= 2.67D-12 BMatP= 3.23D-11
 IDIUse=1 WtCom= 1.00D+00 WtEn= 0.00D+00
 Coeff-Com: -0.547D-05 0.334D-04-0.314D-04-0.215D-05 0.683D-03-0.317D-02
 Coeff-Com:  0.109D-01-0.384D-01 0.165D+00-0.599D+00 0.146D+01
 Coeff:     -0.547D-05 0.334D-04-0.314D-04-0.215D-05 0.683D-03-0.317D-02
 Coeff:      0.109D-01-0.384D-01 0.165D+00-0.599D+00 0.146D+01
 Gap=     0.371 Goal=   None    Shift=    0.000
 RMSDP=6.36D-08 MaxDP=1.49D-06 DE=-2.22D-10 OVMax= 9.02D-07

 Cycle  12  Pass 1  IDiag  3:
 E=-0.697126858299725     Delta-E=       -0.000000000005 Rises=F Damp=F
 DIIS: error= 7.20D-08 at cycle  12 NSaved=  12.
 NSaved=12 IEnMin=12 EnMin=-0.697126858299725     IErMin=12 ErrMin= 7.20D-08
 ErrMax= 7.20D-08  0.00D+00 EMaxC= 1.00D-01 BMatC= 2.85D-13 BMatP= 2.67D-12
 IDIUse=1 WtCom= 1.00D+00 WtEn= 0.00D+00
 Coeff-Com:  0.221D-05-0.134D-04 0.196D-04-0.637D-04 0.110D-03-0.342D-04
 Coeff-Com: -0.378D-03 0.338D-02-0.274D-01 0.148D+00-0.671D+00 0.155D+01
 Coeff:      0.221D-05-0.134D-04 0.196D-04-0.637D-04 0.110D-03-0.342D-04
 Coeff:     -0.378D-03 0.338D-02-0.274D-01 0.148D+00-0.671D+00 0.155D+01
 Gap=     0.371 Goal=   None    Shift=    0.000
 RMSDP=2.23D-08 MaxDP=5.90D-07 DE=-5.23D-12 OVMax= 3.15D-07

 Cycle  13  Pass 1  IDiag  3:
 E=-0.697126858296770     Delta-E=        0.000000000003 Rises=F Damp=F
 DIIS: error= 2.14D-08 at cycle  13 NSaved=  13.
 NSaved=13 IEnMin=12 EnMin=-0.697126858299725     IErMin=13 ErrMin= 2.14D-08
 ErrMax= 2.14D-08  0.00D+00 EMaxC= 1.00D-01 BMatC= 2.66D-14 BMatP= 2.85D-13
 IDIUse=1 WtCom= 1.00D+00 WtEn= 0.00D+00
 Coeff-Com: -0.635D-06 0.403D-05-0.815D-05 0.417D-04-0.163D-03 0.437D-03
 Coeff-Com: -0.115D-02 0.264D-02-0.342D-02-0.119D-01 0.175D+00-0.718D+00
 Coeff-Com:  0.156D+01
 Coeff:     -0.635D-06 0.403D-05-0.815D-05 0.417D-04-0.163D-03 0.437D-03
 Coeff:     -0.115D-02 0.264D-02-0.342D-02-0.119D-01 0.175D+00-0.718D+00
 Coeff:      0.156D+01
 Gap=     0.371 Goal=   None    Shift=    0.000
 RMSDP=6.74D-09 MaxDP=1.70D-07 DE= 2.96D-12 OVMax= 8.13D-08

 Cycle  14  Pass 2  IDiag  1:
 SCF Done:  E(RPM6) = -0.697126858297     A.U. after   14 cycles
            NFock= 13  Conv=0.67D-08     -V/T= 0.9977
 KE=-3.035433540927D+02 PE=-2.291389521107D+03 EE= 1.250632798353D+03
 Leave Link  502 at Tue Jun 22 14:18:04 2021, MaxMem=  2147483648 cpu:               0.5 elap:               0.0
 (Enter /home/matma/Programs/gaussian/G16_x86_SSE4/tar/g16/l601.exe)
 Copying SCF densities to generalized density rwf, IOpCl= 0 IROHF=0.

 **********************************************************************

            Population analysis using the SCF Density.

 **********************************************************************

 Orbital symmetries:
       Occupied  (A) (A) (A) (A) (A) (A) (A) (A) (A) (A) (A) (A)
                 (A) (A) (A) (A) (A) (A) (A) (A) (A) (A) (A) (A)
                 (A) (A) (A) (A) (A) (A) (A) (A) (A) (A) (A) (A)
                 (A) (A) (A) (A) (A) (A) (A) (A) (A) (A) (A) (A)
                 (A) (A) (A) (A) (A) (A) (A) (A) (A) (A) (A) (A)
                 (A) (A) (A) (A) (A) (A) (A) (A)
       Virtual   (A) (A) (A) (A) (A) (A) (A) (A) (A) (A) (A) (A)
                 (A) (A) (A) (A) (A) (A) (A) (A) (A) (A) (A) (A)
                 (A) (A) (A) (A) (A) (A) (A) (A) (A) (A) (A) (A)
                 (A) (A) (A) (A) (A) (A) (A) (A) (A) (A)
 The electronic state is 1-A.
 Alpha  occ. eigenvalues --   -1.16372  -1.15186  -1.14104  -1.12691  -1.11701
 Alpha  occ. eigenvalues --   -1.10934  -1.10570  -1.10249  -1.08964  -1.07698
 Alpha  occ. eigenvalues --   -1.06790  -1.01533  -1.00605  -0.99441  -0.98173
 Alpha  occ. eigenvalues --   -0.91004  -0.89687  -0.86168  -0.83748  -0.80632
 Alpha  occ. eigenvalues --   -0.79692  -0.77914  -0.76331  -0.71275  -0.70294
 Alpha  occ. eigenvalues --   -0.69411  -0.68908  -0.68676  -0.67399  -0.66019
 Alpha  occ. eigenvalues --   -0.65201  -0.64909  -0.63750  -0.62980  -0.61379
 Alpha  occ. eigenvalues --   -0.59836  -0.59115  -0.58388  -0.57598  -0.57128
 Alpha  occ. eigenvalues --   -0.56193  -0.55473  -0.54560  -0.53576  -0.52981
 Alpha  occ. eigenvalues --   -0.52571  -0.50926  -0.50544  -0.50425  -0.49939
 Alpha  occ. eigenvalues --   -0.49431  -0.48251  -0.48077  -0.47156  -0.46788
 Alpha  occ. eigenvalues --   -0.46644  -0.44670  -0.43836  -0.42652  -0.42098
 Alpha  occ. eigenvalues --   -0.41036  -0.40516  -0.40005  -0.39630  -0.39572
 Alpha  occ. eigenvalues --   -0.38860  -0.38404  -0.36095
 Alpha virt. eigenvalues --    0.00947   0.02327   0.04633   0.04950   0.05988
 Alpha virt. eigenvalues --    0.07132   0.07291   0.07333   0.07671   0.08305
 Alpha virt. eigenvalues --    0.08651   0.08791   0.09242   0.09420   0.09672
 Alpha virt. eigenvalues --    0.09796   0.10394   0.11002   0.11074   0.11583
 Alpha virt. eigenvalues --    0.11996   0.12290   0.12928   0.14233   0.14356
 Alpha virt. eigenvalues --    0.15318   0.15873   0.16409   0.16625   0.16931
 Alpha virt. eigenvalues --    0.17536   0.17693   0.17828   0.17939   0.18092
 Alpha virt. eigenvalues --    0.18233   0.18415   0.18458   0.18822   0.19160
 Alpha virt. eigenvalues --    0.19233   0.19568   0.19610   0.19745   0.20285
 Alpha virt. eigenvalues --    0.21845
          Condensed to atoms (all electrons):
               1          2          3          4          5          6
     1  O    6.539440   0.000000   0.000000   0.000000   0.000000   0.000000
     2  C    0.000000   3.904482   0.000000   0.000000   0.000000   0.000000
     3  C    0.000000   0.000000   3.948373   0.000000   0.000000   0.000000
     4  O    0.000000   0.000000   0.000000   6.526568   0.000000   0.000000
     5  C    0.000000   0.000000   0.000000   0.000000   4.029827   0.000000
     6  C    0.000000   0.000000   0.000000   0.000000   0.000000   3.694911
     7  O    0.000000   0.000000   0.000000   0.000000   0.000000   0.000000
     8  C    0.000000   0.000000   0.000000   0.000000   0.000000   0.000000
     9  C    0.000000   0.000000   0.000000   0.000000   0.000000   0.000000
    10  O    0.000000   0.000000   0.000000   0.000000   0.000000   0.000000
    11  O    0.000000   0.000000   0.000000   0.000000   0.000000   0.000000
    12  C    0.000000   0.000000   0.000000   0.000000   0.000000   0.000000
    13  C    0.000000   0.000000   0.000000   0.000000   0.000000   0.000000
    14  C    0.000000   0.000000   0.000000   0.000000   0.000000   0.000000
    15  C    0.000000   0.000000   0.000000   0.000000   0.000000   0.000000
    16  O    0.000000   0.000000   0.000000   0.000000   0.000000   0.000000
    17  C    0.000000   0.000000   0.000000   0.000000   0.000000   0.000000
    18  C    0.000000   0.000000   0.000000   0.000000   0.000000   0.000000
    19  O    0.000000   0.000000   0.000000   0.000000   0.000000   0.000000
    20  O    0.000000   0.000000   0.000000   0.000000   0.000000   0.000000
    21  O    0.000000   0.000000   0.000000   0.000000   0.000000   0.000000
    22  O    0.000000   0.000000   0.000000   0.000000   0.000000   0.000000
    23  O    0.000000   0.000000   0.000000   0.000000   0.000000   0.000000
    24  H    0.000000   0.000000   0.000000   0.000000   0.000000   0.000000
    25  H    0.000000   0.000000   0.000000   0.000000   0.000000   0.000000
    26  H    0.000000   0.000000   0.000000   0.000000   0.000000   0.000000
    27  H    0.000000   0.000000   0.000000   0.000000   0.000000   0.000000
    28  H    0.000000   0.000000   0.000000   0.000000   0.000000   0.000000
    29  H    0.000000   0.000000   0.000000   0.000000   0.000000   0.000000
    30  H    0.000000   0.000000   0.000000   0.000000   0.000000   0.000000
    31  H    0.000000   0.000000   0.000000   0.000000   0.000000   0.000000
    32  H    0.000000   0.000000   0.000000   0.000000   0.000000   0.000000
    33  H    0.000000   0.000000   0.000000   0.000000   0.000000   0.000000
    34  H    0.000000   0.000000   0.000000   0.000000   0.000000   0.000000
    35  H    0.000000   0.000000   0.000000   0.000000   0.000000   0.000000
    36  H    0.000000   0.000000   0.000000   0.000000   0.000000   0.000000
    37  H    0.000000   0.000000   0.000000   0.000000   0.000000   0.000000
    38  H    0.000000   0.000000   0.000000   0.000000   0.000000   0.000000
    39  H    0.000000   0.000000   0.000000   0.000000   0.000000   0.000000
    40  H    0.000000   0.000000   0.000000   0.000000   0.000000   0.000000
    41  H    0.000000   0.000000   0.000000   0.000000   0.000000   0.000000
    42  H    0.000000   0.000000   0.000000   0.000000   0.000000   0.000000
    43  H    0.000000   0.000000   0.000000   0.000000   0.000000   0.000000
    44  H    0.000000   0.000000   0.000000   0.000000   0.000000   0.000000
    45  H    0.000000   0.000000   0.000000   0.000000   0.000000   0.000000
               7          8          9         10         11         12
     1  O    0.000000   0.000000   0.000000   0.000000   0.000000   0.000000
     2  C    0.000000   0.000000   0.000000   0.000000   0.000000   0.000000
     3  C    0.000000   0.000000   0.000000   0.000000   0.000000   0.000000
     4  O    0.000000   0.000000   0.000000   0.000000   0.000000   0.000000
     5  C    0.000000   0.000000   0.000000   0.000000   0.000000   0.000000
     6  C    0.000000   0.000000   0.000000   0.000000   0.000000   0.000000
     7  O    6.450284   0.000000   0.000000   0.000000   0.000000   0.000000
     8  C    0.000000   3.891654   0.000000   0.000000   0.000000   0.000000
     9  C    0.000000   0.000000   4.051614   0.000000   0.000000   0.000000
    10  O    0.000000   0.000000   0.000000   6.526099   0.000000   0.000000
    11  O    0.000000   0.000000   0.000000   0.000000   6.549376   0.000000
    12  C    0.000000   0.000000   0.000000   0.000000   0.000000   3.995227
    13  C    0.000000   0.000000   0.000000   0.000000   0.000000   0.000000
    14  C    0.000000   0.000000   0.000000   0.000000   0.000000   0.000000
    15  C    0.000000   0.000000   0.000000   0.000000   0.000000   0.000000
    16  O    0.000000   0.000000   0.000000   0.000000   0.000000   0.000000
    17  C    0.000000   0.000000   0.000000   0.000000   0.000000   0.000000
    18  C    0.000000   0.000000   0.000000   0.000000   0.000000   0.000000
    19  O    0.000000   0.000000   0.000000   0.000000   0.000000   0.000000
    20  O    0.000000   0.000000   0.000000   0.000000   0.000000   0.000000
    21  O    0.000000   0.000000   0.000000   0.000000   0.000000   0.000000
    22  O    0.000000   0.000000   0.000000   0.000000   0.000000   0.000000
    23  O    0.000000   0.000000   0.000000   0.000000   0.000000   0.000000
    24  H    0.000000   0.000000   0.000000   0.000000   0.000000   0.000000
    25  H    0.000000   0.000000   0.000000   0.000000   0.000000   0.000000
    26  H    0.000000   0.000000   0.000000   0.000000   0.000000   0.000000
    27  H    0.000000   0.000000   0.000000   0.000000   0.000000   0.000000
    28  H    0.000000   0.000000   0.000000   0.000000   0.000000   0.000000
    29  H    0.000000   0.000000   0.000000   0.000000   0.000000   0.000000
    30  H    0.000000   0.000000   0.000000   0.000000   0.000000   0.000000
    31  H    0.000000   0.000000   0.000000   0.000000   0.000000   0.000000
    32  H    0.000000   0.000000   0.000000   0.000000   0.000000   0.000000
    33  H    0.000000   0.000000   0.000000   0.000000   0.000000   0.000000
    34  H    0.000000   0.000000   0.000000   0.000000   0.000000   0.000000
    35  H    0.000000   0.000000   0.000000   0.000000   0.000000   0.000000
    36  H    0.000000   0.000000   0.000000   0.000000   0.000000   0.000000
    37  H    0.000000   0.000000   0.000000   0.000000   0.000000   0.000000
    38  H    0.000000   0.000000   0.000000   0.000000   0.000000   0.000000
    39  H    0.000000   0.000000   0.000000   0.000000   0.000000   0.000000
    40  H    0.000000   0.000000   0.000000   0.000000   0.000000   0.000000
    41  H    0.000000   0.000000   0.000000   0.000000   0.000000   0.000000
    42  H    0.000000   0.000000   0.000000   0.000000   0.000000   0.000000
    43  H    0.000000   0.000000   0.000000   0.000000   0.000000   0.000000
    44  H    0.000000   0.000000   0.000000   0.000000   0.000000   0.000000
    45  H    0.000000   0.000000   0.000000   0.000000   0.000000   0.000000
              13         14         15         16         17         18
     1  O    0.000000   0.000000   0.000000   0.000000   0.000000   0.000000
     2  C    0.000000   0.000000   0.000000   0.000000   0.000000   0.000000
     3  C    0.000000   0.000000   0.000000   0.000000   0.000000   0.000000
     4  O    0.000000   0.000000   0.000000   0.000000   0.000000   0.000000
     5  C    0.000000   0.000000   0.000000   0.000000   0.000000   0.000000
     6  C    0.000000   0.000000   0.000000   0.000000   0.000000   0.000000
     7  O    0.000000   0.000000   0.000000   0.000000   0.000000   0.000000
     8  C    0.000000   0.000000   0.000000   0.000000   0.000000   0.000000
     9  C    0.000000   0.000000   0.000000   0.000000   0.000000   0.000000
    10  O    0.000000   0.000000   0.000000   0.000000   0.000000   0.000000
    11  O    0.000000   0.000000   0.000000   0.000000   0.000000   0.000000
    12  C    0.000000   0.000000   0.000000   0.000000   0.000000   0.000000
    13  C    3.908769   0.000000   0.000000   0.000000   0.000000   0.000000
[...]
 .00217199,-0.00048762,-0.00011281,0.00027468,0.00023666,-0.00171575,0.
 00035559,0.00043775,0.00232135,-0.00047656,-0.00264716,-0.00258855,-0.
 00023458,0.00000241,0.00047077,0.00012052,0.00110854,-0.00062905,-0.00
 013878,0.00029151,0.00072220,0.00023331,-0.00037388,0.00109993,-0.0001
 5079,-0.00595747,-0.00086439,0.00145490,-0.00035205,-0.00101075,-0.000
 52756,-0.00018869,-0.00009738,-0.00013654,-0.00012097,0.00006951,-0.00
 005542,0.00004083,0.00026887,0.00017431,0.00029252,-0.00003832,0.00014
 780,-0.00060959,-0.00087855,-0.00069654,0.00021817,0.00032636,-0.00037
 658,0.00004210,-0.00070690,0.00043010,0.00591709,0.00118517,0.00090783
 ,0.00028724,0.00010588,-0.00089407,-0.00055066,0.00021583,-0.00164163,
 0.00064719,0.00007993,0.00040678,0.00007766,-0.00008756,-0.00018461,-0
 .00002769,0.00000883,0.00016409,0.00031975,0.00000758,0.00023637,-0.00
 025205,-0.00006105,-0.00010089,-0.00016588,0.00003652,0.00015417,-0.00
 147087,0.00129954,0.00012340,-0.00003608,-0.00025100,-0.00018069,0.176
 39307,0.00014635,-0.00055786,0.00019453,-0.00059669,0.00009940,-0.0001
 5824,0.00034781,0.00004200,-0.00030649,-0.00019935,-0.00005075,0.00036
 323,0.00005778,-0.00037206,-0.00018932,-0.00029601,-0.00271997,-0.0013
 7193,0.00090450,-0.00424474,0.00140715,0.00201418,0.00347974,-0.000577
 46,-0.00183217,0.00043810,-0.00014949,0.00069290,-0.00059428,0.0004234
 5,0.02481286,-0.03265611,-0.02718118,-0.03600495,-0.00382909,0.0169157
 5,-0.00283647,-0.00426785,0.00163642,0.00009211,0.00028211,-0.00008125
 ,-0.00091236,0.00102657,-0.00011242,-0.00133742,-0.00139538,0.00104867
 ,-0.00218721,-0.00412464,-0.00187977,0.00020055,0.00011644,-0.00007698
 ,-0.00017600,-0.00014091,0.00017655,0.00031884,-0.00016582,0.00000453,
 0.00029210,0.00007564,-0.00005703,0.00104457,0.00172819,-0.00003997,-0
 .00004903,0.00051416,0.00037424,0.00007646,0.00001250,0.00014372,0.000
 01252,-0.00005907,0.00000658,0.00006091,-0.00006162,-0.00008198,-0.000
 07061,0.00006251,-0.00010668,0.00020479,0.00018268,0.00029368,-0.00048
 389,-0.00045392,0.00007699,-0.00006059,-0.00016478,0.00003817,0.001563
 19,0.00055854,0.00012392,-0.00015517,0.00046087,-0.00022594,-0.0009143
 5,0.00003367,-0.00040267,-0.00003623,-0.00086409,0.00064848,0.00000564
 ,0.00006051,-0.00007766,0.00006185,-0.00003236,-0.00002706,0.00011699,
 -0.00012531,-0.00027036,0.00001544,-0.00001016,0.00002879,-0.00003356,
 0.00000148,-0.00000727,0.00005369,0.00049823,-0.00070386,-0.00004903,-
 0.00006093,0.00005662,0.01525525,0.04719025,-0.00099202,0.00001782,-0.
 00003755,0.00045277,-0.00050127,0.00045566,0.00001711,0.00011920,-0.00
 015898,-0.00015272,0.00015388,0.00005203,0.00003425,-0.00035400,-0.000
 16122,-0.00015178,-0.00151974,0.00000053,-0.00404252,0.00362137,-0.001
 84918,0.00039666,-0.00016179,-0.00007596,0.00016281,0.00040373,0.00067
 506,0.00019677,0.00009146,-0.00106003,0.08511022,-0.01515578,-0.052468
 65,-0.00430340,0.00559631,0.00216409,-0.00081745,0.00105282,0.00193245
 ,-0.00000758,0.00012473,-0.00031589,0.00030607,0.00049647,-0.00011061,
 -0.00079469,-0.00065120,0.00047221,0.00060576,-0.00119097,-0.00109262,
 -0.00011926,-0.00051469,0.00028328,0.00003490,0.00049321,-0.00069616,-
 0.00032410,-0.00025080,-0.00018843,0.00006140,-0.00045650,0.00002156,0
 .00144953,0.00129308,-0.00140728,0.00013279,0.00044434,-0.00012186,0.0
 0002492,0.00006899,-0.00004950,0.00003672,-0.00001729,0.00006469,0.000
 05300,-0.00009173,-0.00004671,0.00017439,-0.00028054,-0.00001184,0.000
 02948,-0.00002785,0.00002117,-0.00000570,0.00004378,0.00007527,0.00018
 169,-0.00004511,0.00012904,-0.00129039,-0.00094060,0.00016242,-0.00070
 156,-0.00025005,0.00010766,-0.00163276,-0.00233507,0.00082802,0.000065
 28,0.00076304,-0.00021827,-0.00004553,0.00000496,0.00016953,0.00000475
 ,0.00002527,-0.00005552,0.00014450,-0.00010547,-0.00011376,0.00004394,
 0.00004024,0.00000566,0.00001385,0.00003921,-0.00007518,0.00028992,-0.
 00054078,0.00084028,0.00001982,0.00015788,0.00005282,-0.07477178,0.010
 34130,0.05168946,-0.00002807,0.00053391,-0.00028152,0.00076055,-0.0002
 6628,-0.00002556,-0.00131527,0.00132275,0.00126456,0.00042739,-0.00024
 314,-0.00076713,0.00082155,-0.00703032,-0.00245743,0.00323233,0.001865
 44,-0.00171665,-0.00047477,0.00025017,0.00129991,-0.00014622,-0.000005
 97,-0.00027641,-0.00005881,-0.00016211,-0.00032150,-0.00003164,0.00010
 951,0.00035869,-0.00052874,-0.00021683,0.00007997,0.00013894,0.0002707
 4,0.00001341,-0.00005912,-0.00005476,-0.00052991,-0.00008726,-0.000080
 35,-0.00001734,-0.00012835,0.00023844,-0.00000485,0.00000231,-0.000332
 01,-0.00002393,0.00012442,0.00015866,-0.00000008,-0.00001338,0.0000087
 6,-0.00004860,-0.00009516,-0.00009012,0.00001216,0.00001775,-0.0001369
 3,-0.00017441,0.00000461,-0.00018777,-0.00034314,-0.00153237,-0.001159
 05,-0.00002575,-0.17344098,-0.08490701,-0.00567113,-0.00015519,0.00013
 458,0.00007653,-0.00022952,0.00025253,-0.00009111,-0.00022527,0.000320
 34,0.00024675,0.00142607,0.00187263,0.00150709,-0.00023631,0.00014463,
 -0.00013516,-0.00008835,-0.00002168,-0.00005733,-0.00001435,-0.0000378
 8,0.00002296,0.00006685,-0.00000248,0.00000830,0.00008818,-0.00000700,
 -0.00010730,0.00004591,0.00003465,0.00006271,0.00014991,0.00003054,-0.
 00003711,-0.00011001,0.00013982,0.00034660,0.00003787,-0.00000274,0.00
 001943,-0.00000154,0.00000636,0.00001204,0.00000886,0.00001854,0.00002
 070,0.00000519,0.00000512,0.00000881,0.00009477,0.00002396,0.00000759,
 -0.00005469,0.00005237,0.00021422,0.00046115,-0.00011197,-0.00015007,0
 .17128157,0.00015017,0.00020810,0.00004776,-0.00096903,-0.00035326,0.0
 0014596,-0.00001489,-0.00685486,-0.00089968,0.00048814,0.00046753,-0.0
 0054960,-0.04064149,-0.03878143,-0.00625509,0.00027081,-0.00222332,-0.
 00255776,0.00032136,0.00112392,0.00084534,-0.00043683,-0.00011984,0.00
 017553,0.00004298,-0.00001835,-0.00021131,0.00000719,0.00006960,0.0002
 0691,-0.00021304,0.00002536,0.00007748,-0.00004757,-0.00000142,0.00007
 293,0.00059766,-0.00003342,-0.00053896,-0.00022877,0.00017507,-0.00007
 376,0.00014060,0.00022945,-0.00001641,-0.00008267,-0.00025298,0.000057
 19,0.00015058,0.00017185,-0.00003130,-0.00001886,-0.00002539,-0.000000
 65,-0.00009531,0.00001780,0.00002729,-0.00012042,-0.00020569,-0.000130
 56,0.00009936,-0.00050293,-0.00008295,-0.00083484,0.00009224,0.0009324
 0,-0.04610246,-0.06470200,-0.00998437,-0.00003065,-0.00020283,-0.00011
 965,0.00033394,0.00004485,-0.00013884,-0.00034196,-0.00000347,0.000333
 16,0.00021396,-0.00107879,0.00086799,-0.00023844,0.00025378,-0.0001283
 6,-0.00001911,0.00000819,-0.00004598,-0.00002312,-0.00001784,0.0000318
 8,0.00002053,-0.00002016,0.00001115,0.00002967,-0.00001714,-0.00007086
 ,0.00005172,-0.00000734,-0.00001497,-0.00004767,0.00002388,-0.00000342
 ,-0.00000901,0.00012640,0.00013323,-0.00000934,0.00001267,-0.00001172,
 -0.00001675,-0.00000715,-0.00000949,0.00002318,0.00001089,0.00000843,0
 .00000923,-0.00000118,-0.00001026,0.00007405,-0.00003835,-0.00001115,-
 0.00005924,0.00021546,0.00016631,0.00019505,-0.00013345,-0.00007677,0.
 08744812,0.11244163,-0.00010225,-0.00005252,-0.00034741,0.00000839,-0.
 00012634,0.00015150,0.00003790,-0.00101558,0.00101432,-0.00029704,-0.0
 0031915,-0.00075676,-0.00907866,-0.00711592,-0.00465354,-0.00071732,-0
 .00522989,-0.00136457,0.00065162,0.00124946,-0.00030213,-0.00064873,-0
 .00015587,0.00031837,0.00013273,0.00010662,-0.00012385,0.00002408,0.00
 007673,0.00003141,-0.00002191,0.00022087,-0.00009134,-0.00009261,-0.00
 017390,0.00002570,0.00042276,-0.00010275,-0.00042167,0.00010041,-0.000
 20835,0.00009709,0.00040561,-0.00006602,0.00005932,-0.00016453,0.00015
 948,-0.00002653,0.00000902,0.00003007,-0.00006556,-0.00004527,-0.00009
 912,0.00007792,0.00000462,0.00010560,-0.00007785,-0.00028643,-0.000072
 90,-0.00010263,-0.00041971,0.00023831,0.00031187,-0.00049300,0.0012951
 1,0.00022719,0.00198052,-0.00763466,-0.00280961,-0.00000713,-0.0000248
 5,-0.00003776,0.00003338,-0.00004314,0.00006082,0.00042790,0.00024096,
 0.00041357,0.00035518,0.00134290,0.00125998,-0.00005354,-0.00025358,-0
 .00046812,0.00001484,-0.00001610,-0.00001733,-0.00002320,-0.00000918,0
 .00005514,0.00001175,-0.00003022,0.00002974,-0.00000997,-0.00005439,-0
 .00001589,0.00001673,0.00001586,0.00012497,-0.00002282,-0.00005485,-0.
 00001800,0.00011739,0.00000308,0.00001883,-0.00005458,0.00001261,-0.00
 001347,0.00000183,-0.00001207,-0.00001096,0.00002578,0.00001020,0.0000
 1784,0.00000480,0.00000378,-0.00002027,0.00002316,-0.00005641,0.000018
 69,0.00016002,0.00002479,-0.00019969,0.00007617,-0.00012323,0.00010704
 ,0.00733978,0.01778138,0.00724453,0.00001515,0.00006946,-0.00009030,0.
 00005982,-0.00003867,0.00002224,-0.00008144,-0.00002361,0.00010007,0.0
 0007332,-0.00001359,-0.00014691,0.00006640,0.00008064,0.00003638,-0.00
 057520,-0.00024724,-0.00006429,0.00026732,0.00031698,-0.00002120,-0.00
 020924,-0.00010719,0.00008696,0.00004070,0.00001190,-0.00010439,0.0000
 2051,0.00005106,0.00007184,0.00016815,0.00044254,-0.00006476,-0.000086
 28,-0.00041221,-0.00003130,-0.00044786,-0.00016167,0.00046405,-0.00244
 309,-0.00049823,-0.00056371,-0.03131895,-0.00169048,-0.03091414,0.0005
 3137,-0.00174859,0.00057428,-0.00103647,0.00027082,-0.00044769,0.00006
 501,0.00001464,0.00007985,-0.00019617,0.00025974,-0.00011829,-0.073034
 43,0.00792096,-0.07818820,0.00064579,-0.00051100,0.00056425,0.00067870
 ,0.00012956,-0.00030208,0.00006683,-0.00002658,-0.00011481,-0.00002890
 ,-0.00000495,-0.00000521,-0.00000951,0.00001624,-0.00000565,-0.0000245
 6,0.00002995,0.00004300,0.00000643,-0.00002786,0.00002827,0.00000964,0
 .00001681,-0.00000498,0.00000067,0.00000952,-0.00001584,-0.00001416,-0
 .00002227,0.00002368,-0.00000463,-0.00001990,0.00001529,-0.00000823,-0
 .00003164,-0.00001833,0.00001487,-0.00003414,0.00010278,-0.00003349,0.
 00000250,-0.00011061,-0.00069570,-0.00008587,0.00032277,-0.00072583,-0
 .00126045,-0.00089766,-0.00000637,-0.00003692,-0.00005709,0.00029171,0
 .00019998,0.00007512,0.00000975,0.00004668,-0.00004786,0.00009773,-0.0
 0011690,0.00000728,-0.00017491,0.00034536,-0.00014047,-0.00008512,-0.0
 0007030,0.00009546,-0.00006052,-0.00000118,0.00009622,0.10818970,0.000
 02715,-0.00002772,0.00001789,-0.00001851,0.00002893,-0.00001631,0.0000
 0909,-0.00000642,-0.00000547,0.00000146,-0.00001984,0.00000473,0.00000
 180,0.00004544,0.00002416,0.00006563,0.00005126,0.00003131,-0.00000116
 ,-0.00011333,0.00000071,0.00002862,0.00000265,-0.00000021,0.00000282,0
 .00000880,0.00000310,0.00002152,-0.00002640,0.00000426,0.00038403,-0.0
 0019364,-0.00001268,-0.00018961,0.00035404,-0.00001007,0.00002602,0.00
 008321,-0.00015451,-0.00067839,-0.00080842,-0.00050259,-0.02640617,0.0
 0418030,-0.03018909,0.00139057,-0.00018875,0.00032474,-0.00031549,-0.0
 0145336,0.00040885,0.00006605,-0.00002689,0.00020485,0.00028100,0.0002
 6653,-0.00005012,0.03286579,-0.04387681,0.06219426,0.00003325,-0.00003
 942,0.00019843,-0.00003876,-0.00008626,0.00007381,-0.00003840,-0.00008
 958,0.00000485,0.00000118,-0.00000253,0.00000098,-0.00000285,0.0000036
 3,-0.00000252,0.00000094,0.00001300,0.00000016,-0.00001384,0.00001444,
 -0.00000681,0.00000736,0.00000800,-0.00001249,-0.00000272,0.00000285,-
 0.00000476,-0.00000521,0.00000064,-0.00000119,-0.00002032,0.00000601,-
 0.00000362,-0.00001341,0.00001961,-0.00000458,-0.00007874,-0.00003222,
 -0.00001360,0.00003270,-0.00005392,-0.00000869,0.00023235,0.00025466,-
 0.00011653,-0.00440474,-0.00423102,-0.00119161,0.00007203,0.00028458,-
 0.00010142,-0.00007115,-0.00030377,-0.00006499,0.00003151,-0.00005763,
 -0.00004190,-0.00017590,-0.00005700,-0.00005091,0.00002490,-0.00000809
 ,0.00006659,-0.00015115,0.00010619,0.00000406,0.00004488,0.00004438,-0
 .00001708,-0.00301880,0.04591506,-0.00000533,0.00001492,-0.00009571,0.
 00003620,-0.00001414,0.00002724,-0.00005104,-0.00001945,0.00005736,0.0
 0002289,-0.00004018,-0.00013178,0.00007202,0.00017955,0.00005915,-0.00
 036718,-0.00000927,-0.00010356,0.00017344,0.00009367,-0.00009830,-0.00
 012501,-0.00008773,0.00005704,0.00003812,0.00003569,-0.00002833,0.0000
 3651,0.00001796,-0.00001240,0.00025893,0.00021543,-0.00026250,-0.00004
 419,-0.00018114,0.00002301,-0.00003259,-0.00041292,0.00009113,0.000933
 53,0.00323941,0.00007663,-0.01899438,-0.01013184,-0.01519806,0.0006021
 3,-0.00065223,-0.00219905,-0.00126860,-0.00051842,-0.00021922,0.000007
 31,-0.00019166,0.00024198,0.00008440,0.00032522,-0.00035276,-0.0912431
 5,0.04008308,-0.11687508,0.00046280,-0.00071071,-0.00018181,0.00075478
 ,0.00001464,-0.00046206,-0.00006447,-0.00017838,-0.00014599,-0.0000141
 7,-0.00000409,-0.00000535,-0.00000554,0.00001068,0.00000046,0.00001272
 ,0.00004304,0.00004078,0.00004977,-0.00002013,0.00004037,-0.00002312,0
 .00000645,-0.00000788,0.00000358,0.00000842,-0.00000649,-0.00001167,-0
 .00001745,0.00001866,-0.00001840,-0.00001490,0.00001553,-0.00003600,-0
 .00001998,0.00001143,0.00016046,0.00007978,0.00025970,-0.00011993,0.00
 001668,-0.00004930,0.00053151,0.00027970,0.00067689,-0.00135625,-0.001
 05678,-0.00130375,0.00000532,-0.00000155,-0.00012443,0.00017687,0.0001
 8828,0.00021222,-0.00003571,0.00000320,-0.00005298,-0.00001799,-0.0000
 8855,0.00000802,-0.00015739,0.00043298,0.00019569,-0.00015224,-0.00000
 880,0.00013426,0.00010321,0.00006729,0.00009600,0.10961350,-0.03098105
 ,0.13551967,-0.02054808,0.02400553,0.03987739,-0.00114692,-0.00275261,
 -0.02847290,0.00148698,0.00130790,-0.00152371,-0.00243674,0.00093353,0
 .00048787,-0.00029611,-0.00047059,-0.00004692,-0.00000142,0.00012108,0
 .00031617,-0.00044595,-0.00034421,-0.00003191,-0.00185264,0.00204456,-
 0.00132718,-0.00012662,-0.00002524,0.00014171,-0.00009738,-0.00006286,
 0.00006199,-0.00004356,-0.00003323,-0.00015887,0.00003208,0.00001003,-
 0.00000472,-0.00013719,0.00000576,0.00008951,0.00003907,-0.00003731,0.
 00000295,-0.00006674,-0.00004693,0.00002129,0.00003842,0.00004876,-0.0
 0004857,-0.00004841,-0.00003691,-0.00000193,-0.00001918,-0.00002541,0.
 00001953,0.00009507,-0.00001893,-0.00007926,0.00005555,0.00004319,-0.0
 0000260,-0.00000006,0.00006948,-0.00005318,0.00005595,0.00007132,-0.00
 019177,-0.00007182,0.00045656,-0.00003294,-0.00141488,0.00203646,-0.00
 202478,-0.00001779,-0.00018860,0.00018923,0.00057149,-0.00064122,0.000
 47958,0.00002458,-0.00061033,0.00031663,0.00003098,-0.00006756,-0.0000
 4319,0.00030985,0.00002565,-0.00037158,0.00012617,0.00002754,-0.000162
 25,0.00007469,-0.00003578,-0.00001455,0.00005465,0.00004164,-0.0000027
 7,-0.00002551,-0.00001269,0.00008397,0.00002732,0.00000728,0.00002210,
 -0.00000461,-0.00000751,0.00000805,0.00000862,-0.00000285,0.00001612,0
 .00001508,0.00000724,0.00001370,-0.00001356,0.00000254,0.00000347,-0.0
 0000500,0.00001134,0.00000772,-0.00004245,0.00004056,0.00005493,-0.000
 01136,-0.00003194,0.00001350,0.00009844,0.00006207,0.00016463,-0.00007
 882,-0.00006532,0.00005598,-0.00001790,-0.00000678,0.00000387,0.025825
 24,0.02387367,-0.02930716,-0.04884726,-0.00255724,-0.00033259,0.031348
 58,0.00130713,-0.00353476,0.00556745,0.00034819,-0.00101165,-0.0007918
 0,-0.00006606,-0.00046421,-0.00008187,0.00002512,0.00111279,0.00088925
 ,-0.00065023,-0.00100646,-0.00084249,0.00437323,-0.00239803,0.00358101
 ,-0.00003903,-0.00038223,-0.00022640,-0.00004553,0.00002578,0.00002927
 ,-0.00009973,-0.00016861,-0.00003289,0.00008699,0.00012783,-0.00002544
 ,-0.00018338,0.00006308,0.00019782,0.00003790,-0.00002390,-0.00003617,
 -0.00011069,0.00005010,0.00000791,0.00004732,-0.00006277,-0.00001984,-
 0.00000837,-0.00000872,0.00001597,0.00000966,0.00004539,-0.00005186,-0
 .00002271,-0.00010768,0.00001392,0.00006430,0.00000195,-0.00001261,0.0
 0004069,0.00000293,-0.00006664,0.00008419,-0.00021725,-0.00043598,0.00
 025752,0.00051351,-0.00044023,0.00020217,0.00045593,0.00027452,0.00018
 831,0.00005374,-0.00009557,-0.00048800,0.00003670,-0.00095048,-0.00037
 381,-0.00043325,0.00025401,0.00008467,-0.00012194,-0.00012785,-0.00053
 287,0.00015461,0.00081283,0.00012150,0.00013571,-0.00007515,0.00003730
 ,0.00005163,0.00003308,0.00003402,-0.00000644,-0.00008001,-0.00002513,
 0.00000657,0.00002842,0.00004248,0.00001750,0.00002602,-0.00001312,0.0
 0000038,0.00002086,0.00001497,-0.00000552,0.00001230,0.00001095,0.0000
 0716,0.00000926,-0.00000625,0.00000415,0.00000581,-0.00000064,0.000002
 81,0.00001297,0.00002062,0.00007279,0.00000280,-0.00002115,-0.00001007
 ,0.00003302,0.00004202,0.00011572,0.00007021,-0.00023159,-0.00016017,0
 .00015035,-0.00002541,0.00000918,0.00000545,-0.02585411,0.03669578,0.0
 1606421,-0.02249363,-0.18807614,-0.00515591,0.00775031,-0.04116580,0.0
 0006042,0.00204237,0.00320664,-0.00126141,0.00299906,-0.00260706,0.000
 36933,0.00076548,-0.00030155,0.00091987,0.00133127,0.00018110,-0.00118
 707,-0.00137031,0.00053579,-0.00007163,0.00186533,-0.00243093,-0.00027
 781,-0.00056411,-0.00078468,-0.00010708,0.00022428,0.00088535,-0.00054
 466,-0.00006030,0.00003697,0.00009066,0.00015456,0.00002829,0.00022294
 ,0.00001452,-0.00033386,-0.00005143,-0.00001660,-0.00000469,0.00020542
 ,0.00006253,-0.00000295,-0.00013108,-0.00007277,0.00001906,0.00008856,
 0.00008551,-0.00004829,-0.00004475,-0.00009064,0.00004140,-0.00006729,
 0.00008483,-0.00006595,-0.00016798,-0.00008516,-0.00007139,-0.00007599
 ,-0.00008614,0.00003986,-0.00088918,-0.00027841,0.00013608,-0.00044152
 ,-0.00065431,-0.00051572,-0.00098279,-0.00134631,0.00055434,-0.0001936
 6,-0.00033354,-0.00078917,-0.00006394,0.00041915,0.00026691,0.00021096
 ,-0.00002513,0.00043206,-0.00005161,0.00001828,-0.00010462,-0.00015307
 ,0.00006530,-0.00025910,0.00003177,-0.00021186,-0.00008216,0.00015903,
 -0.00001267,0.00002139,0.00021234,0.00003402,-0.00020783,0.00004458,-0
 .00001526,0.00008046,0.00004867,0.00003422,-0.00001428,0.00001478,0.00
 001694,0.00003989,-0.00001689,0.00000957,-0.00001200,-0.00000234,-0.00
 000148,-0.00000510,0.00003042,0.00000778,0.00001973,0.00001499,0.00000
 478,-0.00001575,0.00011190,-0.00006121,0.00003197,0.00002793,0.0000579
 9,-0.00001483,0.00057467,-0.00008568,-0.00012836,0.00023746,-0.0000162
 8,0.00018327,0.00005356,-0.00000280,0.00005454,-0.00785647,0.00983728,
 0.23124796\\0.00004006,0.00004090,-0.00001643,-0.00002696,-0.00007082,
 -0.00005236,0.00001279,0.00002564,0.00005797,0.00000934,-0.00000542,-0
 .00001507,-0.00000154,-0.00000823,-0.00000369,0.00003516,-0.00008555,0
 .00004923,-0.00010692,0.00007902,-0.00003712,0.00003306,0.00003244,0.0
 0006099,0.00005297,-0.00009112,-0.00001053,-0.00001528,0.00001186,0.00
 001770,0.00006354,-0.00000043,-0.00003952,-0.00000376,-0.00000773,0.00
 001067,-0.00000382,-0.00004844,0.00001089,-0.00000524,-0.00001143,0.00
 007602,0.00003859,0.00008822,-0.00004703,0.00000884,-0.00003359,0.0000
 2973,-0.00000853,0.00001084,-0.00005936,0.00007439,-0.00000781,0.00000
 930,-0.00003510,-0.00002727,-0.00000761,0.00002820,-0.00004769,-0.0000
 0065,0.00000478,0.00004078,-0.00004524,-0.00002816,0.00003396,-0.00002
 570,0.00001620,0.00003332,-0.00002820,-0.00000322,0.00003477,0.0000068
 5,-0.00000258,0.00000673,-0.00000803,-0.00001049,0.00000082,0.00000166
 ,0.00000256,0.00000324,0.00000843,0.00000553,0.00001710,-0.00002077,0.
 00000980,-0.00001816,-0.00000455,-0.00002812,0.00002370,-0.00002135,-0
 .00000231,0.00002501,-0.00001974,0.00000846,-0.00000767,0.00003569,0.0
 0001052,0.00000141,0.00000233,-0.00001675,0.00000764,-0.00000357,0.000
 00328,0.00000189,-0.00001285,-0.00000695,0.00000499,0.00001152,0.00000
 039,0.00000240,0.00001528,-0.00002074,-0.00001462,-0.00000381,-0.00000
 981,0.00000037,0.00001186,0.00002892,0.00000604,0.00000741,-0.00002049
 ,-0.00000108,0.00000377,-0.00006313,-0.00002438,0.00005016,-0.00002288
 ,-0.00002627,0.00001608,-0.00002367,0.00002557,-0.00001180,-0.00002090
 ,-0.00002095,0.00000143\\\@


 THE SECRET OF SUCCESS IN LIFE IS TO EAT WHAT YOU LIKE, AND LET THE FOOD
 FIGHT IT OUT INSIDE YOU. -- FROM A FORTUNE COOKIE
 Job cpu time:       0 days  0 hours  0 minutes 10.9 seconds.
 Elapsed time:       0 days  0 hours  0 minutes  0.9 seconds.
 File lengths (MBytes):  RWF=    217 Int=      0 D2E=      0 Chk=      4 Scr=      1
 Normal termination of Gaussian 16 at Tue Jun 22 14:18:22 2021.
