 Entering Gaussian System, Link 0=g09
 Initial command:
 /share/apps//g09/l1.exe "/scratch/Gau-28762.inp" -scrdir="/scratch/"
 Entering Link 1 = /share/apps//g09/l1.exe PID=     28763.
  
 Copyright (c) 1988,1990,1992,1993,1995,1998,2003,2009,2013,
            Gaussian, Inc.  All Rights Reserved.
  
 This is part of the Gaussian(R) 09 program.  It is based on
 the Gaussian(R) 03 system (copyright 2003, Gaussian, Inc.),
 the Gaussian(R) 98 system (copyright 1998, Gaussian, Inc.),
 the Gaussian(R) 94 system (copyright 1995, Gaussian, Inc.),
 the Gaussian 92(TM) system (copyright 1992, Gaussian, Inc.),
 the Gaussian 90(TM) system (copyright 1990, Gaussian, Inc.),
 the Gaussian 88(TM) system (copyright 1988, Gaussian, Inc.),
 the Gaussian 86(TM) system (copyright 1986, Carnegie Mellon
 University), and the Gaussian 82(TM) system (copyright 1983,
 Carnegie Mellon University). Gaussian is a federally registered
 trademark of Gaussian, Inc.
  
 This software contains proprietary and confidential information,
 including trade secrets, belonging to Gaussian, Inc.
  
 This software is provided under written license and may be
 used, copied, transmitted, or stored only in accord with that
 written license.
  
 The following legend is applicable only to US Government
 contracts under FAR:
  
                    RESTRICTED RIGHTS LEGEND
  
 Use, reproduction and disclosure by the US Government is
 subject to restrictions as set forth in subparagraphs (a)
 and (c) of the Commercial Computer Software - Restricted
 Rights clause in FAR 52.227-19.
  
 Gaussian, Inc.
 340 Quinnipiac St., Bldg. 40, Wallingford CT 06492
  
  
 ---------------------------------------------------------------
 Warning -- This program may not be used in any manner that
 competes with the business of Gaussian, Inc. or will provide
 assistance to any competitor of Gaussian, Inc.  The licensee
 of this program is prohibited from giving any competitor of
 Gaussian, Inc. access to this program.  By using this program,
 the user acknowledges that Gaussian, Inc. is engaged in the
 business of creating and licensing software in the field of
 computational chemistry and represents and warrants to the
 licensee that it is not a competitor of Gaussian, Inc. and that
 it will not use this program in any manner prohibited above.
 ---------------------------------------------------------------
  

 Cite this work as:
 Gaussian 09, Revision D.01,
 M. J. Frisch, G. W. Trucks, H. B. Schlegel, G. E. Scuseria, 
 M. A. Robb, J. R. Cheeseman, G. Scalmani, V. Barone, B. Mennucci, 
 G. A. Petersson, H. Nakatsuji, M. Caricato, X. Li, H. P. Hratchian, 
 A. F. Izmaylov, J. Bloino, G. Zheng, J. L. Sonnenberg, M. Hada, 
 M. Ehara, K. Toyota, R. Fukuda, J. Hasegawa, M. Ishida, T. Nakajima, 
 Y. Honda, O. Kitao, H. Nakai, T. Vreven, J. A. Montgomery, Jr., 
 J. E. Peralta, F. Ogliaro, M. Bearpark, J. J. Heyd, E. Brothers, 
 K. N. Kudin, V. N. Staroverov, T. Keith, R. Kobayashi, J. Normand, 
 K. Raghavachari, A. Rendell, J. C. Burant, S. S. Iyengar, J. Tomasi, 
 M. Cossi, N. Rega, J. M. Millam, M. Klene, J. E. Knox, J. B. Cross, 
 V. Bakken, C. Adamo, J. Jaramillo, R. Gomperts, R. E. Stratmann, 
 O. Yazyev, A. J. Austin, R. Cammi, C. Pomelli, J. W. Ochterski, 
 R. L. Martin, K. Morokuma, V. G. Zakrzewski, G. A. Voth, 
 P. Salvador, J. J. Dannenberg, S. Dapprich, A. D. Daniels, 
 O. Farkas, J. B. Foresman, J. V. Ortiz, J. Cioslowski, 
 and D. J. Fox, Gaussian, Inc., Wallingford CT, 2013.
 
 ******************************************
 Gaussian 09:  EM64L-G09RevD.01 24-Apr-2013
                 2-May-2016 
 ******************************************
 %nproc=20
 Will use up to   20 processors via shared memory.
 %mem=80GB
 %chk=Tri_A131_of.chk
 ----------------------------------------------------------------------
 #P PBE1PBE/6-311+G(d,p) opt=ModRedundant freq optcyc=999 EmpiricalDisp
 ersion=GD3
 ----------------------------------------------------------------------
 1/6=999,14=-1,18=120,19=15,26=3,38=1/1,3;
 2/9=110,12=2,17=6,18=5,40=1/2;
 3/5=4,6=6,7=111,11=2,16=1,25=1,30=1,71=1,74=-13,124=31/1,2,3;
 4//1;
 5/5=2,38=5/2;
 6/7=2,8=2,9=2,10=2,28=1/1;
 7//1,2,3,16;
 1/6=999,14=-1,18=20,19=15,26=3/3(2);
 2/9=110/2;
 99//99;
 2/9=110/2;
 3/5=4,6=6,7=111,11=2,16=1,25=1,30=1,71=1,74=-13,124=31/1,2,3;
 4/5=5,16=3,69=1/1;
 5/5=2,38=5/2;
 7//1,2,3,16;
 1/6=999,14=-1,18=20,19=15,26=3/3(-5);
 2/9=110/2;
 6/7=2,8=2,9=2,10=2,19=2,28=1/1;
 99/9=1/99;
 Leave Link    1 at Mon May  2 01:19:18 2016, MaxMem= 10737418240 cpu:         2.0
 (Enter /share/apps//g09/l101.exe)
 -----
 trich
 -----
 Symbolic Z-matrix:
 Charge =  1 Multiplicity = 1
 O                     0.00009  -1.31143   8.1673 
 C                    -0.40534  -0.32963   7.20987 
 C                     0.68054  -0.17954   6.12171 
 C                     0.9657   -1.53765   5.46829 
 C                     1.27176  -2.59727   6.54134 
 C                     0.14797  -2.62331   7.57567 
 H                    -0.51586   0.59874   7.79084 
 H                     1.59786   0.16656   6.62766 
 H                     0.08755  -1.84695   4.87965 
 H                     1.35003  -3.58288   6.05862 
 H                    -0.78696  -2.90714   7.06774 
 O                     2.57288  -2.345     7.09992 
 O                     2.06669  -1.45291   4.54871 
 O                     0.31041   0.76954   5.10679 
 O                    -1.61135  -0.6564    6.55323 
 C                     0.34995  -3.61857   8.71331 
 H                     1.33842  -3.48542   9.18301 
 H                    -0.42899  -3.43373   9.47197 
 O                     0.2224   -4.92616   8.1354 
 H                     0.6134   -5.56961   8.74825 
 H                     2.46518  -1.7069    7.83171 
 H                     2.87805  -1.59732   5.07864 
 H                     0.62347   1.64511   5.39043 
 O                    -3.98128  -0.64066   4.93466 
 C                    -4.39513  -1.7285    5.76407 
 C                    -3.736    -1.66169   7.18 
 C                    -2.80761  -0.44965   7.33663 
 C                    -3.51036   0.83615   6.89339 
 C                    -4.17806   0.66588   5.4864 
 H                    -5.49224  -1.69574   5.90349 
 H                    -3.15183  -2.57807   7.34074 
 H                    -2.54015  -0.37237   8.40101 
 H                    -4.30211   1.03155   7.63274 
 H                    -5.26543   0.85334   5.59615 
 O                    -2.53494   1.89964   6.93172 
 O                    -4.74202  -1.51443   8.19182 
 O                    -4.16675  -2.91446   5.0475 
 C                    -3.65083   1.62447   4.42024 
 H                    -4.27367   1.52648   3.52075 
 H                    -3.72195   2.66541   4.77203 
 O                    -2.31415   1.31874   4.00373 
 H                    -1.72832   1.29573   4.79136 
 H                    -2.96833   2.70099   7.26614 
 H                    -5.09675  -2.39646   8.39529 
 O                    -1.27592  -3.76145   2.91197 
 C                    -1.06179  -5.12129   3.32271 
 C                    -1.1781   -5.20817   4.8426 
 C                    -2.50798  -4.64279   5.33885 
 C                    -2.79539  -3.25639   4.74637 
 C                    -2.59995  -3.2908    3.21438 
 H                    -1.80708  -5.77781   2.82311 
 H                    -0.3507   -4.60014   5.25048 
 H                    -3.31882  -5.32519   5.01478 
 H                    -3.35937  -3.97328   2.77998 
 H                    -2.11249  -2.50507   5.17095 
 O                    -2.50656  -4.55187   6.76585 
 O                    -1.09917  -6.54665   5.32594 
 O                     0.24252  -5.47634   2.99033 
 C                    -2.74158  -1.94883   2.50802 
 H                    -2.66181  -2.12518   1.42301 
 H                    -3.7291   -1.52356   2.72477 
 O                    -1.71228  -1.03222   2.89894 
 H                    -2.08694  -0.22918   3.36674 
 H                    -1.92605  -5.2621    7.10479 
 H                    -0.20483  -6.87605   5.12587 
 C                     0.48729  -5.65092   1.57249 
 H                     0.50095  -6.73085   1.35177 
 H                    -0.33401  -5.19285   1.0004 
 C                     1.8289   -5.01898   1.21983 
 H                     2.02763  -5.22205   0.15387 
 H                     2.61783  -5.53961   1.78472 
 C                     1.92861  -3.51223   1.50568 
 H                     1.72279  -3.35285   2.57578 
 H                     2.97174  -3.19699   1.33463 
 C                     0.99333  -2.64909   0.64767 
 H                     1.15649  -2.87228  -0.41964 
 H                    -0.05742  -2.89639   0.86462 
 C                     1.19132  -1.14463   0.80922 
 H                     0.55964  -0.59159   0.10117 
 H                     2.23736  -0.85604   0.62976 
 N                     0.81889  -0.66698   2.1844 
 H                     0.90502   0.3528    2.26425 
 H                     1.42996  -1.06194   2.93463 
 H                    -0.20632  -0.89817   2.4272 
 
 The following ModRedundant input section has been read:
 B      45      84 B                                                           
 B      58      84 B                                                           
 B      56      84 B                                                           
 B      41      82 B                                                           
 B      62      82 B                                                           
 B      35      82 B                                                           
 B      13      83 B                                                           
 B      19      83 B                                                           
 B      14      83 B                                                           
 
 NAtoms=     84 NQM=       84 NQMF=       0 NMMI=      0 NMMIF=      0
                NMic=       0 NMicF=      0.
                    Isotopes and Nuclear Properties:
 (Nuclear quadrupole moments (NQMom) in fm**2, nuclear magnetic moments (NMagM)
  in nuclear magnetons)

  Atom         1           2           3           4           5           6           7           8           9          10
 IAtWgt=          16          12          12          12          12          12           1           1           1           1
 AtmWgt=  15.9949146  12.0000000  12.0000000  12.0000000  12.0000000  12.0000000   1.0078250   1.0078250   1.0078250   1.0078250
 NucSpn=           0           0           0           0           0           0           1           1           1           1
 AtZEff=   0.0000000   0.0000000   0.0000000   0.0000000   0.0000000   0.0000000   0.0000000   0.0000000   0.0000000   0.0000000
 NQMom=    0.0000000   0.0000000   0.0000000   0.0000000   0.0000000   0.0000000   0.0000000   0.0000000   0.0000000   0.0000000
 NMagM=    0.0000000   0.0000000   0.0000000   0.0000000   0.0000000   0.0000000   2.7928460   2.7928460   2.7928460   2.7928460
 AtZNuc=   8.0000000   6.0000000   6.0000000   6.0000000   6.0000000   6.0000000   1.0000000   1.0000000   1.0000000   1.0000000

  Atom        11          12          13          14          15          16          17          18          19          20
 IAtWgt=           1          16          16          16          16          12           1           1          16           1
 AtmWgt=   1.0078250  15.9949146  15.9949146  15.9949146  15.9949146  12.0000000   1.0078250   1.0078250  15.9949146   1.0078250
 NucSpn=           1           0           0           0           0           0           1           1           0           1
 AtZEff=   0.0000000   0.0000000   0.0000000   0.0000000   0.0000000   0.0000000   0.0000000   0.0000000   0.0000000   0.0000000
 NQMom=    0.0000000   0.0000000   0.0000000   0.0000000   0.0000000   0.0000000   0.0000000   0.0000000   0.0000000   0.0000000
 NMagM=    2.7928460   0.0000000   0.0000000   0.0000000   0.0000000   0.0000000   2.7928460   2.7928460   0.0000000   2.7928460
 AtZNuc=   1.0000000   8.0000000   8.0000000   8.0000000   8.0000000   6.0000000   1.0000000   1.0000000   8.0000000   1.0000000

  Atom        21          22          23          24          25          26          27          28          29          30
 IAtWgt=           1           1           1          16          12          12          12          12          12           1
 AtmWgt=   1.0078250   1.0078250   1.0078250  15.9949146  12.0000000  12.0000000  12.0000000  12.0000000  12.0000000   1.0078250
 NucSpn=           1           1           1           0           0           0           0           0           0           1
 AtZEff=   0.0000000   0.0000000   0.0000000   0.0000000   0.0000000   0.0000000   0.0000000   0.0000000   0.0000000   0.0000000
 NQMom=    0.0000000   0.0000000   0.0000000   0.0000000   0.0000000   0.0000000   0.0000000   0.0000000   0.0000000   0.0000000
 NMagM=    2.7928460   2.7928460   2.7928460   0.0000000   0.0000000   0.0000000   0.0000000   0.0000000   0.0000000   2.7928460
 AtZNuc=   1.0000000   1.0000000   1.0000000   8.0000000   6.0000000   6.0000000   6.0000000   6.0000000   6.0000000   1.0000000

  Atom        31          32          33          34          35          36          37          38          39          40
 IAtWgt=           1           1           1           1          16          16          16          12           1           1
 AtmWgt=   1.0078250   1.0078250   1.0078250   1.0078250  15.9949146  15.9949146  15.9949146  12.0000000   1.0078250   1.0078250
 NucSpn=           1           1           1           1           0           0           0           0           1           1
 AtZEff=   0.0000000   0.0000000   0.0000000   0.0000000   0.0000000   0.0000000   0.0000000   0.0000000   0.0000000   0.0000000
 NQMom=    0.0000000   0.0000000   0.0000000   0.0000000   0.0000000   0.0000000   0.0000000   0.0000000   0.0000000   0.0000000
 NMagM=    2.7928460   2.7928460   2.7928460   2.7928460   0.0000000   0.0000000   0.0000000   0.0000000   2.7928460   2.7928460
 AtZNuc=   1.0000000   1.0000000   1.0000000   1.0000000   8.0000000   8.0000000   8.0000000   6.0000000   1.0000000   1.0000000

  Atom        41          42          43          44          45          46          47          48          49          50
 IAtWgt=          16           1           1           1          16          12          12          12          12          12
 AtmWgt=  15.9949146   1.0078250   1.0078250   1.0078250  15.9949146  12.0000000  12.0000000  12.0000000  12.0000000  12.0000000
 NucSpn=           0           1           1           1           0           0           0           0           0           0
 AtZEff=   0.0000000   0.0000000   0.0000000   0.0000000   0.0000000   0.0000000   0.0000000   0.0000000   0.0000000   0.0000000
 NQMom=    0.0000000   0.0000000   0.0000000   0.0000000   0.0000000   0.0000000   0.0000000   0.0000000   0.0000000   0.0000000
 NMagM=    0.0000000   2.7928460   2.7928460   2.7928460   0.0000000   0.0000000   0.0000000   0.0000000   0.0000000   0.0000000
 AtZNuc=   8.0000000   1.0000000   1.0000000   1.0000000   8.0000000   6.0000000   6.0000000   6.0000000   6.0000000   6.0000000

  Atom        51          52          53          54          55          56          57          58          59          60
 IAtWgt=           1           1           1           1           1          16          16          16          12           1
 AtmWgt=   1.0078250   1.0078250   1.0078250   1.0078250   1.0078250  15.9949146  15.9949146  15.9949146  12.0000000   1.0078250
 NucSpn=           1           1           1           1           1           0           0           0           0           1
 AtZEff=   0.0000000   0.0000000   0.0000000   0.0000000   0.0000000   0.0000000   0.0000000   0.0000000   0.0000000   0.0000000
 NQMom=    0.0000000   0.0000000   0.0000000   0.0000000   0.0000000   0.0000000   0.0000000   0.0000000   0.0000000   0.0000000
 NMagM=    2.7928460   2.7928460   2.7928460   2.7928460   2.7928460   0.0000000   0.0000000   0.0000000   0.0000000   2.7928460
 AtZNuc=   1.0000000   1.0000000   1.0000000   1.0000000   1.0000000   8.0000000   8.0000000   8.0000000   6.0000000   1.0000000

  Atom        61          62          63          64          65          66          67          68          69          70
 IAtWgt=           1          16           1           1           1          12           1           1          12           1
 AtmWgt=   1.0078250  15.9949146   1.0078250   1.0078250   1.0078250  12.0000000   1.0078250   1.0078250  12.0000000   1.0078250
 NucSpn=           1           0           1           1           1           0           1           1           0           1
 AtZEff=   0.0000000   0.0000000   0.0000000   0.0000000   0.0000000   0.0000000   0.0000000   0.0000000   0.0000000   0.0000000
 NQMom=    0.0000000   0.0000000   0.0000000   0.0000000   0.0000000   0.0000000   0.0000000   0.0000000   0.0000000   0.0000000
 NMagM=    2.7928460   0.0000000   2.7928460   2.7928460   2.7928460   0.0000000   2.7928460   2.7928460   0.0000000   2.7928460
 AtZNuc=   1.0000000   8.0000000   1.0000000   1.0000000   1.0000000   6.0000000   1.0000000   1.0000000   6.0000000   1.0000000

  Atom        71          72          73          74          75          76          77          78          79          80
 IAtWgt=           1          12           1           1          12           1           1          12           1           1
 AtmWgt=   1.0078250  12.0000000   1.0078250   1.0078250  12.0000000   1.0078250   1.0078250  12.0000000   1.0078250   1.0078250
 NucSpn=           1           0           1           1           0           1           1           0           1           1
 AtZEff=   0.0000000   0.0000000   0.0000000   0.0000000   0.0000000   0.0000000   0.0000000   0.0000000   0.0000000   0.0000000
 NQMom=    0.0000000   0.0000000   0.0000000   0.0000000   0.0000000   0.0000000   0.0000000   0.0000000   0.0000000   0.0000000
 NMagM=    2.7928460   0.0000000   2.7928460   2.7928460   0.0000000   2.7928460   2.7928460   0.0000000   2.7928460   2.7928460
 AtZNuc=   1.0000000   6.0000000   1.0000000   1.0000000   6.0000000   1.0000000   1.0000000   6.0000000   1.0000000   1.0000000

  Atom        81          82          83          84
 IAtWgt=          14           1           1           1
 AtmWgt=  14.0030740   1.0078250   1.0078250   1.0078250
 NucSpn=           2           1           1           1
 AtZEff=   0.0000000   0.0000000   0.0000000   0.0000000
 NQMom=    2.0440000   0.0000000   0.0000000   0.0000000
 NMagM=    0.4037610   2.7928460   2.7928460   2.7928460
 AtZNuc=   7.0000000   1.0000000   1.0000000   1.0000000
 Leave Link  101 at Mon May  2 01:19:19 2016, MaxMem= 10737418240 cpu:         3.2
 (Enter /share/apps//g09/l103.exe)

 GradGradGradGradGradGradGradGradGradGradGradGradGradGradGradGradGradGrad
 Berny optimization.
 Initialization pass.
                           ----------------------------
                           !    Initial Parameters    !
                           ! (Angstroms and Degrees)  !
 --------------------------                            --------------------------
 ! Name  Definition              Value          Derivative Info.                !
 --------------------------------------------------------------------------------
 ! R1    R(1,2)                  1.43           estimate D2E/DX2                !
 ! R2    R(1,6)                  1.4467         estimate D2E/DX2                !
 ! R3    R(2,3)                  1.5446         estimate D2E/DX2                !
 ! R4    R(2,7)                  1.1007         estimate D2E/DX2                !
 ! R5    R(2,15)                 1.4115         estimate D2E/DX2                !
 ! R6    R(3,4)                  1.5339         estimate D2E/DX2                !
 ! R7    R(3,8)                  1.1033         estimate D2E/DX2                !
 ! R8    R(3,14)                 1.438          estimate D2E/DX2                !
 ! R9    R(4,5)                  1.5388         estimate D2E/DX2                !
 ! R10   R(4,9)                  1.1015         estimate D2E/DX2                !
 ! R11   R(4,13)                 1.437          estimate D2E/DX2                !
 ! R12   R(5,6)                  1.5276         estimate D2E/DX2                !
 ! R13   R(5,10)                 1.1003         estimate D2E/DX2                !
 ! R14   R(5,12)                 1.4383         estimate D2E/DX2                !
 ! R15   R(6,11)                 1.1012         estimate D2E/DX2                !
 ! R16   R(6,16)                 1.525          estimate D2E/DX2                !
 ! R17   R(12,21)                0.9769         estimate D2E/DX2                !
 ! R18   R(13,22)                0.9798         estimate D2E/DX2                !
 ! R19   R(13,83)                1.7786         estimate D2E/DX2                !
 ! R20   R(14,23)                0.9722         estimate D2E/DX2                !
 ! R21   R(14,83)                3.0538         estimate D2E/DX2                !
 ! R22   R(15,27)                1.4448         estimate D2E/DX2                !
 ! R23   R(16,17)                1.1025         estimate D2E/DX2                !
 ! R24   R(16,18)                1.1029         estimate D2E/DX2                !
 ! R25   R(16,19)                1.4353         estimate D2E/DX2                !
 ! R26   R(19,20)                0.9708         estimate D2E/DX2                !
 ! R27   R(19,83)                6.5908         estimate D2E/DX2                !
 ! R28   R(24,25)                1.4292         estimate D2E/DX2                !
 ! R29   R(24,29)                1.4318         estimate D2E/DX2                !
 ! R30   R(25,26)                1.5633         estimate D2E/DX2                !
 ! R31   R(25,30)                1.1064         estimate D2E/DX2                !
 ! R32   R(25,37)                1.4043         estimate D2E/DX2                !
 ! R33   R(26,27)                1.5348         estimate D2E/DX2                !
 ! R34   R(26,31)                1.0986         estimate D2E/DX2                !
 ! R35   R(26,36)                1.4344         estimate D2E/DX2                !
 ! R36   R(27,28)                1.5309         estimate D2E/DX2                !
 ! R37   R(27,32)                1.1002         estimate D2E/DX2                !
 ! R38   R(28,29)                1.5667         estimate D2E/DX2                !
 ! R39   R(28,33)                1.1008         estimate D2E/DX2                !
 ! R40   R(28,35)                1.4436         estimate D2E/DX2                !
 ! R41   R(29,34)                1.1089         estimate D2E/DX2                !
 ! R42   R(29,38)                1.5276         estimate D2E/DX2                !
 ! R43   R(35,43)                0.9705         estimate D2E/DX2                !
 ! R44   R(35,82)                6.0009         estimate D2E/DX2                !
 ! R45   R(36,44)                0.9722         estimate D2E/DX2                !
 ! R46   R(37,49)                1.4451         estimate D2E/DX2                !
 ! R47   R(38,39)                1.0985         estimate D2E/DX2                !
 ! R48   R(38,40)                1.1011         estimate D2E/DX2                !
 ! R49   R(38,41)                1.4331         estimate D2E/DX2                !
 ! R50   R(41,42)                0.9819         estimate D2E/DX2                !
 ! R51   R(41,82)                3.7844         estimate D2E/DX2                !
 ! R52   R(45,46)                1.4366         estimate D2E/DX2                !
 ! R53   R(45,50)                1.4374         estimate D2E/DX2                !
 ! R54   R(45,84)                3.0947         estimate D2E/DX2                !
 ! R55   R(46,47)                1.5268         estimate D2E/DX2                !
 ! R56   R(46,51)                1.1118         estimate D2E/DX2                !
 ! R57   R(46,58)                1.392          estimate D2E/DX2                !
 ! R58   R(47,48)                1.5279         estimate D2E/DX2                !
 ! R59   R(47,52)                1.1048         estimate D2E/DX2                !
 ! R60   R(47,57)                1.4253         estimate D2E/DX2                !
 ! R61   R(48,49)                1.5348         estimate D2E/DX2                !
 ! R62   R(48,53)                1.1082         estimate D2E/DX2                !
 ! R63   R(48,56)                1.4299         estimate D2E/DX2                !
 ! R64   R(49,50)                1.5448         estimate D2E/DX2                !
 ! R65   R(49,55)                1.1005         estimate D2E/DX2                !
 ! R66   R(50,54)                1.1096         estimate D2E/DX2                !
 ! R67   R(50,59)                1.5231         estimate D2E/DX2                !
 ! R68   R(56,64)                0.9779         estimate D2E/DX2                !
 ! R69   R(56,84)                6.1208         estimate D2E/DX2                !
 ! R70   R(57,65)                0.9738         estimate D2E/DX2                !
 ! R71   R(58,66)                1.4494         estimate D2E/DX2                !
 ! R72   R(58,84)                4.6345         estimate D2E/DX2                !
 ! R73   R(59,60)                1.1021         estimate D2E/DX2                !
 ! R74   R(59,61)                1.0968         estimate D2E/DX2                !
 ! R75   R(59,62)                1.4326         estimate D2E/DX2                !
 ! R76   R(62,63)                1.002          estimate D2E/DX2                !
 ! R77   R(62,82)                3.0284         estimate D2E/DX2                !
 ! R78   R(66,67)                1.1023         estimate D2E/DX2                !
 ! R79   R(66,68)                1.1007         estimate D2E/DX2                !
 ! R80   R(66,69)                1.5243         estimate D2E/DX2                !
 ! R81   R(69,70)                1.1032         estimate D2E/DX2                !
 ! R82   R(69,71)                1.1012         estimate D2E/DX2                !
 ! R83   R(69,72)                1.5369         estimate D2E/DX2                !
 ! R84   R(72,73)                1.1013         estimate D2E/DX2                !
 ! R85   R(72,74)                1.1031         estimate D2E/DX2                !
 ! R86   R(72,75)                1.5349         estimate D2E/DX2                !
 ! R87   R(75,76)                1.1025         estimate D2E/DX2                !
 ! R88   R(75,77)                1.101          estimate D2E/DX2                !
 ! R89   R(75,78)                1.526          estimate D2E/DX2                !
 ! R90   R(78,79)                1.0983         estimate D2E/DX2                !
 ! R91   R(78,80)                1.0999         estimate D2E/DX2                !
 ! R92   R(78,81)                1.5027         estimate D2E/DX2                !
 ! R93   R(81,82)                1.0265         estimate D2E/DX2                !
 ! R94   R(81,83)                1.0451         estimate D2E/DX2                !
 ! R95   R(81,84)                1.0786         estimate D2E/DX2                !
 ! A1    A(2,1,6)              112.195          estimate D2E/DX2                !
 ! A2    A(1,2,3)              109.8204         estimate D2E/DX2                !
 ! A3    A(1,2,7)              104.7229         estimate D2E/DX2                !
 ! A4    A(1,2,15)             113.2505         estimate D2E/DX2                !
 ! A5    A(3,2,7)              111.129          estimate D2E/DX2                !
 ! A6    A(3,2,15)             107.1831         estimate D2E/DX2                !
 ! A7    A(7,2,15)             110.7932         estimate D2E/DX2                !
 ! A8    A(2,3,4)              110.168          estimate D2E/DX2                !
 ! A9    A(2,3,8)              106.9737         estimate D2E/DX2                !
 ! A10   A(2,3,14)             112.359          estimate D2E/DX2                !
 ! A11   A(4,3,8)              108.5744         estimate D2E/DX2                !
 ! A12   A(4,3,14)             109.364          estimate D2E/DX2                !
 ! A13   A(8,3,14)             109.307          estimate D2E/DX2                !
 ! A14   A(3,4,5)              110.4639         estimate D2E/DX2                !
 ! A15   A(3,4,9)              109.1512         estimate D2E/DX2                !
 ! A16   A(3,4,13)             111.2742         estimate D2E/DX2                !
 ! A17   A(5,4,9)              109.7464         estimate D2E/DX2                !
 ! A18   A(5,4,13)             109.5397         estimate D2E/DX2                !
 ! A19   A(9,4,13)             106.5825         estimate D2E/DX2                !
 ! A20   A(4,5,6)              109.73           estimate D2E/DX2                !
 ! A21   A(4,5,10)             108.9689         estimate D2E/DX2                !
 ! A22   A(4,5,12)             109.2673         estimate D2E/DX2                !
 ! A23   A(6,5,10)             109.52           estimate D2E/DX2                !
 ! A24   A(6,5,12)             113.9257         estimate D2E/DX2                !
 ! A25   A(10,5,12)            105.2577         estimate D2E/DX2                !
 ! A26   A(1,6,5)              109.6729         estimate D2E/DX2                !
 ! A27   A(1,6,11)             109.6073         estimate D2E/DX2                !
 ! A28   A(1,6,16)             107.4743         estimate D2E/DX2                !
 ! A29   A(5,6,11)             108.4618         estimate D2E/DX2                !
 ! A30   A(5,6,16)             114.7599         estimate D2E/DX2                !
 ! A31   A(11,6,16)            106.7579         estimate D2E/DX2                !
 ! A32   A(5,12,21)            107.8046         estimate D2E/DX2                !
 ! A33   A(4,13,22)            106.2398         estimate D2E/DX2                !
 ! A34   A(4,13,83)            108.627          estimate D2E/DX2                !
 ! A35   A(22,13,83)           145.0518         estimate D2E/DX2                !
 ! A36   A(3,14,23)            107.7955         estimate D2E/DX2                !
 ! A37   A(3,14,83)             90.6781         estimate D2E/DX2                !
 ! A38   A(23,14,83)           129.0219         estimate D2E/DX2                !
 ! A39   A(2,15,27)            114.9641         estimate D2E/DX2                !
 ! A40   A(6,16,17)            110.9629         estimate D2E/DX2                !
 ! A41   A(6,16,18)            108.0728         estimate D2E/DX2                !
 ! A42   A(6,16,19)            106.4053         estimate D2E/DX2                !
 ! A43   A(17,16,18)           108.658          estimate D2E/DX2                !
 ! A44   A(17,16,19)           111.1773         estimate D2E/DX2                !
 ! A45   A(18,16,19)           111.5231         estimate D2E/DX2                !
 ! A46   A(16,19,20)           108.2916         estimate D2E/DX2                !
 ! A47   A(16,19,83)            76.5439         estimate D2E/DX2                !
 ! A48   A(20,19,83)           144.3841         estimate D2E/DX2                !
 ! A49   A(25,24,29)           115.5391         estimate D2E/DX2                !
 ! A50   A(24,25,26)           111.7784         estimate D2E/DX2                !
 ! A51   A(24,25,30)           109.7383         estimate D2E/DX2                !
 ! A52   A(24,25,37)           107.4329         estimate D2E/DX2                !
 ! A53   A(26,25,30)           107.6193         estimate D2E/DX2                !
 ! A54   A(26,25,37)           115.4481         estimate D2E/DX2                !
 ! A55   A(30,25,37)           104.5107         estimate D2E/DX2                !
 ! A56   A(25,26,27)           112.4106         estimate D2E/DX2                !
 ! A57   A(25,26,31)           108.7287         estimate D2E/DX2                !
 ! A58   A(25,26,36)           110.3396         estimate D2E/DX2                !
 ! A59   A(27,26,31)           108.7937         estimate D2E/DX2                !
 ! A60   A(27,26,36)           105.7349         estimate D2E/DX2                !
 ! A61   A(31,26,36)           110.8162         estimate D2E/DX2                !
 ! A62   A(15,27,26)           109.4206         estimate D2E/DX2                !
 ! A63   A(15,27,28)           110.0767         estimate D2E/DX2                !
 ! A64   A(15,27,32)           109.4714         estimate D2E/DX2                !
 ! A65   A(26,27,28)           110.8588         estimate D2E/DX2                !
 ! A66   A(26,27,32)           107.5334         estimate D2E/DX2                !
 ! A67   A(28,27,32)           109.4333         estimate D2E/DX2                !
 ! A68   A(27,28,29)           111.3696         estimate D2E/DX2                !
 ! A69   A(27,28,33)           106.5472         estimate D2E/DX2                !
 ! A70   A(27,28,35)           107.5115         estimate D2E/DX2                !
 ! A71   A(29,28,33)           108.4186         estimate D2E/DX2                !
 ! A72   A(29,28,35)           113.0721         estimate D2E/DX2                !
 ! A73   A(33,28,35)           109.7185         estimate D2E/DX2                !
 ! A74   A(24,29,28)           112.7469         estimate D2E/DX2                !
 ! A75   A(24,29,34)           109.097          estimate D2E/DX2                !
 ! A76   A(24,29,38)           104.8464         estimate D2E/DX2                !
 ! A77   A(28,29,34)           108.0998         estimate D2E/DX2                !
 ! A78   A(28,29,38)           114.2993         estimate D2E/DX2                !
 ! A79   A(34,29,38)           107.5442         estimate D2E/DX2                !
 ! A80   A(28,35,43)           108.4042         estimate D2E/DX2                !
 ! A81   A(28,35,82)           100.1825         estimate D2E/DX2                !
 ! A82   A(43,35,82)           137.4645         estimate D2E/DX2                !
 ! A83   A(26,36,44)           108.0825         estimate D2E/DX2                !
 ! A84   A(25,37,49)           117.4185         estimate D2E/DX2                !
 ! A85   A(29,38,39)           108.653          estimate D2E/DX2                !
 ! A86   A(29,38,40)           110.3627         estimate D2E/DX2                !
 ! A87   A(29,38,41)           113.0104         estimate D2E/DX2                !
 ! A88   A(39,38,40)           108.0191         estimate D2E/DX2                !
 ! A89   A(39,38,41)           105.7743         estimate D2E/DX2                !
 ! A90   A(40,38,41)           110.7809         estimate D2E/DX2                !
 ! A91   A(38,41,42)           109.1698         estimate D2E/DX2                !
 ! A92   A(42,41,82)            81.6744         estimate D2E/DX2                !
 ! A93   A(46,45,50)           112.7742         estimate D2E/DX2                !
 ! A94   A(46,45,84)           150.35           estimate D2E/DX2                !
 ! A95   A(50,45,84)            92.7727         estimate D2E/DX2                !
 ! A96   A(45,46,47)           109.0947         estimate D2E/DX2                !
 ! A97   A(45,46,51)           109.3032         estimate D2E/DX2                !
 ! A98   A(45,46,58)           108.2298         estimate D2E/DX2                !
 ! A99   A(47,46,51)           111.2637         estimate D2E/DX2                !
 ! A100  A(47,46,58)           107.1309         estimate D2E/DX2                !
 ! A101  A(51,46,58)           111.7277         estimate D2E/DX2                !
 ! A102  A(46,47,48)           111.6273         estimate D2E/DX2                !
 ! A103  A(46,47,52)           106.2089         estimate D2E/DX2                !
 ! A104  A(46,47,57)           112.7559         estimate D2E/DX2                !
 ! A105  A(48,47,52)           109.1644         estimate D2E/DX2                !
 ! A106  A(48,47,57)           106.5924         estimate D2E/DX2                !
 ! A107  A(52,47,57)           110.4969         estimate D2E/DX2                !
 ! A108  A(47,48,49)           111.8303         estimate D2E/DX2                !
 ! A109  A(47,48,53)           108.3005         estimate D2E/DX2                !
 ! A110  A(47,48,56)           110.2916         estimate D2E/DX2                !
 ! A111  A(49,48,53)           107.8375         estimate D2E/DX2                !
 ! A112  A(49,48,56)           109.1468         estimate D2E/DX2                !
 ! A113  A(53,48,56)           109.3727         estimate D2E/DX2                !
 ! A114  A(37,49,48)           108.1194         estimate D2E/DX2                !
 ! A115  A(37,49,50)           109.3897         estimate D2E/DX2                !
 ! A116  A(37,49,55)           110.3007         estimate D2E/DX2                !
 ! A117  A(48,49,50)           109.8166         estimate D2E/DX2                !
 ! A118  A(48,49,55)           110.5822         estimate D2E/DX2                !
 ! A119  A(50,49,55)           108.6212         estimate D2E/DX2                !
 ! A120  A(45,50,49)           109.4195         estimate D2E/DX2                !
 ! A121  A(45,50,54)           110.2844         estimate D2E/DX2                !
 ! A122  A(45,50,59)           106.0562         estimate D2E/DX2                !
 ! A123  A(49,50,54)           108.3827         estimate D2E/DX2                !
 ! A124  A(49,50,59)           115.3741         estimate D2E/DX2                !
 ! A125  A(54,50,59)           107.2607         estimate D2E/DX2                !
 ! A126  A(48,56,64)           107.476          estimate D2E/DX2                !
 ! A127  A(48,56,84)            48.0046         estimate D2E/DX2                !
 ! A128  A(64,56,84)           117.1376         estimate D2E/DX2                !
 ! A129  A(47,57,65)           107.3878         estimate D2E/DX2                !
 ! A130  A(46,58,66)           114.995          estimate D2E/DX2                !
 ! A131  A(46,58,84)            71.7181         estimate D2E/DX2                !
 ! A132  A(66,58,84)            90.9442         estimate D2E/DX2                !
 ! A133  A(50,59,60)           107.9896         estimate D2E/DX2                !
 ! A134  A(50,59,61)           109.4928         estimate D2E/DX2                !
 ! A135  A(50,59,62)           111.7378         estimate D2E/DX2                !
 ! A136  A(60,59,61)           108.7687         estimate D2E/DX2                !
 ! A137  A(60,59,62)           108.6024         estimate D2E/DX2                !
 ! A138  A(61,59,62)           110.1739         estimate D2E/DX2                !
 ! A139  A(59,62,63)           111.8081         estimate D2E/DX2                !
 ! A140  A(59,62,82)           148.9093         estimate D2E/DX2                !
 ! A141  A(63,62,82)            93.1222         estimate D2E/DX2                !
 ! A142  A(58,66,67)           108.4194         estimate D2E/DX2                !
 ! A143  A(58,66,68)           109.4079         estimate D2E/DX2                !
 ! A144  A(58,66,69)           108.9668         estimate D2E/DX2                !
 ! A145  A(67,66,68)           108.232          estimate D2E/DX2                !
 ! A146  A(67,66,69)           110.4205         estimate D2E/DX2                !
 ! A147  A(68,66,69)           111.3414         estimate D2E/DX2                !
 ! A148  A(66,69,70)           107.8052         estimate D2E/DX2                !
 ! A149  A(66,69,71)           108.4137         estimate D2E/DX2                !
 ! A150  A(66,69,72)           114.8669         estimate D2E/DX2                !
 ! A151  A(70,69,71)           106.2358         estimate D2E/DX2                !
 ! A152  A(70,69,72)           110.3958         estimate D2E/DX2                !
 ! A153  A(71,69,72)           108.762          estimate D2E/DX2                !
 ! A154  A(69,72,73)           108.0884         estimate D2E/DX2                !
 ! A155  A(69,72,74)           108.2219         estimate D2E/DX2                !
 ! A156  A(69,72,75)           114.0678         estimate D2E/DX2                !
 ! A157  A(73,72,74)           106.6215         estimate D2E/DX2                !
 ! A158  A(73,72,75)           110.3589         estimate D2E/DX2                !
 ! A159  A(74,72,75)           109.1984         estimate D2E/DX2                !
 ! A160  A(72,75,76)           109.702          estimate D2E/DX2                !
 ! A161  A(72,75,77)           110.1852         estimate D2E/DX2                !
 ! A162  A(72,75,78)           114.5926         estimate D2E/DX2                !
 ! A163  A(76,75,77)           106.6487         estimate D2E/DX2                !
 ! A164  A(76,75,78)           106.4308         estimate D2E/DX2                !
 ! A165  A(77,75,78)           108.9287         estimate D2E/DX2                !
 ! A166  A(75,78,79)           110.7058         estimate D2E/DX2                !
 ! A167  A(75,78,80)           111.3956         estimate D2E/DX2                !
 ! A168  A(75,78,81)           112.2166         estimate D2E/DX2                !
 ! A169  A(79,78,80)           108.0408         estimate D2E/DX2                !
 ! A170  A(79,78,81)           106.7015         estimate D2E/DX2                !
 ! A171  A(80,78,81)           107.5561         estimate D2E/DX2                !
 ! A172  A(78,81,82)           111.4799         estimate D2E/DX2                !
 ! A173  A(78,81,83)           113.0734         estimate D2E/DX2                !
 ! A174  A(78,81,84)           111.9282         estimate D2E/DX2                !
 ! A175  A(82,81,83)           105.696          estimate D2E/DX2                !
 ! A176  A(82,81,84)           105.972          estimate D2E/DX2                !
 ! A177  A(83,81,84)           108.2491         estimate D2E/DX2                !
 ! A178  A(35,82,41)            24.3682         estimate D2E/DX2                !
 ! A179  A(35,82,62)            57.2798         estimate D2E/DX2                !
 ! A180  A(35,82,81)           105.5737         estimate D2E/DX2                !
 ! A181  A(41,82,62)            44.3768         estimate D2E/DX2                !
 ! A182  A(41,82,81)           102.5884         estimate D2E/DX2                !
 ! A183  A(62,82,81)            59.2997         estimate D2E/DX2                !
 ! A184  A(13,83,14)            67.5169         estimate D2E/DX2                !
 ! A185  A(13,83,19)            38.796          estimate D2E/DX2                !
 ! A186  A(13,83,81)           160.7039         estimate D2E/DX2                !
 ! A187  A(14,83,19)            73.9296         estimate D2E/DX2                !
 ! A188  A(14,83,81)            93.991          estimate D2E/DX2                !
 ! A189  A(19,83,81)           132.914          estimate D2E/DX2                !
 ! A190  A(45,84,56)            37.5141         estimate D2E/DX2                !
 ! A191  A(45,84,58)            25.9034         estimate D2E/DX2                !
 ! A192  A(45,84,81)           124.1987         estimate D2E/DX2                !
 ! A193  A(56,84,58)            50.252          estimate D2E/DX2                !
 ! A194  A(56,84,81)           130.1426         estimate D2E/DX2                !
 ! A195  A(58,84,81)            98.455          estimate D2E/DX2                !
 ! A196  L(38,41,82,42,-1)     190.8443         estimate D2E/DX2                !
 ! A197  L(38,41,82,42,-2)     177.8287         estimate D2E/DX2                !
 ! D1    D(6,1,2,3)            -62.6679         estimate D2E/DX2                !
 ! D2    D(6,1,2,7)            177.9333         estimate D2E/DX2                !
 ! D3    D(6,1,2,15)            57.1101         estimate D2E/DX2                !
 ! D4    D(2,1,6,5)             63.8942         estimate D2E/DX2                !
 ! D5    D(2,1,6,11)           -55.0765         estimate D2E/DX2                !
 ! D6    D(2,1,6,16)          -170.7364         estimate D2E/DX2                !
 ! D7    D(1,2,3,4)             56.1188         estimate D2E/DX2                !
 ! D8    D(1,2,3,8)            -61.715          estimate D2E/DX2                !
 ! D9    D(1,2,3,14)           178.3286         estimate D2E/DX2                !
 ! D10   D(7,2,3,4)            171.5169         estimate D2E/DX2                !
 ! D11   D(7,2,3,8)             53.6831         estimate D2E/DX2                !
 ! D12   D(7,2,3,14)           -66.2733         estimate D2E/DX2                !
 ! D13   D(15,2,3,4)           -67.2941         estimate D2E/DX2                !
 ! D14   D(15,2,3,8)           174.8722         estimate D2E/DX2                !
 ! D15   D(15,2,3,14)           54.9158         estimate D2E/DX2                !
 ! D16   D(1,2,15,27)           76.3446         estimate D2E/DX2                !
 ! D17   D(3,2,15,27)         -162.3805         estimate D2E/DX2                !
 ! D18   D(7,2,15,27)          -40.9799         estimate D2E/DX2                !
 ! D19   D(2,3,4,5)            -52.2106         estimate D2E/DX2                !
 ! D20   D(2,3,4,9)             68.5423         estimate D2E/DX2                !
 ! D21   D(2,3,4,13)          -174.1075         estimate D2E/DX2                !
 ! D22   D(8,3,4,5)             64.6305         estimate D2E/DX2                !
 ! D23   D(8,3,4,9)           -174.6166         estimate D2E/DX2                !
 ! D24   D(8,3,4,13)           -57.2664         estimate D2E/DX2                !
 ! D25   D(14,3,4,5)          -176.1725         estimate D2E/DX2                !
 ! D26   D(14,3,4,9)           -55.4196         estimate D2E/DX2                !
 ! D27   D(14,3,4,13)           61.9306         estimate D2E/DX2                !
 ! D28   D(2,3,14,23)           89.4861         estimate D2E/DX2                !
 ! D29   D(2,3,14,83)         -138.8238         estimate D2E/DX2                !
 ! D30   D(4,3,14,23)         -147.8494         estimate D2E/DX2                !
 ! D31   D(4,3,14,83)          -16.1593         estimate D2E/DX2                !
 ! D32   D(8,3,14,23)          -29.1066         estimate D2E/DX2                !
 ! D33   D(8,3,14,83)          102.5836         estimate D2E/DX2                !
 ! D34   D(3,4,5,6)             53.2099         estimate D2E/DX2                !
 ! D35   D(3,4,5,10)           173.1195         estimate D2E/DX2                !
 ! D36   D(3,4,5,12)           -72.3654         estimate D2E/DX2                !
 ! D37   D(9,4,5,6)            -67.1872         estimate D2E/DX2                !
 ! D38   D(9,4,5,10)            52.7224         estimate D2E/DX2                !
 ! D39   D(9,4,5,12)           167.2375         estimate D2E/DX2                !
 ! D40   D(13,4,5,6)           176.1235         estimate D2E/DX2                !
 ! D41   D(13,4,5,10)          -63.9669         estimate D2E/DX2                !
 ! D42   D(13,4,5,12)           50.5482         estimate D2E/DX2                !
 ! D43   D(3,4,13,22)           86.9616         estimate D2E/DX2                !
 ! D44   D(3,4,13,83)          -90.6172         estimate D2E/DX2                !
 ! D45   D(5,4,13,22)          -35.4703         estimate D2E/DX2                !
 ! D46   D(5,4,13,83)          146.9509         estimate D2E/DX2                !
 ! D47   D(9,4,13,22)         -154.1388         estimate D2E/DX2                !
 ! D48   D(9,4,13,83)           28.2823         estimate D2E/DX2                !
 ! D49   D(4,5,6,1)            -57.7295         estimate D2E/DX2                !
 ! D50   D(4,5,6,11)            61.9448         estimate D2E/DX2                !
 ! D51   D(4,5,6,16)          -178.7985         estimate D2E/DX2                !
 ! D52   D(10,5,6,1)          -177.3023         estimate D2E/DX2                !
 ! D53   D(10,5,6,11)          -57.6281         estimate D2E/DX2                !
 ! D54   D(10,5,6,16)           61.6287         estimate D2E/DX2                !
 ! D55   D(12,5,6,1)            65.1333         estimate D2E/DX2                !
 ! D56   D(12,5,6,11)         -175.1924         estimate D2E/DX2                !
 ! D57   D(12,5,6,16)          -55.9356         estimate D2E/DX2                !
 ! D58   D(4,5,12,21)           86.7953         estimate D2E/DX2                !
 ! D59   D(6,5,12,21)          -36.3199         estimate D2E/DX2                !
 ! D60   D(10,5,12,21)        -156.3151         estimate D2E/DX2                !
 ! D61   D(1,6,16,17)          -70.3495         estimate D2E/DX2                !
 ! D62   D(1,6,16,18)           48.6889         estimate D2E/DX2                !
 ! D63   D(1,6,16,19)          168.5812         estimate D2E/DX2                !
 ! D64   D(5,6,16,17)           51.9172         estimate D2E/DX2                !
 ! D65   D(5,6,16,18)          170.9557         estimate D2E/DX2                !
 ! D66   D(5,6,16,19)          -69.1521         estimate D2E/DX2                !
 ! D67   D(11,6,16,17)         172.1211         estimate D2E/DX2                !
 ! D68   D(11,6,16,18)         -68.8405         estimate D2E/DX2                !
 ! D69   D(11,6,16,19)          51.0517         estimate D2E/DX2                !
 ! D70   D(4,13,83,14)          48.6434         estimate D2E/DX2                !
 ! D71   D(4,13,83,19)         -43.4578         estimate D2E/DX2                !
 ! D72   D(4,13,83,81)          31.2235         estimate D2E/DX2                !
 ! D73   D(22,13,83,14)       -127.2964         estimate D2E/DX2                !
 ! D74   D(22,13,83,19)        140.6024         estimate D2E/DX2                !
 ! D75   D(22,13,83,81)       -144.7163         estimate D2E/DX2                !
 ! D76   D(3,14,83,13)         -19.0759         estimate D2E/DX2                !
 ! D77   D(3,14,83,19)          21.5858         estimate D2E/DX2                !
 ! D78   D(3,14,83,81)         155.2328         estimate D2E/DX2                !
 ! D79   D(23,14,83,13)         94.69           estimate D2E/DX2                !
 ! D80   D(23,14,83,19)        135.3517         estimate D2E/DX2                !
 ! D81   D(23,14,83,81)        -91.0012         estimate D2E/DX2                !
 ! D82   D(2,15,27,26)        -135.2118         estimate D2E/DX2                !
 ! D83   D(2,15,27,28)         102.7266         estimate D2E/DX2                !
 ! D84   D(2,15,27,32)         -17.6009         estimate D2E/DX2                !
 ! D85   D(6,16,19,20)         162.4023         estimate D2E/DX2                !
 ! D86   D(6,16,19,83)          19.15           estimate D2E/DX2                !
 ! D87   D(17,16,19,20)         41.4704         estimate D2E/DX2                !
 ! D88   D(17,16,19,83)       -101.7819         estimate D2E/DX2                !
 ! D89   D(18,16,19,20)        -79.9688         estimate D2E/DX2                !
 ! D90   D(18,16,19,83)        136.7789         estimate D2E/DX2                !
 ! D91   D(16,19,83,13)         51.6223         estimate D2E/DX2                !
 ! D92   D(16,19,83,14)        -22.3072         estimate D2E/DX2                !
 ! D93   D(16,19,83,81)       -102.5816         estimate D2E/DX2                !
 ! D94   D(20,19,83,13)        -51.0953         estimate D2E/DX2                !
 ! D95   D(20,19,83,14)       -125.0247         estimate D2E/DX2                !
 ! D96   D(20,19,83,81)        154.7009         estimate D2E/DX2                !
 ! D97   D(29,24,25,26)        -54.2088         estimate D2E/DX2                !
 ! D98   D(29,24,25,30)         65.1094         estimate D2E/DX2                !
 ! D99   D(29,24,25,37)        178.1688         estimate D2E/DX2                !
 ! D100  D(25,24,29,28)         54.6234         estimate D2E/DX2                !
 ! D101  D(25,24,29,34)        -65.4861         estimate D2E/DX2                !
 ! D102  D(25,24,29,38)        179.5662         estimate D2E/DX2                !
 ! D103  D(24,25,26,27)         -0.0122         estimate D2E/DX2                !
 ! D104  D(24,25,26,31)       -120.5283         estimate D2E/DX2                !
 ! D105  D(24,25,26,36)        117.7445         estimate D2E/DX2                !
 ! D106  D(30,25,26,27)       -120.5742         estimate D2E/DX2                !
 ! D107  D(30,25,26,31)        118.9096         estimate D2E/DX2                !
 ! D108  D(30,25,26,36)         -2.8175         estimate D2E/DX2                !
 ! D109  D(37,25,26,27)        123.1769         estimate D2E/DX2                !
 ! D110  D(37,25,26,31)          2.6608         estimate D2E/DX2                !
 ! D111  D(37,25,26,36)       -119.0664         estimate D2E/DX2                !
 ! D112  D(24,25,37,49)         65.3227         estimate D2E/DX2                !
 ! D113  D(26,25,37,49)        -60.1343         estimate D2E/DX2                !
 ! D114  D(30,25,37,49)       -178.1312         estimate D2E/DX2                !
 ! D115  D(25,26,27,15)        -71.622          estimate D2E/DX2                !
 ! D116  D(25,26,27,28)         49.9692         estimate D2E/DX2                !
 ! D117  D(25,26,27,32)        169.5583         estimate D2E/DX2                !
 ! D118  D(31,26,27,15)         48.8567         estimate D2E/DX2                !
 ! D119  D(31,26,27,28)        170.4479         estimate D2E/DX2                !
 ! D120  D(31,26,27,32)        -69.963          estimate D2E/DX2                !
 ! D121  D(36,26,27,15)        167.9268         estimate D2E/DX2                !
 ! D122  D(36,26,27,28)        -70.482          estimate D2E/DX2                !
 ! D123  D(36,26,27,32)         49.1071         estimate D2E/DX2                !
 ! D124  D(25,26,36,44)         82.8502         estimate D2E/DX2                !
 ! D125  D(27,26,36,44)       -155.3559         estimate D2E/DX2                !
 ! D126  D(31,26,36,44)        -37.6331         estimate D2E/DX2                !
 ! D127  D(15,27,28,29)         71.6946         estimate D2E/DX2                !
 ! D128  D(15,27,28,33)       -170.2584         estimate D2E/DX2                !
 ! D129  D(15,27,28,35)        -52.6889         estimate D2E/DX2                !
 ! D130  D(26,27,28,29)        -49.5107         estimate D2E/DX2                !
 ! D131  D(26,27,28,33)         68.5362         estimate D2E/DX2                !
 ! D132  D(26,27,28,35)       -173.8942         estimate D2E/DX2                !
 ! D133  D(32,27,28,29)       -167.9549         estimate D2E/DX2                !
 ! D134  D(32,27,28,33)        -49.9079         estimate D2E/DX2                !
 ! D135  D(32,27,28,35)         67.6617         estimate D2E/DX2                !
 ! D136  D(27,28,29,24)         -0.1043         estimate D2E/DX2                !
 ! D137  D(27,28,29,34)        120.5774         estimate D2E/DX2                !
 ! D138  D(27,28,29,38)       -119.7177         estimate D2E/DX2                !
 ! D139  D(33,28,29,24)       -117.0179         estimate D2E/DX2                !
 ! D140  D(33,28,29,34)          3.6637         estimate D2E/DX2                !
 ! D141  D(33,28,29,38)        123.3686         estimate D2E/DX2                !
 ! D142  D(35,28,29,24)        121.0856         estimate D2E/DX2                !
 ! D143  D(35,28,29,34)       -118.2328         estimate D2E/DX2                !
 ! D144  D(35,28,29,38)          1.4721         estimate D2E/DX2                !
 ! D145  D(27,28,35,43)       -141.0545         estimate D2E/DX2                !
 ! D146  D(27,28,35,82)         70.8675         estimate D2E/DX2                !
 ! D147  D(29,28,35,43)         95.5985         estimate D2E/DX2                !
 ! D148  D(29,28,35,82)        -52.4796         estimate D2E/DX2                !
 ! D149  D(33,28,35,43)        -25.5656         estimate D2E/DX2                !
 ! D150  D(33,28,35,82)       -173.6436         estimate D2E/DX2                !
 ! D151  D(24,29,38,39)         64.0359         estimate D2E/DX2                !
 ! D152  D(24,29,38,40)       -177.6999         estimate D2E/DX2                !
 ! D153  D(24,29,38,41)        -53.0344         estimate D2E/DX2                !
 ! D154  D(28,29,38,39)       -172.0063         estimate D2E/DX2                !
 ! D155  D(28,29,38,40)        -53.7422         estimate D2E/DX2                !
 ! D156  D(28,29,38,41)         70.9233         estimate D2E/DX2                !
 ! D157  D(34,29,38,39)        -51.9904         estimate D2E/DX2                !
 ! D158  D(34,29,38,40)         66.2737         estimate D2E/DX2                !
 ! D159  D(34,29,38,41)       -169.0607         estimate D2E/DX2                !
 ! D160  D(28,35,82,41)         58.2834         estimate D2E/DX2                !
 ! D161  D(28,35,82,62)          8.1208         estimate D2E/DX2                !
 ! D162  D(28,35,82,81)        -27.8772         estimate D2E/DX2                !
 ! D163  D(43,35,82,41)        -73.8029         estimate D2E/DX2                !
 ! D164  D(43,35,82,62)       -123.9655         estimate D2E/DX2                !
 ! D165  D(43,35,82,81)       -159.9634         estimate D2E/DX2                !
 ! D166  D(25,37,49,48)        122.4846         estimate D2E/DX2                !
 ! D167  D(25,37,49,50)       -117.9567         estimate D2E/DX2                !
 ! D168  D(25,37,49,55)          1.4577         estimate D2E/DX2                !
 ! D169  D(29,38,41,42)        -55.1339         estimate D2E/DX2                !
 ! D170  D(39,38,41,42)       -173.8881         estimate D2E/DX2                !
 ! D171  D(40,38,41,42)         69.3037         estimate D2E/DX2                !
 ! D172  D(29,38,82,35)        -62.6905         estimate D2E/DX2                !
 ! D173  D(29,38,82,62)         47.8775         estimate D2E/DX2                !
 ! D174  D(29,38,82,81)         38.7492         estimate D2E/DX2                !
 ! D175  D(39,38,82,35)       -177.8975         estimate D2E/DX2                !
 ! D176  D(39,38,82,62)        -67.3296         estimate D2E/DX2                !
 ! D177  D(39,38,82,81)        -76.4579         estimate D2E/DX2                !
 ! D178  D(40,38,82,35)         68.057          estimate D2E/DX2                !
 ! D179  D(40,38,82,62)        178.625          estimate D2E/DX2                !
 ! D180  D(40,38,82,81)        169.4967         estimate D2E/DX2                !
 ! D181  D(42,41,82,35)         -2.821          estimate D2E/DX2                !
 ! D182  D(42,41,82,62)        109.7039         estimate D2E/DX2                !
 ! D183  D(42,41,82,81)         97.1824         estimate D2E/DX2                !
 ! D184  D(50,45,46,47)        -63.5855         estimate D2E/DX2                !
 ! D185  D(50,45,46,51)         58.2774         estimate D2E/DX2                !
 ! D186  D(50,45,46,58)       -179.8295         estimate D2E/DX2                !
 ! D187  D(84,45,46,47)         83.9355         estimate D2E/DX2                !
 ! D188  D(84,45,46,51)       -154.2016         estimate D2E/DX2                !
 ! D189  D(84,45,46,58)        -32.3085         estimate D2E/DX2                !
 ! D190  D(46,45,50,49)         64.65           estimate D2E/DX2                !
 ! D191  D(46,45,50,54)        -54.4801         estimate D2E/DX2                !
 ! D192  D(46,45,50,59)       -170.3005         estimate D2E/DX2                !
 ! D193  D(84,45,50,49)        -99.926          estimate D2E/DX2                !
 ! D194  D(84,45,50,54)        140.944          estimate D2E/DX2                !
 ! D195  D(84,45,50,59)         25.1235         estimate D2E/DX2                !
 ! D196  D(46,45,84,56)        -85.7443         estimate D2E/DX2                !
 ! D197  D(46,45,84,58)         20.4288         estimate D2E/DX2                !
 ! D198  D(46,45,84,81)         27.5109         estimate D2E/DX2                !
 ! D199  D(50,45,84,56)         64.5394         estimate D2E/DX2                !
 ! D200  D(50,45,84,58)        170.7125         estimate D2E/DX2                !
 ! D201  D(50,45,84,81)        177.7946         estimate D2E/DX2                !
 ! D202  D(45,46,47,48)         54.6923         estimate D2E/DX2                !
 ! D203  D(45,46,47,52)        -64.1901         estimate D2E/DX2                !
 ! D204  D(45,46,47,57)        174.6542         estimate D2E/DX2                !
 ! D205  D(51,46,47,48)        -65.9772         estimate D2E/DX2                !
 ! D206  D(51,46,47,52)        175.1403         estimate D2E/DX2                !
 ! D207  D(51,46,47,57)         53.9847         estimate D2E/DX2                !
 ! D208  D(58,46,47,48)        171.6361         estimate D2E/DX2                !
 ! D209  D(58,46,47,52)         52.7536         estimate D2E/DX2                !
 ! D210  D(58,46,47,57)        -68.4021         estimate D2E/DX2                !
 ! D211  D(45,46,58,66)        -71.5325         estimate D2E/DX2                !
 ! D212  D(45,46,58,84)         10.7164         estimate D2E/DX2                !
 ! D213  D(47,46,58,66)        170.956          estimate D2E/DX2                !
 ! D214  D(47,46,58,84)       -106.7951         estimate D2E/DX2                !
 ! D215  D(51,46,58,66)         48.8589         estimate D2E/DX2                !
 ! D216  D(51,46,58,84)        131.1079         estimate D2E/DX2                !
 ! D217  D(46,47,48,49)        -49.672          estimate D2E/DX2                !
 ! D218  D(46,47,48,53)         69.0164         estimate D2E/DX2                !
 ! D219  D(46,47,48,56)       -171.3281         estimate D2E/DX2                !
 ! D220  D(52,47,48,49)         67.4373         estimate D2E/DX2                !
 ! D221  D(52,47,48,53)       -173.8743         estimate D2E/DX2                !
 ! D222  D(52,47,48,56)        -54.2187         estimate D2E/DX2                !
 ! D223  D(57,47,48,49)       -173.1981         estimate D2E/DX2                !
 ! D224  D(57,47,48,53)        -54.5098         estimate D2E/DX2                !
 ! D225  D(57,47,48,56)         65.1458         estimate D2E/DX2                !
 ! D226  D(46,47,57,65)         65.0787         estimate D2E/DX2                !
 ! D227  D(48,47,57,65)       -172.0993         estimate D2E/DX2                !
 ! D228  D(52,47,57,65)        -53.6043         estimate D2E/DX2                !
 ! D229  D(47,48,49,37)        168.8452         estimate D2E/DX2                !
 ! D230  D(47,48,49,50)         49.5561         estimate D2E/DX2                !
 ! D231  D(47,48,49,55)        -70.303          estimate D2E/DX2                !
 ! D232  D(53,48,49,37)         49.8823         estimate D2E/DX2                !
 ! D233  D(53,48,49,50)        -69.4068         estimate D2E/DX2                !
 ! D234  D(53,48,49,55)        170.7341         estimate D2E/DX2                !
 ! D235  D(56,48,49,37)        -68.8417         estimate D2E/DX2                !
 ! D236  D(56,48,49,50)        171.8692         estimate D2E/DX2                !
 ! D237  D(56,48,49,55)         52.0101         estimate D2E/DX2                !
 ! D238  D(47,48,56,64)        -29.7141         estimate D2E/DX2                !
 ! D239  D(47,48,56,84)         81.3861         estimate D2E/DX2                !
 ! D240  D(49,48,56,64)       -152.9477         estimate D2E/DX2                !
 ! D241  D(49,48,56,84)        -41.8474         estimate D2E/DX2                !
 ! D242  D(53,48,56,64)         89.2905         estimate D2E/DX2                !
 ! D243  D(53,48,56,84)       -159.6093         estimate D2E/DX2                !
 ! D244  D(37,49,50,45)       -174.2259         estimate D2E/DX2                !
 ! D245  D(37,49,50,54)        -53.9267         estimate D2E/DX2                !
 ! D246  D(37,49,50,59)         66.3166         estimate D2E/DX2                !
 ! D247  D(48,49,50,45)        -55.7182         estimate D2E/DX2                !
 ! D248  D(48,49,50,54)         64.581          estimate D2E/DX2                !
 ! D249  D(48,49,50,59)       -175.1757         estimate D2E/DX2                !
 ! D250  D(55,49,50,45)         65.3288         estimate D2E/DX2                !
 ! D251  D(55,49,50,54)       -174.372          estimate D2E/DX2                !
 ! D252  D(55,49,50,59)        -54.1288         estimate D2E/DX2                !
 ! D253  D(45,50,59,60)         63.2352         estimate D2E/DX2                !
 ! D254  D(45,50,59,61)       -178.4838         estimate D2E/DX2                !
 ! D255  D(45,50,59,62)        -56.1411         estimate D2E/DX2                !
 ! D256  D(49,50,59,60)       -175.4714         estimate D2E/DX2                !
 ! D257  D(49,50,59,61)        -57.1903         estimate D2E/DX2                !
 ! D258  D(49,50,59,62)         65.1524         estimate D2E/DX2                !
 ! D259  D(54,50,59,60)        -54.617          estimate D2E/DX2                !
 ! D260  D(54,50,59,61)         63.6641         estimate D2E/DX2                !
 ! D261  D(54,50,59,62)       -173.9932         estimate D2E/DX2                !
 ! D262  D(48,56,84,45)        -16.6701         estimate D2E/DX2                !
 ! D263  D(48,56,84,58)        -49.7424         estimate D2E/DX2                !
 ! D264  D(48,56,84,81)       -112.9218         estimate D2E/DX2                !
 ! D265  D(64,56,84,45)         72.9074         estimate D2E/DX2                !
 ! D266  D(64,56,84,58)         39.8352         estimate D2E/DX2                !
 ! D267  D(64,56,84,81)        -23.3443         estimate D2E/DX2                !
 ! D268  D(46,58,66,67)       -101.7956         estimate D2E/DX2                !
 ! D269  D(46,58,66,68)         16.0414         estimate D2E/DX2                !
 ! D270  D(46,58,66,69)        137.9849         estimate D2E/DX2                !
 ! D271  D(84,58,66,67)       -172.0118         estimate D2E/DX2                !
 ! D272  D(84,58,66,68)        -54.1749         estimate D2E/DX2                !
 ! D273  D(84,58,66,69)         67.7686         estimate D2E/DX2                !
 ! D274  D(46,58,84,45)        -10.8168         estimate D2E/DX2                !
 ! D275  D(46,58,84,56)         38.7072         estimate D2E/DX2                !
 ! D276  D(46,58,84,81)        175.1006         estimate D2E/DX2                !
 ! D277  D(66,58,84,45)        105.2627         estimate D2E/DX2                !
 ! D278  D(66,58,84,56)        154.7866         estimate D2E/DX2                !
 ! D279  D(66,58,84,81)        -68.82           estimate D2E/DX2                !
 ! D280  D(50,59,62,63)       -116.6457         estimate D2E/DX2                !
 ! D281  D(50,59,62,82)        102.3531         estimate D2E/DX2                !
 ! D282  D(60,59,62,63)        124.3407         estimate D2E/DX2                !
 ! D283  D(60,59,62,82)        -16.6605         estimate D2E/DX2                !
 ! D284  D(61,59,62,63)          5.306          estimate D2E/DX2                !
 ! D285  D(61,59,62,82)       -135.6951         estimate D2E/DX2                !
 ! D286  D(59,62,82,35)        170.2611         estimate D2E/DX2                !
 ! D287  D(59,62,82,41)        143.3244         estimate D2E/DX2                !
 ! D288  D(59,62,82,81)        -50.9215         estimate D2E/DX2                !
 ! D289  D(63,62,82,35)         26.0737         estimate D2E/DX2                !
 ! D290  D(63,62,82,41)         -0.8631         estimate D2E/DX2                !
 ! D291  D(63,62,82,81)        164.8911         estimate D2E/DX2                !
 ! D292  D(58,66,69,70)        176.2248         estimate D2E/DX2                !
 ! D293  D(58,66,69,71)         61.6157         estimate D2E/DX2                !
 ! D294  D(58,66,69,72)        -60.2505         estimate D2E/DX2                !
 ! D295  D(67,66,69,70)         57.2473         estimate D2E/DX2                !
 ! D296  D(67,66,69,71)        -57.3618         estimate D2E/DX2                !
 ! D297  D(67,66,69,72)       -179.2281         estimate D2E/DX2                !
 ! D298  D(68,66,69,70)        -63.0103         estimate D2E/DX2                !
 ! D299  D(68,66,69,71)       -177.6194         estimate D2E/DX2                !
 ! D300  D(68,66,69,72)         60.5143         estimate D2E/DX2                !
 ! D301  D(66,69,72,73)         57.779          estimate D2E/DX2                !
 ! D302  D(66,69,72,74)        172.8874         estimate D2E/DX2                !
 ! D303  D(66,69,72,75)        -65.3633         estimate D2E/DX2                !
 ! D304  D(70,69,72,73)        179.913          estimate D2E/DX2                !
 ! D305  D(70,69,72,74)        -64.9785         estimate D2E/DX2                !
 ! D306  D(70,69,72,75)         56.7707         estimate D2E/DX2                !
 ! D307  D(71,69,72,73)        -63.8981         estimate D2E/DX2                !
 ! D308  D(71,69,72,74)         51.2103         estimate D2E/DX2                !
 ! D309  D(71,69,72,75)        172.9596         estimate D2E/DX2                !
 ! D310  D(69,72,75,76)        -53.9062         estimate D2E/DX2                !
 ! D311  D(69,72,75,77)         63.2153         estimate D2E/DX2                !
 ! D312  D(69,72,75,78)       -173.5303         estimate D2E/DX2                !
 ! D313  D(73,72,75,76)       -175.8066         estimate D2E/DX2                !
 ! D314  D(73,72,75,77)        -58.6851         estimate D2E/DX2                !
 ! D315  D(73,72,75,78)         64.5692         estimate D2E/DX2                !
 ! D316  D(74,72,75,76)         67.3029         estimate D2E/DX2                !
 ! D317  D(74,72,75,77)       -175.5755         estimate D2E/DX2                !
 ! D318  D(74,72,75,78)        -52.3212         estimate D2E/DX2                !
 ! D319  D(72,75,78,79)        174.6654         estimate D2E/DX2                !
 ! D320  D(72,75,78,80)         54.4216         estimate D2E/DX2                !
 ! D321  D(72,75,78,81)        -66.2403         estimate D2E/DX2                !
 ! D322  D(76,75,78,79)         53.2315         estimate D2E/DX2                !
 ! D323  D(76,75,78,80)        -67.0123         estimate D2E/DX2                !
 ! D324  D(76,75,78,81)        172.3258         estimate D2E/DX2                !
 ! D325  D(77,75,78,79)        -61.4081         estimate D2E/DX2                !
 ! D326  D(77,75,78,80)        178.348          estimate D2E/DX2                !
 ! D327  D(77,75,78,81)         57.6861         estimate D2E/DX2                !
 ! D328  D(75,78,81,82)       -176.744          estimate D2E/DX2                !
 ! D329  D(75,78,81,83)         64.333          estimate D2E/DX2                !
 ! D330  D(75,78,81,84)        -58.2426         estimate D2E/DX2                !
 ! D331  D(79,78,81,82)        -55.3251         estimate D2E/DX2                !
 ! D332  D(79,78,81,83)       -174.2481         estimate D2E/DX2                !
 ! D333  D(79,78,81,84)         63.1763         estimate D2E/DX2                !
 ! D334  D(80,78,81,82)         60.4001         estimate D2E/DX2                !
 ! D335  D(80,78,81,83)        -58.5229         estimate D2E/DX2                !
 ! D336  D(80,78,81,84)        178.9015         estimate D2E/DX2                !
 ! D337  D(78,81,82,35)        159.1188         estimate D2E/DX2                !
 ! D338  D(78,81,82,41)        134.1697         estimate D2E/DX2                !
 ! D339  D(78,81,82,62)        124.0128         estimate D2E/DX2                !
 ! D340  D(83,81,82,35)        -77.6476         estimate D2E/DX2                !
 ! D341  D(83,81,82,41)       -102.5967         estimate D2E/DX2                !
 ! D342  D(83,81,82,62)       -112.7535         estimate D2E/DX2                !
 ! D343  D(84,81,82,35)         37.1093         estimate D2E/DX2                !
 ! D344  D(84,81,82,41)         12.1602         estimate D2E/DX2                !
 ! D345  D(84,81,82,62)          2.0034         estimate D2E/DX2                !
 ! D346  D(78,81,83,13)       -173.409          estimate D2E/DX2                !
 ! D347  D(78,81,83,14)        170.4925         estimate D2E/DX2                !
 ! D348  D(78,81,83,19)       -117.8095         estimate D2E/DX2                !
 ! D349  D(82,81,83,13)         64.3732         estimate D2E/DX2                !
 ! D350  D(82,81,83,14)         48.2746         estimate D2E/DX2                !
 ! D351  D(82,81,83,19)        119.9726         estimate D2E/DX2                !
 ! D352  D(84,81,83,13)        -48.8068         estimate D2E/DX2                !
 ! D353  D(84,81,83,14)        -64.9054         estimate D2E/DX2                !
 ! D354  D(84,81,83,19)          6.7926         estimate D2E/DX2                !
 ! D355  D(78,81,84,45)         68.9983         estimate D2E/DX2                !
 ! D356  D(78,81,84,56)        116.0428         estimate D2E/DX2                !
 ! D357  D(78,81,84,58)         72.1197         estimate D2E/DX2                !
 ! D358  D(82,81,84,45)       -169.2792         estimate D2E/DX2                !
 ! D359  D(82,81,84,56)       -122.2348         estimate D2E/DX2                !
 ! D360  D(82,81,84,58)       -166.1578         estimate D2E/DX2                !
 ! D361  D(83,81,84,45)        -56.2828         estimate D2E/DX2                !
 ! D362  D(83,81,84,56)         -9.2383         estimate D2E/DX2                !
 ! D363  D(83,81,84,58)        -53.1614         estimate D2E/DX2                !
 --------------------------------------------------------------------------------
 Trust Radius=3.00D-01 FncErr=1.00D-07 GrdErr=1.00D-06
 Number of steps in this run=    504 maximum allowed number of steps=    504.
 GradGradGradGradGradGradGradGradGradGradGradGradGradGradGradGradGradGrad

 Leave Link  103 at Mon May  2 01:19:19 2016, MaxMem= 10737418240 cpu:         0.6
 (Enter /share/apps//g09/l202.exe)
 Stoichiometry    C23H44NO16(1+)
 Framework group  C1[X(C23H44NO16)]
 Deg. of freedom   246
 Full point group                 C1      NOp   1
 Largest Abelian subgroup         C1      NOp   1
 Largest concise Abelian subgroup C1      NOp   1
                         Standard orientation:                         
 ---------------------------------------------------------------------
 Center     Atomic      Atomic             Coordinates (Angstroms)
 Number     Number       Type             X           Y           Z
 ---------------------------------------------------------------------
      1          8           0        1.832517    1.790559    2.331902
      2          6           0        2.036602    0.393575    2.104390
      3          6           0        0.873159   -0.413092    2.722001
      4          6           0       -0.466742    0.072879    2.155228
      5          6           0       -0.591721    1.599400    2.303614
      6          6           0        0.631271    2.278958    1.690499
      7          1           0        2.988856    0.164515    2.606741
      8          1           0        0.886847   -0.218195    3.807853
      9          1           0       -0.530703   -0.204056    1.091025
     10          1           0       -1.499797    1.936315    1.781638
     11          1           0        0.661985    2.038413    0.616328
     12          8           0       -0.807663    1.925590    3.687642
     13          8           0       -1.573391   -0.566102    2.812509
     14          8           0        1.004137   -1.826339    2.490934
     15          8           0        2.098157    0.055134    0.735419
     16          6           0        0.639229    3.799916    1.800891
     17          1           0        0.468927    4.120719    2.841805
     18          1           0        1.629993    4.161239    1.477916
     19          8           0       -0.402361    4.274651    0.935006
     20          1           0       -0.612725    5.189028    1.184317
     21          1           0        0.066814    2.005458    4.115661
     22          1           0       -1.772160   -0.023891    3.604017
     23          1           0        1.515570   -2.201692    3.227567
     24          8           0        2.400250   -1.299807   -1.776445
     25          6           0        2.499212    0.016672   -2.323875
     26          6           0        3.045603    1.040702   -1.276692
     27          6           0        3.342167    0.387986    0.080324
     28          6           0        4.196763   -0.869996   -0.095029
     29          6           0        3.600484   -1.816941   -1.191470
     30          1           0        3.195957    0.012559   -3.183346
     31          1           0        2.296875    1.831636   -1.132901
     32          1           0        3.891769    1.122073    0.688162
     33          1           0        5.188788   -0.530827   -0.430496
     34          1           0        4.363541   -1.948299   -1.985226
     35          8           0        4.309645   -1.502132    1.197869
     36          8           0        4.291695    1.593441   -1.723096
     37          8           0        1.251251    0.334264   -2.884106
     38          6           0        3.220924   -3.206566   -0.683101
     39          1           0        2.951896   -3.834091   -1.543596
     40          1           0        4.077339   -3.675457   -0.174117
     41          8           0        2.067491   -3.196225    0.167281
     42          1           0        2.218137   -2.568744    0.907322
     43          1           0        5.212297   -1.845567    1.293250
     44          1           0        4.096179    2.321293   -2.337274
     45          8           0       -2.104193   -0.405514   -1.531887
     46          6           0       -2.757560    0.843507   -1.808986
     47          6           0       -1.817913    1.990378   -1.444442
     48          6           0       -0.469002    1.859138   -2.149929
     49          6           0        0.128483    0.455319   -1.982462
     50          6           0       -0.931601   -0.610791   -2.337434
     51          1           0       -3.040250    0.879925   -2.883619
     52          1           0       -1.663642    1.927387   -0.352247
     53          1           0       -0.624203    2.035027   -3.233040
     54          1           0       -1.181932   -0.510541   -3.413763
     55          1           0        0.454067    0.294837   -0.943548
     56          8           0        0.453441    2.825349   -1.639894
     57          8           0       -2.341569    3.266909   -1.801694
     58          8           0       -3.870773    0.946058   -0.979528
     59          6           0       -0.508096   -2.055194   -2.104559
     60          1           0       -1.315299   -2.709928   -2.471245
     61          1           0        0.404140   -2.265793   -2.675965
     62          8           0       -0.294374   -2.327916   -0.714452
     63          1           0        0.658894   -2.571968   -0.525246
     64          1           0       -0.065106    3.602443   -1.350874
     65          1           0       -3.137718    3.416511   -1.261192
     66          6           0       -4.969124    0.062503   -1.316599
     67          1           0       -5.737141    0.648450   -1.847605
     68          1           0       -4.608886   -0.726949   -1.993831
     69          6           0       -5.542739   -0.526789   -0.033113
     70          1           0       -6.418076   -1.140482   -0.305450
     71          1           0       -5.926145    0.298154    0.587400
     72          6           0       -4.548827   -1.351373    0.800042
     73          1           0       -3.692460   -0.705123    1.048788
     74          1           0       -5.033983   -1.613863    1.755279
     75          6           0       -4.066629   -2.634556    0.109489
     76          1           0       -4.935235   -3.238021   -0.201860
     77          1           0       -3.509974   -2.386355   -0.807480
     78          6           0       -3.202965   -3.539822    0.983146
     79          1           0       -2.973058   -4.478540    0.461458
     80          1           0       -3.710272   -3.789797    1.926461
     81          7           0       -1.885993   -2.905377    1.331050
     82          1           0       -1.292687   -3.543974    1.873200
     83          1           0       -1.987402   -2.046706    1.918114
[...]
 2,0.00008091,0.00003949,0.00004972,0.00006555,0.00000678,-0.00000076,-
 0.00002290,0.00001967,0.00001432,0.00000425,0.00000090,-0.00000681,-0.
 00002023,-0.00001014,0.00001295,-0.00001358,0.00000841,0.00000356,-0.0
 0002594,-0.00007572,0.00001780,-0.00013473,-0.00005762,-0.00001555,-0.
 00006462,0.00006593,-0.00004413,-0.00020997,-0.00024645,0.00002918,0.0
 0005485,-0.00000158,0.00000999,-0.00001008,0.00004156,-0.00003266,-0.0
 0001864,0.00022276,-0.00019745,-0.00023784,0.00004323,0.00001083,0.000
 19377,0.00000843,-0.00000190,0.00003800,0.00001071,-0.00000389,0.00002
 947,0.00019779,0.00068498,-0.00027708,0.00035925,-0.00069367,0.0002188
 3,0.00011848,0.00005359,0.00014141,0.00004646,-0.00006070,0.00020300,-
 0.00005164,0.00004836,0.00014113,-0.00030606,0.00006971,0.00012636,-0.
 00000898,0.00010292,-0.00005468,0.00000149,-0.00001780,0.00001589,-0.0
 0003170,-0.00000532,-0.00002102,0.00007115,0.00003081,-0.00003121,0.00
 002817,-0.00001719,0.00008522,-0.00015213,-0.00002094,-0.00027596,-0.0
 0009175,0.00007265,-0.00020270,-0.00021866,0.00016380,-0.00006736,-0.0
 0038208,-0.00059235,0.00009597,0.00003607,0.00005736,-0.00001912,0.000
 07979,0.00006148,0.00004469,0.00019572,-0.00048664,0.00051624,-0.00017
 015,0.00034078,0.00040141,0.00009947,0.00003712,0.00006169,0.00005401,
 0.00001985,0.00007832,0.00011585,-0.00017586,-0.00000537,-0.00005983,0
 .00001804,0.00000087,-0.00009137,-0.00004682,-0.00003682,-0.00037320,0
 .00020069,-0.00031259,0.00001115,-0.00014387,-0.00004419,-0.00000952,0
 .00018064,0.00000745,0.00042152,-0.00033086,0.00031873,0.00067068,0.00
 074127,-0.00007891,-0.00050453,0.00014346,0.00047658,-0.00014133,-0.00
 058848,-0.00056068,-0.00017492,0.00028041,-0.00003914,-0.00021429,-0.0
 0007369,-0.00023216,0.01182591,-0.01005566,0.00690592,-0.00072488,0.00
 132985,0.00427527,0.00003036,-0.00055636,0.00088078,-0.17395293,0.0849
 1722,-0.12438677,0.00280053,-0.00278001,0.00486165,0.17936279,0.000106
 69,-0.00047031,0.00017083,-0.00011783,-0.00017748,-0.00014679,0.000041
 24,0.00157534,-0.00204244,-0.00252973,0.00064761,0.00165928,0.00019701
 ,-0.00026442,-0.00016202,-0.00028469,0.00037493,0.00010364,0.00009378,
 0.00000218,-0.00010594,0.00004952,-0.00008777,0.00014234,-0.00024671,0
 .00021039,0.00030305,0.00002289,-0.00013785,0.00011184,-0.00004259,-0.
 00002336,-0.00001061,0.00008289,0.00007008,-0.00050457,-0.00139196,-0.
 00292266,0.00033264,-0.00057837,-0.00027318,0.00207732,0.00022470,-0.0
 0015147,0.00010308,0.00005542,-0.00006860,-0.00003419,-0.00000847,-0.0
 0000131,0.00002312,0.00001995,0.00003472,-0.00005127,0.00005970,0.0000
 1127,-0.00003979,-0.00001414,-0.00002239,0.00001847,0.00000139,0.00009
 428,0.00005452,0.00161261,-0.00110784,-0.00166082,0.00015080,-0.000129
 75,0.00001254,-0.00004827,-0.00017868,0.00014387,0.00000640,0.00027828
 ,-0.00007884,-0.00001733,-0.00000654,-0.00000369,-0.00007184,0.0000640
 4,0.00001519,0.00002694,0.00006285,-0.00004465,-0.00003234,0.00003831,
 -0.00000579,-0.00000092,-0.00002533,0.00001058,-0.00001622,0.00001102,
 0.00001631,-0.00000576,-0.00000132,0.00000898,-0.00000342,-0.00001107,
 0.00000659,-0.00000700,-0.00001243,0.00001131,-0.00002957,-0.00007652,
 0.00008709,0.00003621,-0.00002444,0.00001792,0.00018049,-0.00017182,-0
 .00003786,0.00023266,-0.00002452,-0.00007842,-0.00001406,-0.00000181,0
 .00000586,-0.00003234,0.00001816,0.00001867,-0.00028638,0.00012972,0.0
 0013019,0.00017148,-0.00000041,-0.00008791,0.00000298,0.00000016,-0.00
 002212,-0.00001343,0.00001040,-0.00000864,0.00065660,-0.00026567,0.000
 14512,-0.00055808,0.00009027,0.00004308,-0.00013297,-0.00017240,-0.000
 04307,-0.00008958,0.00007848,0.00004059,-0.00009731,-0.00001659,-0.000
 03704,-0.00050210,0.00028513,0.00001077,0.00007854,0.00002685,0.000031
 71,0.00004134,0.00003178,0.00007250,0.00003109,-0.00000502,-0.00000187
 ,0.00009353,-0.00005476,0.00000705,-0.00001304,0.00006308,-0.00002018,
 0.00012989,-0.00004284,-0.00001748,0.00009134,0.00008165,-0.00002552,0
 .00046868,0.00018241,-0.00006331,0.00025643,0.00083989,0.00027058,-0.0
 0000737,-0.00004066,-0.00004076,-0.00014097,-0.00017295,-0.00005011,-0
 .00246990,-0.00084839,0.00091918,-0.00000973,-0.00026339,-0.00013833,-
 0.00005759,-0.00001944,0.00002372,-0.00001980,-0.00005616,0.00002613,-
 0.00021704,-0.00004089,-0.00008494,0.00007504,0.00004768,-0.00000972,0
 .00006615,-0.00000923,0.00002188,-0.00012578,-0.00045847,0.00102827,0.
 00005128,0.00046024,0.00013072,0.00000342,-0.00004887,-0.00002766,0.00
 039206,0.00070420,-0.00202312,0.00048409,-0.00258792,0.00095504,-0.000
 05797,-0.00001293,0.00012896,-0.00085924,0.00083958,-0.00136262,0.0001
 9067,-0.00040374,0.00037026,0.00010084,-0.00014624,0.00000121,-0.00997
 383,0.00778647,-0.00441880,0.00064378,-0.00049605,-0.00324978,0.000083
 01,-0.00002444,0.00037424,0.07703652,-0.11944788,0.08471912,0.02457601
 ,-0.01659902,0.02593698,-0.08641327,0.12747775,-0.00065788,0.00030392,
 0.00010696,0.00144771,0.00075456,-0.00006999,-0.00027527,-0.00150450,0
 .00058096,0.00829234,0.00003698,-0.00712492,-0.00109695,0.00095408,0.0
 0056680,0.00102103,-0.00071960,0.00015270,-0.00028217,-0.00007768,0.00
 021538,-0.00004590,-0.00004410,-0.00020076,-0.00001236,0.00031315,-0.0
 0007522,0.00008087,0.00012767,-0.00013169,0.00010174,0.00011630,0.0000
 6379,-0.00024452,-0.00055314,0.00152726,0.00494500,0.00103397,-0.00055
 427,-0.00102159,0.00169127,-0.00074493,-0.00158354,0.00005805,0.000033
 90,-0.00026418,0.00057527,0.00016458,0.00000708,-0.00001567,-0.0000973
 8,-0.00004742,-0.00016334,0.00017264,-0.00020505,-0.00046365,0.0000192
 0,0.00002013,0.00011499,-0.00003549,-0.00008376,-0.00012418,-0.0003127
 3,-0.00443246,-0.00132600,0.00310053,0.00000751,-0.00026716,0.00030623
 ,-0.00002502,0.00004204,-0.00044198,0.00005343,-0.00002870,0.00044186,
 0.00008253,0.00009990,0.00004336,0.00069444,-0.00025962,-0.00033077,0.
 00005467,0.00002686,0.00017797,0.00012917,0.00007951,0.00014997,-0.000
 00590,0.00001221,-0.00004344,0.00003524,0.00004864,0.00000075,-0.00003
 700,0.00000207,-0.00001022,-0.00004379,0.00004604,-0.00003523,-0.00000
 699,0.00000023,-0.00004768,-0.00021084,0.00007137,-0.00022485,-0.00022
 798,-0.00006770,-0.00005311,-0.00005909,-0.00011355,-0.00040180,-0.000
 34876,0.00001342,0.00005134,-0.00004045,0.00002060,-0.00002481,0.00007
 121,-0.00004757,-0.00002044,0.00015305,-0.00036201,-0.00058029,0.00046
 547,-0.00017143,0.00039101,-0.00000054,-0.00004020,0.00005839,0.000036
 56,0.00000496,0.00003835,0.00002226,0.00045658,-0.00077289,-0.00015750
 ,-0.00038582,0.00054901,0.00043776,0.00036129,0.00029646,0.00008476,-0
 .00006967,0.00029637,0.00010404,0.00028599,0.00035814,0.00002772,-0.00
 000449,0.00034604,0.00001714,0.00003028,-0.00009580,-0.00010429,-0.000
 04538,-0.00004548,-0.00008560,-0.00004446,-0.00003245,-0.00002130,0.00
 009244,-0.00008791,0.00009635,-0.00007455,0.00006882,-0.00032231,-0.00
 013220,-0.00050538,-0.00014894,-0.00016856,-0.00037309,0.00030227,0.00
 007358,-0.00078565,-0.00041090,-0.00130045,-0.00058651,-0.00004843,0.0
 0008321,-0.00000725,0.00026186,0.00025050,0.00013207,0.00433976,0.0012
 4155,-0.00181669,-0.00004016,0.00079018,0.00099134,0.00019535,0.000121
 27,0.00010314,0.00005346,0.00008640,0.00021226,-0.00024812,0.00003163,
 0.00065653,0.00007369,0.00008080,-0.00012335,-0.00010864,-0.00007863,-
 0.00008335,-0.00009259,-0.00026723,0.00008066,0.00007055,0.00011656,-0
 .00001499,-0.00004769,0.00026829,-0.00000590,0.00037435,-0.00004844,0.
 00012981,0.00019556,-0.00019948,0.00132927,0.00010688,-0.00009179,-0.0
 0005198,-0.00084432,-0.00071916,0.00057373,0.00003342,0.00072125,0.000
 27207,-0.00007635,-0.00014127,-0.00006004,-0.01567937,0.01100366,-0.02
 308732,0.00203969,-0.00150043,-0.00272296,0.00001906,0.00090201,0.0013
 8839,-0.12073085,0.09118828,-0.19527366,0.00485722,-0.00210333,0.00656
 545,0.12168656,-0.09346752,0.20549988,-0.00088025,0.00014019,0.0000076
 7,0.00220273,0.00025144,0.00039564,-0.00016304,0.00057150,-0.00046385,
 0.00260476,-0.00007013,-0.00196453,-0.00008722,0.00037395,-0.00000615,
 0.00062552,-0.00020275,0.00002868,-0.00016168,-0.00009244,0.00000732,-
 0.00007024,-0.00007897,0.00000034,0.00077432,0.00008573,-0.00002481,0.
 00008092,0.00003256,-0.00005130,0.00009088,0.00004326,0.00007613,-0.00
 035369,-0.00030436,0.00059575,-0.00002255,-0.00102250,0.00386552,-0.00
 142122,0.00012142,0.00163824,-0.00181074,-0.00016951,-0.00047385,-0.00
 005112,0.00020076,0.00009110,-0.00003489,0.00000211,-0.00007525,-0.000
 01444,-0.00007029,0.00010435,-0.00027105,-0.00013190,-0.00002887,0.000
 07096,0.00000499,-0.00002357,0.00008940,0.00000963,-0.00015724,-0.0005
 3061,0.00003134,0.00019211,0.00047105,-0.00018047,-0.00023472,0.000735
 15,-0.00026264,-0.00180683,-0.00041585,-0.00058452,0.00141839,-0.00008
 573,0.00013637,0.00039465,0.00049384,-0.00022324,-0.00018120,0.0003054
 5,0.00024684,0.00041705,-0.00006532,0.00108775,0.00050729,0.00013833,0
 .00008920,-0.00015431,0.00003961,-0.00001901,-0.00001766,-0.00005780,-
 0.00001483,-0.00007646,-0.00006794,-0.00000047,-0.00010571,0.00015198,
 -0.00012769,-0.00016964,-0.00050411,-0.00038537,-0.00056020,0.00003367
 ,-0.00005518,-0.00056201,0.00008849,0.00023174,-0.00096330,-0.00143920
 ,0.00033875,0.00037546,-0.00008387,0.00022231,-0.00004286,0.00032566,-
 0.00028394,-0.00024238,0.00002961,-0.00423521,-0.00206166,0.00134652,0
 .00024336,0.00054296,0.00007210,0.00012447,0.00015133,-0.00002798,-0.0
 0005474,0.00018835,-0.00324119,0.00331610,-0.00033886,0.00279745,-0.00
 259703,0.00009570,0.00050456,-0.00000459,0.00025206,0.00059604,-0.0006
 7038,0.00052147,-0.00051997,0.00028648,0.00087890,0.00279227,-0.001612
 19,0.00090036,-0.00016183,0.00019157,-0.00017626,-0.00006822,-0.000027
 32,-0.00008294,-0.00012373,0.00003923,-0.00006428,-0.00042615,0.001000
 86,-0.00027361,0.00014560,-0.00020713,0.00054645,-0.00064607,0.0004097
 6,-0.00089174,-0.00050564,0.00051572,-0.00028766,-0.00241567,0.0004613
 3,0.00138059,-0.00409211,-0.01537577,-0.00808651,0.00055094,0.00129744
 ,0.00107114,0.00288417,0.00309710,0.00111017,0.00842249,0.00328478,-0.
 00072627,0.00341491,0.01061064,0.00540015,0.00031127,-0.00001714,0.000
 05706,0.00015673,0.00002340,-0.00002728,0.00073958,-0.00017435,-0.0012
 3554,-0.00015438,-0.00010123,0.00021050,0.00013154,0.00010664,-0.00001
 624,0.00027017,0.00036277,0.00007598,-0.00015022,-0.00015663,-0.000021
 64,-0.00003190,-0.00032927,0.00001652,-0.00090686,-0.00033154,0.000084
 90,0.00008538,0.00053986,-0.00042367,-0.00021295,0.00005574,-0.0000453
 0,0.00126579,0.00175357,-0.00133643,0.00010048,-0.00108041,-0.00027747
 ,0.00011617,-0.00007881,0.00018982,0.00017713,0.00433002,0.01170829,0.
 00068561,-0.00023951,-0.00168992,0.00171828,-0.00101023,-0.00348758,-0
 .26090356,-0.05926692,0.03697145,0.00286829,-0.00139963,-0.00231704,-0
 .01512943,-0.00138710,-0.00267212,0.25680465,-0.00009807,-0.00023317,0
 .00009552,0.00027212,0.00012143,-0.00007675,-0.00031021,0.00079093,-0.
 00048427,0.00095959,0.00029509,0.00001248,-0.00007083,-0.00005312,0.00
 011545,0.00007088,0.00011117,0.00010279,-0.00000766,-0.00002177,-0.000
 02646,0.00003774,-0.00017181,0.00009211,-0.00008371,-0.00009629,0.0004
 4919,0.00003884,-0.00003625,0.00001214,-0.00000779,0.00001365,0.000021
 42,-0.00015428,-0.00008023,-0.00005888,-0.00017180,-0.00056271,0.00114
 688,0.00013699,-0.00026663,0.00101377,-0.00021148,-0.00015538,0.000023
 60,-0.00001412,0.00007539,0.00001710,-0.00001022,-0.00000465,-0.000016
 37,0.00000475,-0.00001130,0.00000395,-0.00003808,-0.00008428,-0.000038
 84,0.00000535,-0.00000078,0.00000383,-0.00001079,0.00003179,-0.0000264
 2,-0.00008272,-0.00003668,0.00009601,0.00005145,-0.00003720,0.00011774
 ,0.00004747,-0.00033015,-0.00015150,-0.00003529,0.00037157,0.00017346,
 -0.00002023,0.00002148,0.00006550,0.00006832,0.00001902,-0.00004420,0.
 00005694,0.00008291,-0.00001144,-0.00008138,0.00031396,0.00009565,0.00
 001993,-0.00003046,-0.00002479,-0.00000389,0.00001719,0.00002309,-0.00
 000680,-0.00001166,-0.00000685,-0.00001116,-0.00000437,-0.00000239,0.0
 0000697,-0.00006933,0.00000119,-0.00009508,-0.00011723,0.00003438,0.00
 000795,-0.00004886,-0.00007133,0.00033074,-0.00027327,-0.00033179,0.00
 032470,0.00004137,0.00005912,-0.00003654,0.00003943,-0.00001395,-0.000
 05157,-0.00000689,0.00002166,-0.00089747,-0.00085297,-0.00021988,0.000
 30706,-0.00007201,-0.00023816,0.00000469,0.00000785,-0.00000884,-0.000
 01151,0.00000488,0.00002462,0.00038711,0.00183899,-0.00023542,0.001055
 51,-0.00127332,0.00021509,-0.00001340,-0.00001913,0.00019929,-0.000013
 80,-0.00005962,0.00024889,-0.00023460,0.00002961,0.00019274,-0.0017849
 9,-0.00011597,0.00028324,-0.00000509,0.00029544,-0.00008256,0.00002357
 ,0.00001093,0.00002068,-0.00000770,0.00000569,-0.00001176,0.00028003,-
 0.00002108,-0.00001124,0.00002344,0.00004469,0.00015504,-0.00002264,-0
 .00001073,-0.00028561,-0.00005259,0.00023516,-0.00027678,-0.00044464,0
 .00026624,0.00026279,-0.00210440,-0.00030411,0.00143695,0.00000728,0.0
 0018014,-0.00016180,0.00006731,-0.00007884,-0.00000786,0.00067037,-0.0
 1452394,-0.00565259,0.00532764,0.00360135,0.00089710,0.00003203,0.0000
 0025,0.00006042,0.00004992,-0.00003835,0.00005291,0.00019699,-0.000174
 63,-0.00030910,-0.00004743,0.00003823,0.00002767,-0.00003249,-0.000020
 79,-0.00003983,0.00001926,-0.00001339,0.00008424,-0.00001903,0.0000101
 1,0.00001721,-0.00001699,-0.00002826,-0.00000655,-0.00019977,-0.000451
 55,-0.00004776,0.00031695,-0.00005192,0.00015962,-0.00029127,0.0001675
 2,0.00008808,0.00220886,0.00122647,-0.00042694,-0.00046185,-0.00022875
 ,0.00018775,-0.00066919,-0.00047367,-0.00046023,0.01060322,0.00369869,
 0.00052622,-0.00051845,-0.00013193,0.00051638,0.00067907,-0.00038018,-
 0.00270469,-0.05312643,-0.08011056,0.01016187,-0.03619315,-0.00906983,
 0.00647422,0.01571687,0.00597802,-0.00754116,0.05836465,0.09126336,0.0
 0010254,-0.00015443,0.00016981,-0.00024676,-0.00004601,-0.00030907,0.0
 0005259,0.00000313,-0.00048989,-0.00216926,-0.00042633,0.00014233,0.00
 022837,0.00031325,-0.00042888,-0.00008829,0.00010383,-0.00006992,0.000
 02232,0.00000961,0.00001679,0.00004543,0.00009517,0.00014413,0.0001717
 7,0.00084751,-0.00059820,0.00000296,-0.00004775,0.00005006,0.00002466,
 0.00002205,-0.00002814,0.00037376,-0.00004838,0.00023928,0.00065298,0.
 00067374,-0.00215262,0.00049361,0.00060266,0.00010318,-0.00002617,0.00
 004389,0.00035364,0.00001144,0.00005137,-0.00003370,0.00001288,-0.0000
 0977,0.00001133,-0.00000278,0.00000118,-0.00001002,0.00003216,-0.00007
 330,0.00001901,-0.00001501,0.00002199,-0.00000168,-0.00002446,-0.00000
 403,-0.00002381,0.00007244,0.00007383,-0.00007628,-0.00001708,-0.00005
 589,0.00045257,-0.00013059,0.00008463,0.00018475,0.00014056,0.00002310
 ,-0.00022469,0.00006382,0.00001888,-0.00008895,0.00019670,-0.00002335,
 -0.00007075,-0.00004110,-0.00002994,-0.00004490,0.00005244,-0.00019687
 ,-0.00006836,-0.00003610,-0.00000379,0.00002625,-0.00000514,0.00002090
 ,-0.00000333,-0.00002624,0.00001204,0.00003327,-0.00000480,0.00001690,
 0.00000840,-0.00004140,0.00001377,0.00003066,0.00003588,0.00009404,0.0
 0008821,-0.00008853,-0.00001316,0.00012670,-0.00016722,-0.00007313,0.0
 0015157,0.00036067,-0.00002086,-0.00006177,-0.00003477,-0.00003963,0.0
 0000342,-0.00008072,0.00005886,0.00006152,-0.00038234,0.00064010,0.000
 11418,0.00009378,-0.00033567,-0.00018434,-0.00001681,-0.00004223,-0.00
 002138,0.00001733,0.00001605,-0.00003701,0.00042864,-0.00085698,-0.000
 36892,-0.00073179,0.00066599,-0.00000068,0.00000418,0.00016367,0.00001
 450,-0.00011862,0.00013167,-0.00011889,0.00027192,0.00016588,-0.000044
 45,0.00004833,0.00038694,0.00006907,0.00003753,-0.00011250,0.00003153,
 -0.00004290,-0.00001209,-0.00001038,0.00000524,-0.00004019,0.00001261,
 0.00001325,-0.00017751,0.00002302,0.00003139,0.00004014,-0.00026162,0.
 00007071,-0.00012055,0.00011724,0.00008667,-0.00021105,-0.00000518,0.0
 0063694,-0.00014284,-0.00054780,-0.00131715,0.00460988,0.00134082,-0.0
 0055579,-0.00047421,-0.00034608,-0.00089351,-0.00103659,-0.00048984,-0
 .00230945,-0.00622000,-0.00885469,0.00209570,-0.00056335,-0.00091252,-
 0.00003331,0.00003496,-0.00000530,-0.00003457,0.00001827,0.00004647,-0
 .00016439,0.00002953,0.00052420,0.00002841,0.00003849,-0.00008959,-0.0
 0007652,-0.00004277,-0.00002342,-0.00009038,-0.00013780,-0.00008876,0.
 00005588,0.00001173,-0.00000703,-0.00000217,0.00012868,-0.00000813,0.0
 0008627,-0.00008630,0.00031505,-0.00006010,-0.00008758,0.00003450,-0.0
 0010597,0.00012613,-0.00016661,0.00028611,0.00053565,0.00151201,-0.000
 41120,0.00059505,0.00019707,-0.00071485,-0.00113480,0.00016915,0.03183
 073,0.00789551,-0.00825569,-0.00002196,0.00092810,0.00044621,0.0004004
 4,-0.00164672,-0.00512628,0.03648867,0.01112879,-0.07124907,-0.0058523
 5,-0.00013893,0.00103963,-0.02144237,-0.01063419,0.00988129,-0.0375431
 5,-0.00597601,0.08370322\\0.00000505,-0.00001391,0.00000489,-0.0000205
 5,0.00000487,-0.00002325,0.00000537,-0.00001166,-0.00000014,-0.0000029
 8,0.00000581,-0.00001111,-0.00001148,-0.00000438,0.00000499,0.00000126
 ,0.00000239,0.00000522,0.00000165,-0.00000027,0.00000009,-0.00000215,-
 0.00000054,-0.00000035,0.00000146,0.00000381,-0.00000163,0.00000151,0.
 00000039,0.00000069,-0.00000015,-0.00000076,0.00000284,0.00000433,0.00
 000211,0.00000871,0.00002588,-0.00001662,-0.00001567,-0.00000697,0.000
 01198,0.00000797,0.00001588,0.00000472,0.00001858,-0.00000380,0.000006
 19,-0.00000331,-0.00000223,-0.00000422,-0.00000375,-0.00000067,-0.0000
 0173,-0.00000116,0.00000242,-0.00000931,0.00000901,-0.00000320,-0.0000
 0233,-0.00000563,0.00000142,-0.00000654,0.00000103,-0.00000524,0.00000
 215,0.00000775,0.00000538,-0.00000466,-0.00000627,-0.00000278,0.000006
 31,0.00001204,0.00000257,-0.00000149,-0.00001322,-0.00000237,0.0000018
 5,-0.00000132,0.00000115,0.00000389,-0.00000155,-0.00001105,-0.0000071
 1,0.00000176,0.00000530,-0.00000412,-0.00000386,-0.00000018,0.00000182
 ,0.00000009,-0.00000235,0.00000118,-0.00000086,0.00000134,-0.00000298,
 -0.00000143,0.00000157,0.00000068,0.00000013,-0.00000135,0.00000147,-0
 .00000009,0.00000035,0.00000401,-0.00000520,-0.00000861,-0.00000564,-0
 .00000239,-0.00000793,0.00000578,0.00000554,-0.00000424,0.00000797,0.0
 0000590,0.00000224,0.00000067,0.00000181,0.00000280,0.00000055,-0.0000
 0121,0.00001941,-0.00000792,-0.00000442,-0.00001264,0.00000579,0.00000
 098,0.00000545,-0.00000119,0.00000057,0.00000080,0.00000509,0.00000276
 ,0.00000259,0.00000273,0.,0.00001567,0.00000596,-0.00000233,-0.0000138
 3,-0.00000037,0.00000196,0.00000120,0.00000130,-0.00000589,0.00001278,
 -0.00000815,-0.00001555,-0.00000904,0.00000523,0.00001018,-0.00000166,
 0.00000096,-0.00000101,-0.00000254,-0.00000022,-0.00000040,-0.00000022
 ,0.00000326,0.00000012,0.00000162,0.00000191,-0.00000146,-0.00000337,-
 0.00000293,0.00000060,-0.00001285,-0.00001299,0.00000473,0.00000861,-0
 .00000189,-0.00000025,-0.00001566,-0.00000244,-0.00000206,-0.00000330,
 0.00001378,-0.00001026,0.00000087,-0.00000158,-0.00000054,0.00000367,0
 .00000082,-0.00000261,-0.00001338,-0.00002027,0.00001143,0.00001275,0.
 00000516,-0.00000335,0.00000737,0.00000912,-0.00000491,-0.00000533,-0.
 00000243,-0.00000223,0.00000217,0.00000133,0.00000015,0.00000138,0.000
 00168,-0.00000086,0.00000090,0.00000047,0.00000084,0.00000042,0.000000
 28,0.00000165,0.00000103,0.00000062,-0.00000029,-0.00000075,-0.0000012
 1,-0.00000094,0.00000039,-0.00000031,-0.00000004,0.00000098,0.00000017
 ,-0.00000087,0.00000030,-0.00000008,0.00000262,0.00000340,-0.00000083,
 -0.00000131,0.00000114,0.00000079,0.00000097,0.00000175,0.00000111,0.0
 0000038,-0.00000127,0.00000632,0.00000974,0.00000247,-0.00000018,-0.00
 000004,0.00000179,-0.00000173,-0.00000148,0.00001421,0.00002379,-0.000
 02805,0.00001257,0.00000947,-0.00000097,-0.00004843,0.00000621,0.00005
 146,0.00001790,-0.00002892,-0.00000470\\\@


 QED = W**5 (WHICH WAS WHAT WE WANTED)
 Job cpu time:      26 days 21 hours 39 minutes 51.6 seconds.
 File lengths (MBytes):  RWF=  24082 Int=      0 D2E=      0 Chk=     99 Scr=      1
 Normal termination of Gaussian 09 at Wed May  4 22:32:24 2016.
