 Entering Gaussian System, Link 0=g16
 Input=input.com
 Output=input.log
 Initial command:
 /home/matma/Programs/gaussian/G16_x86_SSE4/tar/g16/l1.exe "/scratch-data/gaussian/Gau-6537.inp" -scrdir="/scratch-data/gaussian/"
 Entering Link 1 = /home/matma/Programs/gaussian/G16_x86_SSE4/tar/g16/l1.exe PID=      6539.
  
 Copyright (c) 1988-2017, Gaussian, Inc.  All Rights Reserved.
  
 This is part of the Gaussian(R) 16 program.  It is based on
 the Gaussian(R) 09 system (copyright 2009, Gaussian, Inc.),
 the Gaussian(R) 03 system (copyright 2003, Gaussian, Inc.),
 the Gaussian(R) 98 system (copyright 1998, Gaussian, Inc.),
 the Gaussian(R) 94 system (copyright 1995, Gaussian, Inc.),
 the Gaussian 92(TM) system (copyright 1992, Gaussian, Inc.),
 the Gaussian 90(TM) system (copyright 1990, Gaussian, Inc.),
 the Gaussian 88(TM) system (copyright 1988, Gaussian, Inc.),
 the Gaussian 86(TM) system (copyright 1986, Carnegie Mellon
 University), and the Gaussian 82(TM) system (copyright 1983,
 Carnegie Mellon University). Gaussian is a federally registered
 trademark of Gaussian, Inc.
  
 This software contains proprietary and confidential information,
 including trade secrets, belonging to Gaussian, Inc.
  
 This software is provided under written license and may be
 used, copied, transmitted, or stored only in accord with that
 written license.
  
 The following legend is applicable only to US Government
 contracts under FAR:
  
                    RESTRICTED RIGHTS LEGEND
  
 Use, reproduction and disclosure by the US Government is
 subject to restrictions as set forth in subparagraphs (a)
 and (c) of the Commercial Computer Software - Restricted
 Rights clause in FAR 52.227-19.
  
 Gaussian, Inc.
 340 Quinnipiac St., Bldg. 40, Wallingford CT 06492
  
  
 ---------------------------------------------------------------
 Warning -- This program may not be used in any manner that
 competes with the business of Gaussian, Inc. or will provide
 assistance to any competitor of Gaussian, Inc.  The licensee
 of this program is prohibited from giving any competitor of
 Gaussian, Inc. access to this program.  By using this program,
 the user acknowledges that Gaussian, Inc. is engaged in the
 business of creating and licensing software in the field of
 computational chemistry and represents and warrants to the
 licensee that it is not a competitor of Gaussian, Inc. and that
 it will not use this program in any manner prohibited above.
 ---------------------------------------------------------------
  

 Cite this work as:
 Gaussian 16, Revision B.01,
 M. J. Frisch, G. W. Trucks, H. B. Schlegel, G. E. Scuseria, 
 M. A. Robb, J. R. Cheeseman, G. Scalmani, V. Barone, 
 G. A. Petersson, H. Nakatsuji, X. Li, M. Caricato, A. V. Marenich, 
 J. Bloino, B. G. Janesko, R. Gomperts, B. Mennucci, H. P. Hratchian, 
 J. V. Ortiz, A. F. Izmaylov, J. L. Sonnenberg, D. Williams-Young, 
 F. Ding, F. Lipparini, F. Egidi, J. Goings, B. Peng, A. Petrone, 
 T. Henderson, D. Ranasinghe, V. G. Zakrzewski, J. Gao, N. Rega, 
 G. Zheng, W. Liang, M. Hada, M. Ehara, K. Toyota, R. Fukuda, 
 J. Hasegawa, M. Ishida, T. Nakajima, Y. Honda, O. Kitao, H. Nakai, 
 T. Vreven, K. Throssell, J. A. Montgomery, Jr., J. E. Peralta, 
 F. Ogliaro, M. J. Bearpark, J. J. Heyd, E. N. Brothers, K. N. Kudin, 
 V. N. Staroverov, T. A. Keith, R. Kobayashi, J. Normand, 
 K. Raghavachari, A. P. Rendell, J. C. Burant, S. S. Iyengar, 
 J. Tomasi, M. Cossi, J. M. Millam, M. Klene, C. Adamo, R. Cammi, 
 J. W. Ochterski, R. L. Martin, K. Morokuma, O. Farkas, 
 J. B. Foresman, and D. J. Fox, Gaussian, Inc., Wallingford CT, 2016.
 
 ******************************************
 Gaussian 16:  ES64L-G16RevB.01 20-Dec-2017
                22-Jun-2021 
 ******************************************
 %nproc=12
 Will use up to   12 processors via shared memory.
 %mem=16GB
 --------------------------------------
 #P pm6 opt=loose freq int=(grid=99590)
 --------------------------------------
 1/7=-1,18=20,19=15,26=1,38=1/1,3;
 2/9=110,12=2,17=6,18=5,40=1/2;
 3/5=2,25=1,41=3900000,71=1,75=99590/1,2,3;
 4/35=1/1;
 5/5=2,35=1,38=5/2;
 6/7=2,8=2,9=2,10=2,28=1/1;
 7//1,2,3,16;
 1/7=-1,18=20,19=15,26=1/3(2);
 2/9=110/2;
 99//99;
 2/9=110/2;
 3/5=2,25=1,41=3900000,71=1,75=99590,135=20/1,2,3;
 4/5=5,16=3,35=1/1;
 5/5=2,35=1,38=5/2;
 7//1,2,3,16;
 1/7=-1,18=20,19=15,26=1/3(-5);
 2/9=110/2;
 6/7=2,8=2,9=2,10=2,19=2,28=1/1;
 99/9=1/99;
 Leave Link    1 at Tue Jun 22 14:17:34 2021, MaxMem=  2147483648 cpu:               0.2 elap:               0.0
 (Enter /home/matma/Programs/gaussian/G16_x86_SSE4/tar/g16/l101.exe)
 ----------
 initial-01
 ----------
 Symbolic Z-matrix:
 Charge =  0 Multiplicity = 1
 O                     2.661     2.109    -0.056 
 C                     2.764     2.782     1.222 
 C                     2.872     1.758     2.371 
 O                     4.068     0.978     2.209 
 C                     1.619     0.848     2.368 
 C                     0.271     1.661     2.255 
 O                     0.31      2.703     1.263 
 C                     1.452     3.57      1.443 
 C                     1.301     4.725     0.434 
 O                     2.491     5.522     0.544 
 O                    -4.447    -2.316     1.171 
 C                    -3.252    -1.947     1.902 
 C                    -2.683    -0.515     1.701 
 C                    -1.47     -0.317     2.643 
 C                    -1.83     -0.647     4.116 
 O                    -2.408    -1.951     4.233 
 C                    -3.567    -2.165     3.42 
 C                    -3.93     -3.621     3.748 
 O                    -2.805    -4.478     3.432 
 O                    -0.616    -0.726     4.839 
 O                    -1.048     1.038     2.472 
 O                    -2.231    -0.359     0.348 
 O                     1.668     0.084     3.58 
 H                     3.63      3.467     1.225 
 H                     2.898     2.316     3.329 
 H                     4.006     0.293     2.935 
 H                     1.708     0.189     1.487 
 H                     0.056     2.101     3.254 
 H                     1.459     3.985     2.471 
 H                     1.184     4.296    -0.58 
 H                     0.384     5.29      0.681 
 H                     2.266     6.39      0.11 
 H                    -2.444    -2.646     1.622 
 H                    -3.463     0.23      1.961 
 H                    -0.678    -1.032     2.334 
 H                    -2.519     0.129     4.52 
 H                    -4.405    -1.502     3.704 
 H                    -4.107    -3.719     4.83 
 H                    -4.841    -3.921     3.207 
 H                    -2.846    -4.627     2.446 
 H                    -3.024    -0.107     0. 
 H                    -4.291    -3.31      0.611 
 H                     1.086    -0.708     3.393 
 H                    -0.755    -0.702     5.788 
 H                     3.47      1.657    -0.308 
 
 Add virtual bond connecting atoms H42        and O11        Dist= 2.18D+00.
 ITRead=  0  0  0  0  0  0  0  0  0  0  0  0  0  0  0  0  0  0  0  0
 ITRead=  0  0  0  0  0  0  0  0  0  0  0  0  0  0  0  0  0  0  0  0
 ITRead=  0  0  0  0  0
 MicOpt= -1 -1 -1 -1 -1 -1 -1 -1 -1 -1 -1 -1 -1 -1 -1 -1 -1 -1 -1 -1
 MicOpt= -1 -1 -1 -1 -1 -1 -1 -1 -1 -1 -1 -1 -1 -1 -1 -1 -1 -1 -1 -1
 MicOpt= -1 -1 -1 -1 -1
 NAtoms=     45 NQM=       45 NQMF=       0 NMMI=      0 NMMIF=      0
                NMic=       0 NMicF=      0.
                    Isotopes and Nuclear Properties:
 (Nuclear quadrupole moments (NQMom) in fm**2, nuclear magnetic moments (NMagM)
  in nuclear magnetons)

  Atom         1           2           3           4           5           6           7           8           9          10
 IAtWgt=          16          12          12          16          12          12          16          12          12          16
 AtmWgt=  15.9949146  12.0000000  12.0000000  15.9949146  12.0000000  12.0000000  15.9949146  12.0000000  12.0000000  15.9949146
 NucSpn=           0           0           0           0           0           0           0           0           0           0
 AtZEff=  -0.0000000  -0.0000000  -0.0000000  -0.0000000  -0.0000000  -0.0000000  -0.0000000  -0.0000000  -0.0000000  -0.0000000
 NQMom=    0.0000000   0.0000000   0.0000000   0.0000000   0.0000000   0.0000000   0.0000000   0.0000000   0.0000000   0.0000000
 NMagM=    0.0000000   0.0000000   0.0000000   0.0000000   0.0000000   0.0000000   0.0000000   0.0000000   0.0000000   0.0000000
 AtZNuc=   8.0000000   6.0000000   6.0000000   8.0000000   6.0000000   6.0000000   8.0000000   6.0000000   6.0000000   8.0000000

  Atom        11          12          13          14          15          16          17          18          19          20
 IAtWgt=          16          12          12          12          12          16          12          12          16          16
 AtmWgt=  15.9949146  12.0000000  12.0000000  12.0000000  12.0000000  15.9949146  12.0000000  12.0000000  15.9949146  15.9949146
 NucSpn=           0           0           0           0           0           0           0           0           0           0
 AtZEff=  -0.0000000  -0.0000000  -0.0000000  -0.0000000  -0.0000000  -0.0000000  -0.0000000  -0.0000000  -0.0000000  -0.0000000
 NQMom=    0.0000000   0.0000000   0.0000000   0.0000000   0.0000000   0.0000000   0.0000000   0.0000000   0.0000000   0.0000000
 NMagM=    0.0000000   0.0000000   0.0000000   0.0000000   0.0000000   0.0000000   0.0000000   0.0000000   0.0000000   0.0000000
 AtZNuc=   8.0000000   6.0000000   6.0000000   6.0000000   6.0000000   8.0000000   6.0000000   6.0000000   8.0000000   8.0000000

  Atom        21          22          23          24          25          26          27          28          29          30
 IAtWgt=          16          16          16           1           1           1           1           1           1           1
 AtmWgt=  15.9949146  15.9949146  15.9949146   1.0078250   1.0078250   1.0078250   1.0078250   1.0078250   1.0078250   1.0078250
 NucSpn=           0           0           0           1           1           1           1           1           1           1
 AtZEff=  -0.0000000  -0.0000000  -0.0000000  -0.0000000  -0.0000000  -0.0000000  -0.0000000  -0.0000000  -0.0000000  -0.0000000
 NQMom=    0.0000000   0.0000000   0.0000000   0.0000000   0.0000000   0.0000000   0.0000000   0.0000000   0.0000000   0.0000000
 NMagM=    0.0000000   0.0000000   0.0000000   2.7928460   2.7928460   2.7928460   2.7928460   2.7928460   2.7928460   2.7928460
 AtZNuc=   8.0000000   8.0000000   8.0000000   1.0000000   1.0000000   1.0000000   1.0000000   1.0000000   1.0000000   1.0000000

  Atom        31          32          33          34          35          36          37          38          39          40
 IAtWgt=           1           1           1           1           1           1           1           1           1           1
 AtmWgt=   1.0078250   1.0078250   1.0078250   1.0078250   1.0078250   1.0078250   1.0078250   1.0078250   1.0078250   1.0078250
 NucSpn=           1           1           1           1           1           1           1           1           1           1
 AtZEff=  -0.0000000  -0.0000000  -0.0000000  -0.0000000  -0.0000000  -0.0000000  -0.0000000  -0.0000000  -0.0000000  -0.0000000
 NQMom=    0.0000000   0.0000000   0.0000000   0.0000000   0.0000000   0.0000000   0.0000000   0.0000000   0.0000000   0.0000000
 NMagM=    2.7928460   2.7928460   2.7928460   2.7928460   2.7928460   2.7928460   2.7928460   2.7928460   2.7928460   2.7928460
 AtZNuc=   1.0000000   1.0000000   1.0000000   1.0000000   1.0000000   1.0000000   1.0000000   1.0000000   1.0000000   1.0000000

  Atom        41          42          43          44          45
 IAtWgt=           1           1           1           1           1
 AtmWgt=   1.0078250   1.0078250   1.0078250   1.0078250   1.0078250
 NucSpn=           1           1           1           1           1
 AtZEff=  -0.0000000  -0.0000000  -0.0000000  -0.0000000  -0.0000000
 NQMom=    0.0000000   0.0000000   0.0000000   0.0000000   0.0000000
 NMagM=    2.7928460   2.7928460   2.7928460   2.7928460   2.7928460
 AtZNuc=   1.0000000   1.0000000   1.0000000   1.0000000   1.0000000
 Leave Link  101 at Tue Jun 22 14:17:34 2021, MaxMem=  2147483648 cpu:               2.5 elap:               0.2
 (Enter /home/matma/Programs/gaussian/G16_x86_SSE4/tar/g16/l103.exe)

 GradGradGradGradGradGradGradGradGradGradGradGradGradGradGradGradGradGrad
 Berny optimization.
 Initialization pass.
                           ----------------------------
                           !    Initial Parameters    !
                           ! (Angstroms and Degrees)  !
 --------------------------                            --------------------------
 ! Name  Definition              Value          Derivative Info.                !
 --------------------------------------------------------------------------------
 ! R1    R(1,2)                  1.448          estimate D2E/DX2                !
 ! R2    R(1,45)                 0.9604         estimate D2E/DX2                !
 ! R3    R(2,3)                  1.5429         estimate D2E/DX2                !
 ! R4    R(2,8)                  1.5463         estimate D2E/DX2                !
 ! R5    R(2,24)                 1.1042         estimate D2E/DX2                !
 ! R6    R(3,4)                  1.437          estimate D2E/DX2                !
 ! R7    R(3,5)                  1.5486         estimate D2E/DX2                !
 ! R8    R(3,25)                 1.109          estimate D2E/DX2                !
 ! R9    R(4,26)                 1.0001         estimate D2E/DX2                !
 ! R10   R(5,6)                  1.5782         estimate D2E/DX2                !
 ! R11   R(5,23)                 1.4335         estimate D2E/DX2                !
 ! R12   R(5,27)                 1.1038         estimate D2E/DX2                !
 ! R13   R(6,7)                  1.4392         estimate D2E/DX2                !
 ! R14   R(6,21)                 1.4748         estimate D2E/DX2                !
 ! R15   R(6,28)                 1.1126         estimate D2E/DX2                !
 ! R16   R(7,8)                  1.4451         estimate D2E/DX2                !
 ! R17   R(8,9)                  1.5411         estimate D2E/DX2                !
 ! R18   R(8,29)                 1.1086         estimate D2E/DX2                !
 ! R19   R(9,10)                 1.4365         estimate D2E/DX2                !
 ! R20   R(9,30)                 1.1072         estimate D2E/DX2                !
 ! R21   R(9,31)                 1.105          estimate D2E/DX2                !
 ! R22   R(10,32)                0.9962         estimate D2E/DX2                !
 ! R23   R(11,12)                1.4486         estimate D2E/DX2                !
 ! R24   R(11,42)                1.1515         estimate D2E/DX2                !
 ! R25   R(12,13)                1.554          estimate D2E/DX2                !
 ! R26   R(12,17)                1.5656         estimate D2E/DX2                !
 ! R27   R(12,33)                1.1045         estimate D2E/DX2                !
 ! R28   R(13,14)                1.5485         estimate D2E/DX2                !
 ! R29   R(13,22)                1.435          estimate D2E/DX2                !
 ! R30   R(13,34)                1.1095         estimate D2E/DX2                !
 ! R31   R(14,15)                1.5518         estimate D2E/DX2                !
 ! R32   R(14,21)                1.4295         estimate D2E/DX2                !
 ! R33   R(14,35)                1.1108         estimate D2E/DX2                !
 ! R34   R(15,16)                1.4311         estimate D2E/DX2                !
 ! R35   R(15,20)                1.4152         estimate D2E/DX2                !
 ! R36   R(15,36)                1.1136         estimate D2E/DX2                !
 ! R37   R(16,17)                1.4318         estimate D2E/DX2                !
 ! R38   R(17,18)                1.536          estimate D2E/DX2                !
 ! R39   R(17,37)                1.1057         estimate D2E/DX2                !
 ! R40   R(18,19)                1.4491         estimate D2E/DX2                !
 ! R41   R(18,38)                1.1008         estimate D2E/DX2                !
 ! R42   R(18,39)                1.1012         estimate D2E/DX2                !
 ! R43   R(19,40)                0.998          estimate D2E/DX2                !
 ! R44   R(20,44)                0.9594         estimate D2E/DX2                !
 ! R45   R(22,41)                0.9019         estimate D2E/DX2                !
 ! R46   R(23,43)                1.0005         estimate D2E/DX2                !
 ! A1    A(2,1,45)             112.9803         estimate D2E/DX2                !
 ! A2    A(1,2,3)              110.7187         estimate D2E/DX2                !
 ! A3    A(1,2,8)              107.6155         estimate D2E/DX2                !
 ! A4    A(1,2,24)             110.2743         estimate D2E/DX2                !
 ! A5    A(3,2,8)              106.9283         estimate D2E/DX2                !
 ! A6    A(3,2,24)             110.7823         estimate D2E/DX2                !
 ! A7    A(8,2,24)             110.4213         estimate D2E/DX2                !
 ! A8    A(2,3,4)              109.5452         estimate D2E/DX2                !
 ! A9    A(2,3,5)              109.386          estimate D2E/DX2                !
 ! A10   A(2,3,25)             108.121          estimate D2E/DX2                !
 ! A11   A(4,3,5)              110.7465         estimate D2E/DX2                !
 ! A12   A(4,3,25)             110.5477         estimate D2E/DX2                !
 ! A13   A(5,3,25)             108.4408         estimate D2E/DX2                !
 ! A14   A(3,4,26)             103.789          estimate D2E/DX2                !
 ! A15   A(3,5,6)              112.8623         estimate D2E/DX2                !
 ! A16   A(3,5,23)             106.492          estimate D2E/DX2                !
 ! A17   A(3,5,27)             106.6869         estimate D2E/DX2                !
 ! A18   A(6,5,23)             111.3624         estimate D2E/DX2                !
 ! A19   A(6,5,27)             108.6188         estimate D2E/DX2                !
 ! A20   A(23,5,27)            110.724          estimate D2E/DX2                !
 ! A21   A(5,6,7)              113.5258         estimate D2E/DX2                !
 ! A22   A(5,6,21)             122.3949         estimate D2E/DX2                !
 ! A23   A(5,6,28)             107.7273         estimate D2E/DX2                !
 ! A24   A(7,6,21)             115.5627         estimate D2E/DX2                !
 ! A25   A(7,6,28)             109.7434         estimate D2E/DX2                !
 ! A26   A(21,6,28)             82.0743         estimate D2E/DX2                !
 ! A27   A(6,7,8)              111.7118         estimate D2E/DX2                !
 ! A28   A(2,8,7)              110.3021         estimate D2E/DX2                !
 ! A29   A(2,8,9)              111.8076         estimate D2E/DX2                !
 ! A30   A(2,8,29)             108.5376         estimate D2E/DX2                !
 ! A31   A(7,8,9)              106.8983         estimate D2E/DX2                !
 ! A32   A(7,8,29)             110.1867         estimate D2E/DX2                !
 ! A33   A(9,8,29)             109.0978         estimate D2E/DX2                !
 ! A34   A(8,9,10)             106.5306         estimate D2E/DX2                !
 ! A35   A(8,9,30)             108.6375         estimate D2E/DX2                !
 ! A36   A(8,9,31)             108.5519         estimate D2E/DX2                !
 ! A37   A(10,9,30)            111.879          estimate D2E/DX2                !
 ! A38   A(10,9,31)            112.7465         estimate D2E/DX2                !
 ! A39   A(30,9,31)            108.3679         estimate D2E/DX2                !
 ! A40   A(9,10,32)            105.2463         estimate D2E/DX2                !
 ! A41   A(12,11,42)           110.7033         estimate D2E/DX2                !
 ! A42   A(11,12,13)           118.1325         estimate D2E/DX2                !
 ! A43   A(11,12,17)           106.7281         estimate D2E/DX2                !
 ! A44   A(11,12,33)           108.3214         estimate D2E/DX2                !
 ! A45   A(13,12,17)           109.1113         estimate D2E/DX2                !
 ! A46   A(13,12,33)           106.4122         estimate D2E/DX2                !
 ! A47   A(17,12,33)           107.7507         estimate D2E/DX2                !
 ! A48   A(12,13,14)           109.0242         estimate D2E/DX2                !
 ! A49   A(12,13,22)           109.7226         estimate D2E/DX2                !
 ! A50   A(12,13,34)           109.3319         estimate D2E/DX2                !
 ! A51   A(14,13,22)           108.2355         estimate D2E/DX2                !
 ! A52   A(14,13,34)           108.8007         estimate D2E/DX2                !
 ! A53   A(22,13,34)           111.6776         estimate D2E/DX2                !
 ! A54   A(13,14,15)           111.6234         estimate D2E/DX2                !
 ! A55   A(13,14,21)           106.2413         estimate D2E/DX2                !
 ! A56   A(13,14,35)           107.877          estimate D2E/DX2                !
 ! A57   A(15,14,21)           112.5572         estimate D2E/DX2                !
 ! A58   A(15,14,35)           107.0111         estimate D2E/DX2                !
 ! A59   A(21,14,35)           111.492          estimate D2E/DX2                !
 ! A60   A(14,15,16)           111.4104         estimate D2E/DX2                !
 ! A61   A(14,15,20)           107.3253         estimate D2E/DX2                !
 ! A62   A(14,15,36)           109.8587         estimate D2E/DX2                !
 ! A63   A(16,15,20)           104.704          estimate D2E/DX2                !
 ! A64   A(16,15,36)           110.8172         estimate D2E/DX2                !
 ! A65   A(20,15,36)           112.6009         estimate D2E/DX2                !
 ! A66   A(15,16,17)           114.6255         estimate D2E/DX2                !
 ! A67   A(12,17,16)           111.5232         estimate D2E/DX2                !
 ! A68   A(12,17,18)           112.7427         estimate D2E/DX2                !
 ! A69   A(12,17,37)           108.5452         estimate D2E/DX2                !
 ! A70   A(16,17,18)           102.2235         estimate D2E/DX2                !
 ! A71   A(16,17,37)           112.2125         estimate D2E/DX2                !
 ! A72   A(18,17,37)           109.5388         estimate D2E/DX2                !
 ! A73   A(17,18,19)           109.3027         estimate D2E/DX2                !
 ! A74   A(17,18,38)           109.4083         estimate D2E/DX2                !
 ! A75   A(17,18,39)           110.4168         estimate D2E/DX2                !
 ! A76   A(19,18,38)           106.6504         estimate D2E/DX2                !
 ! A77   A(19,18,39)           111.963          estimate D2E/DX2                !
 ! A78   A(38,18,39)           109.0042         estimate D2E/DX2                !
 ! A79   A(18,19,40)           105.7734         estimate D2E/DX2                !
 ! A80   A(15,20,44)           112.3123         estimate D2E/DX2                !
 ! A81   A(6,21,14)            133.0053         estimate D2E/DX2                !
 ! A82   A(13,22,41)            96.732          estimate D2E/DX2                !
 ! A83   A(5,23,43)            104.1217         estimate D2E/DX2                !
 ! D1    D(45,1,2,3)           -68.6105         estimate D2E/DX2                !
 ! D2    D(45,1,2,8)           174.8559         estimate D2E/DX2                !
 ! D3    D(45,1,2,24)           54.3547         estimate D2E/DX2                !
 ! D4    D(1,2,3,4)             62.2123         estimate D2E/DX2                !
 ! D5    D(1,2,3,5)            -59.3488         estimate D2E/DX2                !
 ! D6    D(1,2,3,25)          -177.2527         estimate D2E/DX2                !
 ! D7    D(8,2,3,4)            179.1698         estimate D2E/DX2                !
 ! D8    D(8,2,3,5)             57.6087         estimate D2E/DX2                !
 ! D9    D(8,2,3,25)           -60.2952         estimate D2E/DX2                !
 ! D10   D(24,2,3,4)           -60.458          estimate D2E/DX2                !
 ! D11   D(24,2,3,5)           177.9809         estimate D2E/DX2                !
 ! D12   D(24,2,3,25)           60.077          estimate D2E/DX2                !
 ! D13   D(1,2,8,7)             52.0281         estimate D2E/DX2                !
 ! D14   D(1,2,8,9)            -66.7778         estimate D2E/DX2                !
 ! D15   D(1,2,8,29)           172.8338         estimate D2E/DX2                !
 ! D16   D(3,2,8,7)            -66.9606         estimate D2E/DX2                !
 ! D17   D(3,2,8,9)            174.2334         estimate D2E/DX2                !
 ! D18   D(3,2,8,29)            53.8451         estimate D2E/DX2                !
 ! D19   D(24,2,8,7)           172.4366         estimate D2E/DX2                !
 ! D20   D(24,2,8,9)            53.6307         estimate D2E/DX2                !
 ! D21   D(24,2,8,29)          -66.7577         estimate D2E/DX2                !
 ! D22   D(2,3,4,26)          -174.594          estimate D2E/DX2                !
 ! D23   D(5,3,4,26)           -53.8552         estimate D2E/DX2                !
 ! D24   D(25,3,4,26)           66.3585         estimate D2E/DX2                !
 ! D25   D(2,3,5,6)            -47.7909         estimate D2E/DX2                !
 ! D26   D(2,3,5,23)          -170.2783         estimate D2E/DX2                !
 ! D27   D(2,3,5,27)            71.4259         estimate D2E/DX2                !
 ! D28   D(4,3,5,6)           -168.6242         estimate D2E/DX2                !
 ! D29   D(4,3,5,23)            68.8883         estimate D2E/DX2                !
 ! D30   D(4,3,5,27)           -49.4074         estimate D2E/DX2                !
 ! D31   D(25,3,5,6)            69.9127         estimate D2E/DX2                !
 ! D32   D(25,3,5,23)          -52.5747         estimate D2E/DX2                !
 ! D33   D(25,3,5,27)         -170.8705         estimate D2E/DX2                !
 ! D34   D(3,5,6,7)             44.642          estimate D2E/DX2                !
 ! D35   D(3,5,6,21)          -168.8897         estimate D2E/DX2                !
 ! D36   D(3,5,6,28)           -77.0912         estimate D2E/DX2                !
 ! D37   D(23,5,6,7)           164.3601         estimate D2E/DX2                !
 ! D38   D(23,5,6,21)          -49.1716         estimate D2E/DX2                !
 ! D39   D(23,5,6,28)           42.6269         estimate D2E/DX2                !
 ! D40   D(27,5,6,7)           -73.4496         estimate D2E/DX2                !
 ! D41   D(27,5,6,21)           73.0187         estimate D2E/DX2                !
 ! D42   D(27,5,6,28)          164.8171         estimate D2E/DX2                !
 ! D43   D(3,5,23,43)         -158.8029         estimate D2E/DX2                !
 ! D44   D(6,5,23,43)           77.7696         estimate D2E/DX2                !
 ! D45   D(27,5,23,43)         -43.1962         estimate D2E/DX2                !
 ! D46   D(5,6,7,8)            -52.1652         estimate D2E/DX2                !
 ! D47   D(21,6,7,8)           158.9689         estimate D2E/DX2                !
 ! D48   D(28,6,7,8)            68.4374         estimate D2E/DX2                !
 ! D49   D(5,6,21,14)           -8.8502         estimate D2E/DX2                !
 ! D50   D(7,6,21,14)          136.9943         estimate D2E/DX2                !
 ! D51   D(28,6,21,14)        -114.857          estimate D2E/DX2                !
 ! D52   D(6,7,8,2)             64.4501         estimate D2E/DX2                !
 ! D53   D(6,7,8,9)           -173.79           estimate D2E/DX2                !
 ! D54   D(6,7,8,29)           -55.3642         estimate D2E/DX2                !
 ! D55   D(2,8,9,10)           -54.6548         estimate D2E/DX2                !
 ! D56   D(2,8,9,30)            66.0306         estimate D2E/DX2                !
 ! D57   D(2,8,9,31)          -176.3256         estimate D2E/DX2                !
 ! D58   D(7,8,9,10)          -175.4609         estimate D2E/DX2                !
 ! D59   D(7,8,9,30)           -54.7754         estimate D2E/DX2                !
 ! D60   D(7,8,9,31)            62.8684         estimate D2E/DX2                !
 ! D61   D(29,8,9,10)           65.4058         estimate D2E/DX2                !
 ! D62   D(29,8,9,30)         -173.9087         estimate D2E/DX2                !
 ! D63   D(29,8,9,31)          -56.2649         estimate D2E/DX2                !
 ! D64   D(8,9,10,32)         -163.2281         estimate D2E/DX2                !
 ! D65   D(30,9,10,32)          78.1899         estimate D2E/DX2                !
 ! D66   D(31,9,10,32)         -44.2611         estimate D2E/DX2                !
 ! D67   D(42,11,12,13)        128.7441         estimate D2E/DX2                !
 ! D68   D(42,11,12,17)       -108.0007         estimate D2E/DX2                !
 ! D69   D(42,11,12,33)          7.7763         estimate D2E/DX2                !
 ! D70   D(11,12,13,14)        176.3622         estimate D2E/DX2                !
 ! D71   D(11,12,13,22)        -65.2628         estimate D2E/DX2                !
 ! D72   D(11,12,13,34)         57.5311         estimate D2E/DX2                !
 ! D73   D(17,12,13,14)         54.3097         estimate D2E/DX2                !
 ! D74   D(17,12,13,22)        172.6846         estimate D2E/DX2                !
 ! D75   D(17,12,13,34)        -64.5214         estimate D2E/DX2                !
 ! D76   D(33,12,13,14)        -61.6939         estimate D2E/DX2                !
 ! D77   D(33,12,13,22)         56.6811         estimate D2E/DX2                !
 ! D78   D(33,12,13,34)        179.475          estimate D2E/DX2                !
 ! D79   D(11,12,17,16)        174.4632         estimate D2E/DX2                !
 ! D80   D(11,12,17,18)         60.1263         estimate D2E/DX2                !
 ! D81   D(11,12,17,37)        -61.4159         estimate D2E/DX2                !
 ! D82   D(13,12,17,16)        -56.8393         estimate D2E/DX2                !
 ! D83   D(13,12,17,18)       -171.1762         estimate D2E/DX2                !
 ! D84   D(13,12,17,37)         67.2815         estimate D2E/DX2                !
 ! D85   D(33,12,17,16)         58.3047         estimate D2E/DX2                !
 ! D86   D(33,12,17,18)        -56.0322         estimate D2E/DX2                !
 ! D87   D(33,12,17,37)       -177.5744         estimate D2E/DX2                !
 ! D88   D(12,13,14,15)        -53.4157         estimate D2E/DX2                !
 ! D89   D(12,13,14,21)       -176.459          estimate D2E/DX2                !
 ! D90   D(12,13,14,35)         63.8765         estimate D2E/DX2                !
 ! D91   D(22,13,14,15)       -172.7195         estimate D2E/DX2                !
 ! D92   D(22,13,14,21)         64.2372         estimate D2E/DX2                !
 ! D93   D(22,13,14,35)        -55.4273         estimate D2E/DX2                !
 ! D94   D(34,13,14,15)         65.7467         estimate D2E/DX2                !
 ! D95   D(34,13,14,21)        -57.2966         estimate D2E/DX2                !
 ! D96   D(34,13,14,35)       -176.9611         estimate D2E/DX2                !
 ! D97   D(12,13,22,41)         86.6813         estimate D2E/DX2                !
 ! D98   D(14,13,22,41)       -154.4565         estimate D2E/DX2                !
 ! D99   D(34,13,22,41)        -34.7138         estimate D2E/DX2                !
 ! D100  D(13,14,15,16)         53.2647         estimate D2E/DX2                !
 ! D101  D(13,14,15,20)        167.3386         estimate D2E/DX2                !
 ! D102  D(13,14,15,36)        -69.9302         estimate D2E/DX2                !
 ! D103  D(21,14,15,16)        172.634          estimate D2E/DX2                !
 ! D104  D(21,14,15,20)        -73.292          estimate D2E/DX2                !
 ! D105  D(21,14,15,36)         49.4392         estimate D2E/DX2                !
 ! D106  D(35,14,15,16)        -64.549          estimate D2E/DX2                !
 ! D107  D(35,14,15,20)         49.5249         estimate D2E/DX2                !
 ! D108  D(35,14,15,36)        172.2561         estimate D2E/DX2                !
 ! D109  D(13,14,21,6)        -132.4988         estimate D2E/DX2                !
 ! D110  D(15,14,21,6)         105.0471         estimate D2E/DX2                !
 ! D111  D(35,14,21,6)         -15.2194         estimate D2E/DX2                !
 ! D112  D(14,15,16,17)        -56.1422         estimate D2E/DX2                !
 ! D113  D(20,15,16,17)       -171.8383         estimate D2E/DX2                !
 ! D114  D(36,15,16,17)         66.5038         estimate D2E/DX2                !
 ! D115  D(14,15,20,44)        165.2642         estimate D2E/DX2                !
 ! D116  D(16,15,20,44)        -76.2328         estimate D2E/DX2                !
 ! D117  D(36,15,20,44)         44.2464         estimate D2E/DX2                !
 ! D118  D(15,16,17,12)         58.6258         estimate D2E/DX2                !
 ! D119  D(15,16,17,18)        179.3328         estimate D2E/DX2                !
 ! D120  D(15,16,17,37)        -63.4028         estimate D2E/DX2                !
 ! D121  D(12,17,18,19)         61.6679         estimate D2E/DX2                !
 ! D122  D(12,17,18,38)        178.1097         estimate D2E/DX2                !
 ! D123  D(12,17,18,39)        -61.9205         estimate D2E/DX2                !
 ! D124  D(16,17,18,19)        -58.1898         estimate D2E/DX2                !
 ! D125  D(16,17,18,38)         58.2521         estimate D2E/DX2                !
 ! D126  D(16,17,18,39)        178.2219         estimate D2E/DX2                !
 ! D127  D(37,17,18,19)       -177.3548         estimate D2E/DX2                !
 ! D128  D(37,17,18,38)        -60.913          estimate D2E/DX2                !
 ! D129  D(37,17,18,39)         59.0568         estimate D2E/DX2                !
 ! D130  D(17,18,19,40)        -80.5196         estimate D2E/DX2                !
 ! D131  D(38,18,19,40)        161.3            estimate D2E/DX2                !
 ! D132  D(39,18,19,40)         42.1502         estimate D2E/DX2                !
 --------------------------------------------------------------------------------
 Trust Radius=3.00D-01 FncErr=1.00D-07 GrdErr=1.00D-07 EigMax=2.50D+02 EigMin=1.00D-04
 Number of steps in this run=    270 maximum allowed number of steps=    270.
 GradGradGradGradGradGradGradGradGradGradGradGradGradGradGradGradGradGrad

 Leave Link  103 at Tue Jun 22 14:17:34 2021, MaxMem=  2147483648 cpu:               0.0 elap:               0.0
 (Enter /home/matma/Programs/gaussian/G16_x86_SSE4/tar/g16/l202.exe)
                          Input orientation:                          
 ---------------------------------------------------------------------
 Center     Atomic      Atomic             Coordinates (Angstroms)
 Number     Number       Type             X           Y           Z
 ---------------------------------------------------------------------
      1          8           0        2.661000    2.109000   -0.056000
      2          6           0        2.764000    2.782000    1.222000
      3          6           0        2.872000    1.758000    2.371000
      4          8           0        4.068000    0.978000    2.209000
      5          6           0        1.619000    0.848000    2.368000
      6          6           0        0.271000    1.661000    2.255000
      7          8           0        0.310000    2.703000    1.263000
      8          6           0        1.452000    3.570000    1.443000
      9          6           0        1.301000    4.725000    0.434000
     10          8           0        2.491000    5.522000    0.544000
     11          8           0       -4.447000   -2.316000    1.171000
     12          6           0       -3.252000   -1.947000    1.902000
     13          6           0       -2.683000   -0.515000    1.701000
     14          6           0       -1.470000   -0.317000    2.643000
     15          6           0       -1.830000   -0.647000    4.116000
     16          8           0       -2.408000   -1.951000    4.233000
     17          6           0       -3.567000   -2.165000    3.420000
     18          6           0       -3.930000   -3.621000    3.748000
     19          8           0       -2.805000   -4.478000    3.432000
     20          8           0       -0.616000   -0.726000    4.839000
     21          8           0       -1.048000    1.038000    2.472000
     22          8           0       -2.231000   -0.359000    0.348000
     23          8           0        1.668000    0.084000    3.580000
     24          1           0        3.630000    3.467000    1.225000
     25          1           0        2.898000    2.316000    3.329000
     26          1           0        4.006000    0.293000    2.935000
     27          1           0        1.708000    0.189000    1.487000
     28          1           0        0.056000    2.101000    3.254000
     29          1           0        1.459000    3.985000    2.471000
     30          1           0        1.184000    4.296000   -0.580000
     31          1           0        0.384000    5.290000    0.681000
     32          1           0        2.266000    6.390000    0.110000
     33          1           0       -2.444000   -2.646000    1.622000
     34          1           0       -3.463000    0.230000    1.961000
     35          1           0       -0.678000   -1.032000    2.334000
     36          1           0       -2.519000    0.129000    4.520000
     37          1           0       -4.405000   -1.502000    3.704000
     38          1           0       -4.107000   -3.719000    4.830000
     39          1           0       -4.841000   -3.921000    3.207000
     40          1           0       -2.846000   -4.627000    2.446000
     41          1           0       -3.024000   -0.107000    0.000000
     42          1           0       -4.291000   -3.310000    0.611000
     43          1           0        1.086000   -0.708000    3.393000
     44          1           0       -0.755000   -0.702000    5.788000
     45          1           0        3.470000    1.657000   -0.308000
 ---------------------------------------------------------------------
                    Distance matrix (angstroms):
                    1          2          3          4          5
     1  O    0.000000
     2  C    1.448041   0.000000
     3  C    2.461311   1.542868   0.000000
     4  O    2.896383   2.434954   1.437032   0.000000
     5  C    2.924322   2.522835   1.548586   2.457597   0.000000
     6  C    3.354627   2.922119   2.605392   3.858214   1.578240
     7  O    2.760398   2.455614   2.946953   4.241828   2.524981
     8  C    2.417272   1.546328   2.482122   3.761473   2.879722
     9  C    2.988839   2.556670   3.875964   4.984669   4.344262
    10  O    3.469506   2.835809   4.201284   5.089901   5.092508
    11  O    8.462258   8.831236   8.461988   9.188749   6.945507
    12  C    7.432931   7.682324   7.172891   7.888743   5.635230
    13  C    6.207315   6.385097   6.039326   6.932757   4.561783
    14  C    5.498658   5.435973   4.820018   5.703931   3.312819
    15  C    6.720878   6.421691   5.562181   6.408095   4.145616
    16  O    7.782922   7.630006   6.715812   7.390142   5.246842
    17  C    8.314904   8.329800   7.612559   8.344950   6.089291
    18  C    9.525996   9.601496   8.780488   9.353466   7.257256
    19  O    9.242936   9.413047   8.499514   8.860124   7.005009
    20  O    6.537353   6.067384   4.942411   5.635634   3.684907
    21  O    4.614597   4.374401   3.986854   5.123107   2.675781
    22  O    5.494170   5.964879   5.883437   6.702857   4.512178
    23  O    4.278688   3.747077   2.390308   2.904975   1.433541
    24  H    2.103351   1.104169   2.192843   2.712051   3.494243
    25  H    3.399595   2.162073   1.108965   2.100844   2.171264
    26  H    3.748728   3.266811   1.936563   1.000072   2.515409
    27  H    2.641109   2.812296   2.144321   2.591024   1.103795
    28  H    4.212148   3.453411   2.971059   4.295265   2.190428
    29  H    3.368963   2.170308   2.639337   3.989683   3.142766
    30  H    2.690553   2.834749   4.242545   5.206256   4.557262
    31  H    3.980786   3.499592   4.639102   5.873669   4.909436
    32  H    4.302388   3.808177   5.189873   6.078055   6.019214
    33  H    7.175426   7.533024   6.943779   7.475566   5.410409
    34  H    6.715825   6.770107   6.529557   7.572118   5.135591
    35  H    5.169807   5.256473   4.515304   5.155603   2.968462
    36  H    7.189755   6.769439   6.027829   7.032076   4.719228
    37  H    8.780961   8.712493   8.084505   8.954170   6.602725
    38  H   10.180590  10.123799   9.206012   9.785810   7.726966
    39  H   10.163074  10.329882   9.614588  10.215992   8.073344
    40  H    9.053218   9.373556   8.571428   8.903684   7.065262
    41  H    6.101886   6.583354   6.622891   7.506888   5.298764
    42  H    8.839726   9.341242   8.949346   9.529608   7.436674
    43  H    4.723528   4.439485   3.211765   3.624469   1.938002
    44  H    7.329605   6.735724   5.557213   6.236423   4.442384
    45  H    0.960359   2.026070   2.746788   2.674684   3.352858
                    6          7          8          9         10
     6  C    0.000000
     7  O    1.439218   0.000000
     8  C    2.387129   1.445079   0.000000
     9  C    3.710126   2.399543   1.541073   0.000000
    10  O    4.771084   3.635998   2.387054   1.436457   0.000000
    11  O    6.265071   6.915770   8.337696   9.119120  10.486335
    12  C    5.055077   5.892255   7.264681   8.209776   9.519043
    13  C    3.710527   4.416494   5.818248   6.703368   8.034569
    14  C    2.663477   3.767386   5.008678   6.162782   7.361334
    15  C    3.633784   4.893027   5.974909   7.226249   8.335873
    16  O    4.912847   6.153709   7.291443   8.529833   9.667195
    17  C    5.543081   6.586441   7.873317   8.949063  10.201015
    18  C    6.912089   8.009107   9.273049  10.392385  11.622793
    19  O    6.966665   8.122472   9.319253  10.513917  11.678534
    20  O    3.627891   5.040168   5.853636   7.265832   8.193777
    21  O    1.474781   2.465374   3.704034   4.823403   6.028927
    22  O    3.738590   4.082861   5.495503   6.191080   7.544658
    23  O    2.488808   3.751242   4.094584   5.618798   6.282234
    24  H    3.950369   3.406984   2.191305   2.762695   2.446243
    25  H    2.912667   3.334047   2.687085   4.090809   4.266182
    26  H    4.035350   4.718485   4.414489   5.763215   5.945969
    27  H    2.195809   2.885269   3.390963   4.674372   5.472040
    28  H    1.112576   2.095472   2.717811   4.048185   4.997656
    29  H    2.618965   2.103090   1.108629   2.173001   2.672213
    30  H    3.976684   2.588083   2.165971   1.107215   2.115349
    31  H    3.957257   2.652691   2.163254   1.105044   2.124157
    32  H    5.562777   4.330048   3.223645   1.951519   0.996195
    33  H    5.130513   6.027039   7.338223   8.352725   9.603777
    34  H    4.009608   4.564916   5.964994   6.725507   8.090937
    35  H    2.856412   4.009166   5.148707   6.377264   7.496771
    36  H    3.906578   5.023621   6.089109   7.239545   8.366189
    37  H    5.828306   6.772867   8.071044   9.056868  10.338133
    38  H    7.398778   8.571783   9.772603  10.948626  12.136700
    39  H    7.628733   8.613322   9.941259  10.962071  12.248267
    40  H    7.020763   8.067758   9.309652  10.426201  11.623398
    41  H    4.366678   4.539474   5.969686   6.499400   7.899165
    42  H    6.944453   7.599373   9.000482   9.790966  11.135719
    43  H    2.751623   4.095607   4.715691   6.190266   6.993120
    44  H    4.372475   5.762280   6.480730   7.895871   8.762090
    45  H    4.099096   3.680728   3.286015   3.829850   4.077079
                   11         12         13         14         15
    11  O    0.000000
    12  C    1.448636   0.000000
    13  C    2.576082   1.553958   0.000000
    14  C    3.876250   2.526164   1.548527   0.000000
    15  C    4.278700   2.934941   2.564617   1.551847   0.000000
    16  O    3.696835   2.479095   2.923824   2.465340   1.431150
    17  C    2.419752   1.565590   2.541440   2.901076   2.409545
    18  C    2.934492   2.582572   3.923322   4.264861   3.659249
    19  O    3.533062   2.991098   4.326270   4.440571   4.011863
    20  O    5.537047   4.131018   3.763516   2.391446   1.415191
    21  O    4.949254   3.754030   2.383165   1.429458   2.480622
    22  O    3.068849   2.445220   1.435008   2.418245   3.800206
    23  O    6.996893   5.580954   4.777096   3.299366   3.613539
    24  H    9.933979   8.782463   7.479095   6.506872   7.422565
    25  H    8.947704   7.617874   6.466259   5.146135   5.634955
    26  H    9.020631   7.665719   6.849696   5.517603   6.028039
    27  H    6.652737   5.416301   4.452223   3.419365   4.486422
    28  H    6.642724   5.399729   4.093579   2.923820   3.442607
    29  H    8.733466   7.596440   6.164338   5.207286   5.914302
    30  H    8.859611   8.050681   6.580454   6.221834   7.454520
    31  H    9.023852   8.190574   6.644164   6.222958   7.207565
    32  H   11.044661  10.157025   8.643084   8.084407   9.074394
    33  H    2.079498   1.104475   2.145815   2.723115   3.254694
    34  H    2.841562   2.187997   1.109516   2.176323   2.842506
    35  H    4.148082   2.765741   2.165180   1.110842   2.156584
    36  H    4.572856   3.420671   2.896272   2.196007   1.113604
    37  H    2.660911   2.185095   2.819834   3.338289   2.744339
    38  H    3.933483   3.527633   4.699365   4.828078   3.889950
    39  H    2.622319   2.850372   4.304165   4.966946   4.539987
    40  H    3.086996   2.764629   4.182121   4.528607   4.434135
    41  H    2.876778   2.656160   1.782175   3.073185   4.319571
    42  H    1.151509   2.145687   3.403790   4.587495   5.043126
    43  H    6.175519   4.751468   4.135876   2.692307   3.004914
    44  H    6.128013   4.783935   4.522800   3.248149   1.988526
    45  H    8.980593   7.940919   6.827377   6.083476   7.278062
                   16         17         18         19         20
    16  O    0.000000
    17  C    1.431798   0.000000
    18  C    2.310976   1.535998   0.000000
    19  O    2.680474   2.435315   1.449114   0.000000
    20  O    2.253691   3.576686   4.533641   4.566057   0.000000
    21  O    3.726237   4.183691   5.624978   5.868126   2.983456
    22  O    4.202263   3.805748   5.008717   5.177518   4.786648
    23  O    4.602327   5.699897   6.715121   6.390734   2.730904
    24  H    8.652181   9.398631  10.665780  10.459594   6.976443
    25  H    6.868635   7.866630   9.057876   8.870922   4.886927
    26  H    6.918073   7.976673   8.885970   8.330616   5.101614
    27  H    5.390879   6.091258   7.170444   6.777247   4.180204
    28  H    4.842359   5.599325   6.990960   7.176367   3.309945
    29  H    7.300303   7.998986   9.408681   9.525103   5.666266
    30  H    8.665590   8.961949  10.371281  10.439892   7.604344
    31  H    8.534873   8.870713  10.364507  10.637272   7.381139
    32  H   10.412381  10.870511  12.322564  12.444442   9.017029
    33  H    2.702155   2.173774   2.771046   2.600509   4.168582
    34  H    3.321411   2.806336   4.271026   4.976150   4.159595
    35  H    2.728308   3.287766   4.390652   4.195789   2.524382
    36  H    2.102639   2.751498   4.080368   4.742361   2.110496
    37  H    2.114108   1.105653   2.172032   3.389773   4.030747
    38  H    2.523655   2.166706   1.100753   2.055648   4.598392
    39  H    3.294399   2.179904   1.101182   2.122774   5.542750
    40  H    3.247490   2.744077   1.970354   0.998037   5.090889
    41  H    4.658120   4.028227   5.216947   5.561675   5.440363
    42  H    4.302494   3.118603   3.172981   3.395653   6.169171
    43  H    3.802458   4.875858   5.811355   5.417961   2.233393
    44  H    2.590451   3.956657   4.771036   4.900144   0.959426
    45  H    8.257677   8.833178   9.953312   9.539468   6.990400
                   21         22         23         24         25
    21  O    0.000000
    22  O    2.804010   0.000000
    23  O    3.084548   5.083726   0.000000
    24  H    5.416524   7.053987   4.565102   0.000000
    25  H    4.235404   6.507582   2.560806   2.507477   0.000000
    26  H    5.129553   6.783645   2.434327   3.624880   2.339963
    27  H    3.047386   4.136828   2.096014   3.808938   3.055027
    28  H    1.720555   4.441487   2.602520   4.330851   2.851108
    29  H    3.869090   6.082234   4.060956   2.556185   2.364835
    30  H    4.991101   5.847430   5.939764   3.150902   4.705154
    31  H    4.830922   6.233804   6.095514   3.762417   4.709222
    32  H    6.723507   8.113486   7.222475   3.412865   5.230570
    33  H    4.030282   2.626559   5.309916   8.626694   7.488141
    34  H    2.597347   2.113413   5.382345   7.831380   6.832653
    35  H    2.107331   2.609393   2.881265   6.326907   4.998690
    36  H    2.680378   4.210305   4.291456   7.733658   5.961991
    37  H    4.386214   4.158781   6.277906   9.767171   8.249337
    38  H    6.127536   5.907394   7.026801  11.157768   9.367190
    39  H    6.286394   5.260592   7.651551  11.413532   9.940180
    40  H    5.943543   4.795378   6.622362  10.437541   9.054196
    41  H    3.365470   0.901919   5.904892   7.651785   7.212715
    42  H    5.734586   3.608486   7.472876  10.442556   9.524764
    43  H    2.907011   4.516228   1.000478   5.348157   3.525906
    44  H    3.756235   5.647108   3.371052   7.578242   5.338484
    45  H    5.340776   6.082433   4.564874   2.377349   3.740218
                   26         27         28         29         30
    26  H    0.000000
    27  H    2.718147   0.000000
    28  H    4.355815   3.083365   0.000000
    29  H    4.509254   3.929360   2.476076   0.000000
    30  H    6.028509   4.627582   4.559601   3.079115   0.000000
    31  H    6.570343   5.331305   4.110673   2.462265   1.793922
    32  H    6.941299   6.376511   5.758850   3.465486   2.455944
    33  H    7.208619   5.029369   5.607801   7.741083   8.136495
    34  H    7.532503   5.192841   4.189970   6.211780   6.677099
    35  H    4.904761   2.810916   3.346766   5.454890   6.351852
    36  H    6.716751   5.202905   3.481690   5.906913   7.555534
    37  H    8.634715   6.718879   5.751924   8.124897   9.121753
    38  H    9.247050   7.762882   7.327124   9.792694  11.022840
    39  H    9.803121   7.920852   7.761914  10.135903  10.870192
    40  H    8.449581   6.697197   7.371598   9.628094  10.247805
    41  H    7.628573   4.968965   4.995016   6.553441   6.118012
    42  H    9.339314   6.999884   7.427030   9.473074   9.446975
    43  H    3.120603   2.196436   2.995113   4.797235   6.390176
    44  H    5.638861   5.035757   3.864672   6.154044   8.324131
    45  H    3.558770   2.912335   4.953824   4.145666   3.502014
                   31         32         33         34         35
    31  H    0.000000
    32  H    2.253434   0.000000
    33  H    8.477214  10.301434   0.000000
    34  H    6.483935   8.613550   3.069961   0.000000
    35  H    6.620267   8.288510   2.496136   3.080259   0.000000
    36  H    7.057000   9.030196   4.013060   2.729435   3.084769
    37  H    8.843320  10.940875   3.080419   2.631585   3.998541
    38  H   10.887854  12.848557   3.769372   4.923464   5.020760
    39  H   10.886865  12.900294   3.143797   4.547769   5.141889
    40  H   10.578044  12.367851   2.182874   4.919996   4.199618
    41  H    6.419177   8.378974   3.068192   2.037599   3.436117
    42  H    9.788796  11.719012   2.207810   3.878103   4.605625
    43  H    6.619951   7.908988   4.399226   4.860439   2.082823
    44  H    7.955051   9.574058   4.897695   4.779939   3.470583
    45  H    4.868286   4.901595   7.564133   7.433114   5.605068
                   36         37         38         39         40
    36  H    0.000000
    37  H    2.623550   0.000000
    38  H    4.174320   2.504350   0.000000
    39  H    4.849552   2.507721   1.792676   0.000000
    40  H    5.198840   3.711963   2.845706   2.248907   0.000000
    41  H    4.554242   4.191993   6.127669   5.304049   5.142470
    42  H    5.499726   3.584482   4.242770   2.723057   2.681369
    43  H    3.868685   5.556819   6.172385   6.744427   5.631695
    44  H    2.325958   4.278499   4.610418   5.806799   5.562991
    45  H    7.842990   9.385683  10.616560  10.608583   9.325504
                   41         42         43         44         45
    41  H    0.000000
    42  H    3.498259   0.000000
    43  H    5.363371   6.589541   0.000000
    44  H    6.245265   6.790161   3.020818   0.000000
    45  H    6.736364   9.260063   4.997408   7.783105   0.000000
 Stoichiometry    C12H22O11
 Framework group  C1[X(C12H22O11)]
 Deg. of freedom   129
 Full point group                 C1      NOp   1
 Largest Abelian subgroup         C1      NOp   1
 Largest concise Abelian subgroup C1      NOp   1
                         Standard orientation:                         
 ---------------------------------------------------------------------
 Center     Atomic      Atomic             Coordinates (Angstroms)
 Number     Number       Type             X           Y           Z
 ---------------------------------------------------------------------
      1          8           0        3.791572   -0.315490    1.752487
      2          6           0        4.050487    0.342698    0.488931
      3          6           0        3.149130    1.584169    0.325387
      4          8           0        3.445717    2.533607    1.362530
      5          6           0        1.663257    1.152130    0.385729
      6          6           0        1.348099   -0.090405   -0.534936
      7          8           0        2.326659   -1.141166   -0.436597
      8          6           0        3.667998   -0.643188   -0.639280
      9          6           0        4.601256   -1.869179   -0.669004
     10          8           0        5.941400   -1.360517   -0.762196
     11          8           0       -4.395524   -2.220954    0.777563
     12          6           0       -3.490490   -1.124144    0.501038
     13          6           0       -2.055082   -1.464046    0.012308
     14          6           0       -1.304834   -0.147104   -0.305068
     15          6           0       -2.106920    0.745035   -1.289433
     16          8           0       -3.439846    0.972605   -0.820700
     17          6           0       -4.193446   -0.217519   -0.564305
     18          6           0       -5.534612    0.346540   -0.071962
     19          8           0       -5.305959    1.178231    1.092486
     20          8           0       -1.502019    2.024431   -1.287191
     21          8           0       -0.029572   -0.529011   -0.825841
     22          8           0       -1.339665   -2.149447    1.050410
     23          8           0        0.890700    2.296656    0.000686
     24          1           0        5.116617    0.619895    0.413309
     25          1           0        3.346187    2.024341   -0.673222
     26          1           0        2.761447    3.251097    1.231660
     27          1           0        1.455909    0.875608    1.434016
     28          1           0        1.290208    0.272172   -1.585180
     29          1           0        3.736209   -0.111787   -1.609856
     30          1           0        4.445728   -2.454820    0.257689
     31          1           0        4.323395   -2.501727   -1.531442
     32          1           0        6.495404   -2.134289   -1.056750
     33          1           0       -3.373151   -0.529610    1.424415
     34          1           0       -2.116733   -2.072479   -0.913453
     35          1           0       -1.203120    0.424193    0.642162
     36          1           0       -2.117214    0.278280   -2.300446
     37          1           0       -4.357249   -0.814079   -1.480685
     38          1           0       -5.963213    1.000090   -0.847095
     39          1           0       -6.241304   -0.471337    0.138429
     40          1           0       -5.219591    0.549145    1.862465
     41          1           0       -1.621574   -2.980479    0.842157
     42          1           0       -4.864158   -2.108274    1.823344
     43          1           0       -0.017759    2.116491    0.379104
     44          1           0       -1.789703    2.564656   -2.026037
     45          1           0        4.076911    0.201424    2.509897
 ---------------------------------------------------------------------
 Rotational constants (GHZ):           0.5134916           0.1163551           0.1058262
 Leave Link  202 at Tue Jun 22 14:17:34 2021, MaxMem=  2147483648 cpu:               0.0 elap:               0.0
 (Enter /home/matma/Programs/gaussian/G16_x86_SSE4/tar/g16/l301.exe)
 Standard basis: VSTO-6G (5D, 7F)
 Ernie: Thresh=  0.10000D-02 Tol=  0.10000D-05 Strict=F.
  NNHCO=     0 NNPyr=     0 NCTC=     0               EPep=         0.000000000
    EC=      1135.150794198  ECS=         8.967061676   EG=         0.748005955
   EHC=         0.003250666  EAt=      -175.965002454  AtH=         6.138669069
 EPDDG=         0.000000000  ECC=      1144.869112495 EAtT=       182.103671523
 There are   114 symmetry adapted cartesian basis functions of A   symmetry.
 There are   114 symmetry adapted basis functions of A   symmetry.
   114 basis functions,   684 primitive gaussians,   114 cartesian basis functions
    68 alpha electrons       68 beta electrons
       nuclear repulsion energy      1326.9727840180 Hartrees.
 IExCor=    0 DFT=F Ex=HF Corr=None ExCW=0 ScaHFX=  1.000000
 ScaDFX=  1.000000  1.000000  1.000000  1.000000 ScalE2=  1.000000  1.000000
 IRadAn=  99590 IRanWt=     -1 IRanGd=            0 ICorTp=0 IEmpDi=  4
 Integral buffers will be    131072 words long.
 Regular integral format.
 Two-electron integral symmetry is turned off.
 Leave Link  301 at Tue Jun 22 14:17:34 2021, MaxMem=  2147483648 cpu:               0.2 elap:               0.0
 (Enter /home/matma/Programs/gaussian/G16_x86_SSE4/tar/g16/l302.exe)
 Do NDO integrals.
 NPDir=0 NMtPBC=     1 NCelOv=     1 NCel=       1 NClECP=     1 NCelD=      1
         NCelK=      1 NCelE2=     1 NClLst=     1 CellRange=     0.0.
 One-electron integrals computed using PRISM.
 NBasis=   114 RedAO= F EigKep=  0.00D+00  NBF=   114
 NBsUse=   114 1.00D-04 EigRej=  0.00D+00 NBFU=   114
 Leave Link  302 at Tue Jun 22 14:17:34 2021, MaxMem=  2147483648 cpu:               0.6 elap:               0.0
 (Enter /home/matma/Programs/gaussian/G16_x86_SSE4/tar/g16/l303.exe)
 DipDrv:  MaxL=1.
 Leave Link  303 at Tue Jun 22 14:17:34 2021, MaxMem=  2147483648 cpu:               0.1 elap:               0.0
 (Enter /home/matma/Programs/gaussian/G16_x86_SSE4/tar/g16/l401.exe)
 Simple Huckel Guess.
 JPrj=0 DoOrth=F DoCkMO=F.
 Leave Link  401 at Tue Jun 22 14:17:34 2021, MaxMem=  2147483648 cpu:               0.2 elap:               0.0
 (Enter /home/matma/Programs/gaussian/G16_x86_SSE4/tar/g16/l502.exe)
 Keep J ints in memory in canonical form, NReq=892272.
 FoFCou: FMM=F IPFlag=           0 FMFlag=           0 FMFlg1=           0
         NFxFlg=           0 DoJE=F BraDBF=F KetDBF=F FulRan=T
         wScrn=  0.000000 ICntrl=       600 IOpCl=  2 I1Cent=           0 NGrid=           0
         NMat0=    1 NMatS0=    252 NMatT0=    0 NMatD0=    1 NMtDS0=    0 NMtDT0=    0
 Symmetry not used in FoFCou.
 Two-electron integral symmetry not used.
 Closed shell SCF:
 Using DIIS extrapolation, IDIIS=  1040.
 Overlap will be assumed to be unity.
 NGot=  2147483648 LenX=  2147363403 LenY=  2147349966
 Requested convergence on RMS density matrix=1.00D-08 within 128 cycles.
 Requested convergence on MAX density matrix=1.00D-06.
 Requested convergence on             energy=1.00D-06.
 No special actions if energy rises.

 Cycle   1  Pass 1  IDiag  1:
 E= 0.576168127896153    
 DIIS: error= 5.52D-02 at cycle   1 NSaved=   1.
 NSaved= 1 IEnMin= 1 EnMin= 0.576168127896153     IErMin= 1 ErrMin= 5.52D-02
 ErrMax= 5.52D-02  0.00D+00 EMaxC= 1.00D-01 BMatC= 3.07D-01 BMatP= 3.07D-01
 IDIUse=3 WtCom= 4.48D-01 WtEn= 5.52D-01
 Coeff-Com:  0.100D+01
 Coeff-En:   0.100D+01
 Coeff:      0.100D+01
 GapD=    2.000 DampG=2.000 DampE=0.500 DampFc=1.0000 IDamp=-1.
 RMSDP=8.13D-03 MaxDP=1.24D-01              OVMax= 0.00D+00

 Cycle   2  Pass 1  IDiag  1:
 E=-0.403231271035111     Delta-E=       -0.979399398931 Rises=F Damp=F
 DIIS: error= 1.69D-02 at cycle   2 NSaved=   2.
 NSaved= 2 IEnMin= 2 EnMin=-0.403231271035111     IErMin= 2 ErrMin= 1.69D-02
 ErrMax= 1.69D-02  0.00D+00 EMaxC= 1.00D-01 BMatC= 4.67D-02 BMatP= 3.07D-01
 IDIUse=3 WtCom= 8.31D-01 WtEn= 1.69D-01
 Coeff-Com: -0.440D+00 0.144D+01
 Coeff-En:   0.000D+00 0.100D+01
 Coeff:     -0.366D+00 0.137D+01
 RMSDP=4.93D-03 MaxDP=6.75D-02 DE=-9.79D-01 OVMax= 0.00D+00

 Cycle   3  Pass 1  IDiag  3:
 E=-0.621121430400763     Delta-E=       -0.217890159366 Rises=F Damp=F
 DIIS: error= 5.82D-03 at cycle   3 NSaved=   3.
 NSaved= 3 IEnMin= 3 EnMin=-0.621121430400763     IErMin= 3 ErrMin= 5.82D-03
 ErrMax= 5.82D-03  0.00D+00 EMaxC= 1.00D-01 BMatC= 5.10D-03 BMatP= 4.67D-02
 IDIUse=3 WtCom= 9.42D-01 WtEn= 5.82D-02
 Coeff-Com:  0.248D+00-0.102D+01 0.177D+01
 Coeff-En:   0.000D+00 0.000D+00 0.100D+01
 Coeff:      0.234D+00-0.961D+00 0.173D+01
 Gap=     0.356 Goal=   None    Shift=    0.000
 RMSDP=2.56D-03 MaxDP=4.67D-02 DE=-2.18D-01 OVMax= 3.92D-02

 Cycle   4  Pass 1  IDiag  3:
 E=-0.655193985069218     Delta-E=       -0.034072554668 Rises=F Damp=F
 DIIS: error= 1.23D-03 at cycle   4 NSaved=   4.
 NSaved= 4 IEnMin= 4 EnMin=-0.655193985069218     IErMin= 4 ErrMin= 1.23D-03
 ErrMax= 1.23D-03  0.00D+00 EMaxC= 1.00D-01 BMatC= 2.34D-04 BMatP= 5.10D-03
 IDIUse=3 WtCom= 9.88D-01 WtEn= 1.23D-02
 Coeff-Com: -0.542D-01 0.255D+00-0.628D+00 0.143D+01
 Coeff-En:   0.000D+00 0.000D+00 0.000D+00 0.100D+01
 Coeff:     -0.535D-01 0.252D+00-0.620D+00 0.142D+01
 Gap=     0.358 Goal=   None    Shift=    0.000
 RMSDP=6.13D-04 MaxDP=1.35D-02 DE=-3.41D-02 OVMax= 1.31D-02

 Cycle   5  Pass 1  IDiag  3:
 E=-0.656925899666021     Delta-E=       -0.001731914597 Rises=F Damp=F
 DIIS: error= 4.39D-04 at cycle   5 NSaved=   5.
 NSaved= 5 IEnMin= 5 EnMin=-0.656925899666021     IErMin= 5 ErrMin= 4.39D-04
 ErrMax= 4.39D-04  0.00D+00 EMaxC= 1.00D-01 BMatC= 1.74D-05 BMatP= 2.34D-04
 IDIUse=3 WtCom= 9.96D-01 WtEn= 4.39D-03
 Coeff-Com:  0.694D-02-0.351D-01 0.124D+00-0.525D+00 0.143D+01
 Coeff-En:   0.000D+00 0.000D+00 0.000D+00 0.000D+00 0.100D+01
 Coeff:      0.691D-02-0.349D-01 0.124D+00-0.522D+00 0.143D+01
 Gap=     0.358 Goal=   None    Shift=    0.000
 RMSDP=1.65D-04 MaxDP=4.67D-03 DE=-1.73D-03 OVMax= 5.73D-03

 Cycle   6  Pass 1  IDiag  3:
 E=-0.657059572884236     Delta-E=       -0.000133673218 Rises=F Damp=F
 DIIS: error= 1.60D-04 at cycle   6 NSaved=   6.
 NSaved= 6 IEnMin= 6 EnMin=-0.657059572884236     IErMin= 6 ErrMin= 1.60D-04
 ErrMax= 1.60D-04  0.00D+00 EMaxC= 1.00D-01 BMatC= 1.97D-06 BMatP= 1.74D-05
 IDIUse=3 WtCom= 9.98D-01 WtEn= 1.60D-03
 Coeff-Com:  0.140D-02-0.468D-02-0.686D-02 0.124D+00-0.673D+00 0.156D+01
 Coeff-En:   0.000D+00 0.000D+00 0.000D+00 0.000D+00 0.000D+00 0.100D+01
 Coeff:      0.140D-02-0.468D-02-0.685D-02 0.124D+00-0.672D+00 0.156D+01
 Gap=     0.358 Goal=   None    Shift=    0.000
 RMSDP=6.69D-05 MaxDP=2.09D-03 DE=-1.34D-04 OVMax= 2.99D-03

 Cycle   7  Pass 1  IDiag  3:
 E=-0.657077161509506     Delta-E=       -0.000017588625 Rises=F Damp=F
 DIIS: error= 5.05D-05 at cycle   7 NSaved=   7.
 NSaved= 7 IEnMin= 7 EnMin=-0.657077161509506     IErMin= 7 ErrMin= 5.05D-05
 ErrMax= 5.05D-05  0.00D+00 EMaxC= 1.00D-01 BMatC= 2.05D-07 BMatP= 1.97D-06
 IDIUse=1 WtCom= 1.00D+00 WtEn= 0.00D+00
 Coeff-Com: -0.459D-03 0.206D-02-0.237D-02-0.931D-02 0.109D+00-0.499D+00
 Coeff-Com:  0.140D+01
 Coeff:     -0.459D-03 0.206D-02-0.237D-02-0.931D-02 0.109D+00-0.499D+00
 Coeff:      0.140D+01
 Gap=     0.358 Goal=   None    Shift=    0.000
 RMSDP=2.06D-05 MaxDP=6.54D-04 DE=-1.76D-05 OVMax= 1.07D-03

 Cycle   8  Pass 1  IDiag  3:
 E=-0.657078940447263     Delta-E=       -0.000001778938 Rises=F Damp=F
 DIIS: error= 1.85D-05 at cycle   8 NSaved=   8.
 NSaved= 8 IEnMin= 8 EnMin=-0.657078940447263     IErMin= 8 ErrMin= 1.85D-05
 ErrMax= 1.85D-05  0.00D+00 EMaxC= 1.00D-01 BMatC= 3.02D-08 BMatP= 2.05D-07
 IDIUse=1 WtCom= 1.00D+00 WtEn= 0.00D+00
 Coeff-Com: -0.754D-04 0.219D-03-0.239D-03-0.160D-02 0.913D-02 0.158D-01
 Coeff-Com: -0.421D+00 0.140D+01
 Coeff:     -0.754D-04 0.219D-03-0.239D-03-0.160D-02 0.913D-02 0.158D-01
 Coeff:     -0.421D+00 0.140D+01
 Gap=     0.358 Goal=   None    Shift=    0.000
 RMSDP=8.11D-06 MaxDP=2.47D-04 DE=-1.78D-06 OVMax= 4.51D-04

 Cycle   9  Pass 1  IDiag  3:
 E=-0.657079201923125     Delta-E=       -0.000000261476 Rises=F Damp=F
 DIIS: error= 5.46D-06 at cycle   9 NSaved=   9.
 NSaved= 9 IEnMin= 9 EnMin=-0.657079201923125     IErMin= 9 ErrMin= 5.46D-06
 ErrMax= 5.46D-06  0.00D+00 EMaxC= 1.00D-01 BMatC= 4.39D-09 BMatP= 3.02D-08
 IDIUse=1 WtCom= 1.00D+00 WtEn= 0.00D+00
 Coeff-Com:  0.856D-06 0.190D-04-0.104D-03 0.672D-03-0.277D-02 0.114D-01
 Coeff-Com:  0.587D-02-0.379D+00 0.136D+01
 Coeff:      0.856D-06 0.190D-04-0.104D-03 0.672D-03-0.277D-02 0.114D-01
 Coeff:      0.587D-02-0.379D+00 0.136D+01
 Gap=     0.358 Goal=   None    Shift=    0.000
 RMSDP=2.96D-06 MaxDP=7.59D-05 DE=-2.61D-07 OVMax= 1.64D-04

 Cycle  10  Pass 1  IDiag  3:
 E=-0.657079237926155     Delta-E=       -0.000000036003 Rises=F Damp=F
 DIIS: error= 2.17D-06 at cycle  10 NSaved=  10.
 NSaved=10 IEnMin=10 EnMin=-0.657079237926155     IErMin=10 ErrMin= 2.17D-06
 ErrMax= 2.17D-06  0.00D+00 EMaxC= 1.00D-01 BMatC= 6.44D-10 BMatP= 4.39D-09
 IDIUse=1 WtCom= 1.00D+00 WtEn= 0.00D+00
 Coeff-Com:  0.817D-05-0.278D-04 0.141D-04 0.165D-03-0.971D-03 0.953D-03
 Coeff-Com:  0.127D-01-0.807D-03-0.392D+00 0.138D+01
 Coeff:      0.817D-05-0.278D-04 0.141D-04 0.165D-03-0.971D-03 0.953D-03
 Coeff:      0.127D-01-0.807D-03-0.392D+00 0.138D+01
 Gap=     0.358 Goal=   None    Shift=    0.000
 RMSDP=1.10D-06 MaxDP=2.12D-05 DE=-3.60D-08 OVMax= 5.63D-05

 Cycle  11  Pass 1  IDiag  3:
 E=-0.657079243129374     Delta-E=       -0.000000005203 Rises=F Damp=F
 DIIS: error= 7.99D-07 at cycle  11 NSaved=  11.
 NSaved=11 IEnMin=11 EnMin=-0.657079243129374     IErMin=11 ErrMin= 7.99D-07
 ErrMax= 7.99D-07  0.00D+00 EMaxC= 1.00D-01 BMatC= 9.06D-11 BMatP= 6.44D-10
 IDIUse=1 WtCom= 1.00D+00 WtEn= 0.00D+00
 Coeff-Com:  0.170D-05-0.771D-05 0.188D-04-0.318D-04-0.770D-04 0.444D-03
 Coeff-Com: -0.141D-02 0.668D-02 0.269D-01-0.440D+00 0.141D+01
 Coeff:      0.170D-05-0.771D-05 0.188D-04-0.318D-04-0.770D-04 0.444D-03
 Coeff:     -0.141D-02 0.668D-02 0.269D-01-0.440D+00 0.141D+01
 Gap=     0.358 Goal=   None    Shift=    0.000
 RMSDP=4.19D-07 MaxDP=6.70D-06 DE=-5.20D-09 OVMax= 1.82D-05

 Cycle  12  Pass 1  IDiag  3:
 E=-0.657079243871749     Delta-E=       -0.000000000742 Rises=F Damp=F
 DIIS: error= 2.92D-07 at cycle  12 NSaved=  12.
 NSaved=12 IEnMin=12 EnMin=-0.657079243871749     IErMin=12 ErrMin= 2.92D-07
 ErrMax= 2.92D-07  0.00D+00 EMaxC= 1.00D-01 BMatC= 1.11D-11 BMatP= 9.06D-11
 IDIUse=1 WtCom= 1.00D+00 WtEn= 0.00D+00
 Coeff-Com:  0.177D-06-0.882D-06 0.361D-05-0.175D-04 0.621D-04-0.156D-03
 Coeff-Com:  0.105D-03 0.680D-03 0.327D-03 0.508D-01-0.484D+00 0.143D+01
 Coeff:      0.177D-06-0.882D-06 0.361D-05-0.175D-04 0.621D-04-0.156D-03
 Coeff:      0.105D-03 0.680D-03 0.327D-03 0.508D-01-0.484D+00 0.143D+01
 Gap=     0.358 Goal=   None    Shift=    0.000
 RMSDP=1.49D-07 MaxDP=2.70D-06 DE=-7.42D-10 OVMax= 5.06D-06

 Cycle  13  Pass 1  IDiag  3:
 E=-0.657079243936551     Delta-E=       -0.000000000065 Rises=F Damp=F
 DIIS: error= 1.01D-07 at cycle  13 NSaved=  13.
 NSaved=13 IEnMin=13 EnMin=-0.657079243936551     IErMin=13 ErrMin= 1.01D-07
 ErrMax= 1.01D-07  0.00D+00 EMaxC= 1.00D-01 BMatC= 1.14D-12 BMatP= 1.11D-11
 IDIUse=1 WtCom= 1.00D+00 WtEn= 0.00D+00
 Coeff-Com: -0.418D-06 0.154D-05-0.284D-05 0.407D-05 0.300D-05-0.366D-04
 Coeff-Com: -0.340D-04 0.107D-03 0.129D-03-0.500D-02 0.892D-01-0.531D+00
 Coeff-Com:  0.145D+01
 Coeff:     -0.418D-06 0.154D-05-0.284D-05 0.407D-05 0.300D-05-0.366D-04
 Coeff:     -0.340D-04 0.107D-03 0.129D-03-0.500D-02 0.892D-01-0.531D+00
 Coeff:      0.145D+01
 Gap=     0.358 Goal=   None    Shift=    0.000
 RMSDP=4.57D-08 MaxDP=9.95D-07 DE=-6.48D-11 OVMax= 1.16D-06

 Cycle  14  Pass 1  IDiag  3:
 E=-0.657079243959743     Delta-E=       -0.000000000023 Rises=F Damp=F
 DIIS: error= 3.66D-08 at cycle  14 NSaved=  14.
 NSaved=14 IEnMin=14 EnMin=-0.657079243959743     IErMin=14 ErrMin= 3.66D-08
 ErrMax= 3.66D-08  0.00D+00 EMaxC= 1.00D-01 BMatC= 1.17D-13 BMatP= 1.14D-12
 IDIUse=1 WtCom= 1.00D+00 WtEn= 0.00D+00
 Coeff-Com: -0.129D-07 0.919D-07-0.102D-06 0.498D-07 0.155D-05 0.194D-05
 Coeff-Com:  0.336D-05-0.134D-03 0.294D-03 0.113D-02-0.164D-01 0.132D+00
 Coeff-Com: -0.627D+00 0.151D+01
 Coeff:     -0.129D-07 0.919D-07-0.102D-06 0.498D-07 0.155D-05 0.194D-05
 Coeff:      0.336D-05-0.134D-03 0.294D-03 0.113D-02-0.164D-01 0.132D+00
 Coeff:     -0.627D+00 0.151D+01
 Gap=     0.358 Goal=   None    Shift=    0.000
 RMSDP=1.40D-08 MaxDP=3.13D-07 DE=-2.32D-11 OVMax= 3.10D-07

 Cycle  15  Pass 1  IDiag  3:
 E=-0.657079243960880     Delta-E=       -0.000000000001 Rises=F Damp=F
 DIIS: error= 1.42D-08 at cycle  15 NSaved=  15.
 NSaved=15 IEnMin=15 EnMin=-0.657079243960880     IErMin=15 ErrMin= 1.42D-08
 ErrMax= 1.42D-08  0.00D+00 EMaxC= 1.00D-01 BMatC= 1.16D-14 BMatP= 1.17D-13
 IDIUse=1 WtCom= 1.00D+00 WtEn= 0.00D+00
 Coeff-Com:  0.132D-07-0.736D-07 0.471D-07 0.134D-06-0.134D-05 0.260D-05
 Coeff-Com: -0.438D-05 0.489D-04-0.141D-03-0.278D-03 0.487D-02-0.369D-01
 Coeff-Com:  0.208D+00-0.762D+00 0.159D+01
 Coeff:      0.132D-07-0.736D-07 0.471D-07 0.134D-06-0.134D-05 0.260D-05
 Coeff:     -0.438D-05 0.489D-04-0.141D-03-0.278D-03 0.487D-02-0.369D-01
 Coeff:      0.208D+00-0.762D+00 0.159D+01
 Gap=     0.358 Goal=   None    Shift=    0.000
 RMSDP=4.53D-09 MaxDP=1.00D-07 DE=-1.14D-12 OVMax= 7.34D-08

 Cycle  16  Pass 2  IDiag  1:
 SCF Done:  E(RPM6) = -0.657079243961     A.U. after   16 cycles
            NFock= 15  Conv=0.45D-08     -V/T= 0.9978
 KE=-3.035702799435D+02 PE=-2.258277822130D+03 EE= 1.234218238812D+03
 Leave Link  502 at Tue Jun 22 14:17:34 2021, MaxMem=  2147483648 cpu:               0.5 elap:               0.0
 (Enter /home/matma/Programs/gaussian/G16_x86_SSE4/tar/g16/l601.exe)
 Copying SCF densities to generalized density rwf, IOpCl= 0 IROHF=0.

 **********************************************************************

            Population analysis using the SCF Density.

 **********************************************************************

 Orbital symmetries:
       Occupied  (A) (A) (A) (A) (A) (A) (A) (A) (A) (A) (A) (A)
                 (A) (A) (A) (A) (A) (A) (A) (A) (A) (A) (A) (A)
                 (A) (A) (A) (A) (A) (A) (A) (A) (A) (A) (A) (A)
                 (A) (A) (A) (A) (A) (A) (A) (A) (A) (A) (A) (A)
                 (A) (A) (A) (A) (A) (A) (A) (A) (A) (A) (A) (A)
                 (A) (A) (A) (A) (A) (A) (A) (A)
       Virtual   (A) (A) (A) (A) (A) (A) (A) (A) (A) (A) (A) (A)
                 (A) (A) (A) (A) (A) (A) (A) (A) (A) (A) (A) (A)
                 (A) (A) (A) (A) (A) (A) (A) (A) (A) (A) (A) (A)
                 (A) (A) (A) (A) (A) (A) (A) (A) (A) (A)
 The electronic state is 1-A.
 Alpha  occ. eigenvalues --   -1.16952  -1.15072  -1.14811  -1.13379  -1.12064
 Alpha  occ. eigenvalues --   -1.10546  -1.10108  -1.10000  -1.08030  -1.07362
 Alpha  occ. eigenvalues --   -1.07115  -1.02520  -1.00517  -0.99160  -0.98037
 Alpha  occ. eigenvalues --   -0.91739  -0.89394  -0.86790  -0.83330  -0.80682
 Alpha  occ. eigenvalues --   -0.78865  -0.77701  -0.76333  -0.70376  -0.69797
 Alpha  occ. eigenvalues --   -0.69659  -0.69237  -0.68304  -0.66997  -0.66273
 Alpha  occ. eigenvalues --   -0.65321  -0.64687  -0.63226  -0.62504  -0.60841
 Alpha  occ. eigenvalues --   -0.60032  -0.59026  -0.58264  -0.57541  -0.56100
 Alpha  occ. eigenvalues --   -0.55865  -0.55596  -0.54600  -0.53173  -0.52853
 Alpha  occ. eigenvalues --   -0.52363  -0.50454  -0.50307  -0.50030  -0.49671
 Alpha  occ. eigenvalues --   -0.48829  -0.48065  -0.47557  -0.46835  -0.46168
 Alpha  occ. eigenvalues --   -0.44730  -0.44640  -0.43822  -0.42911  -0.41563
 Alpha  occ. eigenvalues --   -0.40884  -0.40171  -0.39703  -0.39623  -0.38913
 Alpha  occ. eigenvalues --   -0.38317  -0.38098  -0.36144
 Alpha virt. eigenvalues --   -0.00508   0.03083   0.05072   0.05228   0.06277
 Alpha virt. eigenvalues --    0.06963   0.07162   0.07440   0.07975   0.08352
 Alpha virt. eigenvalues --    0.08752   0.08975   0.09238   0.09726   0.10023
 Alpha virt. eigenvalues --    0.10575   0.10856   0.11107   0.11439   0.11719
 Alpha virt. eigenvalues --    0.11965   0.13247   0.13543   0.14440   0.15416
 Alpha virt. eigenvalues --    0.15897   0.16197   0.16642   0.17081   0.17170
 Alpha virt. eigenvalues --    0.17567   0.17641   0.18154   0.18190   0.18359
 Alpha virt. eigenvalues --    0.18484   0.18718   0.18987   0.19300   0.19440
 Alpha virt. eigenvalues --    0.19652   0.19778   0.20017   0.20242   0.21258
 Alpha virt. eigenvalues --    0.21949
          Condensed to atoms (all electrons):
               1          2          3          4          5          6
     1  O    6.539635   0.000000   0.000000   0.000000   0.000000   0.000000
     2  C    0.000000   3.912124   0.000000   0.000000   0.000000   0.000000
     3  C    0.000000   0.000000   3.934117   0.000000   0.000000   0.000000
     4  O    0.000000   0.000000   0.000000   6.524804   0.000000   0.000000
     5  C    0.000000   0.000000   0.000000   0.000000   4.048971   0.000000
     6  C    0.000000   0.000000   0.000000   0.000000   0.000000   3.623071
     7  O    0.000000   0.000000   0.000000   0.000000   0.000000   0.000000
     8  C    0.000000   0.000000   0.000000   0.000000   0.000000   0.000000
     9  C    0.000000   0.000000   0.000000   0.000000   0.000000   0.000000
    10  O    0.000000   0.000000   0.000000   0.000000   0.000000   0.000000
    11  O    0.000000   0.000000   0.000000   0.000000   0.000000   0.000000
    12  C    0.000000   0.000000   0.000000   0.000000   0.000000   0.000000
    13  C    0.000000   0.000000   0.000000   0.000000   0.000000   0.000000
    14  C    0.000000   0.000000   0.000000   0.000000   0.000000   0.000000
    15  C    0.000000   0.000000   0.000000   0.000000   0.000000   0.000000
    16  O    0.000000   0.000000   0.000000   0.000000   0.000000   0.000000
    17  C    0.000000   0.000000   0.000000   0.000000   0.000000   0.000000
    18  C    0.000000   0.000000   0.000000   0.000000   0.000000   0.000000
    19  O    0.000000   0.000000   0.000000   0.000000   0.000000   0.000000
    20  O    0.000000   0.000000   0.000000   0.000000   0.000000   0.000000
    21  O    0.000000   0.000000   0.000000   0.000000   0.000000   0.000000
    22  O    0.000000   0.000000   0.000000   0.000000   0.000000   0.000000
    23  O    0.000000   0.000000   0.000000   0.000000   0.000000   0.000000
    24  H    0.000000   0.000000   0.000000   0.000000   0.000000   0.000000
    25  H    0.000000   0.000000   0.000000   0.000000   0.000000   0.000000
    26  H    0.000000   0.000000   0.000000   0.000000   0.000000   0.000000
    27  H    0.000000   0.000000   0.000000   0.000000   0.000000   0.000000
    28  H    0.000000   0.000000   0.000000   0.000000   0.000000   0.000000
    29  H    0.000000   0.000000   0.000000   0.000000   0.000000   0.000000
    30  H    0.000000   0.000000   0.000000   0.000000   0.000000   0.000000
    31  H    0.000000   0.000000   0.000000   0.000000   0.000000   0.000000
    32  H    0.000000   0.000000   0.000000   0.000000   0.000000   0.000000
    33  H    0.000000   0.000000   0.000000   0.000000   0.000000   0.000000
    34  H    0.000000   0.000000   0.000000   0.000000   0.000000   0.000000
    35  H    0.000000   0.000000   0.000000   0.000000   0.000000   0.000000
    36  H    0.000000   0.000000   0.000000   0.000000   0.000000   0.000000
    37  H    0.000000   0.000000   0.000000   0.000000   0.000000   0.000000
    38  H    0.000000   0.000000   0.000000   0.000000   0.000000   0.000000
    39  H    0.000000   0.000000   0.000000   0.000000   0.000000   0.000000
    40  H    0.000000   0.000000   0.000000   0.000000   0.000000   0.000000
    41  H    0.000000   0.000000   0.000000   0.000000   0.000000   0.000000
    42  H    0.000000   0.000000   0.000000   0.000000   0.000000   0.000000
    43  H    0.000000   0.000000   0.000000   0.000000   0.000000   0.000000
    44  H    0.000000   0.000000   0.000000   0.000000   0.000000   0.000000
    45  H    0.000000   0.000000   0.000000   0.000000   0.000000   0.000000
               7          8          9         10         11         12
     1  O    0.000000   0.000000   0.000000   0.000000   0.000000   0.000000
     2  C    0.000000   0.000000   0.000000   0.000000   0.000000   0.000000
     3  C    0.000000   0.000000   0.000000   0.000000   0.000000   0.000000
     4  O    0.000000   0.000000   0.000000   0.000000   0.000000   0.000000
     5  C    0.000000   0.000000   0.000000   0.000000   0.000000   0.000000
     6  C    0.000000   0.000000   0.000000   0.000000   0.000000   0.000000
     7  O    6.451044   0.000000   0.000000   0.000000   0.000000   0.000000
     8  C    0.000000   3.884920   0.000000   0.000000   0.000000   0.000000
     9  C    0.000000   0.000000   4.050809   0.000000   0.000000   0.000000
    10  O    0.000000   0.000000   0.000000   6.528517   0.000000   0.000000
    11  O    0.000000   0.000000   0.000000   0.000000   6.546220   0.000000
    12  C    0.000000   0.000000   0.000000   0.000000   0.000000   3.985095
    13  C    0.000000   0.000000   0.000000   0.000000   0.000000   0.000000
    14  C    0.000000   0.000000   0.000000   0.000000   0.000000   0.000000
    15  C    0.000000   0.000000   0.000000   0.000000   0.000000   0.000000
    16  O    0.000000   0.000000   0.000000   0.000000   0.000000   0.000000
    17  C    0.000000   0.000000   0.000000   0.000000   0.000000   0.000000
    18  C    0.000000   0.000000   0.000000   0.000000   0.000000   0.000000
    19  O    0.000000   0.000000   0.000000   0.000000   0.000000   0.000000
    20  O    0.000000   0.000000   0.000000   0.000000   0.000000   0.000000
    21  O    0.000000   0.000000   0.000000   0.000000   0.000000   0.000000
    22  O    0.000000   0.000000   0.000000   0.000000   0.000000   0.000000
    23  O    0.000000   0.000000   0.000000   0.000000   0.000000   0.000000
    24  H    0.000000   0.000000   0.000000   0.000000   0.000000   0.000000
    25  H    0.000000   0.000000   0.000000   0.000000   0.000000   0.000000
    26  H    0.000000   0.000000   0.000000   0.000000   0.000000   0.000000
    27  H    0.000000   0.000000   0.000000   0.000000   0.000000   0.000000
    28  H    0.000000   0.000000   0.000000   0.000000   0.000000   0.000000
    29  H    0.000000   0.000000   0.000000   0.000000   0.000000   0.000000
    30  H    0.000000   0.000000   0.000000   0.000000   0.000000   0.000000
    31  H    0.000000   0.000000   0.000000   0.000000   0.000000   0.000000
    32  H    0.000000   0.000000   0.000000   0.000000   0.000000   0.000000
    33  H    0.000000   0.000000   0.000000   0.000000   0.000000   0.000000
    34  H    0.000000   0.000000   0.000000   0.000000   0.000000   0.000000
    35  H    0.000000   0.000000   0.000000   0.000000   0.000000   0.000000
    36  H    0.000000   0.000000   0.000000   0.000000   0.000000   0.000000
    37  H    0.000000   0.000000   0.000000   0.000000   0.000000   0.000000
[...]
 3,-0.00048026,-0.00222348,0.00003983,0.00005029,0.00013776,0.00001609,
 0.00058549,-0.00001301,-0.00065073,0.00089913,-0.00106877,-0.00640418,
 -0.00038641,-0.00027919,0.00018212,-0.00002034,-0.00002258,-0.00009203
 ,-0.00041068,0.00011595,0.00020245,-0.00018492,0.00005729,0.00035963,0
 .00028994,0.00016401,0.00037977,0.00088136,0.00037575,0.00003829,0.000
 02435,0.00013955,-0.00001993,-0.00000344,0.00001956,-0.00000695,-0.000
 02504,-0.00000457,-0.00003579,-0.00000877,-0.00003227,-0.00001334,-0.0
 0000102,-0.00000740,0.00005287,-0.00002391,-0.00004746,-0.00000292,-0.
 00004300,0.00001149,-0.00003781,-0.00000194,0.00000630,-0.00010703,-0.
 00007115,0.00004686,0.00002202,-0.00002473,0.00007185,-0.00148653,0.00
 090501,0.00036724,0.00009834,-0.00021159,-0.00043142,-0.00005293,0.000
 02191,0.00005188,0.00001556,-0.00004009,-0.00001716,-0.00004406,-0.000
 34473,0.00016216,-0.00006121,0.00005281,-0.00000273,-0.00001998,0.0000
 8956,-0.00003758,0.00036391,0.00079145,0.00034890,-0.00004550,-0.00047
 863,0.00011943,0.07809982,-0.00003565,-0.00021838,0.00006338,0.0000095
 5,0.00015178,0.00000303,-0.00000197,-0.00002113,-0.00003412,-0.0000245
 6,-0.00004981,0.00002617,0.00000299,-0.00005961,0.00007219,0.00024055,
 0.00026470,-0.00049537,0.00012376,-0.00011230,0.00027667,-0.00001166,-
 0.00004418,-0.00001046,0.00009971,-0.00000212,-0.00007608,0.00013788,-
 0.00010602,0.00005636,0.03805858,-0.13022669,0.09435498,0.01117941,-0.
 00457432,0.00451864,-0.00287066,0.00287318,-0.00190408,0.00038713,-0.0
 0030672,0.00023347,0.00080586,0.00101893,0.00060391,-0.00139538,-0.000
 27196,-0.00128432,0.00018923,-0.00061204,0.00099625,-0.00010719,-0.000
 18010,-0.00003889,0.00006089,0.00075771,-0.00022340,-0.00048370,-0.000
 23643,-0.00006420,-0.00037429,-0.00075183,-0.00013496,0.00221752,-0.00
 088555,0.00080610,0.00001124,-0.00005671,-0.00003027,0.00000364,-0.000
 00923,-0.00000630,-0.00000090,0.00001941,-0.00000013,0.00002327,0.0000
 2031,-0.00000373,0.00004430,0.00010693,0.00000080,-0.00009526,0.000000
 46,0.00004869,-0.00001085,0.00002577,-0.00001188,-0.00000238,0.0000859
 7,-0.00000802,-0.00019226,0.00002903,0.00003872,-0.00011099,0.00004684
 ,0.00000261,-0.00000665,0.00011261,-0.00099593,-0.00044702,-0.00002887
 ,-0.00005430,0.00013285,0.00009595,-0.00000509,-0.00004746,-0.00001578
 ,0.00008979,-0.00027545,0.00009242,0.00014853,0.00011319,-0.00009691,-
 0.00003031,-0.00001854,-0.00005047,0.00009876,-0.00025558,-0.00099806,
 0.00065096,-0.00028984,0.00000684,0.00019216,-0.04692894,0.13405026,0.
 00010968,0.00003877,-0.00014922,0.00004589,-0.00006364,-0.00001010,-0.
 00010090,0.00004858,0.00004391,0.00014079,-0.00001333,-0.00000750,0.00
 002317,0.00004045,-0.00014877,-0.00056904,-0.00057358,0.00053438,0.000
 20729,0.00017822,-0.00050031,-0.00019480,0.00009391,0.00021208,-0.0000
 1457,-0.00010072,0.00010080,-0.00009870,0.00005154,-0.00027027,-0.0331
 2657,0.09063406,-0.07051482,-0.01105389,0.00639872,-0.00969061,-0.0022
 3729,-0.00126225,-0.00013851,0.00011049,-0.00022732,-0.00044780,-0.000
 48417,0.00030014,-0.00036047,0.00041478,-0.00012682,0.00038114,-0.0010
 3741,0.00104280,-0.00080327,0.00049074,0.00016363,0.00057443,-0.000363
 62,-0.00019080,-0.00090257,0.00051036,-0.00020977,0.00000032,0.0006106
 5,0.00076213,0.00016536,0.00035922,0.00073041,-0.00126704,0.00007203,0
 .00004156,0.00010924,-0.00002121,-0.00000536,0.00003286,-0.00000337,-0
 .00002748,-0.00000679,-0.00005336,-0.00001667,-0.00001595,-0.00004579,
 -0.00004976,-0.00000172,0.00007358,0.00001037,-0.00006553,0.00000409,-
 0.00004243,-0.00000156,0.00001914,0.00001726,0.00004352,0.00005127,0.0
 0000463,0.00008920,0.00013375,0.00003979,0.00010144,0.00214467,0.00008
 372,0.00210902,-0.00039136,-0.00026377,-0.00064124,-0.00011026,-0.0000
 4253,0.00023821,-0.00000026,-0.00003138,-0.00006100,0.00006990,0.00005
 841,-0.00002262,-0.00006801,0.00002277,-0.00001806,-0.00001581,0.00000
 291,-0.00010894,0.00017798,0.00055604,0.00102984,-0.00032200,-0.000350
 25,-0.00007940,0.04471465,-0.09782193,0.08032850,-0.00008027,-0.000097
 03,-0.00030648,0.00022647,0.00007844,-0.00009062,-0.00062406,-0.001163
 98,-0.00002082,0.00006572,0.00036069,-0.00052817,0.00330852,0.00641607
 ,-0.00767299,0.00068035,-0.00032915,-0.00415637,-0.00092924,0.00048418
 ,0.00026653,0.00031938,-0.00016525,0.00002206,-0.00009240,-0.00000226,
 0.00007800,-0.00005412,0.00004633,-0.00005327,-0.00000384,0.00002039,0
 .00003655,-0.00001216,-0.00001399,0.00001408,-0.00001682,0.00008043,-0
 .00002255,-0.00027839,-0.00008512,0.00005344,0.00026745,-0.00018673,-0
 .00011751,-0.00004032,0.00009502,0.00009907,-0.00002320,0.00001140,-0.
 00000014,-0.00002648,-0.00000311,-0.00001888,0.00000599,0.00000896,0.0
 0002918,-0.00054111,0.00005105,0.00029418,-0.00074403,-0.00041231,0.00
 094975,-0.00009239,-0.00004948,0.00008390,-0.05302158,-0.05239195,0.07
 518441,-0.00008689,-0.00002911,-0.00003612,-0.00007623,-0.00020779,-0.
 00002807,-0.00029855,-0.00022546,0.00051225,0.00077604,0.00026153,-0.0
 0050595,-0.00023857,-0.00001623,-0.00082531,-0.00003285,-0.00003583,0.
 00004655,0.00002425,0.00000370,0.00001159,0.00004134,-0.00000176,-0.00
 002384,0.00003312,-0.00001191,0.00002148,0.00001683,0.00000031,-0.0000
 1762,0.00000469,-0.00002307,-0.00005634,0.00020467,0.00009006,-0.00002
 286,-0.00000985,-0.00008788,-0.00014095,0.00000486,-0.00001038,-0.0000
 2012,0.00001786,-0.00000438,-0.00000664,0.00000247,-0.00000050,0.00000
 026,0.00000121,-0.00000845,-0.00000667,0.00009252,-0.00000111,-0.00003
 908,0.00000347,-0.00000623,-0.00002275,0.05106637,0.00007405,-0.000541
 23,-0.00003102,0.00095732,0.00052355,-0.00047577,-0.00220352,-0.001058
 62,-0.00423880,0.00059053,-0.00040259,0.00094412,0.00868068,0.00505721
 ,-0.01487129,0.00155110,0.00035809,0.00036042,0.00007192,-0.00016843,-
 0.00021145,-0.00009307,0.00004446,0.00019741,-0.00001731,-0.00005963,0
 .00005396,-0.00005197,0.00001445,-0.00015796,-0.00002377,-0.00006903,0
 .00001394,0.00001781,0.00003789,0.00000713,-0.00004047,-0.00000128,-0.
 00007831,-0.00006942,0.00029424,0.00039827,-0.00080164,0.00026669,-0.0
 0049943,0.00023756,-0.00004175,0.00028318,-0.00015246,0.00007986,-0.00
 009190,0.00000293,-0.00001002,-0.00002248,0.00003990,-0.00003341,0.000
 04898,0.00058617,0.00002318,0.00051750,-0.00030294,-0.00107083,-0.0000
 5662,-0.00008664,-0.00020562,0.00007193,-0.05639501,-0.05549553,0.0719
 6583,-0.00020185,-0.00007914,-0.00015398,-0.00025914,-0.00029655,-0.00
 007780,0.00007513,0.00015744,-0.00069929,-0.00011501,0.00062291,-0.002
 95361,0.00031985,-0.00009993,0.00043717,0.00000008,-0.00006690,0.00001
 946,-0.00000041,0.00004429,0.00000221,0.00005080,0.00001743,-0.0000173
 7,0.00003958,0.00000853,0.00005408,0.00000567,-0.00000140,-0.00001024,
 0.00000758,0.00001509,-0.00000680,0.00011897,0.00005367,-0.00004316,-0
 .00001523,-0.00008417,-0.00006871,0.00000899,-0.00000106,-0.00000026,-
 0.00000452,0.00000314,-0.00000924,-0.00000472,0.00000309,-0.00000420,-
 0.00001368,0.00002971,-0.00000352,0.00012369,0.00009734,0.00003969,0.0
 0001048,0.00003157,-0.00000330,0.04741843,0.05173080,-0.00008522,0.000
 35570,0.00037767,0.00034238,-0.00012499,-0.00051894,0.00011407,-0.0026
 5107,-0.00462320,-0.00098704,0.00056629,-0.00005527,0.01449745,0.01212
 893,-0.05085807,-0.00348001,0.00005892,-0.00261812,0.00043944,-0.00047
 697,0.00132595,0.00034314,-0.00019016,-0.00043641,0.00001332,0.0001109
 2,-0.00013358,0.00007884,-0.00006616,0.00031124,0.00021624,0.00002550,
 0.00007232,-0.00015308,-0.00007412,-0.00006703,0.00000223,0.00009646,-
 0.00002406,-0.00002936,-0.00049444,-0.00052435,-0.00018836,-0.00053896
 ,0.00011189,0.00021700,0.00034892,-0.00002975,-0.00009166,-0.00000035,
 0.00001671,-0.00000392,-0.00001724,-0.00005554,0.00007111,0.00007960,0
 .00002940,0.00027377,0.00061902,-0.00029958,0.00151544,0.00106585,0.00
 020711,0.00022333,0.00006885,0.00003149,0.04988234,0.04120356,-0.13169
 077,0.00002788,0.00004129,-0.00017488,-0.00021392,0.00007993,0.0001299
 3,0.00054359,-0.00012199,0.00029522,0.00040642,-0.00173039,0.00153504,
 -0.00030797,0.00052469,0.00006151,-0.00001321,0.00011882,-0.00002244,0
 .00001086,-0.00005167,-0.00000933,-0.00006881,-0.00001461,0.00000399,-
 0.00007519,-0.00000438,-0.00010317,0.00000087,-0.00000101,-0.00001583,
 -0.00003996,0.00001225,0.00007368,-0.00008455,-0.00003350,-0.00004997,
 -0.00004036,0.00005388,0.00018475,-0.00003090,-0.00000189,0.00003691,0
 .00000275,-0.00002457,0.00000691,-0.00000929,-0.00001301,0.00002663,-0
 .00004587,-0.00004677,-0.00000244,-0.00024263,-0.00004280,-0.00006915,
 -0.00005026,0.00001246,-0.00004035,-0.06307815,-0.05045053,0.18768127,
 -0.00049770,0.00154989,-0.00064985,-0.00023678,-0.00078600,-0.00009245
 ,0.00047831,-0.00025023,0.00010459,-0.00005580,0.00075602,-0.00021361,
 -0.00016184,-0.00018119,0.00008236,0.00106177,0.00069273,-0.00045637,-
 0.00043275,-0.00011745,0.00049071,0.00040318,-0.00006343,-0.00021846,-
 0.00011379,0.00006213,0.00002631,-0.00009119,0.00002522,0.00003168,0.0
 0027953,-0.00030603,0.00022890,-0.00010640,0.00020221,-0.00003605,-0.0
 0023169,-0.00001555,0.00001645,-0.00002997,0.00153856,0.00031280,-0.04
 096899,0.03042526,0.03529809,0.00008507,-0.00191039,0.00021803,-0.0015
 4260,0.00045298,-0.00057867,0.00005717,-0.00012398,-0.00027430,0.00039
 051,0.00011575,0.00038040,-0.05071206,0.02992189,0.02521051,-0.0006703
 9,-0.00117476,-0.00024637,0.00006071,-0.00049778,0.00028268,-0.0002301
 2,0.00007528,0.00009435,0.00000763,0.00002559,0.00003683,-0.00003965,-
 0.00002556,0.00002902,-0.00011094,-0.00020866,0.00000356,0.00065925,0.
 00024029,-0.00034725,-0.00012069,-0.00002353,0.00003186,-0.00004717,0.
 00000634,0.00002020,0.00008477,-0.00003505,0.00000658,0.00008439,0.000
 03518,-0.00005409,0.00003837,-0.00001809,-0.00000499,0.00003727,-0.000
 01393,-0.00012986,-0.00004113,-0.00000046,0.00007798,0.00042622,0.0003
 2735,-0.00042255,-0.00642690,0.00172804,-0.00064511,0.00010988,0.00005
 030,0.00021991,0.00005750,-0.00015687,-0.00006984,-0.00003488,-0.00003
 870,0.00006387,-0.00017502,0.00000308,-0.00001553,0.00010120,0.0002098
 9,-0.00000676,-0.00001582,0.00014054,-0.00010078,0.00016136,0.00004233
 ,-0.00003192,0.09860535,0.00061055,0.00065758,-0.00140516,0.00006281,-
 0.00053137,-0.00003115,-0.00041360,0.00018187,0.00015096,0.00071815,0.
 00000280,0.00008030,-0.00012588,0.00000288,-0.00053526,-0.00010820,-0.
 00062905,0.00062076,0.00004651,0.00029330,-0.00057082,-0.00013209,0.00
 012817,0.00019954,-0.00001318,-0.00011819,0.00015987,-0.00004543,0.000
 06654,-0.00032109,-0.00027100,-0.00031580,-0.00013644,0.00041932,0.000
 32046,0.00018589,0.00022115,-0.00017454,0.00045273,0.00107821,-0.00119
 429,0.00002648,0.01314169,-0.00832604,-0.00800373,0.00071602,0.0006810
 1,0.00095316,-0.00039576,-0.00098000,-0.00083530,-0.00004767,0.0000028
 4,-0.00012038,0.00017998,-0.00028230,0.00002170,0.04796739,-0.05762236
 ,-0.07473820,-0.00007175,0.00054224,0.00008484,-0.00033522,0.00019129,
 -0.00036877,0.00007879,0.00023569,0.00059290,-0.00008346,0.00003775,0.
 00009757,0.00002033,-0.00011535,-0.00001443,-0.00027701,-0.00002580,-0
 .00015134,-0.00026402,-0.00130029,-0.00071544,0.00006031,-0.00006544,-
 0.00012037,-0.00002574,-0.00008447,0.00002146,-0.00001125,0.00005437,0
 .00005744,0.00003706,-0.00000846,0.00002300,0.00006234,0.00002792,0.00
 010709,-0.00003559,0.00004061,0.00005334,-0.00004663,-0.00003286,-0.00
 011567,0.00051274,-0.00052558,0.00069585,-0.00074078,0.00109094,-0.000
 50465,0.00014469,0.00004096,0.00008664,-0.00038544,0.00004391,-0.00006
 049,-0.00005099,-0.00003900,-0.00002810,-0.00006798,0.00017095,0.00002
 582,0.00017521,-0.00011085,0.00006909,0.00006321,0.00006747,0.00009290
 ,0.00004878,0.00003172,-0.00022405,-0.06164621,0.06731836,-0.00006060,
 -0.00233082,0.00053471,0.00016003,0.00120390,0.00021460,-0.00020553,-0
 .00007511,0.00004087,-0.00002985,-0.00020174,-0.00023024,0.00012576,0.
 00038244,0.00001809,-0.00080438,-0.00067006,0.00059071,0.00036501,0.00
 008247,-0.00068842,-0.00042997,0.00004388,0.00031054,0.00012749,-0.000
 05286,-0.00011289,0.00008569,-0.00012966,0.00004191,-0.00011415,0.0000
 1341,-0.00027827,0.00015501,0.00007159,0.00012788,0.00030910,0.0001378
 8,0.00001117,-0.00294809,-0.00067251,-0.00086023,0.00954809,0.00269847
 ,0.00716220,0.00059950,-0.00009535,-0.00227815,0.00070791,-0.00070493,
 0.00005224,0.00012161,0.00009509,0.00017221,-0.00008744,-0.00009340,-0
 .00033585,0.05380004,-0.08469791,-0.12962024,0.00076612,0.00071410,-0.
 00007682,-0.00000839,0.00057829,-0.00061062,0.00011267,0.00003285,-0.0
 0022504,-0.00000256,-0.00011484,-0.00005714,0.00001512,0.00004020,-0.0
 0004796,0.00001533,-0.00002914,0.00013485,-0.00041963,-0.00088832,0.00
 015043,0.00007778,0.00003605,-0.00002794,0.00005966,0.00001286,-0.0000
 3564,-0.00008573,0.00016240,-0.00003346,-0.00010491,-0.00000243,0.0000
 5406,-0.00005763,0.00004374,-0.00001816,-0.00021335,0.00008396,0.00015
 213,0.00005403,-0.00010323,-0.00001483,-0.00090039,0.00048553,0.000508
 90,-0.00130131,0.00001561,-0.00100532,0.00008793,0.00003998,-0.0000568
 9,-0.00034985,-0.00001966,0.00009212,0.00002169,-0.00003393,-0.0000250
 2,0.00003279,0.00004825,0.00003423,-0.00017393,-0.00017358,0.00002030,
 0.00001434,-0.00003213,0.00011719,-0.00008267,-0.00009814,0.00005144,-
 0.05956211,0.08331323,0.12636887,-0.12901007,0.08643487,-0.05354681,0.
 00843162,0.00079401,0.00486379,0.00263758,-0.00298002,0.00062252,-0.00
 161682,0.00172284,0.00058749,-0.00032221,0.00030726,0.00070610,-0.0003
 3324,-0.00036285,0.00056943,0.00026517,0.00013919,-0.00059170,-0.00200
 103,-0.00278862,0.00011828,-0.00000065,0.00019661,-0.00046590,0.000067
 88,-0.00002026,0.00041232,0.00017546,0.00001246,0.00008635,-0.00014002
 ,-0.00004193,-0.00005879,-0.00001565,0.00002985,-0.00002893,-0.0000149
 3,-0.00006723,0.00002660,-0.00045000,-0.00041986,0.00004446,0.00027102
 ,0.00031154,0.00001529,-0.00014308,0.00000579,-0.00002020,-0.00003291,
 -0.00002077,-0.00007384,0.00007772,0.00008476,0.00006524,0.00031072,0.
 00051115,-0.00062604,0.00024938,0.00027843,-0.00011830,0.00017874,0.00
 002885,0.00002673,-0.00019038,0.00003807,-0.00071758,0.00055849,-0.002
 61045,-0.00084603,-0.00028084,0.00040766,-0.00026723,0.00021202,0.0006
 7546,0.00029215,0.00007946,0.00008451,0.00041676,-0.00003177,0.0001188
 1,0.00002067,0.00062231,-0.00002747,-0.00002700,-0.00006162,-0.0000488
 5,-0.00005136,-0.00009074,-0.00000621,0.00006517,-0.00005733,-0.000008
 48,-0.00015940,-0.00000843,-0.00000961,-0.00002213,-0.00000891,0.00000
 879,0.00003967,-0.00024598,0.00016700,-0.00024319,-0.00001444,0.000029
 21,0.00006068,-0.00001209,-0.00000388,0.00001930,0.00001872,-0.0000397
 1,-0.00000251,-0.00000268,-0.00001337,0.00002145,-0.00004130,-0.000047
 63,-0.00000829,-0.00016189,-0.00001553,-0.00000299,-0.00003668,0.00001
 062,-0.00004734,-0.00000109,-0.00017860,0.00012819,-0.00009451,-0.0007
 7030,0.00057958,0.12126565,0.05374247,-0.08868057,0.02515694,0.0299758
 8,-0.04880401,0.01222575,-0.00017894,-0.00219610,-0.00282085,-0.000495
 79,-0.00243423,-0.00033776,0.00018937,-0.00051723,-0.00061563,0.000880
 68,0.00045705,-0.00044841,-0.00073470,0.00033839,0.00055876,-0.0008786
 5,-0.00622683,-0.00004117,-0.00048097,-0.00002184,0.00020503,-0.000217
 44,0.00018632,-0.00045013,-0.00004049,-0.00013539,-0.00001835,0.000066
 18,0.00008496,0.00002496,-0.00001149,0.00006763,-0.00008527,-0.0000363
 0,0.00025869,0.00046793,-0.00087155,0.00078868,-0.00029653,0.00027692,
 -0.00026439,0.00000107,-0.00015495,0.00002489,-0.00013307,0.00006359,-
 0.00000862,-0.00000523,0.00008448,-0.00007627,0.00001383,0.00123140,-0
 .00092967,-0.00050135,-0.00065217,-0.00078776,-0.00003647,-0.00025039,
 -0.00029705,0.00011313,-0.00016635,-0.00010678,0.00076438,-0.00075930,
 -0.00044562,0.00135575,0.00009329,-0.00030360,0.00050001,-0.00021633,0
 .00062681,-0.00045079,0.00014289,0.00063321,-0.00027829,-0.00005317,-0
 .00010491,-0.00005476,0.00065167,-0.00050160,0.00021052,0.00030423,-0.
 00000711,0.00028498,0.00014539,0.00001092,-0.00006307,0.00015244,0.000
 03682,0.00014709,-0.00002546,0.00003231,0.00001047,0.00000441,0.000002
 13,-0.00001334,0.00082653,0.00027274,-0.00044853,0.00009741,-0.0000670
 1,0.00008784,0.00001674,-0.00000006,0.00002206,-0.00010342,0.00001211,
 0.00002122,-0.00001167,-0.00000663,-0.00000223,-0.00003538,0.00006722,
 -0.00000137,0.00026201,0.00009191,0.00000131,0.00002187,0.00005779,0.0
 0000933,0.00009515,0.00024100,-0.00017760,-0.00103341,0.00025087,0.000
 88376,-0.08191648,0.14838215,-0.05198578,0.03743712,-0.02484769,0.0033
 3923,0.00137978,-0.00087899,0.00066246,-0.00493148,0.00047371,0.000676
 30,0.00175539,-0.00030395,-0.00018946,0.00013726,-0.00057515,0.0005611
 1,-0.00073468,0.00132657,0.00027689,0.00031675,-0.00144235,-0.00140131
 ,-0.00139549,0.00104529,-0.00013718,0.00024555,-0.00028809,0.00021240,
 -0.00018541,-0.00004225,-0.00007259,0.00003139,-0.00011900,0.00005314,
 0.00003245,0.00001147,0.00004438,-0.00016127,0.00014914,0.00024735,0.0
 0003261,-0.00033578,0.00163540,-0.00005355,0.00047708,-0.00054152,-0.0
 0022757,-0.00038702,0.00030174,-0.00010802,0.00013474,0.00003819,0.000
 02760,0.00009193,-0.00007457,0.00000312,-0.00013474,-0.00195798,-0.000
 23493,0.00071766,-0.00023289,0.00029498,-0.00026132,0.00007974,0.00025
 534,-0.00026962,-0.00024460,0.00045996,0.00026798,0.00032985,0.0011976
 1,0.00040048,-0.00017864,-0.00001064,-0.00022300,-0.00025196,0.0002248
 5,-0.00024035,0.00045029,-0.00066465,-0.00065372,-0.00008951,0.0000420
 3,-0.00011941,0.00033719,-0.00005267,0.00005476,-0.00011853,0.00005105
 ,0.00015332,-0.00010875,-0.00001269,0.00007307,-0.00009921,0.00011670,
 -0.00003343,-0.00005379,0.00000888,0.00008356,-0.00000950,-0.00000652,
 -0.00001777,-0.00056980,-0.00019991,0.00061259,-0.00006485,0.00005419,
 -0.00010851,-0.00001019,0.00000852,-0.00002032,-0.00002291,0.00001098,
 0.00003007,0.00000680,-0.00000207,-0.00001030,0.00002626,-0.00000468,0
 .00001551,-0.00008723,-0.00007150,0.00008120,-0.00000068,-0.00002922,0
 .00006289,0.00019760,-0.00007983,-0.00014857,0.00088988,0.00082797,-0.
 00032206,0.04813713,-0.03578573,0.02551998\\-0.00012168,-0.00003246,-0
 .00000057,-0.00006493,0.00002643,-0.00016529,0.00024808,0.00010427,-0.
 00002260,-0.00011912,-0.00001941,0.00002428,-0.00015329,-0.00010366,0.
 00007534,0.00027163,0.00002335,-0.00026718,-0.00013482,-0.00004340,0.0
 0006410,-0.00006390,-0.00005256,0.00003183,0.00014823,-0.00000863,0.00
 001408,-0.00006327,0.00007725,0.00013021,0.00003236,-0.00001219,-0.000
 00570,-0.00004900,0.00011259,0.00003443,0.00016791,-0.00003061,0.00000
 777,-0.00014497,0.00005552,-0.00000693,0.00001069,0.00001330,0.0000086
 3,0.00007746,0.00003824,-0.00005568,-0.00008482,-0.00001873,0.00003474
 ,0.00000414,-0.00006082,0.00002744,0.00004881,-0.00003697,-0.00004524,
 0.00004600,-0.00009803,-0.00007166,-0.00001853,-0.00000621,-0.00001402
 ,-0.00014416,-0.00035075,-0.00017649,-0.00004495,0.00003174,0.00002382
 ,-0.00001286,-0.00001064,0.00008075,-0.00006341,-0.00003288,0.00000244
 ,0.00005147,0.00003821,0.00001413,0.00005645,0.00001983,-0.00001688,-0
 .00006458,0.00002089,0.00001155,-0.00000032,-0.00000529,-0.00000092,-0
 .00003356,0.00001950,0.00005362,-0.00003034,0.00002095,0.00001390,0.00
 002692,-0.00007235,-0.00003801,0.00000985,-0.00001782,-0.00001535,-0.0
 0002081,0.00001968,0.00003598,0.00009275,0.00003916,-0.00004588,-0.000
 00299,0.00001111,0.00001958,0.00001030,0.00001237,-0.00000899,0.000016
 23,-0.00001306,0.00000462,0.00000617,0.00001384,-0.00000773,-0.0000939
 0,0.00002216,-0.00000498,0.00021297,0.00030504,0.00019398,-0.00000555,
 0.00001315,-0.00001193,0.00001250,-0.00001658,-0.00000655,-0.00003575,
 0.00006565,0.00009588,0.00002056,-0.00006116,-0.00001452\\\@


 VIRTUE IS LEARNED AT YOUR MOTHER'S KNEE,
 VICES ARE PICKED UP AT SOME OTHER JOINT.
 Job cpu time:       0 days  0 hours  0 minutes 11.0 seconds.
 Elapsed time:       0 days  0 hours  0 minutes  0.9 seconds.
 File lengths (MBytes):  RWF=    217 Int=      0 D2E=      0 Chk=      4 Scr=      1
 Normal termination of Gaussian 16 at Tue Jun 22 14:17:46 2021.
