 Entering Gaussian System, Link 0=g09
 Initial command:
 /share/apps//g09/l1.exe "/scratch/Gau-30929.inp" -scrdir="/scratch/"
 Entering Link 1 = /share/apps//g09/l1.exe PID=     30930.
  
 Copyright (c) 1988,1990,1992,1993,1995,1998,2003,2009,2013,
            Gaussian, Inc.  All Rights Reserved.
  
 This is part of the Gaussian(R) 09 program.  It is based on
 the Gaussian(R) 03 system (copyright 2003, Gaussian, Inc.),
 the Gaussian(R) 98 system (copyright 1998, Gaussian, Inc.),
 the Gaussian(R) 94 system (copyright 1995, Gaussian, Inc.),
 the Gaussian 92(TM) system (copyright 1992, Gaussian, Inc.),
 the Gaussian 90(TM) system (copyright 1990, Gaussian, Inc.),
 the Gaussian 88(TM) system (copyright 1988, Gaussian, Inc.),
 the Gaussian 86(TM) system (copyright 1986, Carnegie Mellon
 University), and the Gaussian 82(TM) system (copyright 1983,
 Carnegie Mellon University). Gaussian is a federally registered
 trademark of Gaussian, Inc.
  
 This software contains proprietary and confidential information,
 including trade secrets, belonging to Gaussian, Inc.
  
 This software is provided under written license and may be
 used, copied, transmitted, or stored only in accord with that
 written license.
  
 The following legend is applicable only to US Government
 contracts under FAR:
  
                    RESTRICTED RIGHTS LEGEND
  
 Use, reproduction and disclosure by the US Government is
 subject to restrictions as set forth in subparagraphs (a)
 and (c) of the Commercial Computer Software - Restricted
 Rights clause in FAR 52.227-19.
  
 Gaussian, Inc.
 340 Quinnipiac St., Bldg. 40, Wallingford CT 06492
  
  
 ---------------------------------------------------------------
 Warning -- This program may not be used in any manner that
 competes with the business of Gaussian, Inc. or will provide
 assistance to any competitor of Gaussian, Inc.  The licensee
 of this program is prohibited from giving any competitor of
 Gaussian, Inc. access to this program.  By using this program,
 the user acknowledges that Gaussian, Inc. is engaged in the
 business of creating and licensing software in the field of
 computational chemistry and represents and warrants to the
 licensee that it is not a competitor of Gaussian, Inc. and that
 it will not use this program in any manner prohibited above.
 ---------------------------------------------------------------
  

 Cite this work as:
 Gaussian 09, Revision D.01,
 M. J. Frisch, G. W. Trucks, H. B. Schlegel, G. E. Scuseria, 
 M. A. Robb, J. R. Cheeseman, G. Scalmani, V. Barone, B. Mennucci, 
 G. A. Petersson, H. Nakatsuji, M. Caricato, X. Li, H. P. Hratchian, 
 A. F. Izmaylov, J. Bloino, G. Zheng, J. L. Sonnenberg, M. Hada, 
 M. Ehara, K. Toyota, R. Fukuda, J. Hasegawa, M. Ishida, T. Nakajima, 
 Y. Honda, O. Kitao, H. Nakai, T. Vreven, J. A. Montgomery, Jr., 
 J. E. Peralta, F. Ogliaro, M. Bearpark, J. J. Heyd, E. Brothers, 
 K. N. Kudin, V. N. Staroverov, T. Keith, R. Kobayashi, J. Normand, 
 K. Raghavachari, A. Rendell, J. C. Burant, S. S. Iyengar, J. Tomasi, 
 M. Cossi, N. Rega, J. M. Millam, M. Klene, J. E. Knox, J. B. Cross, 
 V. Bakken, C. Adamo, J. Jaramillo, R. Gomperts, R. E. Stratmann, 
 O. Yazyev, A. J. Austin, R. Cammi, C. Pomelli, J. W. Ochterski, 
 R. L. Martin, K. Morokuma, V. G. Zakrzewski, G. A. Voth, 
 P. Salvador, J. J. Dannenberg, S. Dapprich, A. D. Daniels, 
 O. Farkas, J. B. Foresman, J. V. Ortiz, J. Cioslowski, 
 and D. J. Fox, Gaussian, Inc., Wallingford CT, 2013.
 
 ******************************************
 Gaussian 09:  EM64L-G09RevD.01 24-Apr-2013
                21-May-2016 
 ******************************************
 %nproc=20
 Will use up to   20 processors via shared memory.
 %mem=80GB
 %chk=Tri_A154_of.chk
 ----------------------------------------------------------------------
 #P PBE1PBE/6-311+G(d,p) opt=ModRedundant optcyc=999 freq EmpiricalDisp
 ersion=GD3
 ----------------------------------------------------------------------
 1/6=999,14=-1,18=120,19=15,26=3,38=1/1,3;
 2/9=110,12=2,17=6,18=5,40=1/2;
 3/5=4,6=6,7=111,11=2,16=1,25=1,30=1,71=1,74=-13,124=31/1,2,3;
 4//1;
 5/5=2,38=5/2;
 6/7=2,8=2,9=2,10=2,28=1/1;
 7//1,2,3,16;
 1/6=999,14=-1,18=20,19=15,26=3/3(2);
 2/9=110/2;
 99//99;
 2/9=110/2;
 3/5=4,6=6,7=111,11=2,16=1,25=1,30=1,71=1,74=-13,124=31/1,2,3;
 4/5=5,16=3,69=1/1;
 5/5=2,38=5/2;
 7//1,2,3,16;
 1/6=999,14=-1,18=20,19=15,26=3/3(-5);
 2/9=110/2;
 6/7=2,8=2,9=2,10=2,19=2,28=1/1;
 99/9=1/99;
 Leave Link    1 at Sat May 21 03:27:49 2016, MaxMem= 10737418240 cpu:         1.9
 (Enter /share/apps//g09/l101.exe)
 -------
 disacch
 -------
 Symbolic Z-matrix:
 Charge =  1 Multiplicity = 1
 O                    -0.00981   1.86109  -0.63224 
 C                     1.13019   1.18955  -1.16311 
 C                     1.02361   1.14159  -2.69695 
 C                     0.97715   2.56791  -3.24502 
 C                    -0.11454   3.39762  -2.5686 
 C                    -0.0536    3.236    -1.04103 
 C                    -1.24053   3.8821   -0.33254 
 O                    -2.495     3.24934  -0.65001 
 O                    -1.41013   2.99243  -3.045 
 O                     0.69518   2.58431  -4.64463 
 O                     2.13979   0.51968  -3.31871 
 O                     1.07045  -0.10579  -0.6021 
 C                     2.33198  -0.75134  -0.3422 
 C                     2.27624  -2.15996  -0.942 
 O                     2.14292  -2.09472  -2.36304 
 C                     1.09522  -2.91742  -0.33472 
 C                     1.17107  -2.9122    1.20713 
 O                     1.37477  -1.57084   1.72047 
 C                     2.54336  -0.92162   1.17321 
 C                     2.83829   0.33833   1.9921 
 O                     1.94752   1.43403   1.8261 
 O                     0.04142  -3.44637   1.84565 
 C                    -1.24323  -2.90036   1.49711 
 C                    -2.14309  -4.04283   1.02285 
 C                    -3.59169  -3.58572   0.84301 
 C                    -4.08574  -2.84715   2.08744 
 O                    -3.18715  -1.74861   2.36131 
 C                    -1.87288  -2.2022    2.72163 
 C                    -1.0903   -0.99728   3.23517 
 O                    -0.81605  -0.01085   2.21899 
 O                    -5.341    -2.32492   1.81102 
 C                    -6.04743  -1.81078   2.97378 
 C                    -6.79475  -0.54036   2.58434 
 C                    -5.91634   0.53381   1.92573 
 C                    -4.78789   1.08348   2.81109 
 C                    -3.80467   1.96854   2.05042 
 N                    -3.00616   1.20363   1.02605 
 O                    -4.34325  -4.76214   0.56153 
 O                    -1.63491  -4.54552  -0.22124 
 O                     1.11861  -4.23902  -0.84808 
 H                     2.05674   1.7034   -0.83611 
 H                     0.08016   0.6171   -2.93744 
 H                     1.95859   3.04257  -3.04808 
 H                     0.04521   4.4653   -2.80982 
 H                     0.86184   3.75608  -0.69037 
 H                    -1.28177   4.95305  -0.59157 
 H                    -1.10661   3.80017   0.7558 
 H                    -2.48007   3.11479  -1.63003 
 H                    -1.30252   2.82058  -4.00278 
 H                     1.26269   1.90069  -5.04935 
 H                     2.09148  -0.4497   -3.15126 
 H                     3.16357  -0.18588  -0.79115 
 H                     3.21829  -2.68298  -0.68928 
 H                     1.88973  -2.99059  -2.65898 
 H                     0.18751  -2.38488  -0.66527 
 H                     2.00566  -3.55517   1.53856 
 H                     3.41985  -1.58389   1.32561 
 H                     2.91312   0.03226   3.0512 
 H                     3.8292    0.70732   1.68727 
 H                     1.07962   1.19798   2.20434 
 H                    -1.15632  -2.15837   0.68707 
 H                    -2.11448  -4.84521   1.78451 
 H                    -3.63865  -2.87071  -0.00166 
 H                    -4.1049   -3.5215    2.97038 
 H                    -1.9356   -2.9284    3.55737 
 H                    -1.68545  -0.49626   4.01062 
 H                    -0.14663  -1.34078   3.68008 
 H                    -0.10423  -0.40077   1.65203 
 H                    -5.32112  -1.61385   3.77664 
 H                    -6.75027  -2.58316   3.32479 
 H                    -7.27774  -0.14453   3.49301 
 H                    -7.60891  -0.80143   1.89114 
 H                    -6.55828   1.36658   1.59756 
 H                    -5.50582   0.08591   1.00415 
 H                    -4.23193   0.26195   3.28577 
 H                    -5.21572   1.68914   3.62531 
 H                    -4.32363   2.77158   1.50851 
 H                    -3.07729   2.43665   2.72681 
 H                    -3.58309   0.46425   0.60697 
 H                    -2.16247   0.73006   1.44854 
 H                    -2.70127   1.87895   0.25943 
 H                    -5.25406  -4.49391   0.34468 
 H                    -2.26092  -5.23186  -0.51997 
 H                     0.21894  -4.60686  -0.69801 
 
 The following ModRedundant input section has been read:
 
 NAtoms=     84 NQM=       84 NQMF=       0 NMMI=      0 NMMIF=      0
                NMic=       0 NMicF=      0.
                    Isotopes and Nuclear Properties:
 (Nuclear quadrupole moments (NQMom) in fm**2, nuclear magnetic moments (NMagM)
  in nuclear magnetons)

  Atom         1           2           3           4           5           6           7           8           9          10
 IAtWgt=          16          12          12          12          12          12          12          16          16          16
 AtmWgt=  15.9949146  12.0000000  12.0000000  12.0000000  12.0000000  12.0000000  12.0000000  15.9949146  15.9949146  15.9949146
 NucSpn=           0           0           0           0           0           0           0           0           0           0
 AtZEff=   0.0000000   0.0000000   0.0000000   0.0000000   0.0000000   0.0000000   0.0000000   0.0000000   0.0000000   0.0000000
 NQMom=    0.0000000   0.0000000   0.0000000   0.0000000   0.0000000   0.0000000   0.0000000   0.0000000   0.0000000   0.0000000
 NMagM=    0.0000000   0.0000000   0.0000000   0.0000000   0.0000000   0.0000000   0.0000000   0.0000000   0.0000000   0.0000000
 AtZNuc=   8.0000000   6.0000000   6.0000000   6.0000000   6.0000000   6.0000000   6.0000000   8.0000000   8.0000000   8.0000000

  Atom        11          12          13          14          15          16          17          18          19          20
 IAtWgt=          16          16          12          12          16          12          12          16          12          12
 AtmWgt=  15.9949146  15.9949146  12.0000000  12.0000000  15.9949146  12.0000000  12.0000000  15.9949146  12.0000000  12.0000000
 NucSpn=           0           0           0           0           0           0           0           0           0           0
 AtZEff=   0.0000000   0.0000000   0.0000000   0.0000000   0.0000000   0.0000000   0.0000000   0.0000000   0.0000000   0.0000000
 NQMom=    0.0000000   0.0000000   0.0000000   0.0000000   0.0000000   0.0000000   0.0000000   0.0000000   0.0000000   0.0000000
 NMagM=    0.0000000   0.0000000   0.0000000   0.0000000   0.0000000   0.0000000   0.0000000   0.0000000   0.0000000   0.0000000
 AtZNuc=   8.0000000   8.0000000   6.0000000   6.0000000   8.0000000   6.0000000   6.0000000   8.0000000   6.0000000   6.0000000

  Atom        21          22          23          24          25          26          27          28          29          30
 IAtWgt=          16          16          12          12          12          12          16          12          12          16
 AtmWgt=  15.9949146  15.9949146  12.0000000  12.0000000  12.0000000  12.0000000  15.9949146  12.0000000  12.0000000  15.9949146
 NucSpn=           0           0           0           0           0           0           0           0           0           0
 AtZEff=   0.0000000   0.0000000   0.0000000   0.0000000   0.0000000   0.0000000   0.0000000   0.0000000   0.0000000   0.0000000
 NQMom=    0.0000000   0.0000000   0.0000000   0.0000000   0.0000000   0.0000000   0.0000000   0.0000000   0.0000000   0.0000000
 NMagM=    0.0000000   0.0000000   0.0000000   0.0000000   0.0000000   0.0000000   0.0000000   0.0000000   0.0000000   0.0000000
 AtZNuc=   8.0000000   8.0000000   6.0000000   6.0000000   6.0000000   6.0000000   8.0000000   6.0000000   6.0000000   8.0000000

  Atom        31          32          33          34          35          36          37          38          39          40
 IAtWgt=          16          12          12          12          12          12          14          16          16          16
 AtmWgt=  15.9949146  12.0000000  12.0000000  12.0000000  12.0000000  12.0000000  14.0030740  15.9949146  15.9949146  15.9949146
 NucSpn=           0           0           0           0           0           0           2           0           0           0
 AtZEff=   0.0000000   0.0000000   0.0000000   0.0000000   0.0000000   0.0000000   0.0000000   0.0000000   0.0000000   0.0000000
 NQMom=    0.0000000   0.0000000   0.0000000   0.0000000   0.0000000   0.0000000   2.0440000   0.0000000   0.0000000   0.0000000
 NMagM=    0.0000000   0.0000000   0.0000000   0.0000000   0.0000000   0.0000000   0.4037610   0.0000000   0.0000000   0.0000000
 AtZNuc=   8.0000000   6.0000000   6.0000000   6.0000000   6.0000000   6.0000000   7.0000000   8.0000000   8.0000000   8.0000000

  Atom        41          42          43          44          45          46          47          48          49          50
 IAtWgt=           1           1           1           1           1           1           1           1           1           1
 AtmWgt=   1.0078250   1.0078250   1.0078250   1.0078250   1.0078250   1.0078250   1.0078250   1.0078250   1.0078250   1.0078250
 NucSpn=           1           1           1           1           1           1           1           1           1           1
 AtZEff=   0.0000000   0.0000000   0.0000000   0.0000000   0.0000000   0.0000000   0.0000000   0.0000000   0.0000000   0.0000000
 NQMom=    0.0000000   0.0000000   0.0000000   0.0000000   0.0000000   0.0000000   0.0000000   0.0000000   0.0000000   0.0000000
 NMagM=    2.7928460   2.7928460   2.7928460   2.7928460   2.7928460   2.7928460   2.7928460   2.7928460   2.7928460   2.7928460
 AtZNuc=   1.0000000   1.0000000   1.0000000   1.0000000   1.0000000   1.0000000   1.0000000   1.0000000   1.0000000   1.0000000

  Atom        51          52          53          54          55          56          57          58          59          60
 IAtWgt=           1           1           1           1           1           1           1           1           1           1
 AtmWgt=   1.0078250   1.0078250   1.0078250   1.0078250   1.0078250   1.0078250   1.0078250   1.0078250   1.0078250   1.0078250
 NucSpn=           1           1           1           1           1           1           1           1           1           1
 AtZEff=   0.0000000   0.0000000   0.0000000   0.0000000   0.0000000   0.0000000   0.0000000   0.0000000   0.0000000   0.0000000
 NQMom=    0.0000000   0.0000000   0.0000000   0.0000000   0.0000000   0.0000000   0.0000000   0.0000000   0.0000000   0.0000000
 NMagM=    2.7928460   2.7928460   2.7928460   2.7928460   2.7928460   2.7928460   2.7928460   2.7928460   2.7928460   2.7928460
 AtZNuc=   1.0000000   1.0000000   1.0000000   1.0000000   1.0000000   1.0000000   1.0000000   1.0000000   1.0000000   1.0000000

  Atom        61          62          63          64          65          66          67          68          69          70
 IAtWgt=           1           1           1           1           1           1           1           1           1           1
 AtmWgt=   1.0078250   1.0078250   1.0078250   1.0078250   1.0078250   1.0078250   1.0078250   1.0078250   1.0078250   1.0078250
 NucSpn=           1           1           1           1           1           1           1           1           1           1
 AtZEff=   0.0000000   0.0000000   0.0000000   0.0000000   0.0000000   0.0000000   0.0000000   0.0000000   0.0000000   0.0000000
 NQMom=    0.0000000   0.0000000   0.0000000   0.0000000   0.0000000   0.0000000   0.0000000   0.0000000   0.0000000   0.0000000
 NMagM=    2.7928460   2.7928460   2.7928460   2.7928460   2.7928460   2.7928460   2.7928460   2.7928460   2.7928460   2.7928460
 AtZNuc=   1.0000000   1.0000000   1.0000000   1.0000000   1.0000000   1.0000000   1.0000000   1.0000000   1.0000000   1.0000000

  Atom        71          72          73          74          75          76          77          78          79          80
 IAtWgt=           1           1           1           1           1           1           1           1           1           1
 AtmWgt=   1.0078250   1.0078250   1.0078250   1.0078250   1.0078250   1.0078250   1.0078250   1.0078250   1.0078250   1.0078250
 NucSpn=           1           1           1           1           1           1           1           1           1           1
 AtZEff=   0.0000000   0.0000000   0.0000000   0.0000000   0.0000000   0.0000000   0.0000000   0.0000000   0.0000000   0.0000000
 NQMom=    0.0000000   0.0000000   0.0000000   0.0000000   0.0000000   0.0000000   0.0000000   0.0000000   0.0000000   0.0000000
 NMagM=    2.7928460   2.7928460   2.7928460   2.7928460   2.7928460   2.7928460   2.7928460   2.7928460   2.7928460   2.7928460
 AtZNuc=   1.0000000   1.0000000   1.0000000   1.0000000   1.0000000   1.0000000   1.0000000   1.0000000   1.0000000   1.0000000

  Atom        81          82          83          84
 IAtWgt=           1           1           1           1
 AtmWgt=   1.0078250   1.0078250   1.0078250   1.0078250
 NucSpn=           1           1           1           1
 AtZEff=   0.0000000   0.0000000   0.0000000   0.0000000
 NQMom=    0.0000000   0.0000000   0.0000000   0.0000000
 NMagM=    2.7928460   2.7928460   2.7928460   2.7928460
 AtZNuc=   1.0000000   1.0000000   1.0000000   1.0000000
 Leave Link  101 at Sat May 21 03:27:50 2016, MaxMem= 10737418240 cpu:         5.0
 (Enter /share/apps//g09/l103.exe)

 GradGradGradGradGradGradGradGradGradGradGradGradGradGradGradGradGradGrad
 Berny optimization.
 Initialization pass.
                           ----------------------------
                           !    Initial Parameters    !
                           ! (Angstroms and Degrees)  !
 --------------------------                            --------------------------
 ! Name  Definition              Value          Derivative Info.                !
 --------------------------------------------------------------------------------
 ! R1    R(1,2)                  1.4256         estimate D2E/DX2                !
 ! R2    R(1,6)                  1.4351         estimate D2E/DX2                !
 ! R3    R(2,3)                  1.5383         estimate D2E/DX2                !
 ! R4    R(2,12)                 1.4129         estimate D2E/DX2                !
 ! R5    R(2,41)                 1.1088         estimate D2E/DX2                !
 ! R6    R(3,4)                  1.5287         estimate D2E/DX2                !
 ! R7    R(3,11)                 1.421          estimate D2E/DX2                !
 ! R8    R(3,42)                 1.1059         estimate D2E/DX2                !
 ! R9    R(4,5)                  1.529          estimate D2E/DX2                !
 ! R10   R(4,10)                 1.4278         estimate D2E/DX2                !
 ! R11   R(4,43)                 1.1078         estimate D2E/DX2                !
 ! R12   R(5,6)                  1.5373         estimate D2E/DX2                !
 ! R13   R(5,9)                  1.4386         estimate D2E/DX2                !
 ! R14   R(5,44)                 1.1062         estimate D2E/DX2                !
 ! R15   R(6,7)                  1.5258         estimate D2E/DX2                !
 ! R16   R(6,45)                 1.1097         estimate D2E/DX2                !
 ! R17   R(7,8)                  1.4404         estimate D2E/DX2                !
 ! R18   R(7,46)                 1.1026         estimate D2E/DX2                !
 ! R19   R(7,47)                 1.0996         estimate D2E/DX2                !
 ! R20   R(8,48)                 0.9893         estimate D2E/DX2                !
 ! R21   R(9,49)                 0.979          estimate D2E/DX2                !
 ! R22   R(10,50)                0.9763         estimate D2E/DX2                !
 ! R23   R(11,51)                0.9849         estimate D2E/DX2                !
 ! R24   R(12,13)                1.4407         estimate D2E/DX2                !
 ! R25   R(13,14)                1.532          estimate D2E/DX2                !
 ! R26   R(13,19)                1.5395         estimate D2E/DX2                !
 ! R27   R(13,52)                1.1013         estimate D2E/DX2                !
 ! R28   R(14,15)                1.4288         estimate D2E/DX2                !
 ! R29   R(14,16)                1.5288         estimate D2E/DX2                !
 ! R30   R(14,53)                1.1067         estimate D2E/DX2                !
 ! R31   R(15,54)                0.9769         estimate D2E/DX2                !
 ! R32   R(16,17)                1.5437         estimate D2E/DX2                !
 ! R33   R(16,40)                1.418          estimate D2E/DX2                !
 ! R34   R(16,55)                1.1031         estimate D2E/DX2                !
 ! R35   R(17,18)                1.4506         estimate D2E/DX2                !
 ! R36   R(17,22)                1.4033         estimate D2E/DX2                !
 ! R37   R(17,56)                1.1044         estimate D2E/DX2                !
 ! R38   R(18,19)                1.4445         estimate D2E/DX2                !
 ! R39   R(19,20)                1.5314         estimate D2E/DX2                !
 ! R40   R(19,57)                1.1091         estimate D2E/DX2                !
 ! R41   R(20,21)                1.4218         estimate D2E/DX2                !
 ! R42   R(20,58)                1.105          estimate D2E/DX2                !
 ! R43   R(20,59)                1.1004         estimate D2E/DX2                !
 ! R44   R(21,60)                0.9757         estimate D2E/DX2                !
 ! R45   R(22,23)                1.4387         estimate D2E/DX2                !
 ! R46   R(23,24)                1.5297         estimate D2E/DX2                !
 ! R47   R(23,28)                1.5438         estimate D2E/DX2                !
 ! R48   R(23,61)                1.1019         estimate D2E/DX2                !
 ! R49   R(24,25)                1.5296         estimate D2E/DX2                !
 ! R50   R(24,39)                1.4348         estimate D2E/DX2                !
 ! R51   R(24,62)                1.1067         estimate D2E/DX2                !
 ! R52   R(25,26)                1.5291         estimate D2E/DX2                !
 ! R53   R(25,38)                1.4241         estimate D2E/DX2                !
 ! R54   R(25,63)                1.1077         estimate D2E/DX2                !
 ! R55   R(26,27)                1.4454         estimate D2E/DX2                !
 ! R56   R(26,31)                1.3874         estimate D2E/DX2                !
 ! R57   R(26,64)                1.1112         estimate D2E/DX2                !
 ! R58   R(27,28)                1.4363         estimate D2E/DX2                !
 ! R59   R(28,29)                1.5258         estimate D2E/DX2                !
 ! R60   R(28,65)                1.1089         estimate D2E/DX2                !
 ! R61   R(29,30)                1.4425         estimate D2E/DX2                !
 ! R62   R(29,66)                1.0984         estimate D2E/DX2                !
 ! R63   R(29,67)                1.0984         estimate D2E/DX2                !
 ! R64   R(30,68)                0.99           estimate D2E/DX2                !
 ! R65   R(31,32)                1.4544         estimate D2E/DX2                !
 ! R66   R(32,33)                1.5245         estimate D2E/DX2                !
 ! R67   R(32,69)                1.1004         estimate D2E/DX2                !
 ! R68   R(32,70)                1.1017         estimate D2E/DX2                !
 ! R69   R(33,34)                1.536          estimate D2E/DX2                !
 ! R70   R(33,71)                1.1026         estimate D2E/DX2                !
 ! R71   R(33,72)                1.1007         estimate D2E/DX2                !
 ! R72   R(34,35)                1.536          estimate D2E/DX2                !
 ! R73   R(34,73)                1.1015         estimate D2E/DX2                !
 ! R74   R(34,74)                1.1038         estimate D2E/DX2                !
 ! R75   R(35,36)                1.526          estimate D2E/DX2                !
 ! R76   R(35,75)                1.0997         estimate D2E/DX2                !
 ! R77   R(35,76)                1.1013         estimate D2E/DX2                !
 ! R78   R(36,37)                1.5073         estimate D2E/DX2                !
 ! R79   R(36,77)                1.099          estimate D2E/DX2                !
 ! R80   R(36,78)                1.098          estimate D2E/DX2                !
 ! R81   R(37,79)                1.0272         estimate D2E/DX2                !
 ! R82   R(37,80)                1.0557         estimate D2E/DX2                !
 ! R83   R(37,81)                1.0662         estimate D2E/DX2                !
 ! R84   R(38,82)                0.9739         estimate D2E/DX2                !
 ! R85   R(39,83)                0.9758         estimate D2E/DX2                !
 ! R86   R(40,84)                0.9835         estimate D2E/DX2                !
 ! A1    A(2,1,6)              111.693          estimate D2E/DX2                !
 ! A2    A(1,2,3)              109.3043         estimate D2E/DX2                !
 ! A3    A(1,2,12)             104.489          estimate D2E/DX2                !
 ! A4    A(1,2,41)             109.8826         estimate D2E/DX2                !
 ! A5    A(3,2,12)             111.3712         estimate D2E/DX2                !
 ! A6    A(3,2,41)             111.4939         estimate D2E/DX2                !
 ! A7    A(12,2,41)            110.0662         estimate D2E/DX2                !
 ! A8    A(2,3,4)              109.2991         estimate D2E/DX2                !
 ! A9    A(2,3,11)             113.2979         estimate D2E/DX2                !
 ! A10   A(2,3,42)             106.9014         estimate D2E/DX2                !
 ! A11   A(4,3,11)             105.9828         estimate D2E/DX2                !
 ! A12   A(4,3,42)             109.7922         estimate D2E/DX2                !
 ! A13   A(11,3,42)            111.5548         estimate D2E/DX2                !
 ! A14   A(3,4,5)              111.679          estimate D2E/DX2                !
 ! A15   A(3,4,10)             111.6018         estimate D2E/DX2                !
 ! A16   A(3,4,43)             108.0051         estimate D2E/DX2                !
 ! A17   A(5,4,10)             106.644          estimate D2E/DX2                !
 ! A18   A(5,4,43)             108.7468         estimate D2E/DX2                !
 ! A19   A(10,4,43)            110.1382         estimate D2E/DX2                !
 ! A20   A(4,5,6)              110.7473         estimate D2E/DX2                !
 ! A21   A(4,5,9)              110.1005         estimate D2E/DX2                !
 ! A22   A(4,5,44)             108.9162         estimate D2E/DX2                !
 ! A23   A(6,5,9)              109.5809         estimate D2E/DX2                !
 ! A24   A(6,5,44)             108.2058         estimate D2E/DX2                !
 ! A25   A(9,5,44)             109.2498         estimate D2E/DX2                !
 ! A26   A(1,6,5)              112.6431         estimate D2E/DX2                !
 ! A27   A(1,6,7)              107.287          estimate D2E/DX2                !
 ! A28   A(1,6,45)             109.5014         estimate D2E/DX2                !
 ! A29   A(5,6,7)              112.7079         estimate D2E/DX2                !
 ! A30   A(5,6,45)             107.3026         estimate D2E/DX2                !
 ! A31   A(7,6,45)             107.2492         estimate D2E/DX2                !
 ! A32   A(6,7,8)              112.899          estimate D2E/DX2                !
 ! A33   A(6,7,46)             109.3473         estimate D2E/DX2                !
 ! A34   A(6,7,47)             109.4681         estimate D2E/DX2                !
 ! A35   A(8,7,46)             110.0184         estimate D2E/DX2                !
 ! A36   A(8,7,47)             106.9463         estimate D2E/DX2                !
 ! A37   A(46,7,47)            108.0257         estimate D2E/DX2                !
 ! A38   A(7,8,48)             105.3625         estimate D2E/DX2                !
 ! A39   A(5,9,49)             105.9273         estimate D2E/DX2                !
 ! A40   A(4,10,50)            106.4698         estimate D2E/DX2                !
 ! A41   A(3,11,51)            108.532          estimate D2E/DX2                !
 ! A42   A(2,12,13)            116.4489         estimate D2E/DX2                !
 ! A43   A(12,13,14)           108.0287         estimate D2E/DX2                !
 ! A44   A(12,13,19)           110.3252         estimate D2E/DX2                !
 ! A45   A(12,13,52)           110.9515         estimate D2E/DX2                !
 ! A46   A(14,13,19)           106.7787         estimate D2E/DX2                !
 ! A47   A(14,13,52)           109.8748         estimate D2E/DX2                !
 ! A48   A(19,13,52)           110.7557         estimate D2E/DX2                !
 ! A49   A(13,14,15)           110.5364         estimate D2E/DX2                !
 ! A50   A(13,14,16)           109.1555         estimate D2E/DX2                !
 ! A51   A(13,14,53)           108.3091         estimate D2E/DX2                !
 ! A52   A(15,14,16)           110.2189         estimate D2E/DX2                !
 ! A53   A(15,14,53)           109.1544         estimate D2E/DX2                !
 ! A54   A(16,14,53)           109.4329         estimate D2E/DX2                !
 ! A55   A(14,15,54)           106.4763         estimate D2E/DX2                !
 ! A56   A(14,16,17)           110.9224         estimate D2E/DX2                !
 ! A57   A(14,16,40)           107.7714         estimate D2E/DX2                !
 ! A58   A(14,16,55)           106.1083         estimate D2E/DX2                !
 ! A59   A(17,16,40)           111.342          estimate D2E/DX2                !
 ! A60   A(17,16,55)           109.7609         estimate D2E/DX2                !
 ! A61   A(40,16,55)           110.796          estimate D2E/DX2                !
 ! A62   A(16,17,18)           111.3139         estimate D2E/DX2                !
 ! A63   A(16,17,22)           114.4331         estimate D2E/DX2                !
 ! A64   A(16,17,56)           109.5655         estimate D2E/DX2                !
 ! A65   A(18,17,22)           107.6988         estimate D2E/DX2                !
 ! A66   A(18,17,56)           109.027          estimate D2E/DX2                !
 ! A67   A(22,17,56)           104.4873         estimate D2E/DX2                !
 ! A68   A(17,18,19)           113.2739         estimate D2E/DX2                !
 ! A69   A(13,19,18)           108.1531         estimate D2E/DX2                !
 ! A70   A(13,19,20)           117.5042         estimate D2E/DX2                !
 ! A71   A(13,19,57)           108.0479         estimate D2E/DX2                !
 ! A72   A(18,19,20)           108.8445         estimate D2E/DX2                !
 ! A73   A(18,19,57)           108.5963         estimate D2E/DX2                !
 ! A74   A(20,19,57)           105.4037         estimate D2E/DX2                !
 ! A75   A(19,20,21)           116.8052         estimate D2E/DX2                !
 ! A76   A(19,20,58)           107.3189         estimate D2E/DX2                !
 ! A77   A(19,20,59)           107.5284         estimate D2E/DX2                !
 ! A78   A(21,20,58)           111.5794         estimate D2E/DX2                !
 ! A79   A(21,20,59)           105.8666         estimate D2E/DX2                !
 ! A80   A(58,20,59)           107.3017         estimate D2E/DX2                !
 ! A81   A(20,21,60)           109.0004         estimate D2E/DX2                !
 ! A82   A(17,22,23)           117.6525         estimate D2E/DX2                !
 ! A83   A(22,23,24)           108.4776         estimate D2E/DX2                !
 ! A84   A(22,23,28)           110.0995         estimate D2E/DX2                !
 ! A85   A(22,23,61)           111.297          estimate D2E/DX2                !
 ! A86   A(24,23,28)           110.1054         estimate D2E/DX2                !
 ! A87   A(24,23,61)           108.747          estimate D2E/DX2                !
 ! A88   A(28,23,61)           108.1032         estimate D2E/DX2                !
 ! A89   A(23,24,25)           111.7383         estimate D2E/DX2                !
 ! A90   A(23,24,39)           108.7925         estimate D2E/DX2                !
 ! A91   A(23,24,62)           108.235          estimate D2E/DX2                !
 ! A92   A(25,24,39)           109.7656         estimate D2E/DX2                !
 ! A93   A(25,24,62)           108.7879         estimate D2E/DX2                !
 ! A94   A(39,24,62)           109.486          estimate D2E/DX2                !
 ! A95   A(24,25,26)           110.7715         estimate D2E/DX2                !
 ! A96   A(24,25,38)           106.0315         estimate D2E/DX2                !
 ! A97   A(24,25,63)           108.827          estimate D2E/DX2                !
 ! A98   A(26,25,38)           112.914          estimate D2E/DX2                !
 ! A99   A(26,25,63)           107.1645         estimate D2E/DX2                !
 ! A100  A(38,25,63)           111.1093         estimate D2E/DX2                !
 ! A101  A(25,26,27)           108.6887         estimate D2E/DX2                !
 ! A102  A(25,26,31)           108.1794         estimate D2E/DX2                !
 ! A103  A(25,26,64)           111.0457         estimate D2E/DX2                !
 ! A104  A(27,26,31)           108.3094         estimate D2E/DX2                !
 ! A105  A(27,26,64)           108.7477         estimate D2E/DX2                !
 ! A106  A(31,26,64)           111.7869         estimate D2E/DX2                !
 ! A107  A(26,27,28)           112.1099         estimate D2E/DX2                !
 ! A108  A(23,28,27)           108.4842         estimate D2E/DX2                !
 ! A109  A(23,28,29)           114.5135         estimate D2E/DX2                !
 ! A110  A(23,28,65)           108.9468         estimate D2E/DX2                !
 ! A111  A(27,28,29)           107.7207         estimate D2E/DX2                !
 ! A112  A(27,28,65)           110.1282         estimate D2E/DX2                !
 ! A113  A(29,28,65)           107.0077         estimate D2E/DX2                !
 ! A114  A(28,29,30)           113.6053         estimate D2E/DX2                !
 ! A115  A(28,29,66)           108.6577         estimate D2E/DX2                !
 ! A116  A(28,29,67)           109.2703         estimate D2E/DX2                !
 ! A117  A(30,29,66)           106.763          estimate D2E/DX2                !
 ! A118  A(30,29,67)           109.6246         estimate D2E/DX2                !
 ! A119  A(66,29,67)           108.7953         estimate D2E/DX2                !
 ! A120  A(29,30,68)           105.711          estimate D2E/DX2                !
 ! A121  A(26,31,32)           114.4081         estimate D2E/DX2                !
 ! A122  A(31,32,33)           109.1749         estimate D2E/DX2                !
 ! A123  A(31,32,69)           109.024          estimate D2E/DX2                !
 ! A124  A(31,32,70)           108.466          estimate D2E/DX2                !
 ! A125  A(33,32,69)           111.1493         estimate D2E/DX2                !
 ! A126  A(33,32,70)           110.6641         estimate D2E/DX2                !
 ! A127  A(69,32,70)           108.3055         estimate D2E/DX2                !
 ! A128  A(32,33,34)           114.329          estimate D2E/DX2                !
 ! A129  A(32,33,71)           107.661          estimate D2E/DX2                !
 ! A130  A(32,33,72)           109.0151         estimate D2E/DX2                !
 ! A131  A(34,33,71)           110.661          estimate D2E/DX2                !
 ! A132  A(34,33,72)           108.593          estimate D2E/DX2                !
 ! A133  A(71,33,72)           106.2697         estimate D2E/DX2                !
 ! A134  A(33,34,35)           115.0399         estimate D2E/DX2                !
 ! A135  A(33,34,73)           108.8557         estimate D2E/DX2                !
 ! A136  A(33,34,74)           106.6731         estimate D2E/DX2                !
 ! A137  A(35,34,73)           109.2279         estimate D2E/DX2                !
 ! A138  A(35,34,74)           110.6837         estimate D2E/DX2                !
 ! A139  A(73,34,74)           105.9487         estimate D2E/DX2                !
 ! A140  A(34,35,36)           113.1773         estimate D2E/DX2                !
 ! A141  A(34,35,75)           110.6633         estimate D2E/DX2                !
 ! A142  A(34,35,76)           109.7279         estimate D2E/DX2                !
 ! A143  A(36,35,75)           108.8268         estimate D2E/DX2                !
 ! A144  A(36,35,76)           107.4502         estimate D2E/DX2                !
 ! A145  A(75,35,76)           106.7453         estimate D2E/DX2                !
 ! A146  A(35,36,37)           112.6912         estimate D2E/DX2                !
 ! A147  A(35,36,77)           111.428          estimate D2E/DX2                !
 ! A148  A(35,36,78)           111.5314         estimate D2E/DX2                !
 ! A149  A(37,36,77)           106.6095         estimate D2E/DX2                !
 ! A150  A(37,36,78)           106.5013         estimate D2E/DX2                !
 ! A151  A(77,36,78)           107.7603         estimate D2E/DX2                !
 ! A152  A(36,37,79)           110.1814         estimate D2E/DX2                !
 ! A153  A(36,37,80)           112.2729         estimate D2E/DX2                !
 ! A154  A(36,37,81)           108.5854         estimate D2E/DX2                !
 ! A155  A(79,37,80)           106.8119         estimate D2E/DX2                !
 ! A156  A(79,37,81)           108.8555         estimate D2E/DX2                !
 ! A157  A(80,37,81)           110.0808         estimate D2E/DX2                !
 ! A158  A(25,38,82)           108.0616         estimate D2E/DX2                !
 ! A159  A(24,39,83)           106.5379         estimate D2E/DX2                !
 ! A160  A(16,40,84)           106.1564         estimate D2E/DX2                !
 ! D1    D(6,1,2,3)            -64.4317         estimate D2E/DX2                !
 ! D2    D(6,1,2,12)           176.2725         estimate D2E/DX2                !
 ! D3    D(6,1,2,41)            58.2191         estimate D2E/DX2                !
 ! D4    D(2,1,6,5)             59.8205         estimate D2E/DX2                !
 ! D5    D(2,1,6,7)           -175.5768         estimate D2E/DX2                !
 ! D6    D(2,1,6,45)           -59.4938         estimate D2E/DX2                !
 ! D7    D(1,2,3,4)             60.4307         estimate D2E/DX2                !
 ! D8    D(1,2,3,11)           178.3637         estimate D2E/DX2                !
 ! D9    D(1,2,3,42)           -58.3441         estimate D2E/DX2                !
 ! D10   D(12,2,3,4)           175.3754         estimate D2E/DX2                !
 ! D11   D(12,2,3,11)          -66.6916         estimate D2E/DX2                !
 ! D12   D(12,2,3,42)           56.6006         estimate D2E/DX2                !
 ! D13   D(41,2,3,4)           -61.2526         estimate D2E/DX2                !
 ! D14   D(41,2,3,11)           56.6804         estimate D2E/DX2                !
 ! D15   D(41,2,3,42)          179.9726         estimate D2E/DX2                !
 ! D16   D(1,2,12,13)         -147.6896         estimate D2E/DX2                !
 ! D17   D(3,2,12,13)           94.4203         estimate D2E/DX2                !
 ! D18   D(41,2,12,13)         -29.7617         estimate D2E/DX2                !
 ! D19   D(2,3,4,5)            -52.7673         estimate D2E/DX2                !
 ! D20   D(2,3,4,10)          -172.0366         estimate D2E/DX2                !
 ! D21   D(2,3,4,43)            66.7615         estimate D2E/DX2                !
 ! D22   D(11,3,4,5)          -175.1932         estimate D2E/DX2                !
 ! D23   D(11,3,4,10)           65.5375         estimate D2E/DX2                !
 ! D24   D(11,3,4,43)          -55.6644         estimate D2E/DX2                !
 ! D25   D(42,3,4,5)            64.1942         estimate D2E/DX2                !
 ! D26   D(42,3,4,10)          -55.0751         estimate D2E/DX2                !
 ! D27   D(42,3,4,43)         -176.277          estimate D2E/DX2                !
 ! D28   D(2,3,11,51)           72.5496         estimate D2E/DX2                !
 ! D29   D(4,3,11,51)         -167.6057         estimate D2E/DX2                !
 ! D30   D(42,3,11,51)         -48.1434         estimate D2E/DX2                !
 ! D31   D(3,4,5,6)             47.5614         estimate D2E/DX2                !
 ! D32   D(3,4,5,9)            -73.7877         estimate D2E/DX2                !
 ! D33   D(3,4,5,44)           166.442          estimate D2E/DX2                !
 ! D34   D(10,4,5,6)           169.725          estimate D2E/DX2                !
 ! D35   D(10,4,5,9)            48.3759         estimate D2E/DX2                !
 ! D36   D(10,4,5,44)          -71.3944         estimate D2E/DX2                !
 ! D37   D(43,4,5,6)           -71.5286         estimate D2E/DX2                !
 ! D38   D(43,4,5,9)           167.1223         estimate D2E/DX2                !
 ! D39   D(43,4,5,44)           47.352          estimate D2E/DX2                !
 ! D40   D(3,4,10,50)          -45.3389         estimate D2E/DX2                !
 ! D41   D(5,4,10,50)         -167.5512         estimate D2E/DX2                !
 ! D42   D(43,4,10,50)          74.6149         estimate D2E/DX2                !
 ! D43   D(4,5,6,1)            -50.2346         estimate D2E/DX2                !
 ! D44   D(4,5,6,7)           -171.8082         estimate D2E/DX2                !
 ! D45   D(4,5,6,45)            70.3494         estimate D2E/DX2                !
 ! D46   D(9,5,6,1)             71.4204         estimate D2E/DX2                !
 ! D47   D(9,5,6,7)            -50.1531         estimate D2E/DX2                !
 ! D48   D(9,5,6,45)          -167.9956         estimate D2E/DX2                !
 ! D49   D(44,5,6,1)          -169.5438         estimate D2E/DX2                !
 ! D50   D(44,5,6,7)            68.8826         estimate D2E/DX2                !
 ! D51   D(44,5,6,45)          -48.9598         estimate D2E/DX2                !
 ! D52   D(4,5,9,49)           -39.0945         estimate D2E/DX2                !
 ! D53   D(6,5,9,49)          -161.1372         estimate D2E/DX2                !
 ! D54   D(44,5,9,49)           80.4732         estimate D2E/DX2                !
 ! D55   D(1,6,7,8)            -59.4457         estimate D2E/DX2                !
 ! D56   D(1,6,7,46)           177.7234         estimate D2E/DX2                !
 ! D57   D(1,6,7,47)            59.561          estimate D2E/DX2                !
 ! D58   D(5,6,7,8)             65.1178         estimate D2E/DX2                !
 ! D59   D(5,6,7,46)           -57.7132         estimate D2E/DX2                !
 ! D60   D(5,6,7,47)          -175.8756         estimate D2E/DX2                !
 ! D61   D(45,6,7,8)          -177.0084         estimate D2E/DX2                !
 ! D62   D(45,6,7,46)           60.1607         estimate D2E/DX2                !
 ! D63   D(45,6,7,47)          -58.0017         estimate D2E/DX2                !
 ! D64   D(6,7,8,48)           -44.6097         estimate D2E/DX2                !
 ! D65   D(46,7,8,48)           77.8465         estimate D2E/DX2                !
 ! D66   D(47,7,8,48)         -165.0689         estimate D2E/DX2                !
 ! D67   D(2,12,13,14)        -130.3478         estimate D2E/DX2                !
 ! D68   D(2,12,13,19)         113.2737         estimate D2E/DX2                !
 ! D69   D(2,12,13,52)          -9.8534         estimate D2E/DX2                !
 ! D70   D(12,13,14,15)         64.0147         estimate D2E/DX2                !
 ! D71   D(12,13,14,16)        -57.3727         estimate D2E/DX2                !
 ! D72   D(12,13,14,53)       -176.4459         estimate D2E/DX2                !
 ! D73   D(19,13,14,15)       -177.3221         estimate D2E/DX2                !
 ! D74   D(19,13,14,16)         61.2905         estimate D2E/DX2                !
 ! D75   D(19,13,14,53)        -57.7827         estimate D2E/DX2                !
 ! D76   D(52,13,14,15)        -57.1511         estimate D2E/DX2                !
 ! D77   D(52,13,14,16)       -178.5385         estimate D2E/DX2                !
 ! D78   D(52,13,14,53)         62.3883         estimate D2E/DX2                !
 ! D79   D(12,13,19,18)         52.1415         estimate D2E/DX2                !
 ! D80   D(12,13,19,20)        -71.4967         estimate D2E/DX2                !
 ! D81   D(12,13,19,57)        169.516          estimate D2E/DX2                !
 ! D82   D(14,13,19,18)        -65.0138         estimate D2E/DX2                !
 ! D83   D(14,13,19,20)        171.348          estimate D2E/DX2                !
 ! D84   D(14,13,19,57)         52.3607         estimate D2E/DX2                !
 ! D85   D(52,13,19,18)        175.3827         estimate D2E/DX2                !
 ! D86   D(52,13,19,20)         51.7445         estimate D2E/DX2                !
 ! D87   D(52,13,19,57)        -67.2428         estimate D2E/DX2                !
 ! D88   D(13,14,15,54)       -166.1163         estimate D2E/DX2                !
 ! D89   D(16,14,15,54)        -45.3604         estimate D2E/DX2                !
 ! D90   D(53,14,15,54)         74.8554         estimate D2E/DX2                !
 ! D91   D(13,14,16,17)        -54.4419         estimate D2E/DX2                !
 ! D92   D(13,14,16,40)       -176.5612         estimate D2E/DX2                !
 ! D93   D(13,14,16,55)         64.7122         estimate D2E/DX2                !
 ! D94   D(15,14,16,17)       -176.0219         estimate D2E/DX2                !
 ! D95   D(15,14,16,40)         61.8588         estimate D2E/DX2                !
 ! D96   D(15,14,16,55)        -56.8677         estimate D2E/DX2                !
 ! D97   D(53,14,16,17)         63.9303         estimate D2E/DX2                !
 ! D98   D(53,14,16,40)        -58.189          estimate D2E/DX2                !
 ! D99   D(53,14,16,55)       -176.9155         estimate D2E/DX2                !
 ! D100  D(14,16,17,18)         50.2997         estimate D2E/DX2                !
 ! D101  D(14,16,17,22)        172.6905         estimate D2E/DX2                !
 ! D102  D(14,16,17,56)        -70.3681         estimate D2E/DX2                !
 ! D103  D(40,16,17,18)        170.3132         estimate D2E/DX2                !
 ! D104  D(40,16,17,22)        -67.296          estimate D2E/DX2                !
 ! D105  D(40,16,17,56)         49.6453         estimate D2E/DX2                !
 ! D106  D(55,16,17,18)        -66.6347         estimate D2E/DX2                !
 ! D107  D(55,16,17,22)         55.7561         estimate D2E/DX2                !
 ! D108  D(55,16,17,56)        172.6974         estimate D2E/DX2                !
 ! D109  D(14,16,40,84)       -161.549          estimate D2E/DX2                !
 ! D110  D(17,16,40,84)         76.5914         estimate D2E/DX2                !
 ! D111  D(55,16,40,84)        -45.8662         estimate D2E/DX2                !
 ! D112  D(16,17,18,19)        -55.8227         estimate D2E/DX2                !
 ! D113  D(22,17,18,19)        177.9801         estimate D2E/DX2                !
 ! D114  D(56,17,18,19)         65.1611         estimate D2E/DX2                !
 ! D115  D(16,17,22,23)        -53.7802         estimate D2E/DX2                !
 ! D116  D(18,17,22,23)         70.5559         estimate D2E/DX2                !
 ! D117  D(56,17,22,23)       -173.6012         estimate D2E/DX2                !
 ! D118  D(17,18,19,13)         63.5764         estimate D2E/DX2                !
 ! D119  D(17,18,19,20)       -167.7097         estimate D2E/DX2                !
 ! D120  D(17,18,19,57)        -53.4447         estimate D2E/DX2                !
 ! D121  D(13,19,20,21)         51.3508         estimate D2E/DX2                !
 ! D122  D(13,19,20,58)        177.4503         estimate D2E/DX2                !
 ! D123  D(13,19,20,59)        -67.3873         estimate D2E/DX2                !
 ! D124  D(18,19,20,21)        -71.9374         estimate D2E/DX2                !
 ! D125  D(18,19,20,58)         54.1621         estimate D2E/DX2                !
 ! D126  D(18,19,20,59)        169.3245         estimate D2E/DX2                !
 ! D127  D(57,19,20,21)        171.7323         estimate D2E/DX2                !
 ! D128  D(57,19,20,58)        -62.1683         estimate D2E/DX2                !
 ! D129  D(57,19,20,59)         52.9941         estimate D2E/DX2                !
 ! D130  D(19,20,21,60)         68.4572         estimate D2E/DX2                !
 ! D131  D(58,20,21,60)        -55.495          estimate D2E/DX2                !
 ! D132  D(59,20,21,60)       -171.9121         estimate D2E/DX2                !
 ! D133  D(17,22,23,24)        123.9932         estimate D2E/DX2                !
 ! D134  D(17,22,23,28)       -115.4615         estimate D2E/DX2                !
 ! D135  D(17,22,23,61)          4.392          estimate D2E/DX2                !
 ! D136  D(22,23,24,25)        170.9891         estimate D2E/DX2                !
 ! D137  D(22,23,24,39)        -67.6624         estimate D2E/DX2                !
 ! D138  D(22,23,24,62)         51.2257         estimate D2E/DX2                !
 ! D139  D(28,23,24,25)         50.4475         estimate D2E/DX2                !
 ! D140  D(28,23,24,39)        171.796          estimate D2E/DX2                !
 ! D141  D(28,23,24,62)        -69.3159         estimate D2E/DX2                !
 ! D142  D(61,23,24,25)        -67.8253         estimate D2E/DX2                !
 ! D143  D(61,23,24,39)         53.5232         estimate D2E/DX2                !
 ! D144  D(61,23,24,62)        172.4113         estimate D2E/DX2                !
 ! D145  D(22,23,28,27)       -176.2433         estimate D2E/DX2                !
 ! D146  D(22,23,28,29)         63.4143         estimate D2E/DX2                !
 ! D147  D(22,23,28,65)        -56.3502         estimate D2E/DX2                !
 ! D148  D(24,23,28,27)        -56.6828         estimate D2E/DX2                !
 ! D149  D(24,23,28,29)       -177.0252         estimate D2E/DX2                !
 ! D150  D(24,23,28,65)         63.2103         estimate D2E/DX2                !
 ! D151  D(61,23,28,27)         61.9856         estimate D2E/DX2                !
 ! D152  D(61,23,28,29)        -58.3569         estimate D2E/DX2                !
 ! D153  D(61,23,28,65)       -178.1214         estimate D2E/DX2                !
 ! D154  D(23,24,25,26)        -50.3372         estimate D2E/DX2                !
 ! D155  D(23,24,25,38)       -173.1742         estimate D2E/DX2                !
 ! D156  D(23,24,25,63)         67.2303         estimate D2E/DX2                !
 ! D157  D(39,24,25,26)       -171.1207         estimate D2E/DX2                !
 ! D158  D(39,24,25,38)         66.0423         estimate D2E/DX2                !
 ! D159  D(39,24,25,63)        -53.5531         estimate D2E/DX2                !
 ! D160  D(62,24,25,26)         69.1002         estimate D2E/DX2                !
 ! D161  D(62,24,25,38)        -53.7368         estimate D2E/DX2                !
 ! D162  D(62,24,25,63)       -173.3322         estimate D2E/DX2                !
 ! D163  D(23,24,39,83)       -176.5987         estimate D2E/DX2                !
 ! D164  D(25,24,39,83)        -54.0515         estimate D2E/DX2                !
 ! D165  D(62,24,39,83)         65.3005         estimate D2E/DX2                !
 ! D166  D(24,25,26,27)         55.8232         estimate D2E/DX2                !
 ! D167  D(24,25,26,31)        173.2192         estimate D2E/DX2                !
 ! D168  D(24,25,26,64)        -63.7607         estimate D2E/DX2                !
 ! D169  D(38,25,26,27)        174.5738         estimate D2E/DX2                !
 ! D170  D(38,25,26,31)        -68.0302         estimate D2E/DX2                !
 ! D171  D(38,25,26,64)         54.9899         estimate D2E/DX2                !
 ! D172  D(63,25,26,27)        -62.7569         estimate D2E/DX2                !
 ! D173  D(63,25,26,31)         54.6391         estimate D2E/DX2                !
 ! D174  D(63,25,26,64)        177.6592         estimate D2E/DX2                !
 ! D175  D(24,25,38,82)       -173.8621         estimate D2E/DX2                !
 ! D176  D(26,25,38,82)         64.6672         estimate D2E/DX2                !
 ! D177  D(63,25,38,82)        -55.7725         estimate D2E/DX2                !
 ! D178  D(25,26,27,28)        -65.4507         estimate D2E/DX2                !
 ! D179  D(31,26,27,28)        177.2361         estimate D2E/DX2                !
 ! D180  D(64,26,27,28)         55.5569         estimate D2E/DX2                !
 ! D181  D(25,26,31,32)        169.0307         estimate D2E/DX2                !
 ! D182  D(27,26,31,32)        -73.3297         estimate D2E/DX2                !
 ! D183  D(64,26,31,32)         46.4618         estimate D2E/DX2                !
 ! D184  D(26,27,28,23)         65.8302         estimate D2E/DX2                !
 ! D185  D(26,27,28,29)       -169.692          estimate D2E/DX2                !
 ! D186  D(26,27,28,65)        -53.3226         estimate D2E/DX2                !
 ! D187  D(23,28,29,30)         53.7331         estimate D2E/DX2                !
 ! D188  D(23,28,29,66)        172.4033         estimate D2E/DX2                !
 ! D189  D(23,28,29,67)        -69.0227         estimate D2E/DX2                !
 ! D190  D(27,28,29,30)        -67.0322         estimate D2E/DX2                !
 ! D191  D(27,28,29,66)         51.638          estimate D2E/DX2                !
 ! D192  D(27,28,29,67)        170.212          estimate D2E/DX2                !
 ! D193  D(65,28,29,30)        174.5743         estimate D2E/DX2                !
 ! D194  D(65,28,29,66)        -66.7556         estimate D2E/DX2                !
 ! D195  D(65,28,29,67)         51.8185         estimate D2E/DX2                !
 ! D196  D(28,29,30,68)        -73.9803         estimate D2E/DX2                !
 ! D197  D(66,29,30,68)        166.2674         estimate D2E/DX2                !
 ! D198  D(67,29,30,68)         48.5804         estimate D2E/DX2                !
 ! D199  D(26,31,32,33)        141.4196         estimate D2E/DX2                !
 ! D200  D(26,31,32,69)         19.8212         estimate D2E/DX2                !
 ! D201  D(26,31,32,70)        -97.9151         estimate D2E/DX2                !
 ! D202  D(31,32,33,34)        -53.7695         estimate D2E/DX2                !
 ! D203  D(31,32,33,71)       -177.1594         estimate D2E/DX2                !
 ! D204  D(31,32,33,72)         67.9612         estimate D2E/DX2                !
 ! D205  D(69,32,33,34)         66.5327         estimate D2E/DX2                !
 ! D206  D(69,32,33,71)        -56.8571         estimate D2E/DX2                !
 ! D207  D(69,32,33,72)       -171.7366         estimate D2E/DX2                !
 ! D208  D(70,32,33,34)       -173.081          estimate D2E/DX2                !
 ! D209  D(70,32,33,71)         63.5292         estimate D2E/DX2                !
 ! D210  D(70,32,33,72)        -51.3503         estimate D2E/DX2                !
 ! D211  D(32,33,34,35)        -62.3173         estimate D2E/DX2                !
 ! D212  D(32,33,34,73)        174.7508         estimate D2E/DX2                !
 ! D213  D(32,33,34,74)         60.8355         estimate D2E/DX2                !
 ! D214  D(71,33,34,35)         59.4406         estimate D2E/DX2                !
 ! D215  D(71,33,34,73)        -63.4913         estimate D2E/DX2                !
 ! D216  D(71,33,34,74)       -177.4066         estimate D2E/DX2                !
 ! D217  D(72,33,34,35)        175.7206         estimate D2E/DX2                !
 ! D218  D(72,33,34,73)         52.7887         estimate D2E/DX2                !
 ! D219  D(72,33,34,74)        -61.1266         estimate D2E/DX2                !
 ! D220  D(33,34,35,36)        170.4079         estimate D2E/DX2                !
 ! D221  D(33,34,35,75)         47.9527         estimate D2E/DX2                !
 ! D222  D(33,34,35,76)        -69.5873         estimate D2E/DX2                !
 ! D223  D(73,34,35,36)        -66.8593         estimate D2E/DX2                !
 ! D224  D(73,34,35,75)        170.6855         estimate D2E/DX2                !
 ! D225  D(73,34,35,76)         53.1454         estimate D2E/DX2                !
 ! D226  D(74,34,35,36)         49.4196         estimate D2E/DX2                !
 ! D227  D(74,34,35,75)        -73.0356         estimate D2E/DX2                !
 ! D228  D(74,34,35,76)        169.4243         estimate D2E/DX2                !
 ! D229  D(34,35,36,37)        -66.665          estimate D2E/DX2                !
 ! D230  D(34,35,36,77)         53.1323         estimate D2E/DX2                !
 ! D231  D(34,35,36,78)        173.6038         estimate D2E/DX2                !
 ! D232  D(75,35,36,37)         56.8068         estimate D2E/DX2                !
 ! D233  D(75,35,36,77)        176.604          estimate D2E/DX2                !
 ! D234  D(75,35,36,78)        -62.9244         estimate D2E/DX2                !
 ! D235  D(76,35,36,37)        172.0375         estimate D2E/DX2                !
 ! D236  D(76,35,36,77)        -68.1653         estimate D2E/DX2                !
 ! D237  D(76,35,36,78)         52.3063         estimate D2E/DX2                !
 ! D238  D(35,36,37,79)         35.0324         estimate D2E/DX2                !
 ! D239  D(35,36,37,80)        -83.8844         estimate D2E/DX2                !
 ! D240  D(35,36,37,81)        154.1667         estimate D2E/DX2                !
 ! D241  D(77,36,37,79)        -87.5117         estimate D2E/DX2                !
 ! D242  D(77,36,37,80)        153.5716         estimate D2E/DX2                !
 ! D243  D(77,36,37,81)         31.6227         estimate D2E/DX2                !
 ! D244  D(78,36,37,79)        157.6312         estimate D2E/DX2                !
 ! D245  D(78,36,37,80)         38.7145         estimate D2E/DX2                !
 ! D246  D(78,36,37,81)        -83.2344         estimate D2E/DX2                !
 --------------------------------------------------------------------------------
 Trust Radius=3.00D-01 FncErr=1.00D-07 GrdErr=1.00D-06
 Number of steps in this run=    504 maximum allowed number of steps=    504.
 GradGradGradGradGradGradGradGradGradGradGradGradGradGradGradGradGradGrad

 Leave Link  103 at Sat May 21 03:27:50 2016, MaxMem= 10737418240 cpu:         0.4
 (Enter /share/apps//g09/l202.exe)
 Stoichiometry    C23H44NO16(1+)
 Framework group  C1[X(C23H44NO16)]
 Deg. of freedom   246
 Full point group                 C1      NOp   1
 Largest Abelian subgroup         C1      NOp   1
 Largest concise Abelian subgroup C1      NOp   1
                         Standard orientation:                         
 ---------------------------------------------------------------------
 Center     Atomic      Atomic             Coordinates (Angstroms)
 Number     Number       Type             X           Y           Z
 ---------------------------------------------------------------------
      1          8           0        2.242413    1.472229    0.385432
      2          6           0        3.057236    0.320276    0.181825
      3          6           0        3.760443    0.429387   -1.181964
      4          6           0        4.640223    1.679447   -1.198193
      5          6           0        3.854102    2.928602   -0.798973
      6          6           0        3.028703    2.669596    0.471829
      7          6           0        2.075540    3.815356    0.798813
      8          8           0        1.047320    3.989941   -0.194741
      9          8           0        2.979021    3.325274   -1.869755
     10          8           0        5.173457    1.930107   -2.498776
     11          8           0        4.627223   -0.662690   -1.456329
     12          8           0        2.150725   -0.763115    0.208467
     13          6           0        2.652187   -2.006602    0.735741
     14          6           0        2.305837   -3.117967   -0.260244
     15          8           0        2.980298   -2.906340   -1.501896
     16          6           0        0.792829   -3.142579   -0.478293
     17          6           0        0.044203   -3.271119    0.865626
     18          8           0        0.514239   -2.291590    1.826796
     19          6           0        1.939194   -2.354228    2.055189
     20          6           0        2.280268   -1.510669    3.286901
     21          8           0        2.198352   -0.098845    3.139837
     22          8           0       -1.349459   -3.138985    0.768657
     23          6           0       -1.865212   -1.960820    0.123787
     24          6           0       -2.776593   -2.396495   -1.024899
     25          6           0       -3.539374   -1.213172   -1.622934
     26          6           0       -4.226195   -0.400071   -0.525064
     27          8           0       -3.230262    0.011472    0.438269
     28          6           0       -2.658406   -1.106309    1.135711
     29          6           0       -1.825750   -0.556761    2.290124
     30          8           0       -0.660384    0.178375    1.863068
     31          8           0       -4.768657    0.737898   -1.104348
     32          6           0       -5.666526    1.484166   -0.236990
     33          6           0       -5.450028    2.977001   -0.457648
     34          6           0       -3.991906    3.434529   -0.303505
     35          6           0       -3.389217    3.225566    1.093814
     36          6           0       -1.884332    3.473885    1.142086
     37          7           0       -1.101848    2.459547    0.347808
     38          8           0       -4.458203   -1.769601   -2.557909
     39          8           0       -1.975925   -3.020170   -2.039130
     40          8           0        0.497318   -4.229525   -1.339649
     41          1           0        3.788737    0.224698    1.009615
     42          1           0        2.966682    0.520160   -1.946638
     43          1           0        5.462591    1.528875   -0.471316
     44          1           0        4.566316    3.748145   -0.587435
     45          1           0        3.742459    2.583884    1.317218
     46          1           0        2.651737    4.748380    0.913675
     47          1           0        1.568164    3.609196    1.752333
     48          1           0        1.511567    3.927494   -1.066143
     49          1           0        3.482915    3.179749   -2.696416
     50          1           0        5.498954    1.073008   -2.834388
     51          1           0        4.078182   -1.456510   -1.652476
     52          1           0        3.742819   -1.961165    0.881681
     53          1           0        2.631633   -4.084254    0.169897
     54          1           0        2.556298   -3.499402   -2.152104
     55          1           0        0.536996   -2.182457   -0.957369
     56          1           0        0.197631   -4.283690    1.279094
     57          1           0        2.208356   -3.395173    2.327305
     58          1           0        1.646489   -1.870190    4.117587
     59          1           0        3.325493   -1.724953    3.556280
     60          1           0        1.263010    0.155066    3.027138
     61          1           0       -1.051917   -1.339990   -0.285344
     62          1           0       -3.506784   -3.127975   -0.629278
     63          1           0       -2.817585   -0.539778   -2.125402
     64          1           0       -4.998402   -1.005665   -0.003864
     65          1           0       -3.460535   -1.728668    1.581828
     66          1           0       -2.445585    0.140796    2.869578
     67          1           0       -1.520349   -1.385288    2.943364
     68          1           0       -0.015538   -0.502366    1.545367
     69          1           0       -5.469431    1.204733    0.808937
     70          1           0       -6.702900    1.201324   -0.481313
     71          1           0       -6.103876    3.517517    0.246601
     72          1           0       -5.796819    3.244259   -1.467524
     73          1           0       -3.922914    4.500411   -0.572625
     74          1           0       -3.407119    2.890808   -1.065635
     75          1           0       -3.592669    2.207308    1.455868
     76          1           0       -3.861140    3.916968    1.809404
     77          1           0       -1.626834    4.460485    0.731996
     78          1           0       -1.501092    3.428038    2.170063
     79          1           0       -1.629053    2.181276   -0.488720
     80          1           0       -0.914917    1.578197    0.898133
     81          1           0       -0.181397    2.903111    0.043272
     82          1           0       -4.891966   -1.035455   -3.028469
     83          1           0       -2.578586   -3.234465   -2.776062
     84          1           0       -0.399845   -4.054890   -1.702741
 ---------------------------------------------------------------------
 Rotational constants (GHZ):      0.1071514      0.0725839      0.0555166
 Leave Link  202 at Sat May 21 03:27:50 2016, MaxMem= 10737418240 cpu:         1.5
 (Enter /share/apps//g09/l301.exe)
 Standard basis: 6-311+G(d,p) (5D, 7F)
 Ernie: Thresh=  0.10000D-02 Tol=  0.10000D-05 Strict=F.
 There are  1184 symmetry adapted cartesian basis functions of A   symmetry.
 There are  1144 symmetry adapted basis functions of A   symmetry.
  1144 basis functions,  1792 primitive gaussians,  1184 cartesian basis functions
   158 alpha electrons      158 beta electrons
       nuclear repulsion energy      5868.2669204466 Hartrees.
 IExCor= 1009 DFT=T Ex+Corr=PBE1PBE ExCW=0 ScaHFX=  0.250000
 ScaDFX=  0.750000  0.750000  1.000000  1.000000 ScalE2=  1.000000  1.000000
 IRadAn=      0 IRanWt=     -1 IRanGd=            0 ICorTp=0 IEmpDi=131
 NAtoms=   84 NActive=   84 NUniq=   84 SFac= 1.00D+00 NAtFMM=   60 NAOKFM=T Big=T
 Integral buffers will be    131072 words long.
 Raffenetti 2 integral format.
 Two-electron integral symmetry is turned on.
 R6Disp:  Grimme-D3 Dispersion energy=       -0.0827799310 Hartrees.
 Nuclear repulsion after empirical dispersion term =     5868.1841405157 Hartrees.
 Leave Link  301 at Sat May 21 03:27:50 2016, MaxMem= 10737418240 cpu:         1.6
 (Enter /share/apps//g09/l302.exe)
 NPDir=0 NMtPBC=     1 NCelOv=     1 NCel=       1 NClECP=     1 NCelD=      1
         NCelK=      1 NCelE2=     1 NClLst=     1 CellRange=     0.0.
 One-electron integrals computed using PRISM.
 NBasis=  1144 RedAO= T EigKep=  1.58D-06  NBF=  1144
 NBsUse=  1144 1.00D-06 EigRej= -1.00D+00 NBFU=  1144
 Precomputing XC quadrature grid using
 IXCGrd= 4 IRadAn=           0 IRanWt=          -1 IRanGd=           0 AccXCQ= 0.00D+00.
 Generated NRdTot=       0 NPtTot=           0 NUsed=           0 NTot=          32
 NSgBfM=  1110  1110  1110  1111  1111 MxSgAt=    84 MxSgA2=    84.
 Leave Link  302 at Sat May 21 03:27:52 2016, MaxMem= 10737418240 cpu:        32.6
 (Enter /share/apps//g09/l303.exe)
 DipDrv:  MaxL=1.
 Leave Link  303 at Sat May 21 03:27:55 2016, MaxMem= 10737418240 cpu:        35.5
 (Enter /share/apps//g09/l401.exe)
 ExpMin= 4.38D-02 ExpMax= 8.59D+03 ExpMxC= 1.30D+03 IAcc=2 IRadAn=         4 AccDes= 0.00D+00
 Harris functional with IExCor= 1009 and IRadAn=       4 diagonalized for initial guess.
 HarFok:  IExCor= 1009 AccDes= 0.00D+00 IRadAn=         4 IDoV= 1 UseB2=F ITyADJ=14
 ICtDFT=  3500011 ScaDFX=  1.000000  1.000000  1.000000  1.000000
 FoFCou: FMM=F IPFlag=           0 FMFlag=      100000 FMFlg1=        2001
         NFxFlg=           0 DoJE=T BraDBF=F KetDBF=T FulRan=T
         wScrn=  0.000000 ICntrl=     500 IOpCl=  0 I1Cent=   200000004 NGrid=           0
         NMat0=    1 NMatS0=      1 NMatT0=    0 NMatD0=    1 NMtDS0=    0 NMtDT0=    0
 Petite list used in FoFCou.
 Harris En= -2159.71559152296    
 JPrj=0 DoOrth=F DoCkMO=F.
 Leave Link  401 at Sat May 21 03:28:08 2016, MaxMem= 10737418240 cpu:       222.0
 (Enter /share/apps//g09/l502.exe)
 Closed shell SCF:
 Using DIIS extrapolation, IDIIS=  1040.
 Integral symmetry usage will be decided dynamically.
 IVT=     4256630 IEndB=     4256630 NGot= 10737418240 MDV= 10734581291
 LenX= 10734581291 LenY= 10733178251
 Requested convergence on RMS density matrix=1.00D-08 within 128 cycles.
 Requested convergence on MAX density matrix=1.00D-06.
 Requested convergence on             energy=1.00D-06.
 No special actions if energy rises.
 Fock matrices will be formed incrementally for  20 cycles.

 Cycle   1  Pass 1  IDiag  1:
 FoFJK:  IHMeth= 1 ICntrl=       0 DoSepK=F KAlg= 0 I1Cent=   0 FoldK=F
 IRaf= 770000000 NMat=   1 IRICut=       1 DoRegI=T DoRafI=F ISym2E= 0.
 FoFCou: FMM=T IPFlag=           0 FMFlag=      100000 FMFlg1=        2001
         NFxFlg=           0 DoJE=F BraDBF=F KetDBF=F FulRan=T
         wScrn=  0.000000 ICntrl=       0 IOpCl=  0 I1Cent=           0 NGrid=           0
         NMat0=    1 NMatS0=      1 NMatT0=    0 NMatD0=    1 NMtDS0=    0 NMtDT0=    0
 Symmetry not used in FoFCou.
 FMM levels:  10  Number of levels for PrismC:   9
 E= -2158.71368175240    
 DIIS: error= 1.26D-02 at cycle   1 NSaved=   1.
 NSaved= 1 IEnMin= 1 EnMin= -2158.71368175240     IErMin= 1 ErrMin= 1.26D-02
 ErrMax= 1.26D-02  0.00D+00 EMaxC= 1.00D-01 BMatC= 1.01D+00 BMatP= 1.01D+00
 IDIUse=3 WtCom= 8.74D-01 WtEn= 1.26D-01
 Coeff-Com:  0.100D+01
 Coeff-En:   0.100D+01
 Coeff:      0.100D+01
 Gap=     0.254 Goal=   None    Shift=    0.000
 GapD=    0.254 DampG=1.000 DampE=0.500 DampFc=0.5000 IDamp=-1.
 Damping current iteration by 5.00D-01
 RMSDP=9.09D-03 MaxDP=1.76D+00              OVMax= 1.37D-01

 Cycle   2  Pass 1  IDiag  1:
 RMSU=  4.53D-03    CP:  9.91D-01
 E= -2158.99410357311     Delta-E=       -0.280421820711 Rises=F Damp=T
 DIIS: error= 3.45D-03 at cycle   2 NSaved=   2.
 NSaved= 2 IEnMin= 2 EnMin= -2158.99410357311     IErMin= 2 ErrMin= 3.45D-03
 ErrMax= 3.45D-03  0.00D+00 EMaxC= 1.00D-01 BMatC= 7.98D-02 BMatP= 1.01D+00
 IDIUse=3 WtCom= 9.65D-01 WtEn= 3.45D-02
 Coeff-Com:  0.584D-01 0.942D+00
 Coeff-En:   0.155D+00 0.845D+00
 Coeff:      0.618D-01 0.938D+00
 Gap=     0.277 Goal=   None    Shift=    0.000
 RMSDP=3.88D-03 MaxDP=1.13D+00 DE=-2.80D-01 OVMax= 8.19D-02

 Cycle   3  Pass 1  IDiag  1:
 RMSU=  2.34D-03    CP:  9.05D-01  1.05D+00
 E= -2159.35833963633     Delta-E=       -0.364236063223 Rises=F Damp=F
 DIIS: error= 3.32D-03 at cycle   3 NSaved=   3.
 NSaved= 3 IEnMin= 3 EnMin= -2159.35833963633     IErMin= 3 ErrMin= 3.32D-03
 ErrMax= 3.32D-03  0.00D+00 EMaxC= 1.00D-01 BMatC= 4.42D-02 BMatP= 7.98D-02
 IDIUse=3 WtCom= 9.67D-01 WtEn= 3.32D-02
 Coeff-Com: -0.676D-01 0.409D+00 0.659D+00
 Coeff-En:   0.000D+00 0.000D+00 0.100D+01
 Coeff:     -0.654D-01 0.395D+00 0.670D+00
 Gap=     0.267 Goal=   None    Shift=    0.000
 RMSDP=1.49D-03 MaxDP=3.54D-01 DE=-3.64D-01 OVMax= 1.75D-02

 Cycle   4  Pass 1  IDiag  1:
 RMSU=  1.15D-03    CP:  9.24D-01  1.16D+00  8.32D-01
 E= -2159.38580537202     Delta-E=       -0.027465735689 Rises=F Damp=F
 DIIS: error= 9.84D-04 at cycle   4 NSaved=   4.
 NSaved= 4 IEnMin= 4 EnMin= -2159.38580537202     IErMin= 4 ErrMin= 9.84D-04
 ErrMax= 9.84D-04  0.00D+00 EMaxC= 1.00D-01 BMatC= 6.00D-03 BMatP= 4.42D-02
 IDIUse=3 WtCom= 9.90D-01 WtEn= 9.84D-03
 Coeff-Com: -0.361D-01 0.123D+00 0.343D+00 0.570D+00
 Coeff-En:   0.000D+00 0.000D+00 0.845D-01 0.915D+00
 Coeff:     -0.357D-01 0.121D+00 0.340D+00 0.574D+00
 Gap=     0.260 Goal=   None    Shift=    0.000
 RMSDP=1.04D-03 MaxDP=3.03D-01 DE=-2.75D-02 OVMax= 6.06D-03

 Cycle   5  Pass 1  IDiag  1:
 RMSU=  2.91D-04    CP:  9.01D-01  1.11D+00  8.51D-01  5.68D-01
 E= -2159.39097278702     Delta-E=       -0.005167415000 Rises=F Damp=F
 DIIS: error= 2.74D-04 at cycle   5 NSaved=   5.
 NSaved= 5 IEnMin= 5 EnMin= -2159.39097278702     IErMin= 5 ErrMin= 2.74D-04
 ErrMax= 2.74D-04  0.00D+00 EMaxC= 1.00D-01 BMatC= 2.39D-04 BMatP= 6.00D-03
 IDIUse=3 WtCom= 9.97D-01 WtEn= 2.74D-03
 Coeff-Com: -0.113D-01 0.257D-01 0.102D+00 0.244D+00 0.640D+00
 Coeff-En:   0.000D+00 0.000D+00 0.000D+00 0.000D+00 0.100D+01
 Coeff:     -0.113D-01 0.256D-01 0.102D+00 0.243D+00 0.641D+00
 Gap=     0.259 Goal=   None    Shift=    0.000
 RMSDP=1.35D-04 MaxDP=3.72D-02 DE=-5.17D-03 OVMax= 1.56D-03

 Cycle   6  Pass 1  IDiag  1:
 RMSU=  6.53D-05    CP:  9.03D-01  1.12D+00  8.68D-01  5.84D-01  7.72D-01
 E= -2159.39114740318     Delta-E=       -0.000174616158 Rises=F Damp=F
 DIIS: error= 1.03D-04 at cycle   6 NSaved=   6.
 NSaved= 6 IEnMin= 6 EnMin= -2159.39114740318     IErMin= 6 ErrMin= 1.03D-04
 ErrMax= 1.03D-04  0.00D+00 EMaxC= 1.00D-01 BMatC= 2.33D-05 BMatP= 2.39D-04
 IDIUse=3 WtCom= 9.99D-01 WtEn= 1.03D-03
 Coeff-Com: -0.395D-02 0.706D-02 0.352D-01 0.975D-01 0.332D+00 0.532D+00
 Coeff-En:   0.000D+00 0.000D+00 0.000D+00 0.000D+00 0.000D+00 0.100D+01
 Coeff:     -0.395D-02 0.705D-02 0.352D-01 0.974D-01 0.332D+00 0.533D+00
 Gap=     0.260 Goal=   None    Shift=    0.000
 RMSDP=2.74D-05 MaxDP=7.88D-03 DE=-1.75D-04 OVMax= 4.46D-04

 Cycle   7  Pass 1  IDiag  1:
 RMSU=  1.55D-05    CP:  9.04D-01  1.12D+00  8.67D-01  5.93D-01  7.85D-01
                    CP:  7.50D-01
 E= -2159.39116411878     Delta-E=       -0.000016715599 Rises=F Damp=F
 DIIS: error= 2.77D-05 at cycle   7 NSaved=   7.
 NSaved= 7 IEnMin= 7 EnMin= -2159.39116411878     IErMin= 7 ErrMin= 2.77D-05
 ErrMax= 2.77D-05  0.00D+00 EMaxC= 1.00D-01 BMatC= 1.70D-06 BMatP= 2.33D-05
 IDIUse=1 WtCom= 1.00D+00 WtEn= 0.00D+00
 Coeff-Com: -0.105D-02 0.145D-02 0.961D-02 0.302D-01 0.117D+00 0.269D+00
 Coeff-Com:  0.574D+00
 Coeff:     -0.105D-02 0.145D-02 0.961D-02 0.302D-01 0.117D+00 0.269D+00
 Coeff:      0.574D+00
 Gap=     0.260 Goal=   None    Shift=    0.000
 RMSDP=8.33D-06 MaxDP=1.33D-03 DE=-1.67D-05 OVMax= 1.36D-04

 Cycle   8  Pass 1  IDiag  1:
 RMSU=  6.56D-06    CP:  9.04D-01  1.12D+00  8.67D-01  5.96D-01  7.88D-01
                    CP:  7.22D-01  7.95D-01
 E= -2159.39116522827     Delta-E=       -0.000001109491 Rises=F Damp=F
 DIIS: error= 5.49D-06 at cycle   8 NSaved=   8.
 NSaved= 8 IEnMin= 8 EnMin= -2159.39116522827     IErMin= 8 ErrMin= 5.49D-06
 ErrMax= 5.49D-06  0.00D+00 EMaxC= 1.00D-01 BMatC= 1.44D-07 BMatP= 1.70D-06
 IDIUse=1 WtCom= 1.00D+00 WtEn= 0.00D+00
 Coeff-Com:  0.880D-05-0.205D-03 0.138D-03 0.207D-02 0.117D-01 0.540D-01
 Coeff-Com:  0.263D+00 0.670D+00
 Coeff:      0.880D-05-0.205D-03 0.138D-03 0.207D-02 0.117D-01 0.540D-01
 Coeff:      0.263D+00 0.670D+00
 Gap=     0.260 Goal=   None    Shift=    0.000
 RMSDP=3.20D-06 MaxDP=8.09D-04 DE=-1.11D-06 OVMax= 4.25D-05

 Cycle   9  Pass 1  IDiag  1:
 RMSU=  1.83D-06    CP:  9.04D-01  1.12D+00  8.67D-01  5.95D-01  7.90D-01
                    CP:  7.32D-01  8.46D-01  8.76D-01
 E= -2159.39116533534     Delta-E=       -0.000000107071 Rises=F Damp=F
 DIIS: error= 1.75D-06 at cycle   9 NSaved=   9.
 NSaved= 9 IEnMin= 9 EnMin= -2159.39116533534     IErMin= 9 ErrMin= 1.75D-06
 ErrMax= 1.75D-06  0.00D+00 EMaxC= 1.00D-01 BMatC= 1.08D-08 BMatP= 1.44D-07
 IDIUse=1 WtCom= 1.00D+00 WtEn= 0.00D+00
 Coeff-Com:  0.687D-04-0.181D-03-0.571D-03-0.101D-02-0.261D-02 0.560D-02
 Coeff-Com:  0.770D-01 0.302D+00 0.620D+00
 Coeff:      0.687D-04-0.181D-03-0.571D-03-0.101D-02-0.261D-02 0.560D-02
 Coeff:      0.770D-01 0.302D+00 0.620D+00
 Gap=     0.260 Goal=   None    Shift=    0.000
 RMSDP=7.83D-07 MaxDP=1.38D-04 DE=-1.07D-07 OVMax= 1.20D-05

 Cycle  10  Pass 1  IDiag  1:
 RMSU=  5.05D-07    CP:  9.04D-01  1.12D+00  8.67D-01  5.95D-01  7.90D-01
                    CP:  7.38D-01  8.51D-01  8.74D-01  8.28D-01
 E= -2159.39116534382     Delta-E=       -0.000000008479 Rises=F Damp=F
 DIIS: error= 4.95D-07 at cycle  10 NSaved=  10.
 NSaved=10 IEnMin=10 EnMin= -2159.39116534382     IErMin=10 ErrMin= 4.95D-07
 ErrMax= 4.95D-07  0.00D+00 EMaxC= 1.00D-01 BMatC= 1.32D-09 BMatP= 1.08D-08
 IDIUse=1 WtCom= 1.00D+00 WtEn= 0.00D+00
 Coeff-Com:  0.299D-04-0.692D-04-0.287D-03-0.620D-03-0.210D-02-0.994D-03
 Coeff-Com:  0.195D-01 0.103D+00 0.323D+00 0.559D+00
 Coeff:      0.299D-04-0.692D-04-0.287D-03-0.620D-03-0.210D-02-0.994D-03
 Coeff:      0.195D-01 0.103D+00 0.323D+00 0.559D+00
 Gap=     0.260 Goal=   None    Shift=    0.000
 RMSDP=3.23D-07 MaxDP=5.21D-05 DE=-8.48D-09 OVMax= 3.30D-06

 Cycle  11  Pass 1  IDiag  1:
 RMSU=  1.42D-07    CP:  9.04D-01  1.12D+00  8.67D-01  5.95D-01  7.90D-01
                    CP:  7.37D-01  8.55D-01  8.89D-01  8.22D-01  6.36D-01
 E= -2159.39116534489     Delta-E=       -0.000000001070 Rises=F Damp=F
 DIIS: error= 1.64D-07 at cycle  11 NSaved=  11.
 NSaved=11 IEnMin=11 EnMin= -2159.39116534489     IErMin=11 ErrMin= 1.64D-07
 ErrMax= 1.64D-07  0.00D+00 EMaxC= 1.00D-01 BMatC= 1.38D-10 BMatP= 1.32D-09
 IDIUse=1 WtCom= 1.00D+00 WtEn= 0.00D+00
 Coeff-Com:  0.903D-05-0.193D-04-0.102D-03-0.233D-03-0.849D-03-0.987D-03
 Coeff-Com:  0.328D-02 0.268D-01 0.116D+00 0.298D+00 0.559D+00
 Coeff:      0.903D-05-0.193D-04-0.102D-03-0.233D-03-0.849D-03-0.987D-03
 Coeff:      0.328D-02 0.268D-01 0.116D+00 0.298D+00 0.559D+00
 Gap=     0.260 Goal=   None    Shift=    0.000
 RMSDP=6.24D-08 MaxDP=2.31D-05 DE=-1.07D-09 OVMax= 1.01D-06

 Cycle  12  Pass 1  IDiag  1:
 RMSU=  3.88D-08    CP:  9.04D-01  1.12D+00  8.67D-01  5.95D-01  7.90D-01
                    CP:  7.37D-01  8.55D-01  8.90D-01  8.36D-01  6.49D-01
                    CP:  8.43D-01
 E= -2159.39116534502     Delta-E=       -0.000000000133 Rises=F Damp=F
 DIIS: error= 4.16D-08 at cycle  12 NSaved=  12.
 NSaved=12 IEnMin=12 EnMin= -2159.39116534502     IErMin=12 ErrMin= 4.16D-08
 ErrMax= 4.16D-08  0.00D+00 EMaxC= 1.00D-01 BMatC= 8.14D-12 BMatP= 1.38D-10
 IDIUse=1 WtCom= 1.00D+00 WtEn= 0.00D+00
 Coeff-Com:  0.247D-06-0.185D-06-0.123D-04-0.305D-04-0.128D-03-0.311D-03
 Coeff-Com: -0.837D-03-0.632D-03 0.120D-01 0.650D-01 0.237D+00 0.688D+00
 Coeff:      0.247D-06-0.185D-06-0.123D-04-0.305D-04-0.128D-03-0.311D-03
 Coeff:     -0.837D-03-0.632D-03 0.120D-01 0.650D-01 0.237D+00 0.688D+00
 Gap=     0.260 Goal=   None    Shift=    0.000
 RMSDP=2.11D-08 MaxDP=5.07D-06 DE=-1.33D-10 OVMax= 2.72D-07

 Cycle  13  Pass 1  IDiag  1:
 RMSU=  1.47D-08    CP:  9.04D-01  1.12D+00  8.67D-01  5.95D-01  7.90D-01
                    CP:  7.37D-01  8.55D-01  8.90D-01  8.40D-01  6.56D-01
                    CP:  8.12D-01  8.92D-01
 E= -2159.39116534484     Delta-E=        0.000000000182 Rises=F Damp=F
 DIIS: error= 1.30D-08 at cycle  13 NSaved=  13.
 NSaved=13 IEnMin=12 EnMin= -2159.39116534502     IErMin=13 ErrMin= 1.30D-08
 ErrMax= 1.30D-08  0.00D+00 EMaxC= 1.00D-01 BMatC= 7.39D-13 BMatP= 8.14D-12
 IDIUse=1 WtCom= 1.00D+00 WtEn= 0.00D+00
 Coeff-Com: -0.414D-06 0.104D-05 0.245D-06-0.427D-06-0.838D-05-0.857D-04
 Coeff-Com: -0.586D-03-0.194D-02-0.163D-02 0.119D-01 0.729D-01 0.323D+00
 Coeff-Com:  0.596D+00
 Coeff:     -0.414D-06 0.104D-05 0.245D-06-0.427D-06-0.838D-05-0.857D-04
 Coeff:     -0.586D-03-0.194D-02-0.163D-02 0.119D-01 0.729D-01 0.323D+00
 Coeff:      0.596D+00
 Gap=     0.260 Goal=   None    Shift=    0.000
 RMSDP=6.60D-09 MaxDP=9.62D-07 DE= 1.82D-10 OVMax= 8.54D-08

[...]
 00001844,0.00028683,-0.00007658,0.00013313,-0.00005719,-0.00027790,-0.
 00024614,-0.00033070,-0.00014536,0.00016591,0.00019622,0.00000092,0.00
 001190,-0.00000857,0.00000790,0.00001168,0.00002253,0.00001205,-0.0000
 0627,0.00000962,0.00002125,-0.00000789,-0.00003406,-0.00008955,0.00001
 424,0.00000706,0.00054130,-0.00168862,-0.00153862,-0.25171937,-0.23588
 508,-0.11385580,-0.00124372,0.00060581,0.00075907,-0.00000370,0.000008
 25,-0.00000226,0.00000102,-0.00000652,0.00000165,-0.00000364,0.0000003
 1,-0.00000016,-0.00000663,0.00000259,-0.00000415,-0.00000169,0.0000036
 6,-0.00000147,-0.00000845,-0.00000197,-0.00000054,0.00000183,-0.000003
 02,-0.00000074,0.00002909,0.00000191,-0.00001099,0.00002044,-0.0000042
 3,0.00000195,0.00000438,-0.00001345,0.00001022,0.00000215,-0.00008197,
 0.00003103,-0.00000615,0.00001993,0.00000160,-0.00000482,-0.00002424,0
 .00000980,-0.00006406,-0.00006463,0.00000736,-0.00003866,0.00009949,-0
 .00003992,-0.00000576,-0.00000194,-0.00001978,0.00000313,0.00000104,-0
 .00001021,-0.00000518,0.00000293,0.00000004,0.00000025,0.00000738,0.00
 000028,0.00000518,-0.00002519,-0.00000352,-0.00007577,0.00004243,-0.00
 011776,-0.00014836,-0.00020280,0.00107217,-0.00029025,-0.00020389,-0.0
 0007157,0.00004858,-0.00002552,-0.00007219,-0.00003019,0.00001946,-0.0
 0006839,0.00006918,0.00015457,0.00007616,-0.00002790,-0.00004518,-0.00
 001997,0.00001322,-0.00007621,-0.00002610,0.00001168,-0.00002462,-0.00
 006283,0.00000837,0.00000074,0.00000128,0.00000602,-0.00001968,-0.0000
 0650,-0.00002568,0.00000272,0.00000520,-0.00000293,-0.00001832,-0.0000
 0413,0.00000693,0.00002475,-0.00001321,0.00001200,0.00001445,0.0000042
 6,-0.00000519,-0.00000792,-0.00000438,0.,0.00000687,0.00000457,-0.0000
 1011,-0.00001266,-0.00000038,0.00004620,0.00005649,0.00001260,0.000166
 66,-0.00007244,0.00006416,0.00003262,0.00003213,-0.00003497,-0.0003490
 5,-0.00061529,-0.00086167,0.24139800,0.00002768,0.00004674,-0.00001225
 ,-0.00003262,-0.00004012,0.00001405,-0.00006199,0.00000338,-0.00000256
 ,-0.00000258,-0.00001772,0.00003360,-0.00002405,-0.00001936,-0.0000089
 1,0.00000222,-0.00004516,0.00001294,-0.00004836,-0.00003323,-0.0000151
 5,0.00004361,0.00008233,-0.00001899,0.00003063,0.00003774,-0.00001210,
 0.00001958,0.00001954,-0.00004377,0.00004857,0.00000155,-0.00002649,0.
 00005993,0.00002575,-0.00000258,-0.00002220,0.00002219,-0.00000945,-0.
 00009326,-0.00003013,-0.00000410,0.00011296,0.00001481,-0.00004943,-0.
 00016173,-0.00017170,0.00004192,-0.00043898,-0.00023975,0.00008612,0.0
 0015753,0.00010930,-0.00001481,-0.00009090,-0.00002815,0.00003444,-0.0
 0001167,0.00000597,-0.00002579,0.00003340,0.00001172,0.00001675,0.0004
 8043,0.00051462,0.00059534,0.00210646,-0.00101284,-0.00297536,-0.00896
 928,-0.01101929,-0.00592642,-0.00042105,-0.00009774,-0.00040327,-0.000
 64020,-0.00104978,-0.00098407,0.00041646,0.00027893,0.00033658,-0.0011
 8826,-0.00005003,-0.00027940,0.00020714,-0.00000058,-0.00023664,0.0000
 5901,0.00003539,0.00008318,-0.00059983,0.00052599,0.00071734,0.0001817
 5,-0.00001539,-0.00035759,-0.00002625,0.00000366,0.00008448,-0.0000009
 7,-0.00002234,-0.00003617,-0.00000427,-0.00000184,0.00000378,0.0000270
 4,-0.00003357,-0.00001954,0.00000321,0.00004911,-0.00001065,-0.0004423
 5,-0.00026153,0.00123626,-0.21264824,-0.23202270,-0.13067862,0.0014064
 9,0.00000527,-0.00053049,0.00001165,0.00000832,0.00000140,0.00001154,-
 0.00000272,0.00001145,0.00000314,0.00000592,-0.00000147,0.00000249,0.0
 0000909,0.00000027,0.00000926,0.00000567,0.00000008,0.00000598,0.00001
 095,-0.00000328,0.,-0.00000519,-0.00000037,-0.00000806,-0.00002563,0.0
 0001883,-0.00000553,-0.00001921,0.00001599,-0.00001331,-0.00000931,0.0
 0001894,-0.00002463,-0.00001182,0.00001564,0.00000503,0.00000731,-0.00
 000462,0.00001922,0.00000454,0.00000684,-0.00008509,0.00003615,0.00004
 728,-0.00001390,-0.00001172,-0.00003507,0.00006347,0.00002002,-0.00000
 214,0.00001716,-0.00000498,-0.00000165,-0.00000511,-0.00000513,0.00000
 510,0.00000471,0.00000879,-0.00000244,-0.00002779,-0.00001858,-0.00000
 939,0.00017530,0.00036313,0.00004199,-0.00010389,0.00113266,0.00132215
 ,0.00043199,-0.00068461,0.00002214,-0.00007415,0.00010065,0.00022771,0
 .00004217,-0.00004636,-0.00005763,-0.00007253,-0.00005939,-0.00001397,
 0.00001821,0.00001981,-0.00000456,-0.00004321,-0.00003299,-0.00000591,
 -0.00000954,0.00000990,0.00004079,-0.00003677,-0.00000426,0.00004158,-
 0.00002305,0.00004086,0.00000422,0.00000738,0.00000273,-0.00001679,-0.
 00000438,0.00002453,0.00000586,0.00000086,-0.00002270,0.00002977,-0.00
 000492,-0.00001853,-0.00002252,-0.00000413,0.00001160,0.00000747,-0.00
 000548,0.00000073,-0.00000205,0.00000313,0.00000734,0.00000752,0.00001
 445,-0.00009364,-0.00002651,-0.00005527,-0.00001488,-0.00002588,-0.000
 02768,-0.00008427,0.00005785,0.00027843,-0.00012745,0.00012374,0.22171
 030,0.24303393,-0.00003113,0.00007072,-0.00004373,0.00003965,-0.000151
 45,0.00011062,0.00003434,0.00003303,0.00001980,-0.00000531,-0.00001198
 ,0.00004012,0.00003501,0.00001320,0.00002226,0.00000357,-0.00004863,0.
 00002881,0.00000084,0.00000117,0.00000661,-0.00000414,0.00002959,-0.00
 005674,-0.00003390,-0.00002486,-0.00005251,-0.00001272,-0.00000538,-0.
 00006909,-0.00002946,0.00002020,-0.00007073,-0.00004219,0.00018623,-0.
 00009680,0.00005254,-0.00007568,-0.00002900,0.00004759,-0.00015805,0.0
 0036335,-0.00001566,0.00005482,-0.00030690,-0.00008210,0.00004570,-0.0
 0027500,-0.00034406,-0.00035638,-0.00012782,0.00017517,0.00029296,0.00
 003586,-0.00012765,-0.00006287,0.00005822,0.00003389,-0.00004385,-0.00
 001868,-0.00001430,0.00005289,0.00000108,0.00069285,0.00057135,0.00049
 363,0.00338137,-0.00100729,-0.00574486,-0.02370289,-0.02851865,-0.0177
 2738,0.00004867,-0.00181925,0.00135456,-0.00038588,-0.00049648,-0.0004
 4878,0.00024301,0.00043286,0.00023108,-0.00160319,-0.00133714,0.000024
 55,0.00043508,-0.00012628,-0.00046589,-0.00001012,0.00011928,0.0000944
 1,-0.00034347,0.00045834,0.00032718,0.00012524,-0.00004136,-0.00021606
 ,-0.00000141,-0.00000617,0.00004837,-0.00001837,0.00000201,0.00000294,
 0.00000654,-0.00000748,-0.00000182,-0.00000191,-0.00001286,0.00000243,
 0.00000029,0.00005055,-0.00004570,-0.00066915,0.00042574,-0.00131406,-
 0.07854113,-0.10709778,-0.08843073,0.00129787,0.00029608,-0.00058560,-
 0.00000068,0.00001290,-0.00000840,-0.00000864,0.00000273,0.00000368,-0
 .00000743,-0.00000503,-0.00000260,-0.00000611,-0.00000129,-0.00000461,
 0.00000147,0.00000236,-0.00000254,-0.00000193,0.00000491,0.00000019,0.
 00000013,-0.00000424,-0.00000741,0.00000474,0.00001168,0.00004075,0.00
 001704,0.00001986,0.00001764,0.00001084,0.00000794,0.00002161,0.000024
 71,-0.00003835,0.00006324,0.00000050,0.00002985,0.00000549,0.00005135,
 0.00005628,-0.00005565,0.00006253,0.00002625,0.00016884,-0.00002638,-0
 .00033061,0.00016431,-0.00000036,-0.00000295,0.00004041,0.00000609,-0.
 00000379,-0.00000986,-0.00000725,0.00000070,-0.00000218,0.00000299,0.0
 0001318,0.00000138,-0.00000350,-0.00002451,-0.00000488,0.00021219,0.00
 009608,0.00020198,-0.00081333,0.00018694,-0.00013272,0.00002163,0.0004
 1975,0.00000899,0.00002667,0.00000725,-0.00012919,-0.00004194,0.000048
 00,0.00001200,-0.00010594,-0.00013062,-0.00005473,0.00001111,0.0000110
 9,-0.00000983,0.00001870,-0.00006801,-0.00001982,-0.00001140,0.0000007
 6,0.00002603,-0.00000497,-0.00000031,0.00001988,-0.00001243,0.00002572
 ,-0.00000380,-0.00000223,0.00000128,-0.00001010,-0.00000296,0.00002256
 ,0.00000178,0.00001338,-0.00001979,0.00001275,-0.00000723,-0.00001153,
 -0.00001637,-0.00000293,0.00000597,0.00000045,-0.00000392,0.00000377,-
 0.00000067,0.00000438,0.00000111,0.00000169,0.00000543,-0.00004762,0.0
 0003893,0.00001705,-0.00005278,0.00001094,-0.00001153,-0.00005173,0.00
 007053,-0.00001203,0.00076543,0.00078873,0.10194131,0.13648891,0.11016
 955,-0.00044449,0.00042921,0.00007090,0.00044312,-0.00088364,0.0002422
 3,0.00028685,-0.00006385,-0.00006951,0.00001045,-0.00009500,0.00007504
 ,0.00014739,0.00003846,0.00001709,0.00000378,-0.00023606,0.00006168,0.
 00020248,0.00007903,-0.00000190,-0.00023652,-0.00015569,0.00009712,-0.
 00020964,0.00001250,-0.00001302,-0.00007417,0.00010966,-0.00011935,-0.
 00027940,0.00052998,-0.00012772,-0.00045570,0.00101279,-0.00021167,0.0
 0126292,-0.00013312,-0.00047346,0.00006498,0.00210496,0.00097961,0.000
 37252,0.00122867,-0.00051003,0.00335285,-0.00206803,-0.00118255,0.0022
 4097,0.00076441,-0.00316487,-0.00044997,0.00149375,0.00215075,-0.00039
 627,-0.00019222,-0.00018093,0.00018100,-0.00040760,-0.00007721,-0.0002
 8210,0.00030924,0.00013791,-0.00354080,-0.00010364,0.00095941,0.002608
 08,0.00031907,0.00043512,0.00041360,0.00403622,0.00901519,0.00016942,-
 0.00055980,-0.00234400,0.00058555,0.00125806,0.00126673,-0.00072919,-0
 .00052310,-0.00028034,-0.00041028,-0.00031336,0.00010743,0.00054180,0.
 00036661,-0.00042040,-0.00076730,-0.00033676,0.00035155,0.00080051,-0.
 00083144,-0.00085673,-0.00026456,0.00011270,0.00051694,0.00002502,0.00
 001786,-0.00010893,0.00001710,0.00001392,0.00004204,0.00000192,0.00001
 965,-0.00000901,0.00002602,0.00001500,-0.00003550,-0.00011951,-0.00009
 818,0.00011083,0.00059863,-0.00024908,-0.00039577,0.00032802,-0.003037
 22,-0.00593820,-0.41462087,-0.17272635,0.06709741,-0.00002572,0.000051
 56,-0.00003598,-0.00001609,-0.00002220,0.00000646,-0.00001437,-0.00000
 757,-0.00000072,-0.00003087,0.00001782,-0.00001323,-0.00000211,0.00000
 983,-0.00000764,-0.00003794,-0.00000667,0.00000259,0.00000521,-0.00000
 475,0.00000881,0.00009183,-0.00000411,-0.00006645,0.00006969,-0.000018
 34,0.00001070,0.00002277,-0.00006154,0.00006838,0.00007313,-0.00061225
 ,0.00030175,-0.00002162,0.00046433,0.00012433,0.00011031,-0.00010394,0
 .00009200,-0.00055256,-0.00085379,0.00106187,0.00047052,0.00320381,0.0
 0040095,-0.00036865,-0.00012735,-0.00016355,-0.00004559,-0.00000625,-0
 .00005031,-0.00001017,0.00005296,0.00004972,-0.00003131,0.00002986,-0.
 00000857,0.00020993,-0.00001540,-0.00009553,0.00008874,0.00009468,-0.0
 0012023,0.00050759,-0.00024684,-0.00130864,-0.00015379,0.00003396,0.00
 007564,0.00001175,-0.00009953,-0.00004213,0.00001064,0.00002045,0.0000
 3741,-0.00009840,-0.00012281,-0.00000340,0.00001140,-0.00005277,-0.000
 09525,0.00077922,-0.00017892,-0.00023078,0.00000799,-0.00000277,-0.000
 06155,0.00003656,-0.00000906,-0.00004910,0.00003066,-0.00006157,-0.000
 00069,-0.00001726,-0.00001033,0.00002404,0.00000720,-0.00004432,-0.000
 00490,-0.00000597,0.00004941,-0.00003432,0.00000781,0.00003532,0.00003
 895,0.00000061,-0.00002364,-0.00000504,0.00001479,0.00000293,0.0000080
 2,-0.00001417,-0.00001133,-0.00001806,0.00001884,0.00017522,-0.0000208
 5,0.00019861,0.00005079,0.00002847,0.00012983,0.00020599,-0.00021011,-
 0.00024215,-0.00009200,-0.00006387,-0.00021334,-0.00168250,-0.00199249
 ,0.40758225,-0.00006425,0.00017457,0.00001606,0.00010874,-0.00031728,0
 .00006965,0.,-0.00001021,-0.00004015,0.00000307,-0.00005074,0.00005916
 ,0.00003002,-0.00000276,-0.00000185,0.00000858,-0.00012138,0.00002688,
 0.00002686,-0.00000448,-0.00000784,-0.00004506,0.00002540,0.00000684,-
 0.00004639,0.00003726,-0.00001773,-0.00000408,0.00005563,-0.00007713,-
 0.00000177,0.00020710,-0.00002908,0.00019600,0.00071655,-0.00003315,-0
 .00194800,-0.00056952,0.00106301,0.00099514,-0.00713575,-0.00360925,0.
 00046408,0.00093195,-0.00052521,-0.03909316,-0.02571892,0.00393647,-0.
 00058955,-0.00034199,-0.00149863,0.00037445,0.00072375,0.00066341,-0.0
 0029300,-0.00011884,0.00032136,0.00003486,-0.00006159,-0.00008222,-0.0
 0000745,0.00009819,0.00005171,-0.00037320,0.00026258,0.00047647,0.0007
 7078,0.00000644,-0.00062759,0.00057066,0.00010472,0.00121602,0.0002138
 9,-0.00010538,-0.00049316,0.00033636,0.00024866,0.00015346,-0.00035446
 ,-0.00010347,0.00000252,0.00015938,-0.00028339,-0.00001939,0.00001397,
 0.00002717,-0.00008175,-0.00012253,0.00006401,0.00012771,-0.00005036,-
 0.00007591,-0.00007247,0.00002951,0.00000182,0.00000385,0.00000311,0.0
 0000333,-0.00000813,0.00000772,-0.00000409,-0.00000136,0.00000283,0.00
 000129,0.00000619,0.00003701,-0.00003075,-0.00004528,-0.00007455,0.000
 03849,0.00001576,-0.00021040,-0.00016364,-0.00002951,0.00038345,-0.005
 23471,-0.00231918,-0.12742634,-0.09854851,0.00804686,0.00002739,0.0000
 8232,-0.00000862,0.00002315,-0.00001575,0.00002663,-0.00000041,0.00000
 999,-0.00000371,-0.00000872,0.00001420,-0.00000503,0.00000623,0.000011
 82,-0.00000226,-0.00000713,0.00000734,-0.00000295,0.00000153,-0.000006
 98,0.00000114,0.00002815,-0.00002200,-0.00000292,0.00002167,-0.0000224
 7,0.00001837,-0.00000713,-0.00003128,0.00003913,-0.00004694,-0.0002920
 2,0.00010552,0.00005694,-0.00048232,-0.00030698,0.00014416,0.00020808,
 -0.00022505,-0.00021880,-0.00034394,0.00066223,-0.00040237,0.00151141,
 0.00118175,0.00008797,0.00001053,0.00010714,0.00000624,0.00001333,-0.0
 0004707,-0.00000706,-0.00000830,-0.00000628,0.00001052,0.00003941,0.00
 000616,0.00000221,-0.00004450,-0.00003279,0.00015070,-0.00034800,-0.00
 009694,-0.00018043,0.00005452,0.00016561,0.00001553,-0.00005527,0.0000
 3299,-0.00001535,-0.00001967,0.00000619,-0.00005538,0.00004086,0.00010
 717,-0.00001961,0.00001935,0.00001287,0.00000881,-0.00001928,-0.000040
 46,0.00010361,-0.00015367,-0.00011611,0.00000327,0.00000238,-0.0000109
 0,-0.00000851,-0.00000534,0.00000109,0.00000198,-0.00000221,0.00000481
 ,-0.00000498,-0.00000321,-0.00000198,-0.00000348,-0.00000131,-0.000000
 58,-0.00000067,0.00000659,0.00000864,0.00000631,0.00000105,-0.00000710
 ,-0.00000692,0.00000050,0.00000277,-0.00000286,0.00000522,0.00000313,-
 0.00000466,-0.00000387,0.00000206,0.00004398,0.00000374,-0.00001286,0.
 00010515,-0.00005965,0.00002046,0.00002184,-0.00001471,-0.00000860,-0.
 00000513,0.00001364,0.00001760,-0.00266276,0.00085770,0.00077309,0.168
 72602,0.13431615,0.00008110,-0.00007776,-0.00007844,-0.00008096,0.0001
 3780,0.00002390,0.00002128,0.00005220,0.00004075,-0.00001976,0.0000258
 9,0.00001076,-0.00000166,0.00000901,0.00002187,0.00000724,0.00003220,0
 .00001263,-0.00004011,-0.00001133,0.00001680,0.00004867,0.00004775,-0.
 00007975,0.00002205,-0.00004101,-0.00004659,0.00000223,-0.00004631,-0.
 00002859,-0.00000070,-0.00008371,-0.00005719,-0.00001457,-0.00025361,-
 0.00012437,-0.00011166,0.00003535,0.00048963,0.00079126,-0.00094143,-0
 .00158086,-0.00009863,0.00089638,0.00033899,-0.01490669,-0.00752897,0.
 00079785,-0.00412771,-0.00466408,0.00076194,0.00085331,0.00062632,-0.0
 0086072,-0.00019632,-0.00006802,0.00029342,0.00010018,0.00004450,-0.00
 004357,0.00001868,0.00002444,-0.00005579,0.00064676,0.00246321,0.00102
 174,0.00170572,-0.00151060,-0.00003259,0.00190304,-0.00043253,-0.00150
 336,0.00012439,-0.00002869,0.00026459,0.00022008,-0.00012078,-0.000111
 71,-0.00036163,0.00017980,0.00006437,0.00023741,0.00002994,-0.00018615
 ,-0.00014236,-0.00019928,0.00016872,0.00008506,0.00027507,-0.00015658,
 -0.00032257,0.00020196,0.00013064,0.00010269,-0.00003979,-0.00012686,-
 0.00000058,-0.00000942,0.00002005,-0.00000742,0.00000822,-0.00000044,0
 .00000802,-0.00001677,0.00000891,-0.00000396,-0.00001018,0.00000265,-0
 .00001836,0.00007815,-0.00008775,-0.00036187,-0.00001223,-0.00010568,-
 0.00260931,-0.00133383,-0.00471571,0.08123986,0.02138009,-0.03016481,-
 0.00001162,-0.00002794,0.00000429,-0.00002410,0.00001505,-0.00000947,-
 0.00000548,-0.00001172,-0.00000051,0.00000220,-0.00000855,-0.00000036,
 -0.00000195,-0.00000452,0.00000208,0.00000735,0.00000387,-0.00000134,0
 .00000139,-0.00000301,-0.00001168,-0.00002249,0.00001923,0.00005403,-0
 .00000682,0.00003072,0.00001007,0.00001105,0.00003212,0.00000052,0.000
 05837,0.00007375,0.00002822,-0.00002435,-0.00008602,-0.00006289,0.0000
 3380,0.00010327,-0.00008529,0.00065252,-0.00064312,0.00086744,0.001105
 98,-0.00061868,0.00065423,-0.00005030,0.00001611,-0.00003074,0.0000463
 4,0.00000094,-0.00000184,-0.00001513,-0.00002442,-0.00003801,0.0000130
 2,0.00003999,0.00002450,-0.00005415,-0.00004309,0.00003080,-0.00023997
 ,0.00016675,0.00001449,0.00018803,0.00001219,-0.00013944,-0.00004444,0
 .00004097,-0.00001852,-0.00000570,0.00000697,-0.00000968,0.00003083,0.
 00000993,-0.00004471,0.00000616,0.00006825,0.00000051,-0.00002712,-0.0
 0002853,-0.00004415,-0.00009412,-0.00009536,0.00010201,-0.00000042,-0.
 00000407,0.00000422,-0.00001108,0.00000101,0.00001681,-0.00000591,0.00
 001645,0.00000007,-0.00000292,0.00000329,-0.00000930,-0.00000712,0.000
 01636,-0.00000045,0.00000842,-0.00001827,0.00000987,0.00000274,-0.0000
 0855,-0.00002169,-0.00000217,0.00000822,-0.00000009,-0.00000903,0.0000
 0377,-0.00000185,0.00000469,-0.00000657,0.00000619,0.00000692,-0.00005
 401,0.00004769,0.00007503,-0.00010075,0.00007106,-0.00004512,-0.000083
 23,0.00011395,0.00003487,0.00001340,0.00007926,-0.00151979,0.00106053,
 0.00144556,-0.06485060,-0.00901073,0.03260144\\-0.00000603,-0.00000279
 ,-0.00000725,-0.00000970,-0.00000433,0.00001130,0.00000149,-0.00000912
 ,0.00000028,0.00000253,0.00000810,-0.00000862,-0.00001339,-0.00000010,
 -0.00000656,0.00000886,0.00001044,0.00000557,-0.00001395,-0.00000014,-
 0.00000592,0.00000026,-0.00000675,0.00001151,0.00000255,-0.00000159,0.
 00000922,-0.00000725,-0.00000063,0.00000378,0.00000253,-0.00000108,-0.
 00000369,-0.00000764,-0.00000190,-0.00000092,0.00000851,0.00000051,-0.
 00000154,-0.00000176,0.00000231,-0.00001417,-0.00000089,0.00001353,0.0
 0000476,0.00001041,-0.00000316,-0.00000692,-0.00000022,0.00001705,0.00
 001458,0.00000674,0.00000267,-0.00001166,-0.00001111,-0.00000615,0.000
 00634,0.00000115,0.00000905,0.00000115,0.00000726,0.00000097,-0.000005
 07,-0.00000557,-0.00000017,0.00000283,0.00001231,0.00000594,0.00000902
 ,0.00000316,-0.00000543,-0.00000083,0.00000489,-0.00001259,-0.00001015
 ,-0.00000567,0.00000754,0.00000743,-0.00000933,0.00000751,0.00000321,0
 .00000464,-0.00000297,0.00000101,-0.00000691,0.00000490,0.00000582,0.0
 0001046,-0.00001044,-0.00000032,0.00000487,0.00000923,0.00000329,0.000
 01012,0.00000889,-0.00000683,-0.00000119,-0.00000274,0.00000148,-0.000
 00329,-0.00000662,0.00000381,0.00000119,-0.00000667,0.00000474,-0.0000
 0491,0.00000814,0.00000042,-0.00000536,0.00000610,-0.00000939,0.000004
 58,0.00000048,0.00000398,-0.00000137,0.00000446,0.00000235,0.00001662,
 0.00000369,-0.00000405,0.00000366,0.00000530,-0.00000340,-0.00000396,0
 .00000090,-0.00000114,-0.00000438,-0.00000046,-0.00000183,0.00000119,0
 .00000324,0.00000172,0.00000039,-0.00000173,-0.00000404,0.00000058,0.0
 0000094,-0.00000053,0.00000133,-0.00000070,0.00000096,-0.00000340,0.00
 000137,-0.00001195,-0.00000209,-0.00000564,-0.00001213,0.00000407,-0.0
 0000616,-0.00000658,-0.00000011,-0.00000851,0.00000044,0.00000123,-0.0
 0000304,-0.00000223,0.00000236,-0.00000043,0.00000401,-0.00000076,-0.0
 0000805,-0.00000262,-0.00000139,0.00000219,-0.00000018,0.00000525,-0.0
 0000072,-0.00000274,0.00000185,0.00000072,-0.00000135,0.00000161,0.000
 00086,0.00000159,0.00000353,0.00000016,-0.00000235,-0.00000876,0.00000
 048,0.00000171,-0.00000300,0.00000047,-0.00000087,-0.00000012,-0.00000
 122,0.00000285,0.00000156,0.00000263,0.00000202,0.00000486,-0.00000357
 ,0.00000345,0.00000057,0.00000257,0.00000030,-0.00000143,0.00000389,0.
 00000126,-0.00000149,-0.00000100,-0.00000067,0.00000402,0.00000746,-0.
 00000347,0.00000167,0.00000360,0.00000395,-0.00000429,-0.00000054,0.00
 000614,0.00000131,-0.00000072,0.00000452,-0.00000035,-0.00000024,0.000
 00092,-0.00000268,-0.00000526,-0.00000049,-0.00000264,-0.00000509,-0.0
 0000207,0.00000305,-0.00000585,0.00000067,0.00000063,-0.00000074,-0.00
 000153,-0.00000090,0.00000006,-0.00000020,0.00000199,-0.00000089,-0.00
 000123,-0.00000038,0.00000055,0.00000216,0.00001055,-0.00000249,0.0000
 0353,-0.00000016,-0.00000342,0.00000228,-0.00000839,0.00000013,0.00000
 175,-0.00000454,-0.00000782,-0.00000251,-0.00001164,-0.00000936,0.0000
 0589\\\@


 ONE THORN OF EXPERIENCE IS WORTH A WHOLE WILDERNESS OF
 WARNING....  LOWELL - AMONG MY BOOKS
 Job cpu time:      20 days  4 hours 16 minutes 56.9 seconds.
 File lengths (MBytes):  RWF=  24194 Int=      0 D2E=      0 Chk=     97 Scr=      1
 Normal termination of Gaussian 09 at Mon May 23 08:35:17 2016.
