 Entering Gaussian System, Link 0=g09
 Initial command:
 /share/apps//g09/l1.exe "/scratch/Gau-46223.inp" -scrdir="/scratch/"
 Entering Link 1 = /share/apps//g09/l1.exe PID=     46225.
  
 Copyright (c) 1988,1990,1992,1993,1995,1998,2003,2009,2013,
            Gaussian, Inc.  All Rights Reserved.
  
 This is part of the Gaussian(R) 09 program.  It is based on
 the Gaussian(R) 03 system (copyright 2003, Gaussian, Inc.),
 the Gaussian(R) 98 system (copyright 1998, Gaussian, Inc.),
 the Gaussian(R) 94 system (copyright 1995, Gaussian, Inc.),
 the Gaussian 92(TM) system (copyright 1992, Gaussian, Inc.),
 the Gaussian 90(TM) system (copyright 1990, Gaussian, Inc.),
 the Gaussian 88(TM) system (copyright 1988, Gaussian, Inc.),
 the Gaussian 86(TM) system (copyright 1986, Carnegie Mellon
 University), and the Gaussian 82(TM) system (copyright 1983,
 Carnegie Mellon University). Gaussian is a federally registered
 trademark of Gaussian, Inc.
  
 This software contains proprietary and confidential information,
 including trade secrets, belonging to Gaussian, Inc.
  
 This software is provided under written license and may be
 used, copied, transmitted, or stored only in accord with that
 written license.
  
 The following legend is applicable only to US Government
 contracts under FAR:
  
                    RESTRICTED RIGHTS LEGEND
  
 Use, reproduction and disclosure by the US Government is
 subject to restrictions as set forth in subparagraphs (a)
 and (c) of the Commercial Computer Software - Restricted
 Rights clause in FAR 52.227-19.
  
 Gaussian, Inc.
 340 Quinnipiac St., Bldg. 40, Wallingford CT 06492
  
  
 ---------------------------------------------------------------
 Warning -- This program may not be used in any manner that
 competes with the business of Gaussian, Inc. or will provide
 assistance to any competitor of Gaussian, Inc.  The licensee
 of this program is prohibited from giving any competitor of
 Gaussian, Inc. access to this program.  By using this program,
 the user acknowledges that Gaussian, Inc. is engaged in the
 business of creating and licensing software in the field of
 computational chemistry and represents and warrants to the
 licensee that it is not a competitor of Gaussian, Inc. and that
 it will not use this program in any manner prohibited above.
 ---------------------------------------------------------------
  

 Cite this work as:
 Gaussian 09, Revision D.01,
 M. J. Frisch, G. W. Trucks, H. B. Schlegel, G. E. Scuseria, 
 M. A. Robb, J. R. Cheeseman, G. Scalmani, V. Barone, B. Mennucci, 
 G. A. Petersson, H. Nakatsuji, M. Caricato, X. Li, H. P. Hratchian, 
 A. F. Izmaylov, J. Bloino, G. Zheng, J. L. Sonnenberg, M. Hada, 
 M. Ehara, K. Toyota, R. Fukuda, J. Hasegawa, M. Ishida, T. Nakajima, 
 Y. Honda, O. Kitao, H. Nakai, T. Vreven, J. A. Montgomery, Jr., 
 J. E. Peralta, F. Ogliaro, M. Bearpark, J. J. Heyd, E. Brothers, 
 K. N. Kudin, V. N. Staroverov, T. Keith, R. Kobayashi, J. Normand, 
 K. Raghavachari, A. Rendell, J. C. Burant, S. S. Iyengar, J. Tomasi, 
 M. Cossi, N. Rega, J. M. Millam, M. Klene, J. E. Knox, J. B. Cross, 
 V. Bakken, C. Adamo, J. Jaramillo, R. Gomperts, R. E. Stratmann, 
 O. Yazyev, A. J. Austin, R. Cammi, C. Pomelli, J. W. Ochterski, 
 R. L. Martin, K. Morokuma, V. G. Zakrzewski, G. A. Voth, 
 P. Salvador, J. J. Dannenberg, S. Dapprich, A. D. Daniels, 
 O. Farkas, J. B. Foresman, J. V. Ortiz, J. Cioslowski, 
 and D. J. Fox, Gaussian, Inc., Wallingford CT, 2013.
 
 ******************************************
 Gaussian 09:  EM64L-G09RevD.01 24-Apr-2013
                 2-May-2016 
 ******************************************
 %nproc=20
 Will use up to   20 processors via shared memory.
 %mem=80GB
 %chk=Tri_A131_of.chk
 ----------------------------------------------------------------------
 #P PBE1PBE/6-311+G(d,p) opt=ModRedundant freq optcyc=999 EmpiricalDisp
 ersion=GD3
 ----------------------------------------------------------------------
 1/6=999,14=-1,18=120,19=15,26=3,38=1/1,3;
 2/9=110,12=2,17=6,18=5,40=1/2;
 3/5=4,6=6,7=111,11=2,16=1,25=1,30=1,71=1,74=-13,124=31/1,2,3;
 4//1;
 5/5=2,38=5/2;
 6/7=2,8=2,9=2,10=2,28=1/1;
 7//1,2,3,16;
 1/6=999,14=-1,18=20,19=15,26=3/3(2);
 2/9=110/2;
 99//99;
 2/9=110/2;
 3/5=4,6=6,7=111,11=2,16=1,25=1,30=1,71=1,74=-13,124=31/1,2,3;
 4/5=5,16=3,69=1/1;
 5/5=2,38=5/2;
 7//1,2,3,16;
 1/6=999,14=-1,18=20,19=15,26=3/3(-5);
 2/9=110/2;
 6/7=2,8=2,9=2,10=2,19=2,28=1/1;
 99/9=1/99;
 Leave Link    1 at Mon May  2 23:14:49 2016, MaxMem= 10737418240 cpu:         2.5
 (Enter /share/apps//g09/l101.exe)
 -----
 trich
 -----
 Symbolic Z-matrix:
 Charge =  1 Multiplicity = 1
 O                    -2.94847  -3.2932    7.87545 
 C                    -3.70835  -2.90144   6.69444 
 C                    -5.17451  -3.31878   6.88393 
 C                    -5.23579  -4.66817   7.64086 
 C                    -3.96805  -5.50718   7.44888 
 C                    -2.7377   -4.72545   7.95426 
 H                    -3.30547  -3.42054   5.81257 
 H                    -5.60763  -3.4545    5.87546 
 H                    -5.33906  -4.42211   8.71348 
 H                    -4.06773  -6.42553   8.05499 
 H                    -2.62115  -4.91438   9.03205 
 O                    -3.79047  -5.85883   6.0691 
 O                    -6.31266  -5.49613   7.19892 
 O                    -5.93713  -2.39645   7.65102 
 O                    -3.63327  -1.5159    6.5638 
 C                    -1.44129  -5.11061   7.23433 
 H                    -1.22154  -6.17246   7.41365 
 H                    -1.54019  -4.96672   6.14801 
 O                    -0.31521  -4.36256   7.74488 
 H                    -0.51357  -3.40202   7.65378 
 H                    -4.6474   -6.22386   5.77764 
 H                    -7.14872  -5.02262   7.35373 
 H                    -5.83115  -1.51743   7.2435 
 O                     0.39127  -0.58243   5.55929 
 C                    -0.41676  -1.06722   4.49003 
 C                    -1.68502  -1.80016   4.99813 
 C                    -2.43226  -0.92395   6.00129 
 C                    -1.49356  -0.43191   7.11868 
 C                    -0.27712   0.26584   6.49667 
 H                    -0.72148  -0.24492   3.81625 
 H                    -1.34808  -2.71997   5.50515 
 H                    -2.81277  -0.0368    5.46712 
 H                    -2.04609   0.30346   7.73037 
 H                    -0.64123   1.18447   5.99215 
 O                    -1.03206  -1.49654   7.97573 
 O                    -2.54244  -2.10765   3.91655 
 O                     0.405    -1.88555   3.68825 
 C                     0.78639   0.68869   7.51382 
 H                     1.56809   1.26598   7.00247 
 H                     0.326     1.33633   8.27881 
 O                     1.44575  -0.42878   8.12944 
 H                     0.71882  -0.97575   8.50091 
 H                    -1.83035  -2.02555   8.2397 
 H                    -2.13183  -2.87587   3.46384 
 O                     3.0488   -4.21952   4.78574 
 C                     2.66326  -5.45177   4.16968 
 C                     1.13685  -5.56868   4.08382 
 C                     0.50229  -4.29136   3.52342 
 C                     0.94866  -3.0616    4.31392 
 C                     2.48838  -2.98325   4.30541 
 H                     3.13326  -5.52829   3.16308 
 H                     0.75878  -5.71702   5.10885 
 H                     0.80986  -4.14741   2.46709 
 H                     2.82886  -2.77272   3.27256 
 H                     0.61312  -3.14347   5.35962 
 O                    -0.92349  -4.4148    3.59039 
 O                     0.68419  -6.71477   3.36649 
 O                     3.12271  -6.47285   5.00913 
 C                     3.08578  -1.92194   5.23016 
 H                     4.17559  -1.91339   5.07082 
 H                     2.67885  -0.93813   4.96727 
 O                     2.83225  -2.2253    6.60861 
 H                     2.30756  -1.49726   7.04383 
 H                    -1.14028  -5.31236   3.26972 
 H                     1.13636  -6.75238   2.50232 
 C                     4.56336  -6.70915   4.97324 
 H                     4.67398  -7.8013    5.04407 
 H                     4.94974  -6.38797   3.99273 
 C                     5.30262  -6.00175   6.1049 
 H                     5.10312  -4.92276   6.02998 
 H                     6.38008  -6.11809   5.90986 
 C                     4.97367  -6.5321    7.52553 
 H                     4.13169  -7.24434   7.47746 
 H                     5.82384  -7.12758   7.88462 
 C                     4.65912  -5.44319   8.57693 
 H                     5.0657   -5.73868   9.55531 
 H                     5.16651  -4.501     8.31417 
 C                     3.17031  -5.18706   8.80281 
 H                     3.01033  -4.38824   9.53932 
 H                     2.67669  -6.09511   9.17801 
 N                     2.45446  -4.78342   7.55062 
 H                     2.73246  -3.82193   7.1975 
 H                     1.41392  -4.74188   7.68103 
 H                     2.65242  -5.44292   6.77684 
 
 The following ModRedundant input section has been read:
 B      45      84 B                                                           
 B      58      84 B                                                           
 B      56      84 B                                                           
 B      41      82 B                                                           
 B      62      82 B                                                           
 B      35      82 B                                                           
 B      13      83 B                                                           
 B      19      83 B                                                           
 B      14      83 B                                                           
 
 NAtoms=     84 NQM=       84 NQMF=       0 NMMI=      0 NMMIF=      0
                NMic=       0 NMicF=      0.
                    Isotopes and Nuclear Properties:
 (Nuclear quadrupole moments (NQMom) in fm**2, nuclear magnetic moments (NMagM)
  in nuclear magnetons)

  Atom         1           2           3           4           5           6           7           8           9          10
 IAtWgt=          16          12          12          12          12          12           1           1           1           1
 AtmWgt=  15.9949146  12.0000000  12.0000000  12.0000000  12.0000000  12.0000000   1.0078250   1.0078250   1.0078250   1.0078250
 NucSpn=           0           0           0           0           0           0           1           1           1           1
 AtZEff=   0.0000000   0.0000000   0.0000000   0.0000000   0.0000000   0.0000000   0.0000000   0.0000000   0.0000000   0.0000000
 NQMom=    0.0000000   0.0000000   0.0000000   0.0000000   0.0000000   0.0000000   0.0000000   0.0000000   0.0000000   0.0000000
 NMagM=    0.0000000   0.0000000   0.0000000   0.0000000   0.0000000   0.0000000   2.7928460   2.7928460   2.7928460   2.7928460
 AtZNuc=   8.0000000   6.0000000   6.0000000   6.0000000   6.0000000   6.0000000   1.0000000   1.0000000   1.0000000   1.0000000

  Atom        11          12          13          14          15          16          17          18          19          20
 IAtWgt=           1          16          16          16          16          12           1           1          16           1
 AtmWgt=   1.0078250  15.9949146  15.9949146  15.9949146  15.9949146  12.0000000   1.0078250   1.0078250  15.9949146   1.0078250
 NucSpn=           1           0           0           0           0           0           1           1           0           1
 AtZEff=   0.0000000   0.0000000   0.0000000   0.0000000   0.0000000   0.0000000   0.0000000   0.0000000   0.0000000   0.0000000
 NQMom=    0.0000000   0.0000000   0.0000000   0.0000000   0.0000000   0.0000000   0.0000000   0.0000000   0.0000000   0.0000000
 NMagM=    2.7928460   0.0000000   0.0000000   0.0000000   0.0000000   0.0000000   2.7928460   2.7928460   0.0000000   2.7928460
 AtZNuc=   1.0000000   8.0000000   8.0000000   8.0000000   8.0000000   6.0000000   1.0000000   1.0000000   8.0000000   1.0000000

  Atom        21          22          23          24          25          26          27          28          29          30
 IAtWgt=           1           1           1          16          12          12          12          12          12           1
 AtmWgt=   1.0078250   1.0078250   1.0078250  15.9949146  12.0000000  12.0000000  12.0000000  12.0000000  12.0000000   1.0078250
 NucSpn=           1           1           1           0           0           0           0           0           0           1
 AtZEff=   0.0000000   0.0000000   0.0000000   0.0000000   0.0000000   0.0000000   0.0000000   0.0000000   0.0000000   0.0000000
 NQMom=    0.0000000   0.0000000   0.0000000   0.0000000   0.0000000   0.0000000   0.0000000   0.0000000   0.0000000   0.0000000
 NMagM=    2.7928460   2.7928460   2.7928460   0.0000000   0.0000000   0.0000000   0.0000000   0.0000000   0.0000000   2.7928460
 AtZNuc=   1.0000000   1.0000000   1.0000000   8.0000000   6.0000000   6.0000000   6.0000000   6.0000000   6.0000000   1.0000000

  Atom        31          32          33          34          35          36          37          38          39          40
 IAtWgt=           1           1           1           1          16          16          16          12           1           1
 AtmWgt=   1.0078250   1.0078250   1.0078250   1.0078250  15.9949146  15.9949146  15.9949146  12.0000000   1.0078250   1.0078250
 NucSpn=           1           1           1           1           0           0           0           0           1           1
 AtZEff=   0.0000000   0.0000000   0.0000000   0.0000000   0.0000000   0.0000000   0.0000000   0.0000000   0.0000000   0.0000000
 NQMom=    0.0000000   0.0000000   0.0000000   0.0000000   0.0000000   0.0000000   0.0000000   0.0000000   0.0000000   0.0000000
 NMagM=    2.7928460   2.7928460   2.7928460   2.7928460   0.0000000   0.0000000   0.0000000   0.0000000   2.7928460   2.7928460
 AtZNuc=   1.0000000   1.0000000   1.0000000   1.0000000   8.0000000   8.0000000   8.0000000   6.0000000   1.0000000   1.0000000

  Atom        41          42          43          44          45          46          47          48          49          50
 IAtWgt=          16           1           1           1          16          12          12          12          12          12
 AtmWgt=  15.9949146   1.0078250   1.0078250   1.0078250  15.9949146  12.0000000  12.0000000  12.0000000  12.0000000  12.0000000
 NucSpn=           0           1           1           1           0           0           0           0           0           0
 AtZEff=   0.0000000   0.0000000   0.0000000   0.0000000   0.0000000   0.0000000   0.0000000   0.0000000   0.0000000   0.0000000
 NQMom=    0.0000000   0.0000000   0.0000000   0.0000000   0.0000000   0.0000000   0.0000000   0.0000000   0.0000000   0.0000000
 NMagM=    0.0000000   2.7928460   2.7928460   2.7928460   0.0000000   0.0000000   0.0000000   0.0000000   0.0000000   0.0000000
 AtZNuc=   8.0000000   1.0000000   1.0000000   1.0000000   8.0000000   6.0000000   6.0000000   6.0000000   6.0000000   6.0000000

  Atom        51          52          53          54          55          56          57          58          59          60
 IAtWgt=           1           1           1           1           1          16          16          16          12           1
 AtmWgt=   1.0078250   1.0078250   1.0078250   1.0078250   1.0078250  15.9949146  15.9949146  15.9949146  12.0000000   1.0078250
 NucSpn=           1           1           1           1           1           0           0           0           0           1
 AtZEff=   0.0000000   0.0000000   0.0000000   0.0000000   0.0000000   0.0000000   0.0000000   0.0000000   0.0000000   0.0000000
 NQMom=    0.0000000   0.0000000   0.0000000   0.0000000   0.0000000   0.0000000   0.0000000   0.0000000   0.0000000   0.0000000
 NMagM=    2.7928460   2.7928460   2.7928460   2.7928460   2.7928460   0.0000000   0.0000000   0.0000000   0.0000000   2.7928460
 AtZNuc=   1.0000000   1.0000000   1.0000000   1.0000000   1.0000000   8.0000000   8.0000000   8.0000000   6.0000000   1.0000000

  Atom        61          62          63          64          65          66          67          68          69          70
 IAtWgt=           1          16           1           1           1          12           1           1          12           1
 AtmWgt=   1.0078250  15.9949146   1.0078250   1.0078250   1.0078250  12.0000000   1.0078250   1.0078250  12.0000000   1.0078250
 NucSpn=           1           0           1           1           1           0           1           1           0           1
 AtZEff=   0.0000000   0.0000000   0.0000000   0.0000000   0.0000000   0.0000000   0.0000000   0.0000000   0.0000000   0.0000000
 NQMom=    0.0000000   0.0000000   0.0000000   0.0000000   0.0000000   0.0000000   0.0000000   0.0000000   0.0000000   0.0000000
 NMagM=    2.7928460   0.0000000   2.7928460   2.7928460   2.7928460   0.0000000   2.7928460   2.7928460   0.0000000   2.7928460
 AtZNuc=   1.0000000   8.0000000   1.0000000   1.0000000   1.0000000   6.0000000   1.0000000   1.0000000   6.0000000   1.0000000

  Atom        71          72          73          74          75          76          77          78          79          80
 IAtWgt=           1          12           1           1          12           1           1          12           1           1
 AtmWgt=   1.0078250  12.0000000   1.0078250   1.0078250  12.0000000   1.0078250   1.0078250  12.0000000   1.0078250   1.0078250
 NucSpn=           1           0           1           1           0           1           1           0           1           1
 AtZEff=   0.0000000   0.0000000   0.0000000   0.0000000   0.0000000   0.0000000   0.0000000   0.0000000   0.0000000   0.0000000
 NQMom=    0.0000000   0.0000000   0.0000000   0.0000000   0.0000000   0.0000000   0.0000000   0.0000000   0.0000000   0.0000000
 NMagM=    2.7928460   0.0000000   2.7928460   2.7928460   0.0000000   2.7928460   2.7928460   0.0000000   2.7928460   2.7928460
 AtZNuc=   1.0000000   6.0000000   1.0000000   1.0000000   6.0000000   1.0000000   1.0000000   6.0000000   1.0000000   1.0000000

  Atom        81          82          83          84
 IAtWgt=          14           1           1           1
 AtmWgt=  14.0030740   1.0078250   1.0078250   1.0078250
 NucSpn=           2           1           1           1
 AtZEff=   0.0000000   0.0000000   0.0000000   0.0000000
 NQMom=    2.0440000   0.0000000   0.0000000   0.0000000
 NMagM=    0.4037610   2.7928460   2.7928460   2.7928460
 AtZNuc=   7.0000000   1.0000000   1.0000000   1.0000000
 Leave Link  101 at Mon May  2 23:14:50 2016, MaxMem= 10737418240 cpu:         5.2
 (Enter /share/apps//g09/l103.exe)

 GradGradGradGradGradGradGradGradGradGradGradGradGradGradGradGradGradGrad
 Berny optimization.
 Initialization pass.
                           ----------------------------
                           !    Initial Parameters    !
                           ! (Angstroms and Degrees)  !
 --------------------------                            --------------------------
 ! Name  Definition              Value          Derivative Info.                !
 --------------------------------------------------------------------------------
 ! R1    R(1,2)                  1.458          estimate D2E/DX2                !
 ! R2    R(1,6)                  1.4498         estimate D2E/DX2                !
 ! R3    R(2,3)                  1.5361         estimate D2E/DX2                !
 ! R4    R(2,7)                  1.0998         estimate D2E/DX2                !
 ! R5    R(2,15)                 1.3937         estimate D2E/DX2                !
 ! R6    R(3,4)                  1.5484         estimate D2E/DX2                !
 ! R7    R(3,8)                  1.1059         estimate D2E/DX2                !
 ! R8    R(3,14)                 1.4215         estimate D2E/DX2                !
 ! R9    R(4,5)                  1.5323         estimate D2E/DX2                !
 ! R10   R(4,9)                  1.1053         estimate D2E/DX2                !
 ! R11   R(4,13)                 1.4285         estimate D2E/DX2                !
 ! R12   R(5,6)                  1.5428         estimate D2E/DX2                !
 ! R13   R(5,10)                 1.1048         estimate D2E/DX2                !
 ! R14   R(5,12)                 1.4349         estimate D2E/DX2                !
 ! R15   R(6,11)                 1.1004         estimate D2E/DX2                !
 ! R16   R(6,16)                 1.5321         estimate D2E/DX2                !
 ! R17   R(12,21)                0.976          estimate D2E/DX2                !
 ! R18   R(13,22)                0.9732         estimate D2E/DX2                !
 ! R19   R(13,83)                7.7783         estimate D2E/DX2                !
 ! R20   R(14,23)                0.9747         estimate D2E/DX2                !
 ! R21   R(14,83)                7.7162         estimate D2E/DX2                !
 ! R22   R(15,27)                1.4523         estimate D2E/DX2                !
 ! R23   R(16,17)                1.0991         estimate D2E/DX2                !
 ! R24   R(16,18)                1.1003         estimate D2E/DX2                !
 ! R25   R(16,19)                1.4451         estimate D2E/DX2                !
 ! R26   R(19,20)                0.985          estimate D2E/DX2                !
 ! R27   R(19,83)                1.7714         estimate D2E/DX2                !
 ! R28   R(24,25)                1.4252         estimate D2E/DX2                !
 ! R29   R(24,29)                1.43           estimate D2E/DX2                !
 ! R30   R(25,26)                1.5504         estimate D2E/DX2                !
 ! R31   R(25,30)                1.1059         estimate D2E/DX2                !
 ! R32   R(25,37)                1.4099         estimate D2E/DX2                !
 ! R33   R(26,27)                1.5272         estimate D2E/DX2                !
 ! R34   R(26,31)                1.103          estimate D2E/DX2                !
 ! R35   R(26,36)                1.414          estimate D2E/DX2                !
 ! R36   R(27,28)                1.5401         estimate D2E/DX2                !
 ! R37   R(27,32)                1.1033         estimate D2E/DX2                !
 ! R38   R(28,29)                1.5341         estimate D2E/DX2                !
 ! R39   R(28,33)                1.1046         estimate D2E/DX2                !
 ! R40   R(28,35)                1.4426         estimate D2E/DX2                !
 ! R41   R(29,34)                1.1095         estimate D2E/DX2                !
 ! R42   R(29,38)                1.5312         estimate D2E/DX2                !
 ! R43   R(35,43)                0.9934         estimate D2E/DX2                !
 ! R44   R(35,82)                4.4927         estimate D2E/DX2                !
 ! R45   R(36,44)                0.9817         estimate D2E/DX2                !
 ! R46   R(37,49)                1.4388         estimate D2E/DX2                !
 ! R47   R(38,39)                1.0981         estimate D2E/DX2                !
 ! R48   R(38,40)                1.103          estimate D2E/DX2                !
 ! R49   R(38,41)                1.4361         estimate D2E/DX2                !
 ! R50   R(41,42)                0.9826         estimate D2E/DX2                !
 ! R51   R(41,82)                3.7467         estimate D2E/DX2                !
 ! R52   R(45,46)                1.4306         estimate D2E/DX2                !
 ! R53   R(45,50)                1.4398         estimate D2E/DX2                !
 ! R54   R(45,84)                2.3703         estimate D2E/DX2                !
 ! R55   R(46,47)                1.5333         estimate D2E/DX2                !
 ! R56   R(46,51)                1.1136         estimate D2E/DX2                !
 ! R57   R(46,58)                1.3994         estimate D2E/DX2                !
 ! R58   R(47,48)                1.5324         estimate D2E/DX2                !
 ! R59   R(47,52)                1.1026         estimate D2E/DX2                !
 ! R60   R(47,57)                1.4258         estimate D2E/DX2                !
 ! R61   R(48,49)                1.5285         estimate D2E/DX2                !
 ! R62   R(48,53)                1.1096         estimate D2E/DX2                !
 ! R63   R(48,56)                1.4327         estimate D2E/DX2                !
 ! R64   R(49,50)                1.5417         estimate D2E/DX2                !
 ! R65   R(49,55)                1.1013         estimate D2E/DX2                !
 ! R66   R(50,54)                1.1077         estimate D2E/DX2                !
 ! R67   R(50,59)                1.5292         estimate D2E/DX2                !
 ! R68   R(56,64)                0.9775         estimate D2E/DX2                !
 ! R69   R(56,84)                4.8987         estimate D2E/DX2                !
 ! R70   R(57,65)                0.976          estimate D2E/DX2                !
 ! R71   R(58,66)                1.4603         estimate D2E/DX2                !
 ! R72   R(58,84)                2.0992         estimate D2E/DX2                !
 ! R73   R(59,60)                1.1014         estimate D2E/DX2                !
 ! R74   R(59,61)                1.0966         estimate D2E/DX2                !
 ! R75   R(59,62)                1.434          estimate D2E/DX2                !
 ! R76   R(62,63)                0.9974         estimate D2E/DX2                !
 ! R77   R(62,82)                1.7047         estimate D2E/DX2                !
 ! R78   R(66,67)                1.1            estimate D2E/DX2                !
 ! R79   R(66,68)                1.1017         estimate D2E/DX2                !
 ! R80   R(66,69)                1.5256         estimate D2E/DX2                !
 ! R81   R(69,70)                1.0998         estimate D2E/DX2                !
 ! R82   R(69,71)                1.1011         estimate D2E/DX2                !
 ! R83   R(69,72)                1.5517         estimate D2E/DX2                !
 ! R84   R(72,73)                1.1039         estimate D2E/DX2                !
 ! R85   R(72,74)                1.0983         estimate D2E/DX2                !
 ! R86   R(72,75)                1.546          estimate D2E/DX2                !
 ! R87   R(75,76)                1.0999         estimate D2E/DX2                !
 ! R88   R(75,77)                1.1019         estimate D2E/DX2                !
 ! R89   R(75,78)                1.5275         estimate D2E/DX2                !
 ! R90   R(78,79)                1.0983         estimate D2E/DX2                !
 ! R91   R(78,80)                1.0995         estimate D2E/DX2                !
 ! R92   R(78,81)                1.4978         estimate D2E/DX2                !
 ! R93   R(81,82)                1.0613         estimate D2E/DX2                !
 ! R94   R(81,83)                1.0495         estimate D2E/DX2                !
 ! R95   R(81,84)                1.0358         estimate D2E/DX2                !
 ! A1    A(2,1,6)              112.6591         estimate D2E/DX2                !
 ! A2    A(1,2,3)              108.9368         estimate D2E/DX2                !
 ! A3    A(1,2,7)              109.3773         estimate D2E/DX2                !
 ! A4    A(1,2,15)             108.3596         estimate D2E/DX2                !
 ! A5    A(3,2,7)              108.6826         estimate D2E/DX2                !
 ! A6    A(3,2,15)             109.4552         estimate D2E/DX2                !
 ! A7    A(7,2,15)             111.9839         estimate D2E/DX2                !
 ! A8    A(2,3,4)              109.5627         estimate D2E/DX2                !
 ! A9    A(2,3,8)              107.137          estimate D2E/DX2                !
 ! A10   A(2,3,14)             113.7242         estimate D2E/DX2                !
 ! A11   A(4,3,8)              108.8642         estimate D2E/DX2                !
 ! A12   A(4,3,14)             106.285          estimate D2E/DX2                !
 ! A13   A(8,3,14)             111.1986         estimate D2E/DX2                !
 ! A14   A(3,4,5)              112.531          estimate D2E/DX2                !
 ! A15   A(3,4,9)              106.5039         estimate D2E/DX2                !
 ! A16   A(3,4,13)             112.5641         estimate D2E/DX2                !
 ! A17   A(5,4,9)              108.7097         estimate D2E/DX2                !
 ! A18   A(5,4,13)             105.5202         estimate D2E/DX2                !
 ! A19   A(9,4,13)             111.0283         estimate D2E/DX2                !
 ! A20   A(4,5,6)              109.9563         estimate D2E/DX2                !
 ! A21   A(4,5,10)             108.1646         estimate D2E/DX2                !
 ! A22   A(4,5,12)             110.919          estimate D2E/DX2                !
 ! A23   A(6,5,10)             108.2649         estimate D2E/DX2                !
 ! A24   A(6,5,12)             109.9052         estimate D2E/DX2                !
 ! A25   A(10,5,12)            109.5713         estimate D2E/DX2                !
 ! A26   A(1,6,5)              111.5191         estimate D2E/DX2                !
 ! A27   A(1,6,11)             103.7832         estimate D2E/DX2                !
 ! A28   A(1,6,16)             110.2317         estimate D2E/DX2                !
 ! A29   A(5,6,11)             108.5605         estimate D2E/DX2                !
 ! A30   A(5,6,16)             113.1718         estimate D2E/DX2                !
 ! A31   A(11,6,16)            109.1143         estimate D2E/DX2                !
 ! A32   A(5,12,21)            105.6736         estimate D2E/DX2                !
 ! A33   A(4,13,22)            108.4454         estimate D2E/DX2                !
 ! A34   A(4,13,83)             34.4881         estimate D2E/DX2                !
 ! A35   A(22,13,83)           142.7794         estimate D2E/DX2                !
 ! A36   A(3,14,23)            107.5299         estimate D2E/DX2                !
 ! A37   A(3,14,83)             45.072          estimate D2E/DX2                !
 ! A38   A(23,14,83)            99.914          estimate D2E/DX2                !
 ! A39   A(2,15,27)            119.0815         estimate D2E/DX2                !
 ! A40   A(6,16,17)            109.5966         estimate D2E/DX2                !
 ! A41   A(6,16,18)            110.7939         estimate D2E/DX2                !
 ! A42   A(6,16,19)            111.2982         estimate D2E/DX2                !
 ! A43   A(17,16,18)           107.7827         estimate D2E/DX2                !
 ! A44   A(17,16,19)           106.6587         estimate D2E/DX2                !
 ! A45   A(18,16,19)           110.5589         estimate D2E/DX2                !
 ! A46   A(16,19,20)           108.3719         estimate D2E/DX2                !
 ! A47   A(16,19,83)           129.5735         estimate D2E/DX2                !
 ! A48   A(20,19,83)           113.7063         estimate D2E/DX2                !
 ! A49   A(25,24,29)           115.3764         estimate D2E/DX2                !
 ! A50   A(24,25,26)           112.2533         estimate D2E/DX2                !
 ! A51   A(24,25,30)           111.1241         estimate D2E/DX2                !
 ! A52   A(24,25,37)           107.0754         estimate D2E/DX2                !
 ! A53   A(26,25,30)           109.0125         estimate D2E/DX2                !
 ! A54   A(26,25,37)           112.8771         estimate D2E/DX2                !
 ! A55   A(30,25,37)           104.2232         estimate D2E/DX2                !
 ! A56   A(25,26,27)           110.1373         estimate D2E/DX2                !
 ! A57   A(25,26,31)           107.1561         estimate D2E/DX2                !
 ! A58   A(25,26,36)           110.3734         estimate D2E/DX2                !
 ! A59   A(27,26,31)           109.0237         estimate D2E/DX2                !
 ! A60   A(27,26,36)           109.2986         estimate D2E/DX2                !
 ! A61   A(31,26,36)           110.8229         estimate D2E/DX2                !
 ! A62   A(15,27,26)           115.1618         estimate D2E/DX2                !
 ! A63   A(15,27,28)           110.6862         estimate D2E/DX2                !
 ! A64   A(15,27,32)           103.3009         estimate D2E/DX2                !
 ! A65   A(26,27,28)           111.2015         estimate D2E/DX2                !
 ! A66   A(26,27,32)           108.1837         estimate D2E/DX2                !
 ! A67   A(28,27,32)           107.7343         estimate D2E/DX2                !
 ! A68   A(27,28,29)           109.5387         estimate D2E/DX2                !
 ! A69   A(27,28,33)           108.0341         estimate D2E/DX2                !
 ! A70   A(27,28,35)           112.9711         estimate D2E/DX2                !
 ! A71   A(29,28,33)           108.5634         estimate D2E/DX2                !
 ! A72   A(29,28,35)           108.8375         estimate D2E/DX2                !
 ! A73   A(33,28,35)           108.8042         estimate D2E/DX2                !
 ! A74   A(24,29,28)           111.5056         estimate D2E/DX2                !
 ! A75   A(24,29,34)           110.2704         estimate D2E/DX2                !
 ! A76   A(24,29,38)           105.9393         estimate D2E/DX2                !
 ! A77   A(28,29,34)           107.5015         estimate D2E/DX2                !
 ! A78   A(28,29,38)           114.0175         estimate D2E/DX2                !
 ! A79   A(34,29,38)           107.5395         estimate D2E/DX2                !
 ! A80   A(28,35,43)           107.086          estimate D2E/DX2                !
 ! A81   A(28,35,82)           123.1711         estimate D2E/DX2                !
 ! A82   A(43,35,82)           116.3435         estimate D2E/DX2                !
 ! A83   A(26,36,44)           105.6212         estimate D2E/DX2                !
 ! A84   A(25,37,49)           116.5749         estimate D2E/DX2                !
 ! A85   A(29,38,39)           109.2864         estimate D2E/DX2                !
 ! A86   A(29,38,40)           109.4489         estimate D2E/DX2                !
 ! A87   A(29,38,41)           112.8781         estimate D2E/DX2                !
 ! A88   A(39,38,40)           108.1448         estimate D2E/DX2                !
 ! A89   A(39,38,41)           106.3707         estimate D2E/DX2                !
 ! A90   A(40,38,41)           110.5614         estimate D2E/DX2                !
 ! A91   A(38,41,42)           104.8046         estimate D2E/DX2                !
 ! A92   A(38,41,82)           139.0899         estimate D2E/DX2                !
 ! A93   A(42,41,82)            81.024          estimate D2E/DX2                !
 ! A94   A(46,45,50)           119.4075         estimate D2E/DX2                !
 ! A95   A(46,45,84)            82.6515         estimate D2E/DX2                !
 ! A96   A(50,45,84)           131.1707         estimate D2E/DX2                !
 ! A97   A(45,46,47)           110.9822         estimate D2E/DX2                !
 ! A98   A(45,46,51)           109.5551         estimate D2E/DX2                !
 ! A99   A(45,46,58)           106.3609         estimate D2E/DX2                !
 ! A100  A(47,46,51)           111.3658         estimate D2E/DX2                !
 ! A101  A(47,46,58)           107.746          estimate D2E/DX2                !
 ! A102  A(51,46,58)           110.7034         estimate D2E/DX2                !
 ! A103  A(46,47,48)           111.6638         estimate D2E/DX2                !
 ! A104  A(46,47,52)           107.4314         estimate D2E/DX2                !
 ! A105  A(46,47,57)           113.923          estimate D2E/DX2                !
 ! A106  A(48,47,52)           108.0675         estimate D2E/DX2                !
 ! A107  A(48,47,57)           110.7664         estimate D2E/DX2                !
 ! A108  A(52,47,57)           104.5198         estimate D2E/DX2                !
 ! A109  A(47,48,49)           111.1345         estimate D2E/DX2                !
 ! A110  A(47,48,53)           109.9686         estimate D2E/DX2                !
 ! A111  A(47,48,56)           108.8558         estimate D2E/DX2                !
 ! A112  A(49,48,53)           107.8797         estimate D2E/DX2                !
 ! A113  A(49,48,56)           109.6188         estimate D2E/DX2                !
 ! A114  A(53,48,56)           109.3623         estimate D2E/DX2                !
 ! A115  A(37,49,48)           108.8068         estimate D2E/DX2                !
 ! A116  A(37,49,50)           109.4768         estimate D2E/DX2                !
 ! A117  A(37,49,55)           111.0115         estimate D2E/DX2                !
 ! A118  A(48,49,50)           109.2489         estimate D2E/DX2                !
 ! A119  A(48,49,55)           110.0159         estimate D2E/DX2                !
 ! A120  A(50,49,55)           108.2587         estimate D2E/DX2                !
 ! A121  A(45,50,49)           110.0743         estimate D2E/DX2                !
 ! A122  A(45,50,54)           110.7691         estimate D2E/DX2                !
 ! A123  A(45,50,59)           104.0113         estimate D2E/DX2                !
 ! A124  A(49,50,54)           108.7703         estimate D2E/DX2                !
 ! A125  A(49,50,59)           114.9663         estimate D2E/DX2                !
 ! A126  A(54,50,59)           108.1723         estimate D2E/DX2                !
 ! A127  A(48,56,64)           106.529          estimate D2E/DX2                !
 ! A128  A(48,56,84)            47.3154         estimate D2E/DX2                !
 ! A129  A(64,56,84)           100.5196         estimate D2E/DX2                !
 ! A130  A(47,57,65)           109.2282         estimate D2E/DX2                !
 ! A131  A(46,58,66)           115.2906         estimate D2E/DX2                !
 ! A132  A(46,58,84)            94.2203         estimate D2E/DX2                !
 ! A133  A(66,58,84)           108.7291         estimate D2E/DX2                !
 ! A134  A(50,59,60)           107.7248         estimate D2E/DX2                !
 ! A135  A(50,59,61)           109.4327         estimate D2E/DX2                !
 ! A136  A(50,59,62)           111.4327         estimate D2E/DX2                !
 ! A137  A(60,59,61)           108.9968         estimate D2E/DX2                !
 ! A138  A(60,59,62)           108.399          estimate D2E/DX2                !
 ! A139  A(61,59,62)           110.7697         estimate D2E/DX2                !
 ! A140  A(59,62,63)           110.9801         estimate D2E/DX2                !
 ! A141  A(59,62,82)           122.721          estimate D2E/DX2                !
 ! A142  A(63,62,82)           120.142          estimate D2E/DX2                !
 ! A143  A(58,66,67)           104.9678         estimate D2E/DX2                !
 ! A144  A(58,66,68)           108.7034         estimate D2E/DX2                !
 ! A145  A(58,66,69)           112.6292         estimate D2E/DX2                !
 ! A146  A(67,66,68)           108.1479         estimate D2E/DX2                !
 ! A147  A(67,66,69)           111.3379         estimate D2E/DX2                !
 ! A148  A(68,66,69)           110.7956         estimate D2E/DX2                !
 ! A149  A(66,69,70)           108.4493         estimate D2E/DX2                !
 ! A150  A(66,69,71)           107.0835         estimate D2E/DX2                !
 ! A151  A(66,69,72)           114.703          estimate D2E/DX2                !
 ! A152  A(70,69,71)           105.6094         estimate D2E/DX2                !
 ! A153  A(70,69,72)           111.0528         estimate D2E/DX2                !
 ! A154  A(71,69,72)           109.4811         estimate D2E/DX2                !
 ! A155  A(69,72,73)           110.0211         estimate D2E/DX2                !
 ! A156  A(69,72,74)           108.6958         estimate D2E/DX2                !
 ! A157  A(69,72,75)           115.1532         estimate D2E/DX2                !
 ! A158  A(73,72,74)           104.7637         estimate D2E/DX2                !
 ! A159  A(73,72,75)           109.2009         estimate D2E/DX2                !
 ! A160  A(74,72,75)           108.4825         estimate D2E/DX2                !
 ! A161  A(72,75,76)           109.9073         estimate D2E/DX2                !
 ! A162  A(72,75,77)           110.2667         estimate D2E/DX2                !
 ! A163  A(72,75,78)           114.6444         estimate D2E/DX2                !
 ! A164  A(76,75,77)           105.7598         estimate D2E/DX2                !
 ! A165  A(76,75,78)           105.8902         estimate D2E/DX2                !
 ! A166  A(77,75,78)           109.9192         estimate D2E/DX2                !
 ! A167  A(75,78,79)           111.2917         estimate D2E/DX2                !
 ! A168  A(75,78,80)           110.4598         estimate D2E/DX2                !
 ! A169  A(75,78,81)           112.7929         estimate D2E/DX2                !
 ! A170  A(79,78,80)           107.8454         estimate D2E/DX2                !
 ! A171  A(79,78,81)           107.1589         estimate D2E/DX2                !
 ! A172  A(80,78,81)           107.0542         estimate D2E/DX2                !
 ! A173  A(78,81,82)           113.3975         estimate D2E/DX2                !
 ! A174  A(78,81,83)           112.3734         estimate D2E/DX2                !
 ! A175  A(78,81,84)           111.1996         estimate D2E/DX2                !
 ! A176  A(82,81,83)           105.3778         estimate D2E/DX2                !
 ! A177  A(82,81,84)           106.1528         estimate D2E/DX2                !
 ! A178  A(83,81,84)           107.9096         estimate D2E/DX2                !
 ! A179  A(35,82,41)            36.9083         estimate D2E/DX2                !
 ! A180  A(35,82,62)            67.9207         estimate D2E/DX2                !
 ! A181  A(35,82,81)           101.057          estimate D2E/DX2                !
 ! A182  A(41,82,62)            42.0807         estimate D2E/DX2                !
 ! A183  A(41,82,81)           130.3705         estimate D2E/DX2                !
 ! A184  A(13,83,14)            23.4924         estimate D2E/DX2                !
 ! A185  A(13,83,19)            18.7992         estimate D2E/DX2                !
 ! A186  A(14,83,81)           162.9576         estimate D2E/DX2                !
 ! A187  A(45,84,56)            57.8149         estimate D2E/DX2                !
 ! A188  A(45,84,58)            60.5543         estimate D2E/DX2                !
 ! A189  A(45,84,81)           109.3211         estimate D2E/DX2                !
 ! A190  A(56,84,58)            73.6659         estimate D2E/DX2                !
 ! A191  A(56,84,81)           102.2855         estimate D2E/DX2                !
 ! A192  L(62,82,81,35,-1)     168.9777         estimate D2E/DX2                !
 ! A193  L(13,83,81,14,-1)     186.4501         estimate D2E/DX2                !
 ! A194  L(14,83,19,13,-1)      42.2916         estimate D2E/DX2                !
 ! A195  L(19,83,81,24,-1)     168.7521         estimate D2E/DX2                !
 ! A196  L(58,84,81,45,-1)     169.8753         estimate D2E/DX2                !
 ! A197  L(62,82,81,35,-2)     175.5111         estimate D2E/DX2                !
 ! A198  L(13,83,81,14,-2)     214.318          estimate D2E/DX2                !
 ! A199  L(14,83,19,13,-2)     350.5212         estimate D2E/DX2                !
 ! A200  L(19,83,81,24,-2)     179.4936         estimate D2E/DX2                !
 ! A201  L(58,84,81,45,-2)     181.1157         estimate D2E/DX2                !
 ! D1    D(6,1,2,3)             72.5766         estimate D2E/DX2                !
 ! D2    D(6,1,2,7)            -46.0866         estimate D2E/DX2                !
 ! D3    D(6,1,2,15)          -168.419          estimate D2E/DX2                !
 ! D4    D(2,1,6,5)            -36.942          estimate D2E/DX2                !
 ! D5    D(2,1,6,11)          -153.6232         estimate D2E/DX2                !
 ! D6    D(2,1,6,16)            89.6495         estimate D2E/DX2                !
 ! D7    D(1,2,3,4)            -36.3129         estimate D2E/DX2                !
 ! D8    D(1,2,3,8)           -154.2594         estimate D2E/DX2                !
 ! D9    D(1,2,3,14)            82.453          estimate D2E/DX2                !
 ! D10   D(7,2,3,4)             82.7847         estimate D2E/DX2                !
 ! D11   D(7,2,3,8)            -35.1618         estimate D2E/DX2                !
 ! D12   D(7,2,3,14)          -158.4494         estimate D2E/DX2                !
 ! D13   D(15,2,3,4)          -154.6307         estimate D2E/DX2                !
 ! D14   D(15,2,3,8)            87.4227         estimate D2E/DX2                !
 ! D15   D(15,2,3,14)          -35.8649         estimate D2E/DX2                !
 ! D16   D(1,2,15,27)           78.8189         estimate D2E/DX2                !
 ! D17   D(3,2,15,27)         -162.5044         estimate D2E/DX2                !
 ! D18   D(7,2,15,27)          -41.9096         estimate D2E/DX2                !
 ! D19   D(2,3,4,5)            -25.6393         estimate D2E/DX2                !
 ! D20   D(2,3,4,9)             93.3808         estimate D2E/DX2                !
 ! D21   D(2,3,4,13)          -144.7227         estimate D2E/DX2                !
 ! D22   D(8,3,4,5)             91.2248         estimate D2E/DX2                !
 ! D23   D(8,3,4,9)           -149.7551         estimate D2E/DX2                !
 ! D24   D(8,3,4,13)           -27.8586         estimate D2E/DX2                !
 ! D25   D(14,3,4,5)          -148.913          estimate D2E/DX2                !
 ! D26   D(14,3,4,9)           -29.8929         estimate D2E/DX2                !
 ! D27   D(14,3,4,13)           92.0036         estimate D2E/DX2                !
 ! D28   D(2,3,14,23)           53.3123         estimate D2E/DX2                !
 ! D29   D(2,3,14,83)          -33.2446         estimate D2E/DX2                !
 ! D30   D(4,3,14,23)          173.9376         estimate D2E/DX2                !
 ! D31   D(4,3,14,83)           87.3806         estimate D2E/DX2                !
 ! D32   D(8,3,14,23)          -67.7296         estimate D2E/DX2                !
 ! D33   D(8,3,14,83)         -154.2865         estimate D2E/DX2                !
 ! D34   D(3,4,5,6)             59.26           estimate D2E/DX2                !
 ! D35   D(3,4,5,10)           177.2979         estimate D2E/DX2                !
 ! D36   D(3,4,5,12)           -62.5139         estimate D2E/DX2                !
 ! D37   D(9,4,5,6)            -58.4638         estimate D2E/DX2                !
 ! D38   D(9,4,5,10)            59.5741         estimate D2E/DX2                !
 ! D39   D(9,4,5,12)           179.7622         estimate D2E/DX2                !
 ! D40   D(13,4,5,6)          -177.6229         estimate D2E/DX2                !
 ! D41   D(13,4,5,10)          -59.585          estimate D2E/DX2                !
 ! D42   D(13,4,5,12)           60.6031         estimate D2E/DX2                !
 ! D43   D(3,4,13,22)          -60.3282         estimate D2E/DX2                !
 ! D44   D(3,4,13,83)          115.2147         estimate D2E/DX2                !
 ! D45   D(5,4,13,22)          176.5759         estimate D2E/DX2                !
 ! D46   D(5,4,13,83)           -7.8813         estimate D2E/DX2                !
 ! D47   D(9,4,13,22)           58.9676         estimate D2E/DX2                !
 ! D48   D(9,4,13,83)         -125.4895         estimate D2E/DX2                !
 ! D49   D(4,5,6,1)            -26.9356         estimate D2E/DX2                !
 ! D50   D(4,5,6,11)            86.8016         estimate D2E/DX2                !
 ! D51   D(4,5,6,16)          -151.9032         estimate D2E/DX2                !
 ! D52   D(10,5,6,1)          -144.9115         estimate D2E/DX2                !
 ! D53   D(10,5,6,11)          -31.1742         estimate D2E/DX2                !
 ! D54   D(10,5,6,16)           90.1209         estimate D2E/DX2                !
 ! D55   D(12,5,6,1)            95.4404         estimate D2E/DX2                !
 ! D56   D(12,5,6,11)         -150.8224         estimate D2E/DX2                !
 ! D57   D(12,5,6,16)          -29.5272         estimate D2E/DX2                !
 ! D58   D(4,5,12,21)          -49.7845         estimate D2E/DX2                !
 ! D59   D(6,5,12,21)         -171.5884         estimate D2E/DX2                !
 ! D60   D(10,5,12,21)          69.5631         estimate D2E/DX2                !
 ! D61   D(1,6,16,17)          172.4902         estimate D2E/DX2                !
 ! D62   D(1,6,16,18)          -68.6958         estimate D2E/DX2                !
 ! D63   D(1,6,16,19)           54.7545         estimate D2E/DX2                !
 ! D64   D(5,6,16,17)          -61.8491         estimate D2E/DX2                !
 ! D65   D(5,6,16,18)           56.9649         estimate D2E/DX2                !
 ! D66   D(5,6,16,19)         -179.5848         estimate D2E/DX2                !
 ! D67   D(11,6,16,17)          59.1333         estimate D2E/DX2                !
 ! D68   D(11,6,16,18)         177.9473         estimate D2E/DX2                !
 ! D69   D(11,6,16,19)         -58.6024         estimate D2E/DX2                !
 ! D70   D(4,13,83,14)         -19.5477         estimate D2E/DX2                !
 ! D71   D(4,13,83,19)         -10.0689         estimate D2E/DX2                !
 ! D72   D(22,13,83,14)        -12.5473         estimate D2E/DX2                !
 ! D73   D(22,13,83,19)         -3.0686         estimate D2E/DX2                !
 ! D74   D(3,14,83,13)         -41.5764         estimate D2E/DX2                !
 ! D75   D(3,14,83,81)         104.1056         estimate D2E/DX2                !
 ! D76   D(23,14,83,13)       -146.5005         estimate D2E/DX2                !
 ! D77   D(23,14,83,81)         -0.8185         estimate D2E/DX2                !
 ! D78   D(2,15,27,26)          29.406          estimate D2E/DX2                !
 ! D79   D(2,15,27,28)         -97.785          estimate D2E/DX2                !
 ! D80   D(2,15,27,32)         147.138          estimate D2E/DX2                !
 ! D81   D(6,16,19,20)         -56.6139         estimate D2E/DX2                !
 ! D82   D(6,16,19,83)         157.8893         estimate D2E/DX2                !
 ! D83   D(17,16,19,20)       -176.1127         estimate D2E/DX2                !
 ! D84   D(17,16,19,83)         38.3905         estimate D2E/DX2                !
 ! D85   D(18,16,19,20)         66.9703         estimate D2E/DX2                !
 ! D86   D(18,16,19,83)        -78.5265         estimate D2E/DX2                !
 ! D87   D(16,19,83,13)        -11.8765         estimate D2E/DX2                !
 ! D88   D(20,19,83,13)       -155.9234         estimate D2E/DX2                !
 ! D89   D(29,24,25,26)        -55.0508         estimate D2E/DX2                !
 ! D90   D(29,24,25,30)         67.3226         estimate D2E/DX2                !
 ! D91   D(29,24,25,37)       -179.4599         estimate D2E/DX2                !
 ! D92   D(25,24,29,28)         57.0527         estimate D2E/DX2                !
 ! D93   D(25,24,29,34)        -62.2942         estimate D2E/DX2                !
 ! D94   D(25,24,29,38)       -178.3715         estimate D2E/DX2                !
 ! D95   D(24,25,26,27)         51.5001         estimate D2E/DX2                !
 ! D96   D(24,25,26,31)        -66.9602         estimate D2E/DX2                !
 ! D97   D(24,25,26,36)        172.2756         estimate D2E/DX2                !
 ! D98   D(30,25,26,27)        -72.0627         estimate D2E/DX2                !
 ! D99   D(30,25,26,31)        169.477          estimate D2E/DX2                !
 ! D100  D(30,25,26,36)         48.7128         estimate D2E/DX2                !
 ! D101  D(37,25,26,27)        172.6312         estimate D2E/DX2                !
 ! D102  D(37,25,26,31)         54.1708         estimate D2E/DX2                !
 ! D103  D(37,25,26,36)        -66.5933         estimate D2E/DX2                !
 ! D104  D(24,25,37,49)         62.5725         estimate D2E/DX2                !
 ! D105  D(26,25,37,49)        -61.4555         estimate D2E/DX2                !
 ! D106  D(30,25,37,49)       -179.6015         estimate D2E/DX2                !
 ! D107  D(25,26,27,15)       -179.1412         estimate D2E/DX2                !
 ! D108  D(25,26,27,28)        -52.2113         estimate D2E/DX2                !
 ! D109  D(25,26,27,32)         65.9078         estimate D2E/DX2                !
 ! D110  D(31,26,27,15)        -61.8339         estimate D2E/DX2                !
 ! D111  D(31,26,27,28)         65.0959         estimate D2E/DX2                !
 ! D112  D(31,26,27,32)       -176.785          estimate D2E/DX2                !
 ! D113  D(36,26,27,15)         59.4405         estimate D2E/DX2                !
 ! D114  D(36,26,27,28)       -173.6296         estimate D2E/DX2                !
 ! D115  D(36,26,27,32)        -55.5105         estimate D2E/DX2                !
 ! D116  D(25,26,36,44)         76.087          estimate D2E/DX2                !
 ! D117  D(27,26,36,44)       -162.6378         estimate D2E/DX2                !
 ! D118  D(31,26,36,44)        -42.4605         estimate D2E/DX2                !
 ! D119  D(15,27,28,29)       -176.4851         estimate D2E/DX2                !
 ! D120  D(15,27,28,33)        -58.3989         estimate D2E/DX2                !
 ! D121  D(15,27,28,35)         62.0116         estimate D2E/DX2                !
 ! D122  D(26,27,28,29)         54.1733         estimate D2E/DX2                !
 ! D123  D(26,27,28,33)        172.2595         estimate D2E/DX2                !
 ! D124  D(26,27,28,35)        -67.33           estimate D2E/DX2                !
 ! D125  D(32,27,28,29)        -64.2168         estimate D2E/DX2                !
 ! D126  D(32,27,28,33)         53.8694         estimate D2E/DX2                !
 ! D127  D(32,27,28,35)        174.2799         estimate D2E/DX2                !
 ! D128  D(27,28,29,24)        -55.0071         estimate D2E/DX2                !
 ! D129  D(27,28,29,34)         65.97           estimate D2E/DX2                !
 ! D130  D(27,28,29,38)       -174.9224         estimate D2E/DX2                !
 ! D131  D(33,28,29,24)       -172.763          estimate D2E/DX2                !
 ! D132  D(33,28,29,34)        -51.7859         estimate D2E/DX2                !
 ! D133  D(33,28,29,38)         67.3217         estimate D2E/DX2                !
 ! D134  D(35,28,29,24)         68.9532         estimate D2E/DX2                !
 ! D135  D(35,28,29,34)       -170.0697         estimate D2E/DX2                !
 ! D136  D(35,28,29,38)        -50.9622         estimate D2E/DX2                !
 ! D137  D(27,28,35,43)        -48.6155         estimate D2E/DX2                !
 ! D138  D(27,28,35,82)         90.457          estimate D2E/DX2                !
 ! D139  D(29,28,35,43)       -170.5139         estimate D2E/DX2                !
 ! D140  D(29,28,35,82)        -31.4414         estimate D2E/DX2                !
 ! D141  D(33,28,35,43)         71.3541         estimate D2E/DX2                !
 ! D142  D(33,28,35,82)       -149.5734         estimate D2E/DX2                !
 ! D143  D(24,29,38,39)         62.6601         estimate D2E/DX2                !
 ! D144  D(24,29,38,40)       -179.0804         estimate D2E/DX2                !
 ! D145  D(24,29,38,41)        -55.4888         estimate D2E/DX2                !
 ! D146  D(28,29,38,39)       -174.3393         estimate D2E/DX2                !
 ! D147  D(28,29,38,40)        -56.0798         estimate D2E/DX2                !
 ! D148  D(28,29,38,41)         67.5118         estimate D2E/DX2                !
 ! D149  D(34,29,38,39)        -55.2533         estimate D2E/DX2                !
 ! D150  D(34,29,38,40)         63.0062         estimate D2E/DX2                !
 ! D151  D(34,29,38,41)       -173.4022         estimate D2E/DX2                !
 ! D152  D(28,35,82,41)         67.4245         estimate D2E/DX2                !
 ! D153  D(28,35,82,62)         29.9489         estimate D2E/DX2                !
 ! D154  D(28,35,82,81)       -145.5623         estimate D2E/DX2                !
 ! D155  D(43,35,82,41)       -156.9029         estimate D2E/DX2                !
 ! D156  D(43,35,82,62)        165.6215         estimate D2E/DX2                !
 ! D157  D(43,35,82,81)         -9.8896         estimate D2E/DX2                !
 ! D158  D(25,37,49,48)        121.8409         estimate D2E/DX2                !
 ! D159  D(25,37,49,50)       -118.8285         estimate D2E/DX2                !
 ! D160  D(25,37,49,55)          0.6328         estimate D2E/DX2                !
 ! D161  D(29,38,41,42)        -54.6183         estimate D2E/DX2                !
 ! D162  D(29,38,41,82)         38.74           estimate D2E/DX2                !
 ! D163  D(39,38,41,42)       -174.4594         estimate D2E/DX2                !
 ! D164  D(39,38,41,82)        -81.1011         estimate D2E/DX2                !
 ! D165  D(40,38,41,42)         68.3563         estimate D2E/DX2                !
 ! D166  D(40,38,41,82)        161.7146         estimate D2E/DX2                !
 ! D167  D(38,41,82,35)        -73.9238         estimate D2E/DX2                !
 ! D168  D(38,41,82,62)         48.801          estimate D2E/DX2                !
 ! D169  D(38,41,82,81)       -118.4591         estimate D2E/DX2                !
 ! D170  D(42,41,82,35)         28.3593         estimate D2E/DX2                !
 ! D171  D(42,41,82,62)        151.084          estimate D2E/DX2                !
 ! D172  D(42,41,82,81)        -16.1761         estimate D2E/DX2                !
 ! D173  D(50,45,46,47)        -50.5788         estimate D2E/DX2                !
 ! D174  D(50,45,46,51)         72.8088         estimate D2E/DX2                !
 ! D175  D(50,45,46,58)       -167.5029         estimate D2E/DX2                !
 ! D176  D(84,45,46,47)         82.9913         estimate D2E/DX2                !
 ! D177  D(84,45,46,51)       -153.6211         estimate D2E/DX2                !
 ! D178  D(84,45,46,58)        -33.9328         estimate D2E/DX2                !
 ! D179  D(46,45,50,49)         54.1613         estimate D2E/DX2                !
 ! D180  D(46,45,50,54)        -66.1694         estimate D2E/DX2                !
 ! D181  D(46,45,50,59)        177.8278         estimate D2E/DX2                !
 ! D182  D(84,45,50,49)        -53.1687         estimate D2E/DX2                !
 ! D183  D(84,45,50,54)       -173.4994         estimate D2E/DX2                !
 ! D184  D(84,45,50,59)         70.4977         estimate D2E/DX2                !
 ! D185  D(46,45,84,56)        -64.2863         estimate D2E/DX2                !
 ! D186  D(46,45,84,58)         24.2066         estimate D2E/DX2                !
 ! D187  D(46,45,84,81)       -156.9091         estimate D2E/DX2                !
 ! D188  D(50,45,84,56)         58.7326         estimate D2E/DX2                !
 ! D189  D(50,45,84,58)        147.2255         estimate D2E/DX2                !
 ! D190  D(50,45,84,81)        -33.8902         estimate D2E/DX2                !
 ! D191  D(45,46,47,48)         47.96           estimate D2E/DX2                !
 ! D192  D(45,46,47,52)        -70.3662         estimate D2E/DX2                !
 ! D193  D(45,46,47,57)        174.3711         estimate D2E/DX2                !
 ! D194  D(51,46,47,48)        -74.3819         estimate D2E/DX2                !
 ! D195  D(51,46,47,52)        167.2919         estimate D2E/DX2                !
 ! D196  D(51,46,47,57)         52.0292         estimate D2E/DX2                !
 ! D197  D(58,46,47,48)        164.0318         estimate D2E/DX2                !
 ! D198  D(58,46,47,52)         45.7055         estimate D2E/DX2                !
 ! D199  D(58,46,47,57)        -69.5571         estimate D2E/DX2                !
 ! D200  D(45,46,58,66)        -74.1982         estimate D2E/DX2                !
 ! D201  D(45,46,58,84)         38.8164         estimate D2E/DX2                !
 ! D202  D(47,46,58,66)        166.7379         estimate D2E/DX2                !
 ! D203  D(47,46,58,84)        -80.2476         estimate D2E/DX2                !
 ! D204  D(51,46,58,66)         44.7405         estimate D2E/DX2                !
 ! D205  D(51,46,58,84)        157.7551         estimate D2E/DX2                !
 ! D206  D(46,47,48,49)        -53.6236         estimate D2E/DX2                !
 ! D207  D(46,47,48,53)         65.7611         estimate D2E/DX2                !
 ! D208  D(46,47,48,56)       -174.4476         estimate D2E/DX2                !
 ! D209  D(52,47,48,49)         64.3219         estimate D2E/DX2                !
 ! D210  D(52,47,48,53)       -176.2934         estimate D2E/DX2                !
 ! D211  D(52,47,48,56)        -56.5021         estimate D2E/DX2                !
 ! D212  D(57,47,48,49)        178.2596         estimate D2E/DX2                !
 ! D213  D(57,47,48,53)        -62.3557         estimate D2E/DX2                !
 ! D214  D(57,47,48,56)         57.4356         estimate D2E/DX2                !
 ! D215  D(46,47,57,65)        -51.0807         estimate D2E/DX2                !
 ! D216  D(48,47,57,65)         75.7987         estimate D2E/DX2                !
 ! D217  D(52,47,57,65)       -168.0441         estimate D2E/DX2                !
 ! D218  D(47,48,49,37)        175.8158         estimate D2E/DX2                !
 ! D219  D(47,48,49,50)         56.3431         estimate D2E/DX2                !
 ! D220  D(47,48,49,55)        -62.3684         estimate D2E/DX2                !
 ! D221  D(53,48,49,37)         55.1909         estimate D2E/DX2                !
 ! D222  D(53,48,49,50)        -64.2819         estimate D2E/DX2                !
 ! D223  D(53,48,49,55)        177.0066         estimate D2E/DX2                !
 ! D224  D(56,48,49,37)        -63.8103         estimate D2E/DX2                !
 ! D225  D(56,48,49,50)        176.7169         estimate D2E/DX2                !
 ! D226  D(56,48,49,55)         58.0054         estimate D2E/DX2                !
 ! D227  D(47,48,56,64)        -44.6393         estimate D2E/DX2                !
 ! D228  D(47,48,56,84)         44.5226         estimate D2E/DX2                !
 ! D229  D(49,48,56,64)       -166.3898         estimate D2E/DX2                !
 ! D230  D(49,48,56,84)        -77.2279         estimate D2E/DX2                !
 ! D231  D(53,48,56,64)         75.5275         estimate D2E/DX2                !
 ! D232  D(53,48,56,84)        164.6894         estimate D2E/DX2                !
 ! D233  D(37,49,50,45)       -173.3337         estimate D2E/DX2                !
 ! D234  D(37,49,50,54)        -51.804          estimate D2E/DX2                !
 ! D235  D(37,49,50,59)         69.6342         estimate D2E/DX2                !
 ! D236  D(48,49,50,45)        -54.2759         estimate D2E/DX2                !
 ! D237  D(48,49,50,54)         67.2538         estimate D2E/DX2                !
 ! D238  D(48,49,50,59)       -171.3081         estimate D2E/DX2                !
 ! D239  D(55,49,50,45)         65.5242         estimate D2E/DX2                !
 ! D240  D(55,49,50,54)       -172.9461         estimate D2E/DX2                !
 ! D241  D(55,49,50,59)        -51.5079         estimate D2E/DX2                !
 ! D242  D(45,50,59,60)         64.0853         estimate D2E/DX2                !
 ! D243  D(45,50,59,61)       -177.5461         estimate D2E/DX2                !
 ! D244  D(45,50,59,62)        -54.6947         estimate D2E/DX2                !
 ! D245  D(49,50,59,60)       -175.4897         estimate D2E/DX2                !
 ! D246  D(49,50,59,61)        -57.121          estimate D2E/DX2                !
 ! D247  D(49,50,59,62)         65.7304         estimate D2E/DX2                !
 ! D248  D(54,50,59,60)        -53.7268         estimate D2E/DX2                !
 ! D249  D(54,50,59,61)         64.6418         estimate D2E/DX2                !
 ! D250  D(54,50,59,62)       -172.5067         estimate D2E/DX2                !
 ! D251  D(48,56,84,45)         10.7187         estimate D2E/DX2                !
 ! D252  D(48,56,84,58)        -54.3935         estimate D2E/DX2                !
 ! D253  D(48,56,84,81)        115.9693         estimate D2E/DX2                !
 ! D254  D(64,56,84,45)        113.5677         estimate D2E/DX2                !
 ! D255  D(64,56,84,58)         48.4554         estimate D2E/DX2                !
 ! D256  D(64,56,84,81)       -141.1818         estimate D2E/DX2                !
 ! D257  D(46,58,66,67)       -141.7258         estimate D2E/DX2                !
 ! D258  D(46,58,66,68)        -26.2015         estimate D2E/DX2                !
 ! D259  D(46,58,66,69)         96.9749         estimate D2E/DX2                !
 ! D260  D(84,58,66,67)        114.0248         estimate D2E/DX2                !
 ! D261  D(84,58,66,68)       -130.4508         estimate D2E/DX2                !
 ! D262  D(84,58,66,69)         -7.2744         estimate D2E/DX2                !
 ! D263  D(46,58,84,45)        -24.6359         estimate D2E/DX2                !
 ! D264  D(46,58,84,56)         37.2027         estimate D2E/DX2                !
 ! D265  D(66,58,84,45)         93.876          estimate D2E/DX2                !
 ! D266  D(66,58,84,56)        155.7147         estimate D2E/DX2                !
 ! D267  D(50,59,62,63)       -119.968          estimate D2E/DX2                !
 ! D268  D(50,59,62,82)         32.3591         estimate D2E/DX2                !
 ! D269  D(60,59,62,63)        121.6557         estimate D2E/DX2                !
 ! D270  D(60,59,62,82)        -86.0172         estimate D2E/DX2                !
 ! D271  D(61,59,62,63)          2.1143         estimate D2E/DX2                !
 ! D272  D(61,59,62,82)        154.4415         estimate D2E/DX2                !
 ! D273  D(59,62,82,35)       -121.5855         estimate D2E/DX2                !
 ! D274  D(59,62,82,41)       -154.6238         estimate D2E/DX2                !
 ! D275  D(63,62,82,35)         28.3195         estimate D2E/DX2                !
 ! D276  D(63,62,82,41)         -4.7188         estimate D2E/DX2                !
 ! D277  D(58,66,69,70)        -58.4774         estimate D2E/DX2                !
 ! D278  D(58,66,69,71)       -172.0104         estimate D2E/DX2                !
 ! D279  D(58,66,69,72)         66.2939         estimate D2E/DX2                !
 ! D280  D(67,66,69,70)       -176.0748         estimate D2E/DX2                !
 ! D281  D(67,66,69,71)         70.3922         estimate D2E/DX2                !
 ! D282  D(67,66,69,72)        -51.3035         estimate D2E/DX2                !
 ! D283  D(68,66,69,70)         63.5239         estimate D2E/DX2                !
 ! D284  D(68,66,69,71)        -50.0091         estimate D2E/DX2                !
 ! D285  D(68,66,69,72)       -171.7048         estimate D2E/DX2                !
 ! D286  D(66,69,72,73)         -8.5256         estimate D2E/DX2                !
 ! D287  D(66,69,72,74)        105.6567         estimate D2E/DX2                !
 ! D288  D(66,69,72,75)       -132.4299         estimate D2E/DX2                !
 ! D289  D(70,69,72,73)        114.8638         estimate D2E/DX2                !
 ! D290  D(70,69,72,74)       -130.9539         estimate D2E/DX2                !
 ! D291  D(70,69,72,75)         -9.0405         estimate D2E/DX2                !
 ! D292  D(71,69,72,73)       -128.9048         estimate D2E/DX2                !
 ! D293  D(71,69,72,74)        -14.7225         estimate D2E/DX2                !
 ! D294  D(71,69,72,75)        107.1909         estimate D2E/DX2                !
 ! D295  D(69,72,75,76)       -143.382          estimate D2E/DX2                !
 ! D296  D(69,72,75,77)        -27.1728         estimate D2E/DX2                !
 ! D297  D(69,72,75,78)         97.5061         estimate D2E/DX2                !
 ! D298  D(73,72,75,76)         92.2823         estimate D2E/DX2                !
 ! D299  D(73,72,75,77)       -151.5085         estimate D2E/DX2                !
 ! D300  D(73,72,75,78)        -26.8296         estimate D2E/DX2                !
 ! D301  D(74,72,75,76)        -21.3537         estimate D2E/DX2                !
 ! D302  D(74,72,75,77)         94.8555         estimate D2E/DX2                !
 ! D303  D(74,72,75,78)       -140.4657         estimate D2E/DX2                !
 ! D304  D(72,75,78,79)       -178.5585         estimate D2E/DX2                !
 ! D305  D(72,75,78,80)         61.6767         estimate D2E/DX2                !
 ! D306  D(72,75,78,81)        -58.0797         estimate D2E/DX2                !
 ! D307  D(76,75,78,79)         60.1021         estimate D2E/DX2                !
 ! D308  D(76,75,78,80)        -59.6628         estimate D2E/DX2                !
 ! D309  D(76,75,78,81)       -179.4191         estimate D2E/DX2                !
 ! D310  D(77,75,78,79)        -53.6965         estimate D2E/DX2                !
 ! D311  D(77,75,78,80)       -173.4614         estimate D2E/DX2                !
 ! D312  D(77,75,78,81)         66.7823         estimate D2E/DX2                !
 ! D313  D(75,78,81,82)        -68.7663         estimate D2E/DX2                !
 ! D314  D(75,78,81,83)        171.8558         estimate D2E/DX2                !
 ! D315  D(75,78,81,84)         50.7685         estimate D2E/DX2                !
 ! D316  D(79,78,81,82)         54.0514         estimate D2E/DX2                !
 ! D317  D(79,78,81,83)        -65.3264         estimate D2E/DX2                !
 ! D318  D(79,78,81,84)        173.5863         estimate D2E/DX2                !
 ! D319  D(80,78,81,82)        169.5315         estimate D2E/DX2                !
 ! D320  D(80,78,81,83)         50.1536         estimate D2E/DX2                !
 ! D321  D(80,78,81,84)        -70.9337         estimate D2E/DX2                !
 ! D322  D(78,81,82,35)       -110.7404         estimate D2E/DX2                !
 ! D323  D(78,81,82,41)        -85.3267         estimate D2E/DX2                !
 ! D324  D(83,81,82,35)         12.568          estimate D2E/DX2                !
 ! D325  D(83,81,82,41)         37.9817         estimate D2E/DX2                !
 ! D326  D(84,81,82,35)        126.8796         estimate D2E/DX2                !
 ! D327  D(84,81,82,41)        152.2934         estimate D2E/DX2                !
 ! D328  D(78,81,83,14)        130.6535         estimate D2E/DX2                !
 ! D329  D(82,81,83,14)          6.6952         estimate D2E/DX2                !
 ! D330  D(84,81,83,14)       -106.3903         estimate D2E/DX2                !
 ! D331  D(78,81,84,45)       -136.8427         estimate D2E/DX2                !
 ! D332  D(78,81,84,56)        163.2449         estimate D2E/DX2                !
 ! D333  D(82,81,84,45)        -13.0786         estimate D2E/DX2                !
 ! D334  D(82,81,84,56)        -72.9909         estimate D2E/DX2                !
 ! D335  D(83,81,84,45)         99.4871         estimate D2E/DX2                !
 ! D336  D(83,81,84,56)         39.5748         estimate D2E/DX2                !
 --------------------------------------------------------------------------------
 Trust Radius=3.00D-01 FncErr=1.00D-07 GrdErr=1.00D-06
 Number of steps in this run=    504 maximum allowed number of steps=    504.
 GradGradGradGradGradGradGradGradGradGradGradGradGradGradGradGradGradGrad

 Leave Link  103 at Mon May  2 23:14:50 2016, MaxMem= 10737418240 cpu:         0.5
 (Enter /share/apps//g09/l202.exe)
 Stoichiometry    C23H44NO16(1+)
 Framework group  C1[X(C23H44NO16)]
 Deg. of freedom   246
 Full point group                 C1      NOp   1
 Largest Abelian subgroup         C1      NOp   1
 Largest concise Abelian subgroup C1      NOp   1
                         Standard orientation:                         
 ---------------------------------------------------------------------
 Center     Atomic      Atomic             Coordinates (Angstroms)
 Number     Number       Type             X           Y           Z
 ---------------------------------------------------------------------
      1          8           0        2.950339   -0.405769   -1.379472
      2          6           0        3.632660   -0.234990   -0.102385
      3          6           0        4.966559   -0.995692   -0.144212
      4          6           0        4.792023   -2.304217   -0.953441
      5          6           0        3.345596   -2.809953   -0.947171
      6          6           0        2.411302   -1.740732   -1.550606
      7          1           0        3.012091   -0.656013    0.702043
      8          1           0        5.227979   -1.252696    0.899164
      9          1           0        5.081464   -2.070682   -1.994310
     10          1           0        3.293706   -3.712990   -1.581603
     11          1           0        2.384741   -1.874761   -2.642504
     12          8           0        2.921720   -3.133432    0.384998
     13          8           0        5.575120   -3.379375   -0.432601
     14          8           0        6.016825   -0.274308   -0.774495
     15          8           0        3.878906    1.123865    0.085505
     16          6           0        0.982529   -1.809581   -1.001795
     17          1           0        0.536492   -2.781426   -1.255844
     18          1           0        0.980186   -1.715038    0.094395
     19          8           0        0.141121   -0.798495   -1.600155
     20          1           0        0.552853    0.082083   -1.440962
     21          1           0        3.623133   -3.703068    0.753861
     22          1           0        6.513192   -3.122664   -0.468568
     23          1           0        6.077340    0.595930   -0.339749
     24          8           0        0.107231    2.997166    0.670773
     25          6           0        0.637938    2.308671    1.800187
     26          6           0        1.743928    1.296701    1.404521
     27          6           0        2.797003    1.981645    0.536001
     28          6           0        2.148103    2.710149   -0.655650
     29          6           0        1.069637    3.673130   -0.142760
     30          1           0        1.047743    3.018085    2.543021
     31          1           0        1.259259    0.497514    0.818821
     32          1           0        3.312430    2.737968    1.152013
     33          1           0        2.932050    3.298928   -1.164560
     34          1           0        1.580484    4.464553    0.443485
     35          8           0        1.551182    1.807819   -1.609820
     36          8           0        2.363482    0.767696    2.560307
     37          8           0       -0.448387    1.701942    2.463197
     38          6           0        0.271667    4.363296   -1.252428
     39          1           0       -0.403849    5.104939   -0.805840
     40          1           0        0.964398    4.892570   -1.928149
     41          8           0       -0.557901    3.453718   -1.992001
     42          1           0        0.055169    2.752245   -2.304529
     43          1           0        2.224199    1.104197   -1.806706
     44          1           0        1.727601    0.115272    2.925966
     45          8           0       -3.423448    0.109443    0.961686
     46          6           0       -3.424727   -1.191220    1.557409
     47          6           0       -1.993837   -1.680755    1.810144
     48          6           0       -1.142836   -0.609109    2.499807
     49          6           0       -1.179479    0.707384    1.723953
     50          6           0       -2.643984    1.161017    1.561501
     51          1           0       -4.018278   -1.169179    2.499327
     52          1           0       -1.540824   -1.897827    0.828672
     53          1           0       -1.532845   -0.414188    3.520127
     54          1           0       -3.046748    1.428993    2.557994
     55          1           0       -0.748852    0.565566    0.720347
     56          8           0        0.208208   -1.077373    2.589147
     57          8           0       -1.922031   -2.916305    2.518131
     58          8           0       -4.011306   -2.052177    0.623036
     59          6           0       -2.850345    2.353859    0.627170
     60          1           0       -3.916911    2.626562    0.662074
     61          1           0       -2.253113    3.202541    0.981625
     62          8           0       -2.511614    2.023816   -0.726625
     63          1           0       -1.777730    2.608968   -1.063922
     64          1           0        0.161222   -2.006616    2.888716
     65          1           0       -2.471678   -2.858219    3.322603
     66          6           0       -5.459714   -1.928346    0.483832
     67          1           0       -5.821210   -2.958402    0.348366
     68          1           0       -5.873585   -1.540866    1.428509
     69          6           0       -5.862880   -1.039780   -0.688978
     70          1           0       -5.419489   -0.044369   -0.540005
     71          1           0       -6.952049   -0.891834   -0.623263
     72          6           0       -5.501191   -1.607536   -2.087014
     73          1           0       -4.868340   -2.505404   -1.978112
     74          1           0       -6.419707   -1.969233   -2.568507
     75          6           0       -4.807477   -0.609334   -3.042243
     76          1           0       -5.151094   -0.777359   -4.073526
     77          1           0       -5.100547    0.423390   -2.793647
     78          6           0       -3.284779   -0.722153   -3.085161
     79          1           0       -2.848247    0.026831   -3.759415
     80          1           0       -2.983033   -1.716271   -3.445257
     81          7           0       -2.650649   -0.530407   -1.741860
     82          1           0       -2.729216    0.463013   -1.376640
     83          1           0       -1.622951   -0.743020   -1.751230
     84          1           0       -3.094656   -1.135745   -1.028216
 ---------------------------------------------------------------------
 Rotational constants (GHZ):      0.1279876      0.0664968      0.0591589
 Leave Link  202 at Mon May  2 23:14:50 2016, MaxMem= 10737418240 cpu:         1.1
 (Enter /share/apps//g09/l301.exe)
 Standard basis: 6-311+G(d,p) (5D, 7F)
 Ernie: Thresh=  0.10000D-02 Tol=  0.10000D-05 Strict=F.
 There are  1184 symmetry adapted cartesian basis functions of A   symmetry.
 There are  1144 symmetry adapted basis functions of A   symmetry.
  1144 basis functions,  1792 primitive gaussians,  1184 cartesian basis functions
   158 alpha electrons      158 beta electrons
       nuclear repulsion energy      5969.1187513203 Hartrees.
 IExCor= 1009 DFT=T Ex+Corr=PBE1PBE ExCW=0 ScaHFX=  0.250000
 ScaDFX=  0.750000  0.750000  1.000000  1.000000 ScalE2=  1.000000  1.000000
 IRadAn=      0 IRanWt=     -1 IRanGd=            0 ICorTp=0 IEmpDi=131
 NAtoms=   84 NActive=   84 NUniq=   84 SFac= 1.00D+00 NAtFMM=   60 NAOKFM=T Big=T
 Integral buffers will be    131072 words long.
 Raffenetti 2 integral format.
 Two-electron integral symmetry is turned on.
 R6Disp:  Grimme-D3 Dispersion energy=       -0.0873741227 Hartrees.
 Nuclear repulsion after empirical dispersion term =     5969.0313771976 Hartrees.
 Leave Link  301 at Mon May  2 23:14:50 2016, MaxMem= 10737418240 cpu:         1.7
 (Enter /share/apps//g09/l302.exe)
 NPDir=0 NMtPBC=     1 NCelOv=     1 NCel=       1 NClECP=     1 NCelD=      1
         NCelK=      1 NCelE2=     1 NClLst=     1 CellRange=     0.0.
 One-electron integrals computed using PRISM.
 NBasis=  1144 RedAO= T EigKep=  1.22D-06  NBF=  1144
 NBsUse=  1144 1.00D-06 EigRej= -1.00D+00 NBFU=  1144
 Precomputing XC quadrature grid using
 IXCGrd= 4 IRadAn=           0 IRanWt=          -1 IRanGd=           0 AccXCQ= 0.00D+00.
[...]
 0005724,0.00010660,-0.00010988,-0.00017154,0.00005215,-0.00009033,0.00
 006849,0.00012516,-0.00027314,0.00016989,-0.00009464,-0.00002445,0.000
 04644,-0.00009620,-0.00304026,0.00030715,-0.00010274,-0.00022165,0.000
 68506,-0.00102056,0.00043429,0.00034877,0.00026222,-0.00022410,0.00036
 774,-0.00006559,-0.00004711,-0.00001959,-0.00004024,0.00010916,-0.0000
 0639,-0.00097442,0.00043324,0.00014671,0.00086864,0.00041880,0.0001380
 6,-0.00020691,0.00124089,0.00037280,0.00022669,-0.00005204,-0.00027513
 ,-0.00067006,0.00085993,-0.00159421,0.00132325,-0.00027746,0.00219980,
 0.00021581,0.00012307,-0.00021000,0.00094818,0.00005171,-0.00014245,0.
 00054847,-0.00038662,-0.00043866,0.00087186,-0.00132483,0.00067811,-0.
 00013118,0.00003009,-0.00035073,0.00058209,-0.00024122,-0.00025544,-0.
 00012575,0.00002781,0.00016346,-0.00022517,0.00009696,-0.00018672,0.00
 042289,0.00044399,-0.00025898,-0.00120387,-0.00011626,0.00066146,-0.00
 069861,0.00011113,-0.00010490,-0.00052549,-0.00036455,-0.00239251,-0.0
 0036473,0.00040979,0.00157751,-0.00001921,-0.00007895,-0.00019801,0.00
 018243,0.00013430,-0.00035511,-0.00042117,0.00349132,-0.00193834,0.001
 17451,-0.00077114,-0.00090223,0.00018479,-0.00007753,-0.00031765,0.000
 21019,-0.00005807,0.00013357,-0.00006396,0.00036589,0.00034158,-0.0000
 4641,-0.00005413,0.00001565,0.00003872,0.00002664,-0.00019834,-0.00006
 384,0.00000317,0.00011641,-0.00019333,-0.00025704,0.00023530,0.0001461
 8,-0.00015065,-0.00015274,0.00010637,0.00011247,0.00015388,-0.00000558
 ,0.00035362,-0.00003786,0.00028367,-0.00006228,-0.00009734,0.00048339,
 -0.00026936,0.00031080,0.00058573,-0.00027166,0.00026479,0.00006358,0.
 00001603,-0.00017786,-0.00826978,0.00200748,-0.00665024,0.00048078,-0.
 00041285,0.00071742,0.00123243,-0.00039893,0.00134186,-0.34414808,0.01
 457624,0.03506076,-0.00915408,-0.00572603,0.00428173,0.35372645,-0.000
 02790,-0.00012354,-0.00012732,0.00013306,-0.00005754,0.00010657,0.0000
 4221,-0.00003605,-0.00000439,0.00007353,-0.00009950,-0.00007578,-0.000
 16982,0.00038252,0.00027554,-0.00077180,-0.00083796,-0.00060644,-0.000
 00249,-0.00000284,0.00001227,-0.00001579,0.00000014,-0.00000218,0.0000
 0496,-0.00000778,-0.00000440,-0.00003298,-0.00003080,0.00000565,0.0000
 4649,0.00001530,0.00000940,-0.00003609,-0.00011409,-0.00008470,-0.0001
 8987,-0.00002683,-0.00000292,-0.00007502,0.00003111,0.00001441,-0.0000
 7256,0.00000013,-0.00002577,-0.00060845,0.00349726,0.00150372,-0.00043
 518,-0.00047952,0.00001552,-0.00037365,-0.00021217,-0.00015327,-0.0032
 5814,-0.01088596,-0.00207421,0.00397526,-0.00030481,0.00007200,-0.0000
 0730,0.00003835,0.00003361,0.00000906,0.00000431,-0.00001353,0.0000428
 8,-0.00000777,0.00000398,-0.00002992,0.00008060,-0.00020185,0.00001197
 ,0.00004929,0.00027284,0.00008590,-0.00005900,0.00015347,0.00005053,0.
 00005856,-0.00001402,0.00005620,-0.00029024,0.00024744,-0.00002325,-0.
 00004096,0.00000359,-0.00000699,0.00000371,-0.00002872,0.00002502,0.00
 004317,0.00001991,-0.00001985,0.00000188,-0.00001201,-0.00002970,0.000
 06860,-0.00003930,-0.00000770,0.00001987,-0.00002533,-0.00030271,0.000
 39492,-0.00017074,-0.00006577,-0.00005613,-0.00018786,0.00013142,-0.00
 010918,-0.00029764,0.00011865,-0.00021697,0.00013073,-0.00000522,0.000
 03600,-0.00002596,-0.00003845,0.00003456,-0.00000967,-0.00000375,0.000
 41674,-0.00013874,0.00009073,-0.00043158,-0.00011796,0.00015044,0.0000
 4259,-0.00001655,-0.00004420,0.00008353,0.00005767,0.00016224,-0.00050
 694,0.00021548,0.00010427,0.00039233,-0.00009437,0.00021194,0.00004421
 ,-0.00060891,-0.00019650,0.00021748,0.00009668,-0.00023226,0.00007379,
 0.00057579,-0.00029192,0.00038379,-0.00008582,-0.00006607,-0.00002907,
 0.00003387,-0.00033060,0.00010597,-0.00012912,0.00003872,-0.00013239,-
 0.00002420,0.00008054,-0.00006177,-0.00001103,0.00026866,-0.00018387,0
 .00024852,0.00018299,-0.00015414,-0.00006227,0.00006989,-0.00008528,0.
 00023747,-0.00021594,-0.00036057,-0.00012844,0.00004697,-0.00000839,0.
 00049461,0.00007456,0.00005838,-0.00014361,-0.00000943,-0.00001415,-0.
 00001169,0.00179322,-0.00082970,-0.00070013,-0.00043233,-0.00058680,0.
 00050126,-0.00007547,0.00007528,-0.00001243,-0.00002293,0.00002794,0.0
 0000298,-0.00004912,0.00002917,0.00010898,0.00002770,0.00000644,0.0000
 0273,-0.00004412,-0.00000057,0.00002660,-0.00007541,-0.00012727,0.0001
 4388,0.00006449,0.00003070,-0.00006141,-0.00001561,0.00002340,0.000009
 11,-0.00004957,0.00029299,0.00014047,-0.00005520,0.00003399,-0.0000544
 1,-0.00001208,0.00003002,0.00007419,0.00055062,-0.00051586,0.00156484,
 0.00051588,0.00022965,-0.00003532,0.00016799,0.00006563,0.00010583,0.0
 0972597,-0.00189661,-0.00075472,-0.00081032,0.00006551,-0.00054938,0.0
 0054794,-0.00027789,-0.00001636,0.00978054,-0.06296140,-0.00317127,-0.
 03471890,0.00659586,0.00253422,-0.01133326,0.06947184,-0.00006900,0.00
 004866,-0.00011716,0.00005408,-0.00007095,0.00012726,-0.00001355,0.000
 00189,-0.00000107,0.00002410,0.00001286,0.00002556,0.00007277,-0.00004
 093,0.00003415,0.00023625,0.00008198,0.00011175,-0.00001586,-0.0000111
 3,0.00000065,-0.00000622,-0.00000257,-0.00000584,0.00000714,-0.0000021
 3,-0.00000985,0.00000636,0.00001253,-0.00001486,0.00006794,0.00001401,
 -0.00005185,-0.00003319,-0.00002128,-0.00008910,-0.00000244,0.00000182
 ,-0.00002693,0.00000783,-0.00000103,-0.00002627,0.00005656,0.00005830,
 -0.00009204,-0.00049219,0.00084312,-0.00126965,0.00000350,-0.00002656,
 0.00028156,-0.00059859,-0.00020041,-0.00014680,0.00095724,-0.00172327,
 -0.00377902,-0.00009850,0.00016729,-0.00006621,-0.00000666,-0.00000057
 ,0.00001896,0.00000287,-0.00000151,0.00001036,-0.00000397,-0.00000014,
 0.00001128,0.00003624,-0.00022253,-0.00026146,-0.00022160,0.00034475,0
 .00030310,0.00000172,0.00003013,-0.00005530,-0.00005917,0.00002549,0.0
 0009341,0.00003486,-0.00015040,0.00013517,-0.00011283,0.00013789,0.000
 15143,0.00002441,-0.00003839,-0.00002333,-0.00004736,-0.00001190,0.000
 06651,-0.00000200,-0.00000773,-0.00001941,-0.00000304,0.00002197,-0.00
 003078,0.00001781,-0.00001776,-0.00002517,-0.00006227,0.00019098,-0.00
 026243,0.00007746,-0.00007029,-0.00006657,0.00019656,-0.00048840,0.000
 21882,0.00009619,-0.00010620,0.00007774,-0.00000436,0.00002860,-0.0000
 1089,-0.00001555,0.00000517,-0.00001537,-0.00004323,0.00014457,-0.0002
 3423,0.00007991,-0.00022024,0.00014289,0.00006469,-0.00001918,0.000085
 19,-0.00010153,0.00008143,0.00001528,-0.00076724,0.00014080,-0.0000688
 6,0.00072865,-0.00045422,0.00009045,0.00043920,-0.00008611,-0.00119319
 ,-0.00043003,0.00001387,0.00001999,0.00026346,0.00027668,-0.00079881,0
 .00021035,0.00016724,-0.00027275,-0.00011843,0.00006105,-0.00000593,-0
 .00046721,-0.00043843,0.00001193,0.00008007,-0.00003852,0.00010916,-0.
 00006912,0.00000526,0.00003803,-0.00035260,0.00035791,0.00004824,0.000
 27032,-0.00004065,0.00005017,-0.00011930,0.00028150,0.00053342,-0.0005
 6115,-0.00014157,-0.00090118,0.00005717,0.00012807,0.00009965,-0.00003
 179,-0.00003279,-0.00000675,-0.00000028,0.00000387,-0.00002085,-0.0004
 9875,-0.00013148,-0.00034566,-0.00009774,0.00016922,0.00023966,-0.0000
 9402,-0.00000432,-0.00003080,0.00007677,0.00000434,0.00005169,0.000072
 59,0.00003517,0.00029989,-0.00005000,-0.00001024,-0.00002057,-0.000010
 82,0.00001379,-0.00000983,0.00014448,0.00026217,0.00002020,-0.00003367
 ,-0.00022075,0.00010701,0.00001534,-0.00013200,-0.00006687,0.00041751,
 -0.00009872,-0.00014541,0.00006382,0.00015799,0.00011116,0.00007569,-0
 .00001829,0.00004729,-0.00099414,0.00160550,-0.00694086,-0.00187781,0.
 00038363,0.00030659,0.00028758,-0.00017617,-0.00003894,-0.03257762,0.0
 0123363,0.00703124,-0.00029895,-0.00086263,-0.00002846,0.00027045,0.00
 061631,0.00102844,0.03511090,-0.00392906,-0.06731816,0.01034818,-0.002
 43914,-0.00123212,-0.03716995,0.00209876,0.07476670,0.00016620,-0.0001
 7939,0.00004122,-0.00008499,0.00010437,-0.00009592,-0.00002438,0.00002
 799,0.00001666,-0.00005555,-0.00000273,0.00001156,-0.00004463,-0.00002
 953,-0.00000076,-0.00018696,0.00002945,0.00000328,0.00000434,0.0000023
 4,-0.00000361,0.00000827,0.00000028,-0.00000048,0.00000019,0.00000202,
 0.00000361,-0.00000752,-0.00000326,0.00000277,0.00001223,-0.00000736,-
 0.00000314,0.00007276,-0.00000427,0.00002011,0.00007397,0.00001302,0.0
 0000350,0.00004711,-0.00004050,-0.00001504,0.00000295,-0.00008462,0.00
 001829,-0.00044123,0.00033143,-0.00009273,-0.00008805,-0.00011412,0.00
 007915,-0.00009294,-0.00001233,-0.00003490,-0.00087957,-0.00127443,-0.
 00089051,0.00024501,0.00026608,-0.00001925,-0.00001901,-0.00000272,-0.
 00001529,-0.00001566,-0.00000283,0.00000207,-0.00001814,0.00001054,-0.
 00000057,-0.00002692,-0.00006561,-0.00001878,-0.00000469,0.00006553,0.
 00000731,-0.00002763,0.00005142,-0.00004497,0.00001647,0.00001680,0.00
 000458,-0.00001461,0.00005175,-0.00003901,-0.00000067,0.00002365,0.000
 00795,0.00000075,-0.00001247,0.00000118,-0.00000258,-0.00000586,0.0000
 1457,0.00000391,-0.00000964,0.00000272,0.00000672,-0.00001299,0.000001
 21,0.00000411,-0.00000683,0.00000577,-0.00001138,-0.00013574,0.0000054
 0,0.00001839,-0.00005289,0.00002981,-0.00014357,-0.00011892,0.00011132
 ,0.00000958,0.00003906,-0.00001161,-0.00000499,-0.00000399,0.00000485,
 0.00000559,-0.00000402,-0.00000154,-0.00000963,-0.00006965,0.00000530,
 0.00001489,0.00002249,0.00000131,0.00000649,0.00006750,0.00002256,-0.0
 0003133,0.00005241,-0.00001697,-0.00143267,0.00096276,0.00058997,0.002
 92872,-0.00178949,0.00064256,0.00097661,-0.00006554,-0.00209640,-0.000
 37578,0.00012503,0.00028573,0.00025553,0.00027652,-0.00034757,0.000303
 45,-0.00045727,-0.00028058,-0.00026333,0.00024369,-0.00020716,-0.00138
 639,-0.00018240,0.00009702,0.00009576,-0.00016107,0.00015637,-0.000073
 52,0.00010971,-0.00001340,-0.00006080,0.00009535,0.00017508,-0.0000417
 3,-0.00006686,0.00010415,-0.00043115,0.00030594,0.00069746,-0.00328478
 ,-0.00027044,-0.00344948,0.00020901,-0.00016198,-0.00036036,-0.0000818
 8,-0.00006618,0.00004612,-0.00001578,0.00002231,0.00013606,-0.00036912
 ,-0.00072605,0.00101632,-0.00001515,0.00000281,-0.00002393,-0.00005641
 ,0.00002125,-0.00009964,0.00021666,0.00000489,0.00015426,-0.00120479,0
 .00122946,0.00244817,-0.00009320,-0.00008281,-0.00004171,-0.00015873,0
 .00006284,-0.00017698,-0.00147852,0.00078155,0.00108870,-0.00088497,-0
 .00083590,0.00039432,0.00025985,-0.00048762,-0.00016512,-0.00067423,-0
 .00008326,-0.00059907,0.00036190,0.00105072,-0.00006182,0.00048219,0.0
 0005391,0.00022185,0.00036067,-0.00106859,-0.00117750,0.00011208,0.000
 03946,0.00037307,-0.00024630,0.00001894,0.00002255,0.00466631,-0.01448
 829,-0.01283161,-0.00173127,0.00156357,-0.00367069,0.00012983,0.000236
 42,0.00079727,-0.07411425,0.04512299,0.04722836,0.00249714,-0.00667843
 ,-0.01104532,-0.00201281,0.02622817,0.02757471,0.07814853,-0.00009952,
 -0.00005196,-0.00005158,0.00007209,0.00000418,0.00006143,0.00002169,-0
 .00000758,0.00000088,0.00004172,0.00000025,-0.00001359,-0.00001188,0.0
 0009991,0.00007800,-0.00008843,-0.00008580,-0.00006249,0.00000234,0.00
 000463,0.00000096,-0.00000937,-0.00000042,-0.00000310,0.00000489,-0.00
 000412,-0.00000495,-0.00000748,-0.00000651,0.00000087,0.00002219,0.000
 00570,-0.00001140,-0.00002702,-0.00007355,-0.00006663,-0.00007018,-0.0
 0002864,-0.00000853,-0.00004094,0.00000175,0.00000180,-0.00006734,-0.0
 0003004,-0.00000107,0.00038991,0.00065097,0.00016915,-0.00004691,-0.00
 006328,0.00005477,-0.00009324,-0.00002974,-0.00003206,-0.00138545,-0.0
 0017832,-0.00016163,0.00004034,-0.00016838,-0.00005660,-0.00000631,0.0
 0002580,0.00001560,0.00000807,0.00000455,-0.00000316,0.00002519,-0.000
 00122,0.00000222,-0.00008646,0.00004469,-0.00003658,0.00008998,-0.0000
 6532,0.00004280,0.00005519,0.00000235,0.00010803,0.00004716,0.00001423
 ,-0.00001925,0.00003096,-0.00007598,0.00006850,0.00002223,-0.00003481,
 -0.00003977,-0.00001272,0.00001734,-0.00000213,0.00000613,0.00002753,-
 0.00000173,-0.00000770,0.00000204,-0.00000080,-0.00001131,0.00001784,-
 0.00000556,-0.00001169,0.00001410,-0.00001033,-0.00009978,0.00012349,-
 0.00003909,-0.00006090,-0.00006181,-0.00010739,-0.00015827,0.00003766,
 -0.00018705,0.00005525,-0.00011656,0.00006051,-0.00000030,0.,-0.000011
 90,-0.00001970,0.00001865,0.00000154,-0.00011488,0.00017647,0.00004407
 ,0.00003847,-0.00004212,-0.00000116,0.00006952,0.00000476,-0.00000631,
 -0.00001791,0.00007892,0.00003397,0.00048928,-0.00135131,-0.00313278,-
 0.00232899,0.00846644,0.00014340,-0.00011601,-0.00015276,0.00016710,0.
 00007630,0.00031161,0.00018424,0.00013881,0.00013157,0.00043097,0.0002
 6565,-0.00151577,0.00001848,0.00007751,-0.00121159,0.00031935,-0.00003
 138,0.00048594,-0.00014720,0.00001405,-0.00005729,-0.00006089,-0.00011
 270,0.00033923,-0.00029339,0.00012503,-0.00010922,-0.00014162,0.000142
 83,-0.00028338,-0.00005415,0.00014413,-0.00052446,-0.00010519,-0.00042
 829,-0.00160932,0.00545245,-0.00013229,-0.00061030,0.00042503,0.000013
 87,-0.00001116,-0.00002341,-0.00001370,0.00001884,-0.00000083,-0.00048
 164,0.00043751,0.00117709,0.00026979,-0.00002543,-0.00036037,-0.000090
 00,0.00008372,-0.00001916,-0.00016327,0.00005459,-0.00010932,0.0034139
 5,-0.00078255,0.00050669,-0.00021831,-0.00004379,-0.00015538,-0.000728
 67,0.00002668,0.00023701,0.00073598,0.00099906,-0.00064051,-0.00035910
 ,-0.00050224,0.00038696,-0.00011951,-0.00042811,-0.00006404,0.00087266
 ,0.00253346,0.00012142,-0.00031549,-0.00216014,0.00028273,-0.00067273,
 -0.00056598,-0.00008388,-0.00008487,0.00033355,0.00019819,0.00014433,-
 0.00020191,-0.00014082,-0.00009218,-0.00021984,-0.00022872,-0.00562585
 ,0.01204834,0.00727937,0.00183265,-0.00046903,0.00315378,-0.00030206,0
 .00001344,0.00068816,0.04515084,-0.20322197,-0.15903821,0.00846931,-0.
 01986866,-0.02472642,0.00135993,-0.00039359,0.00244037,-0.04980752,0.2
 0978417,-0.00025504,0.00016787,-0.00019537,0.00015030,-0.00018270,0.00
 029903,-0.00000215,-0.00001729,-0.00000857,0.00006706,-0.00004428,-0.0
 0002615,0.00000369,0.00015195,0.00020803,-0.00006329,-0.00024856,-0.00
 015218,-0.00001833,-0.00001362,0.00000811,-0.00002470,-0.00000135,-0.0
 0000753,0.00001109,-0.00000756,-0.00001406,0.00000478,0.00001021,-0.00
 001826,0.00005765,0.00000262,-0.00004514,-0.00006377,-0.00005736,-0.00
 019686,-0.00009995,-0.00000049,-0.00003462,-0.00002574,0.00002743,-0.0
 0002128,0.00005758,0.00011955,-0.00014604,0.00062435,0.00071088,0.0005
 2338,0.00003734,-0.00000302,0.00007045,-0.00022174,-0.00001326,-0.0000
 3966,-0.00211109,-0.00001803,-0.00072924,0.00008477,-0.00037408,0.0001
 1468,-0.00000523,0.00001228,0.00004526,0.00000591,-0.00000470,0.000006
 35,0.00000880,-0.00000556,0.00001488,-0.00003253,-0.00022759,-0.000482
 28,-0.00025967,0.00049857,0.00070255,0.00010714,-0.00004543,0.00006543
 ,-0.00006695,0.00002747,0.00011392,0.00009832,-0.00022032,0.00020991,-
 0.00012096,0.00013170,0.00016080,0.00003583,-0.00005111,-0.00006203,-0
 .00003440,0.00001690,0.00006285,-0.00000448,0.00000149,-0.00002070,-0.
 00001375,0.00004280,-0.00004804,0.00000731,-0.00000843,-0.00003336,-0.
 00016018,0.00036594,-0.00021851,0.00006018,-0.00013807,-0.00024015,0.0
 0069737,-0.00081491,-0.00026161,0.00014734,-0.00024460,0.00017424,0.00
 000199,0.00002869,-0.00001251,-0.00004124,0.00003289,-0.00002824,-0.00
 016847,0.00037446,-0.00015514,0.00011589,-0.00019060,0.00002798,0.0000
 7175,-0.00006714,0.00001498,-0.00019173,0.00019823,0.00007269,0.000962
 85,-0.00306780,-0.00248419,-0.00223271,0.00389010,-0.00878866,-0.00060
 406,-0.00036052,-0.00047877,-0.00047456,0.00039739,-0.00002966,-0.0004
 3727,0.00033513,0.00024164,-0.00113278,0.00228792,-0.00020662,-0.00004
 535,-0.00060984,0.00078761,-0.00083593,-0.00010687,0.00011784,0.000051
 91,-0.00008917,-0.00005527,0.00020691,-0.00046889,0.00016141,0.0001306
 1,-0.00003418,0.00015113,0.00087392,-0.00032976,-0.00005221,0.00076856
 ,0.00008460,0.00050095,-0.00308917,0.00361634,0.00560865,-0.00011232,0
 .00044585,0.00191149,0.00010907,0.00004724,-0.00017081,0.00001171,-0.0
 0007904,-0.00046468,0.00063254,0.00212815,-0.00308377,-0.00001304,-0.0
 0021549,-0.00000180,-0.00023681,0.00006041,0.00000113,-0.00023903,-0.0
 0001001,-0.00022494,0.00626897,-0.00140332,0.00093068,-0.00056610,0.00
 021562,-0.00005102,-0.00099778,0.00003546,0.00000968,-0.00007760,-0.00
 024383,0.00045830,0.00058006,0.00031933,0.00011395,-0.00019324,0.00000
 766,-0.00049917,-0.00133603,-0.00022616,0.00078519,0.00037070,0.000594
 52,0.00040886,0.00048442,0.00014649,-0.00016468,-0.00002768,-0.0008084
 2,0.00172366,0.00091429,-0.00015698,-0.00011746,0.00002910,0.00009413,
 -0.00007367,0.00218823,-0.01700974,-0.02440149,-0.00167646,0.00254424,
 -0.00238133,0.00083922,0.00001998,0.00046070,0.04733894,-0.16022293,-0
 .23036263,-0.00396723,0.00317474,0.01276855,0.00378687,-0.00103844,-0.
 00077438,-0.04672476,0.16611425,0.24802780\\0.00000944,-0.00000155,0.0
 0000928,-0.00001964,-0.00002316,-0.00001633,-0.00000207,-0.00000357,-0
 .00000424,-0.00001089,-0.00001373,-0.00001529,-0.00000207,0.00000106,0
 .00000750,0.00000037,-0.00000710,0.00000181,-0.00000067,0.00000101,0.0
 0000986,0.00000309,-0.00000005,0.00000024,0.00000125,-0.00000355,-0.00
 000658,-0.00000307,-0.00000053,-0.00000831,-0.00000449,-0.00000506,-0.
 00000542,0.00000217,0.00000029,-0.00001597,0.00000673,0.00001270,-0.00
 000926,-0.00001033,-0.00000411,-0.00000052,-0.00001057,0.00002192,0.00
 000554,-0.00000073,-0.00000778,0.00000080,0.00000183,0.00000138,-0.000
 00583,-0.00000384,0.00000363,-0.00000296,0.00003229,-0.00002094,-0.000
 00975,-0.00000319,0.00001393,0.00000172,-0.00000330,-0.00000392,-0.000
 00812,0.00000079,-0.00001191,-0.00000169,0.00000516,-0.00000270,-0.000
 00706,0.00001051,0.00000306,0.00001788,-0.00003456,0.00000874,-0.00000
 848,0.00001017,0.00000936,0.00001085,0.00001322,-0.00000142,-0.0000049
 1,-0.00001044,0.00001340,-0.00001297,-0.00000835,0.00000783,0.00001417
 ,0.00000678,0.00000023,0.00001251,0.00000283,0.00000561,-0.00000602,0.
 00000808,0.00000055,0.00000280,-0.00000341,-0.00000942,0.00000474,0.00
 000070,-0.00000549,0.00001017,0.00002305,-0.00000134,0.00000009,-0.000
 01077,0.00001108,-0.00000145,0.00000998,-0.00000701,-0.00001489,-0.000
 00785,-0.00000081,-0.00001261,-0.00000065,-0.00000116,0.00001193,-0.00
 000538,0.00000008,0.00000648,0.00002293,0.00001243,0.00001305,-0.00001
 537,-0.00001148,0.00000668,-0.00002422,-0.00000994,-0.00000105,0.00001
 139,-0.00000556,-0.00000616,0.00002062,0.00000947,-0.00001296,-0.00001
 527,0.00002408,-0.00001941,-0.00000343,-0.00000396,0.00000808,0.000011
 30,0.00000930,-0.00000462,0.00000843,0.00000088,0.00000706,-0.00001271
 ,0.00000113,0.00000341,0.00000543,0.00000325,0.00000934,0.00000380,0.0
 0000416,-0.00000559,-0.00000036,-0.00000051,0.00000463,0.00000240,0.00
 000524,0.00000878,0.00000327,-0.00000070,-0.00000688,-0.00000412,-0.00
 000009,-0.00000360,0.00000535,-0.00000323,-0.00000278,-0.00000572,-0.0
 0000717,0.00002145,0.00000165,0.00000565,0.00001419,0.00000196,0.00000
 382,0.00000259,0.00000107,-0.00000379,0.00000408,0.00001343,-0.0000206
 9,-0.00000767,-0.00000855,0.00001063,0.00001035,0.00000198,0.00000319,
 -0.00000932,0.00000472,0.00000666,-0.00000452,-0.00000642,0.00000688,-
 0.00000207,0.00000481,0.00000321,0.00000232,0.00000062,-0.00000472,-0.
 00000101,0.00001892,0.00000966,0.00000899,0.00000266,-0.00000385,0.000
 00118,-0.00000123,0.00000422,0.00000768,-0.00000977,-0.00000140,0.0000
 0075,0.00000111,-0.00000198,-0.00000033,0.00000028,-0.00000285,-0.0000
 0121,0.00000361,0.00000065,-0.00000391,-0.00000305,-0.00000285,0.00000
 171,-0.00000400,-0.00000483,0.00000314,0.00000621,-0.00000798,0.000009
 62,-0.00000463,-0.00000206,-0.00000067,-0.00000110,0.00000016,-0.00000
 276,-0.00000912,0.00000647,0.00001164,-0.00000303,-0.00000164,-0.00000
 008,-0.00003987,-0.00000411,-0.00001422,0.00002187,-0.00000531,0.00000
 041\\\@


 JUST WHEN YOU THINK YOU'VE GOT THE WORLD ON A STRING,
 YOU FIND OUT IT'S YOUR LEASH.
 Job cpu time:      20 days 11 hours 21 minutes 38.5 seconds.
 File lengths (MBytes):  RWF=  17380 Int=      0 D2E=      0 Chk=     99 Scr=      1
 Normal termination of Gaussian 09 at Wed May  4 19:54:32 2016.
