 Entering Gaussian System, Link 0=g09
 Initial command:
 /share/apps//g09/l1.exe "/scratch/Gau-25647.inp" -scrdir="/scratch/"
 Entering Link 1 = /share/apps//g09/l1.exe PID=     25648.
  
 Copyright (c) 1988,1990,1992,1993,1995,1998,2003,2009,2013,
            Gaussian, Inc.  All Rights Reserved.
  
 This is part of the Gaussian(R) 09 program.  It is based on
 the Gaussian(R) 03 system (copyright 2003, Gaussian, Inc.),
 the Gaussian(R) 98 system (copyright 1998, Gaussian, Inc.),
 the Gaussian(R) 94 system (copyright 1995, Gaussian, Inc.),
 the Gaussian 92(TM) system (copyright 1992, Gaussian, Inc.),
 the Gaussian 90(TM) system (copyright 1990, Gaussian, Inc.),
 the Gaussian 88(TM) system (copyright 1988, Gaussian, Inc.),
 the Gaussian 86(TM) system (copyright 1986, Carnegie Mellon
 University), and the Gaussian 82(TM) system (copyright 1983,
 Carnegie Mellon University). Gaussian is a federally registered
 trademark of Gaussian, Inc.
  
 This software contains proprietary and confidential information,
 including trade secrets, belonging to Gaussian, Inc.
  
 This software is provided under written license and may be
 used, copied, transmitted, or stored only in accord with that
 written license.
  
 The following legend is applicable only to US Government
 contracts under FAR:
  
                    RESTRICTED RIGHTS LEGEND
  
 Use, reproduction and disclosure by the US Government is
 subject to restrictions as set forth in subparagraphs (a)
 and (c) of the Commercial Computer Software - Restricted
 Rights clause in FAR 52.227-19.
  
 Gaussian, Inc.
 340 Quinnipiac St., Bldg. 40, Wallingford CT 06492
  
  
 ---------------------------------------------------------------
 Warning -- This program may not be used in any manner that
 competes with the business of Gaussian, Inc. or will provide
 assistance to any competitor of Gaussian, Inc.  The licensee
 of this program is prohibited from giving any competitor of
 Gaussian, Inc. access to this program.  By using this program,
 the user acknowledges that Gaussian, Inc. is engaged in the
 business of creating and licensing software in the field of
 computational chemistry and represents and warrants to the
 licensee that it is not a competitor of Gaussian, Inc. and that
 it will not use this program in any manner prohibited above.
 ---------------------------------------------------------------
  

 Cite this work as:
 Gaussian 09, Revision D.01,
 M. J. Frisch, G. W. Trucks, H. B. Schlegel, G. E. Scuseria, 
 M. A. Robb, J. R. Cheeseman, G. Scalmani, V. Barone, B. Mennucci, 
 G. A. Petersson, H. Nakatsuji, M. Caricato, X. Li, H. P. Hratchian, 
 A. F. Izmaylov, J. Bloino, G. Zheng, J. L. Sonnenberg, M. Hada, 
 M. Ehara, K. Toyota, R. Fukuda, J. Hasegawa, M. Ishida, T. Nakajima, 
 Y. Honda, O. Kitao, H. Nakai, T. Vreven, J. A. Montgomery, Jr., 
 J. E. Peralta, F. Ogliaro, M. Bearpark, J. J. Heyd, E. Brothers, 
 K. N. Kudin, V. N. Staroverov, T. Keith, R. Kobayashi, J. Normand, 
 K. Raghavachari, A. Rendell, J. C. Burant, S. S. Iyengar, J. Tomasi, 
 M. Cossi, N. Rega, J. M. Millam, M. Klene, J. E. Knox, J. B. Cross, 
 V. Bakken, C. Adamo, J. Jaramillo, R. Gomperts, R. E. Stratmann, 
 O. Yazyev, A. J. Austin, R. Cammi, C. Pomelli, J. W. Ochterski, 
 R. L. Martin, K. Morokuma, V. G. Zakrzewski, G. A. Voth, 
 P. Salvador, J. J. Dannenberg, S. Dapprich, A. D. Daniels, 
 O. Farkas, J. B. Foresman, J. V. Ortiz, J. Cioslowski, 
 and D. J. Fox, Gaussian, Inc., Wallingford CT, 2013.
 
 ******************************************
 Gaussian 09:  EM64L-G09RevD.01 24-Apr-2013
                 6-Apr-2016 
 ******************************************
 %nproc=20
 Will use up to   20 processors via shared memory.
 %mem=80GB
 %chk=Tri_A131_of.chk
 ----------------------------------------------------------------------
 #P PBE1PBE/6-311+G(d,p) opt=ModRedundant freq optcyc=999 EmpiricalDisp
 ersion=GD3
 ----------------------------------------------------------------------
 1/6=999,14=-1,18=120,19=15,26=3,38=1/1,3;
 2/9=110,12=2,17=6,18=5,40=1/2;
 3/5=4,6=6,7=111,11=2,16=1,25=1,30=1,71=1,74=-13,124=31/1,2,3;
 4//1;
 5/5=2,38=5/2;
 6/7=2,8=2,9=2,10=2,28=1/1;
 7//1,2,3,16;
 1/6=999,14=-1,18=20,19=15,26=3/3(2);
 2/9=110/2;
 99//99;
 2/9=110/2;
 3/5=4,6=6,7=111,11=2,16=1,25=1,30=1,71=1,74=-13,124=31/1,2,3;
 4/5=5,16=3,69=1/1;
 5/5=2,38=5/2;
 7//1,2,3,16;
 1/6=999,14=-1,18=20,19=15,26=3/3(-5);
 2/9=110/2;
 6/7=2,8=2,9=2,10=2,19=2,28=1/1;
 99/9=1/99;
 Leave Link    1 at Wed Apr  6 16:51:47 2016, MaxMem= 10737418240 cpu:         1.6
 (Enter /share/apps//g09/l101.exe)
 -------
 disacch
 -------
 Symbolic Z-matrix:
 Charge =  1 Multiplicity = 1
 O                     0.76573  -6.54419   9.35205 
 C                    -0.34535  -5.69771   9.17398 
 C                    -0.54125  -4.82092   10.41237 
 C                     0.71663  -4.00457   10.72496 
 C                     1.90892  -4.95322   10.88332 
 C                     2.01015  -5.8458    9.63246 
 H                    -1.20089  -6.38035   9.03176 
 H                    -0.73978  -5.50411   11.25336 
 H                     0.91434  -3.29832   9.90249 
 H                     2.83978  -4.35279   10.93928 
 H                     2.25068  -5.18923   8.77554 
 O                     1.68598  -5.64369   12.11112 
 O                     0.48267  -3.21792   11.8945 
 O                    -1.67633  -3.93714   10.25053 
 O                    -0.20597  -4.81754   8.05635 
 C                     3.10821  -6.89466   9.6981 
 H                     3.04503  -7.52771   8.79734 
 H                     4.08089  -6.37266   9.69418 
 O                     2.95397  -7.68778   10.88818 
 H                     3.68317  -8.32709   10.94192 
 H                     2.17213  -6.49558   12.05955 
 H                     0.69456  -3.8012    12.6535 
 H                    -1.6522   -3.37714   11.05479 
 O                    -0.34196  -5.402     3.91099 
 C                     0.91096  -5.02213   4.47129 
 C                     0.7834   -4.50543   5.92122 
 C                    -0.03242  -5.46237   6.78157 
 C                    -1.38153  -5.76567   6.11591 
 C                    -1.15556  -6.28807   4.68543 
 H                     1.6297   -5.86263   4.4502 
 H                     0.24453  -3.54266   5.89552 
 H                     0.52662  -6.40435   6.92195 
 H                    -1.90052  -6.55956   6.68509 
 H                    -0.68286  -7.28923   4.7556 
 O                    -2.19556  -4.579     6.11646 
 O                     2.0717   -4.33342   6.48929 
 O                     1.47312  -4.06168   3.60325 
 C                    -2.4611   -6.41867   3.89065 
 H                    -2.23551  -6.80401   2.88438 
 H                    -3.13298  -7.13225   4.38943 
 O                    -3.1575   -5.16556   3.80455 
 H                    -2.68971  -4.58988   3.13208 
 H                    -2.73214  -4.61241   5.25892 
 H                     2.42255  -3.51614   6.07627 
 O                     0.12736  -1.35203   1.50664 
 C                    -0.32357  -0.47656   2.49779 
 C                     0.66496  -0.36057   3.68553 
 C                     1.50981  -1.63559   3.83983 
 C                     0.69936  -2.86215   3.41845 
 C                     0.38995  -2.73304   1.90969 
 H                    -0.43014   0.50469   2.00386 
 H                     0.07681  -0.24105   4.60911 
 H                     2.39127  -1.57028   3.17351 
 H                     1.31084  -3.01121   1.37018 
 H                    -0.24154  -2.9243    3.98647 
 O                     1.95838  -1.77345   5.1998 
 O                     1.48446   0.80607   3.62766 
 O                    -1.61374  -0.9236    2.96803 
 C                    -0.72254  -3.64133   1.38823 
 H                    -0.83611  -3.44106   0.30988 
 H                    -0.4177   -4.68678   1.52392 
 O                    -1.98394  -3.48254   2.04925 
 H                    -2.10991  -2.5212    2.22427 
 H                     2.50558  -0.99072   5.39384 
 H                     2.00333   0.78111   2.8012 
 C                    -2.47619   0.11455   3.47761 
 H                    -1.92989   0.72768   4.21687 
 H                    -2.77472   0.77922   2.64844 
 C                    -3.69749  -0.55078   4.09775 
 H                    -4.19538  -1.15115   3.32013 
 H                    -4.41219   0.24243   4.37196 
 C                    -3.41026  -1.44595   5.31493 
 H                    -4.31583  -2.03776   5.52613 
 H                    -2.62614  -2.17061   5.04399 
 C                    -3.01631  -0.67381   6.58355 
 H                    -2.04434  -0.1654    6.45474 
 H                    -3.74771   0.13168   6.76113 
 C                    -2.97584  -1.50779   7.86303 
 H                    -3.92145  -2.04692   8.01629 
 H                    -2.81231  -0.86319   8.73738 
 N                    -1.89384  -2.54328   7.86292 
 H                    -2.04625  -3.3173    7.14688 
 H                    -1.80518  -3.03944   8.79492 
 H                    -0.9749   -2.12915   7.6655 
 
 The following ModRedundant input section has been read:
 B      35      82 B                                                           
 B      14      83 B                                                           
 B      42      62 B                                                           
 B      58      63 B                                                           
 B      11      36 B                                                           
 
 NAtoms=     84 NQM=       84 NQMF=       0 NMMI=      0 NMMIF=      0
                NMic=       0 NMicF=      0.
                    Isotopes and Nuclear Properties:
 (Nuclear quadrupole moments (NQMom) in fm**2, nuclear magnetic moments (NMagM)
  in nuclear magnetons)

  Atom         1           2           3           4           5           6           7           8           9          10
 IAtWgt=          16          12          12          12          12          12           1           1           1           1
 AtmWgt=  15.9949146  12.0000000  12.0000000  12.0000000  12.0000000  12.0000000   1.0078250   1.0078250   1.0078250   1.0078250
 NucSpn=           0           0           0           0           0           0           1           1           1           1
 AtZEff=   0.0000000   0.0000000   0.0000000   0.0000000   0.0000000   0.0000000   0.0000000   0.0000000   0.0000000   0.0000000
 NQMom=    0.0000000   0.0000000   0.0000000   0.0000000   0.0000000   0.0000000   0.0000000   0.0000000   0.0000000   0.0000000
 NMagM=    0.0000000   0.0000000   0.0000000   0.0000000   0.0000000   0.0000000   2.7928460   2.7928460   2.7928460   2.7928460
 AtZNuc=   8.0000000   6.0000000   6.0000000   6.0000000   6.0000000   6.0000000   1.0000000   1.0000000   1.0000000   1.0000000

  Atom        11          12          13          14          15          16          17          18          19          20
 IAtWgt=           1          16          16          16          16          12           1           1          16           1
 AtmWgt=   1.0078250  15.9949146  15.9949146  15.9949146  15.9949146  12.0000000   1.0078250   1.0078250  15.9949146   1.0078250
 NucSpn=           1           0           0           0           0           0           1           1           0           1
 AtZEff=   0.0000000   0.0000000   0.0000000   0.0000000   0.0000000   0.0000000   0.0000000   0.0000000   0.0000000   0.0000000
 NQMom=    0.0000000   0.0000000   0.0000000   0.0000000   0.0000000   0.0000000   0.0000000   0.0000000   0.0000000   0.0000000
 NMagM=    2.7928460   0.0000000   0.0000000   0.0000000   0.0000000   0.0000000   2.7928460   2.7928460   0.0000000   2.7928460
 AtZNuc=   1.0000000   8.0000000   8.0000000   8.0000000   8.0000000   6.0000000   1.0000000   1.0000000   8.0000000   1.0000000

  Atom        21          22          23          24          25          26          27          28          29          30
 IAtWgt=           1           1           1          16          12          12          12          12          12           1
 AtmWgt=   1.0078250   1.0078250   1.0078250  15.9949146  12.0000000  12.0000000  12.0000000  12.0000000  12.0000000   1.0078250
 NucSpn=           1           1           1           0           0           0           0           0           0           1
 AtZEff=   0.0000000   0.0000000   0.0000000   0.0000000   0.0000000   0.0000000   0.0000000   0.0000000   0.0000000   0.0000000
 NQMom=    0.0000000   0.0000000   0.0000000   0.0000000   0.0000000   0.0000000   0.0000000   0.0000000   0.0000000   0.0000000
 NMagM=    2.7928460   2.7928460   2.7928460   0.0000000   0.0000000   0.0000000   0.0000000   0.0000000   0.0000000   2.7928460
 AtZNuc=   1.0000000   1.0000000   1.0000000   8.0000000   6.0000000   6.0000000   6.0000000   6.0000000   6.0000000   1.0000000

  Atom        31          32          33          34          35          36          37          38          39          40
 IAtWgt=           1           1           1           1          16          16          16          12           1           1
 AtmWgt=   1.0078250   1.0078250   1.0078250   1.0078250  15.9949146  15.9949146  15.9949146  12.0000000   1.0078250   1.0078250
 NucSpn=           1           1           1           1           0           0           0           0           1           1
 AtZEff=   0.0000000   0.0000000   0.0000000   0.0000000   0.0000000   0.0000000   0.0000000   0.0000000   0.0000000   0.0000000
 NQMom=    0.0000000   0.0000000   0.0000000   0.0000000   0.0000000   0.0000000   0.0000000   0.0000000   0.0000000   0.0000000
 NMagM=    2.7928460   2.7928460   2.7928460   2.7928460   0.0000000   0.0000000   0.0000000   0.0000000   2.7928460   2.7928460
 AtZNuc=   1.0000000   1.0000000   1.0000000   1.0000000   8.0000000   8.0000000   8.0000000   6.0000000   1.0000000   1.0000000

  Atom        41          42          43          44          45          46          47          48          49          50
 IAtWgt=          16           1           1           1          16          12          12          12          12          12
 AtmWgt=  15.9949146   1.0078250   1.0078250   1.0078250  15.9949146  12.0000000  12.0000000  12.0000000  12.0000000  12.0000000
 NucSpn=           0           1           1           1           0           0           0           0           0           0
 AtZEff=   0.0000000   0.0000000   0.0000000   0.0000000   0.0000000   0.0000000   0.0000000   0.0000000   0.0000000   0.0000000
 NQMom=    0.0000000   0.0000000   0.0000000   0.0000000   0.0000000   0.0000000   0.0000000   0.0000000   0.0000000   0.0000000
 NMagM=    0.0000000   2.7928460   2.7928460   2.7928460   0.0000000   0.0000000   0.0000000   0.0000000   0.0000000   0.0000000
 AtZNuc=   8.0000000   1.0000000   1.0000000   1.0000000   8.0000000   6.0000000   6.0000000   6.0000000   6.0000000   6.0000000

  Atom        51          52          53          54          55          56          57          58          59          60
 IAtWgt=           1           1           1           1           1          16          16          16          12           1
 AtmWgt=   1.0078250   1.0078250   1.0078250   1.0078250   1.0078250  15.9949146  15.9949146  15.9949146  12.0000000   1.0078250
 NucSpn=           1           1           1           1           1           0           0           0           0           1
 AtZEff=   0.0000000   0.0000000   0.0000000   0.0000000   0.0000000   0.0000000   0.0000000   0.0000000   0.0000000   0.0000000
 NQMom=    0.0000000   0.0000000   0.0000000   0.0000000   0.0000000   0.0000000   0.0000000   0.0000000   0.0000000   0.0000000
 NMagM=    2.7928460   2.7928460   2.7928460   2.7928460   2.7928460   0.0000000   0.0000000   0.0000000   0.0000000   2.7928460
 AtZNuc=   1.0000000   1.0000000   1.0000000   1.0000000   1.0000000   8.0000000   8.0000000   8.0000000   6.0000000   1.0000000

  Atom        61          62          63          64          65          66          67          68          69          70
 IAtWgt=           1          16           1           1           1          12           1           1          12           1
 AtmWgt=   1.0078250  15.9949146   1.0078250   1.0078250   1.0078250  12.0000000   1.0078250   1.0078250  12.0000000   1.0078250
 NucSpn=           1           0           1           1           1           0           1           1           0           1
 AtZEff=   0.0000000   0.0000000   0.0000000   0.0000000   0.0000000   0.0000000   0.0000000   0.0000000   0.0000000   0.0000000
 NQMom=    0.0000000   0.0000000   0.0000000   0.0000000   0.0000000   0.0000000   0.0000000   0.0000000   0.0000000   0.0000000
 NMagM=    2.7928460   0.0000000   2.7928460   2.7928460   2.7928460   0.0000000   2.7928460   2.7928460   0.0000000   2.7928460
 AtZNuc=   1.0000000   8.0000000   1.0000000   1.0000000   1.0000000   6.0000000   1.0000000   1.0000000   6.0000000   1.0000000

  Atom        71          72          73          74          75          76          77          78          79          80
 IAtWgt=           1          12           1           1          12           1           1          12           1           1
 AtmWgt=   1.0078250  12.0000000   1.0078250   1.0078250  12.0000000   1.0078250   1.0078250  12.0000000   1.0078250   1.0078250
 NucSpn=           1           0           1           1           0           1           1           0           1           1
 AtZEff=   0.0000000   0.0000000   0.0000000   0.0000000   0.0000000   0.0000000   0.0000000   0.0000000   0.0000000   0.0000000
 NQMom=    0.0000000   0.0000000   0.0000000   0.0000000   0.0000000   0.0000000   0.0000000   0.0000000   0.0000000   0.0000000
 NMagM=    2.7928460   0.0000000   2.7928460   2.7928460   0.0000000   2.7928460   2.7928460   0.0000000   2.7928460   2.7928460
 AtZNuc=   1.0000000   6.0000000   1.0000000   1.0000000   6.0000000   1.0000000   1.0000000   6.0000000   1.0000000   1.0000000

  Atom        81          82          83          84
 IAtWgt=          14           1           1           1
 AtmWgt=  14.0030740   1.0078250   1.0078250   1.0078250
 NucSpn=           2           1           1           1
 AtZEff=   0.0000000   0.0000000   0.0000000   0.0000000
 NQMom=    2.0440000   0.0000000   0.0000000   0.0000000
 NMagM=    0.4037610   2.7928460   2.7928460   2.7928460
 AtZNuc=   7.0000000   1.0000000   1.0000000   1.0000000
 Leave Link  101 at Wed Apr  6 16:51:47 2016, MaxMem= 10737418240 cpu:         4.7
 (Enter /share/apps//g09/l103.exe)

 GradGradGradGradGradGradGradGradGradGradGradGradGradGradGradGradGradGrad
 Berny optimization.
 Initialization pass.
                           ----------------------------
                           !    Initial Parameters    !
                           ! (Angstroms and Degrees)  !
 --------------------------                            --------------------------
 ! Name  Definition              Value          Derivative Info.                !
 --------------------------------------------------------------------------------
 ! R1    R(1,2)                  1.4081         estimate D2E/DX2                !
 ! R2    R(1,6)                  1.4543         estimate D2E/DX2                !
 ! R3    R(2,3)                  1.53           estimate D2E/DX2                !
 ! R4    R(2,7)                  1.1037         estimate D2E/DX2                !
 ! R5    R(2,15)                 1.4294         estimate D2E/DX2                !
 ! R6    R(3,4)                  1.5318         estimate D2E/DX2                !
 ! R7    R(3,8)                  1.1016         estimate D2E/DX2                !
 ! R8    R(3,14)                 1.4476         estimate D2E/DX2                !
 ! R9    R(4,5)                  1.5319         estimate D2E/DX2                !
 ! R10   R(4,9)                  1.102          estimate D2E/DX2                !
 ! R11   R(4,13)                 1.4288         estimate D2E/DX2                !
 ! R12   R(5,6)                  1.54           estimate D2E/DX2                !
 ! R13   R(5,10)                 1.1091         estimate D2E/DX2                !
 ! R14   R(5,12)                 1.4262         estimate D2E/DX2                !
 ! R15   R(6,11)                 1.106          estimate D2E/DX2                !
 ! R16   R(6,16)                 1.5199         estimate D2E/DX2                !
 ! R17   R(11,36)                2.4477         estimate D2E/DX2                !
 ! R18   R(12,21)                0.9822         estimate D2E/DX2                !
 ! R19   R(13,22)                0.9804         estimate D2E/DX2                !
 ! R20   R(14,23)                0.9803         estimate D2E/DX2                !
 ! R21   R(14,83)                1.715          estimate D2E/DX2                !
 ! R22   R(15,27)                1.4391         estimate D2E/DX2                !
 ! R23   R(16,17)                1.1028         estimate D2E/DX2                !
 ! R24   R(16,18)                1.1039         estimate D2E/DX2                !
 ! R25   R(16,19)                1.4384         estimate D2E/DX2                !
 ! R26   R(19,20)                0.9713         estimate D2E/DX2                !
 ! R27   R(24,25)                1.4241         estimate D2E/DX2                !
 ! R28   R(24,29)                1.4307         estimate D2E/DX2                !
 ! R29   R(25,26)                1.5445         estimate D2E/DX2                !
 ! R30   R(25,30)                1.1061         estimate D2E/DX2                !
 ! R31   R(25,37)                1.4114         estimate D2E/DX2                !
 ! R32   R(26,27)                1.5236         estimate D2E/DX2                !
 ! R33   R(26,31)                1.1036         estimate D2E/DX2                !
 ! R34   R(26,36)                1.4185         estimate D2E/DX2                !
 ! R35   R(27,28)                1.5347         estimate D2E/DX2                !
 ! R36   R(27,32)                1.1043         estimate D2E/DX2                !
 ! R37   R(28,29)                1.5396         estimate D2E/DX2                !
 ! R38   R(28,33)                1.1062         estimate D2E/DX2                !
 ! R39   R(28,35)                1.439          estimate D2E/DX2                !
 ! R40   R(29,34)                1.1094         estimate D2E/DX2                !
 ! R41   R(29,38)                1.534          estimate D2E/DX2                !
 ! R42   R(35,43)                1.0121         estimate D2E/DX2                !
 ! R43   R(35,82)                1.6358         estimate D2E/DX2                !
 ! R44   R(36,44)                0.9806         estimate D2E/DX2                !
 ! R45   R(37,49)                1.4393         estimate D2E/DX2                !
 ! R46   R(38,39)                1.1009         estimate D2E/DX2                !
 ! R47   R(38,40)                1.0997         estimate D2E/DX2                !
 ! R48   R(38,41)                1.4362         estimate D2E/DX2                !
 ! R49   R(41,42)                1.0012         estimate D2E/DX2                !
 ! R50   R(42,62)                1.702          estimate D2E/DX2                !
 ! R51   R(45,46)                1.3972         estimate D2E/DX2                !
 ! R52   R(45,50)                1.4624         estimate D2E/DX2                !
 ! R53   R(46,47)                1.5496         estimate D2E/DX2                !
 ! R54   R(46,51)                1.1037         estimate D2E/DX2                !
 ! R55   R(46,58)                1.4441         estimate D2E/DX2                !
 ! R56   R(47,48)                1.5373         estimate D2E/DX2                !
 ! R57   R(47,52)                1.1015         estimate D2E/DX2                !
 ! R58   R(47,57)                1.4269         estimate D2E/DX2                !
 ! R59   R(48,49)                1.5293         estimate D2E/DX2                !
 ! R60   R(48,53)                1.1069         estimate D2E/DX2                !
 ! R61   R(48,56)                1.4387         estimate D2E/DX2                !
 ! R62   R(49,50)                1.5456         estimate D2E/DX2                !
 ! R63   R(49,55)                1.1008         estimate D2E/DX2                !
 ! R64   R(50,54)                1.1029         estimate D2E/DX2                !
 ! R65   R(50,59)                1.5279         estimate D2E/DX2                !
 ! R66   R(56,64)                0.9745         estimate D2E/DX2                !
 ! R67   R(57,65)                0.9762         estimate D2E/DX2                !
 ! R68   R(58,63)                1.8308         estimate D2E/DX2                !
 ! R69   R(58,66)                1.4427         estimate D2E/DX2                !
 ! R70   R(59,60)                1.1027         estimate D2E/DX2                !
 ! R71   R(59,61)                1.0974         estimate D2E/DX2                !
 ! R72   R(59,62)                1.4329         estimate D2E/DX2                !
 ! R73   R(62,63)                0.9852         estimate D2E/DX2                !
 ! R74   R(66,67)                1.1049         estimate D2E/DX2                !
 ! R75   R(66,68)                1.1038         estimate D2E/DX2                !
 ! R76   R(66,69)                1.5228         estimate D2E/DX2                !
 ! R77   R(69,70)                1.1014         estimate D2E/DX2                !
 ! R78   R(69,71)                1.1023         estimate D2E/DX2                !
 ! R79   R(69,72)                1.538          estimate D2E/DX2                !
 ! R80   R(72,73)                1.1022         estimate D2E/DX2                !
 ! R81   R(72,74)                1.1015         estimate D2E/DX2                !
 ! R82   R(72,75)                1.5365         estimate D2E/DX2                !
 ! R83   R(75,76)                1.1044         estimate D2E/DX2                !
 ! R84   R(75,77)                1.1024         estimate D2E/DX2                !
 ! R85   R(75,78)                1.5278         estimate D2E/DX2                !
 ! R86   R(78,79)                1.0992         estimate D2E/DX2                !
 ! R87   R(78,80)                1.0985         estimate D2E/DX2                !
 ! R88   R(78,81)                1.4977         estimate D2E/DX2                !
 ! R89   R(81,82)                1.0654         estimate D2E/DX2                !
 ! R90   R(81,83)                1.0596         estimate D2E/DX2                !
 ! R91   R(81,84)                1.0271         estimate D2E/DX2                !
 ! A1    A(2,1,6)              114.2607         estimate D2E/DX2                !
 ! A2    A(1,2,3)              110.0709         estimate D2E/DX2                !
 ! A3    A(1,2,7)              104.8405         estimate D2E/DX2                !
 ! A4    A(1,2,15)             113.0852         estimate D2E/DX2                !
 ! A5    A(3,2,7)              111.0694         estimate D2E/DX2                !
 ! A6    A(3,2,15)             107.0067         estimate D2E/DX2                !
 ! A7    A(7,2,15)             110.8349         estimate D2E/DX2                !
 ! A8    A(2,3,4)              111.4352         estimate D2E/DX2                !
 ! A9    A(2,3,8)              106.5955         estimate D2E/DX2                !
 ! A10   A(2,3,14)             111.0862         estimate D2E/DX2                !
 ! A11   A(4,3,8)              108.8282         estimate D2E/DX2                !
 ! A12   A(4,3,14)             109.9583         estimate D2E/DX2                !
 ! A13   A(8,3,14)             108.8245         estimate D2E/DX2                !
 ! A14   A(3,4,5)              109.2814         estimate D2E/DX2                !
 ! A15   A(3,4,9)              109.6687         estimate D2E/DX2                !
 ! A16   A(3,4,13)             109.0261         estimate D2E/DX2                !
 ! A17   A(5,4,9)              109.5367         estimate D2E/DX2                !
 ! A18   A(5,4,13)             112.5689         estimate D2E/DX2                !
 ! A19   A(9,4,13)             106.706          estimate D2E/DX2                !
 ! A20   A(4,5,6)              109.034          estimate D2E/DX2                !
 ! A21   A(4,5,10)             108.8565         estimate D2E/DX2                !
 ! A22   A(4,5,12)             105.4949         estimate D2E/DX2                !
 ! A23   A(6,5,10)             107.4325         estimate D2E/DX2                !
 ! A24   A(6,5,12)             115.4002         estimate D2E/DX2                !
 ! A25   A(10,5,12)            110.4785         estimate D2E/DX2                !
 ! A26   A(1,6,5)              112.2535         estimate D2E/DX2                !
 ! A27   A(1,6,11)             108.7708         estimate D2E/DX2                !
 ! A28   A(1,6,16)             107.1649         estimate D2E/DX2                !
 ! A29   A(5,6,11)             107.4301         estimate D2E/DX2                !
 ! A30   A(5,6,16)             114.3543         estimate D2E/DX2                !
 ! A31   A(11,6,16)            106.6188         estimate D2E/DX2                !
 ! A32   A(6,11,36)            156.2524         estimate D2E/DX2                !
 ! A33   A(5,12,21)            107.2978         estimate D2E/DX2                !
 ! A34   A(4,13,22)            105.7094         estimate D2E/DX2                !
 ! A35   A(3,14,23)            103.7523         estimate D2E/DX2                !
 ! A36   A(3,14,83)            118.2521         estimate D2E/DX2                !
 ! A37   A(23,14,83)           113.5256         estimate D2E/DX2                !
 ! A38   A(2,15,27)            115.3697         estimate D2E/DX2                !
 ! A39   A(6,16,17)            108.6311         estimate D2E/DX2                !
 ! A40   A(6,16,18)            108.0652         estimate D2E/DX2                !
 ! A41   A(6,16,19)            109.801          estimate D2E/DX2                !
 ! A42   A(17,16,18)           108.6043         estimate D2E/DX2                !
 ! A43   A(17,16,19)           110.6783         estimate D2E/DX2                !
 ! A44   A(18,16,19)           110.9863         estimate D2E/DX2                !
 ! A45   A(16,19,20)           109.1598         estimate D2E/DX2                !
 ! A46   A(25,24,29)           116.908          estimate D2E/DX2                !
 ! A47   A(24,25,26)           112.701          estimate D2E/DX2                !
 ! A48   A(24,25,30)           111.192          estimate D2E/DX2                !
 ! A49   A(24,25,37)           106.8563         estimate D2E/DX2                !
 ! A50   A(26,25,30)           109.0122         estimate D2E/DX2                !
 ! A51   A(26,25,37)           112.4952         estimate D2E/DX2                !
 ! A52   A(30,25,37)           104.2737         estimate D2E/DX2                !
 ! A53   A(25,26,27)           111.3581         estimate D2E/DX2                !
 ! A54   A(25,26,31)           108.0778         estimate D2E/DX2                !
 ! A55   A(25,26,36)           109.9693         estimate D2E/DX2                !
 ! A56   A(27,26,31)           107.4343         estimate D2E/DX2                !
 ! A57   A(27,26,36)           109.6535         estimate D2E/DX2                !
 ! A58   A(31,26,36)           110.3046         estimate D2E/DX2                !
 ! A59   A(15,27,26)           106.4599         estimate D2E/DX2                !
 ! A60   A(15,27,28)           111.5162         estimate D2E/DX2                !
 ! A61   A(15,27,32)           109.3083         estimate D2E/DX2                !
 ! A62   A(26,27,28)           110.4813         estimate D2E/DX2                !
 ! A63   A(26,27,32)           109.6608         estimate D2E/DX2                !
 ! A64   A(28,27,32)           109.3644         estimate D2E/DX2                !
 ! A65   A(27,28,29)           109.9408         estimate D2E/DX2                !
 ! A66   A(27,28,33)           109.3361         estimate D2E/DX2                !
 ! A67   A(27,28,35)           109.5204         estimate D2E/DX2                !
 ! A68   A(29,28,33)           107.6641         estimate D2E/DX2                !
 ! A69   A(29,28,35)           111.2965         estimate D2E/DX2                !
 ! A70   A(33,28,35)           109.0404         estimate D2E/DX2                !
 ! A71   A(24,29,28)           112.1032         estimate D2E/DX2                !
 ! A72   A(24,29,34)           110.5395         estimate D2E/DX2                !
 ! A73   A(24,29,38)           104.8482         estimate D2E/DX2                !
 ! A74   A(28,29,34)           108.0588         estimate D2E/DX2                !
 ! A75   A(28,29,38)           112.6669         estimate D2E/DX2                !
 ! A76   A(34,29,38)           108.577          estimate D2E/DX2                !
 ! A77   A(28,35,43)           105.8041         estimate D2E/DX2                !
 ! A78   A(28,35,82)           125.7772         estimate D2E/DX2                !
 ! A79   A(43,35,82)           127.4121         estimate D2E/DX2                !
 ! A80   A(11,36,26)           113.4581         estimate D2E/DX2                !
 ! A81   A(11,36,44)           131.1952         estimate D2E/DX2                !
 ! A82   A(26,36,44)           104.9124         estimate D2E/DX2                !
 ! A83   A(25,37,49)           115.5925         estimate D2E/DX2                !
 ! A84   A(29,38,39)           109.2069         estimate D2E/DX2                !
 ! A85   A(29,38,40)           109.89           estimate D2E/DX2                !
 ! A86   A(29,38,41)           111.6818         estimate D2E/DX2                !
 ! A87   A(39,38,40)           108.2184         estimate D2E/DX2                !
 ! A88   A(39,38,41)           110.4854         estimate D2E/DX2                !
 ! A89   A(40,38,41)           107.2833         estimate D2E/DX2                !
 ! A90   A(38,41,42)           108.3845         estimate D2E/DX2                !
 ! A91   A(46,45,50)           117.0108         estimate D2E/DX2                !
 ! A92   A(45,46,47)           112.6275         estimate D2E/DX2                !
 ! A93   A(45,46,51)           105.71           estimate D2E/DX2                !
 ! A94   A(45,46,58)           108.9872         estimate D2E/DX2                !
 ! A95   A(47,46,51)           109.7585         estimate D2E/DX2                !
 ! A96   A(47,46,58)           110.09           estimate D2E/DX2                !
 ! A97   A(51,46,58)           109.5525         estimate D2E/DX2                !
 ! A98   A(46,47,48)           111.434          estimate D2E/DX2                !
 ! A99   A(46,47,52)           108.0701         estimate D2E/DX2                !
 ! A100  A(46,47,57)           113.3586         estimate D2E/DX2                !
 ! A101  A(48,47,52)           107.4152         estimate D2E/DX2                !
 ! A102  A(48,47,57)           111.5038         estimate D2E/DX2                !
 ! A103  A(52,47,57)           104.5939         estimate D2E/DX2                !
 ! A104  A(47,48,49)           110.2613         estimate D2E/DX2                !
 ! A105  A(47,48,53)           109.1647         estimate D2E/DX2                !
 ! A106  A(47,48,56)           110.2254         estimate D2E/DX2                !
 ! A107  A(49,48,53)           107.666          estimate D2E/DX2                !
 ! A108  A(49,48,56)           110.4165         estimate D2E/DX2                !
 ! A109  A(53,48,56)           109.0507         estimate D2E/DX2                !
 ! A110  A(37,49,48)           110.3734         estimate D2E/DX2                !
 ! A111  A(37,49,50)           107.6121         estimate D2E/DX2                !
 ! A112  A(37,49,55)           110.2539         estimate D2E/DX2                !
 ! A113  A(48,49,50)           107.9426         estimate D2E/DX2                !
 ! A114  A(48,49,55)           110.8584         estimate D2E/DX2                !
 ! A115  A(50,49,55)           109.7135         estimate D2E/DX2                !
 ! A116  A(45,50,49)           112.5743         estimate D2E/DX2                !
 ! A117  A(45,50,54)           104.6716         estimate D2E/DX2                !
 ! A118  A(45,50,59)           109.6685         estimate D2E/DX2                !
 ! A119  A(49,50,54)           106.8155         estimate D2E/DX2                !
 ! A120  A(49,50,59)           115.4208         estimate D2E/DX2                !
 ! A121  A(54,50,59)           106.9211         estimate D2E/DX2                !
 ! A122  A(48,56,64)           106.638          estimate D2E/DX2                !
 ! A123  A(47,57,65)           108.5851         estimate D2E/DX2                !
 ! A124  A(46,58,63)           112.3319         estimate D2E/DX2                !
 ! A125  A(46,58,66)           115.2358         estimate D2E/DX2                !
 ! A126  A(63,58,66)           127.5492         estimate D2E/DX2                !
 ! A127  A(50,59,60)           107.505          estimate D2E/DX2                !
 ! A128  A(50,59,61)           108.7756         estimate D2E/DX2                !
 ! A129  A(50,59,62)           114.6853         estimate D2E/DX2                !
 ! A130  A(60,59,61)           108.8177         estimate D2E/DX2                !
 ! A131  A(60,59,62)           109.8978         estimate D2E/DX2                !
 ! A132  A(61,59,62)           107.0412         estimate D2E/DX2                !
 ! A133  A(42,62,59)           125.9033         estimate D2E/DX2                !
 ! A134  A(42,62,63)           117.9561         estimate D2E/DX2                !
 ! A135  A(59,62,63)           107.6156         estimate D2E/DX2                !
 ! A136  A(58,63,62)           152.7479         estimate D2E/DX2                !
 ! A137  A(58,66,67)           109.8809         estimate D2E/DX2                !
 ! A138  A(58,66,68)           109.2483         estimate D2E/DX2                !
 ! A139  A(58,66,69)           107.9933         estimate D2E/DX2                !
 ! A140  A(67,66,68)           107.5874         estimate D2E/DX2                !
 ! A141  A(67,66,69)           111.501          estimate D2E/DX2                !
 ! A142  A(68,66,69)           110.6158         estimate D2E/DX2                !
 ! A143  A(66,69,70)           108.2523         estimate D2E/DX2                !
 ! A144  A(66,69,71)           107.8724         estimate D2E/DX2                !
 ! A145  A(66,69,72)           115.2663         estimate D2E/DX2                !
 ! A146  A(70,69,71)           105.9488         estimate D2E/DX2                !
 ! A147  A(70,69,72)           109.0216         estimate D2E/DX2                !
 ! A148  A(71,69,72)           110.062          estimate D2E/DX2                !
 ! A149  A(69,72,73)           108.1027         estimate D2E/DX2                !
 ! A150  A(69,72,74)           108.7347         estimate D2E/DX2                !
 ! A151  A(69,72,75)           114.1314         estimate D2E/DX2                !
 ! A152  A(73,72,74)           106.1854         estimate D2E/DX2                !
 ! A153  A(73,72,75)           108.8001         estimate D2E/DX2                !
 ! A154  A(74,72,75)           110.5589         estimate D2E/DX2                !
 ! A155  A(72,75,76)           111.1419         estimate D2E/DX2                !
 ! A156  A(72,75,77)           109.2736         estimate D2E/DX2                !
 ! A157  A(72,75,78)           115.083          estimate D2E/DX2                !
 ! A158  A(76,75,77)           105.4453         estimate D2E/DX2                !
 ! A159  A(76,75,78)           109.0042         estimate D2E/DX2                !
 ! A160  A(77,75,78)           106.3508         estimate D2E/DX2                !
 ! A161  A(75,78,79)           111.2044         estimate D2E/DX2                !
 ! A162  A(75,78,80)           110.4994         estimate D2E/DX2                !
 ! A163  A(75,78,81)           113.3589         estimate D2E/DX2                !
 ! A164  A(79,78,80)           107.7511         estimate D2E/DX2                !
 ! A165  A(79,78,81)           106.4033         estimate D2E/DX2                !
 ! A166  A(80,78,81)           107.3508         estimate D2E/DX2                !
 ! A167  A(78,81,82)           113.5167         estimate D2E/DX2                !
 ! A168  A(78,81,83)           112.5913         estimate D2E/DX2                !
 ! A169  A(78,81,84)           111.569          estimate D2E/DX2                !
 ! A170  A(82,81,83)           105.245          estimate D2E/DX2                !
 ! A171  A(82,81,84)           106.9622         estimate D2E/DX2                !
 ! A172  A(83,81,84)           106.4403         estimate D2E/DX2                !
 ! A173  L(41,42,62,4,-1)      179.0058         estimate D2E/DX2                !
 ! A174  L(35,82,81,1,-1)      175.3973         estimate D2E/DX2                !
 ! A175  L(14,83,81,11,-1)     178.8944         estimate D2E/DX2                !
 ! A176  L(41,42,62,4,-2)      185.9995         estimate D2E/DX2                !
 ! A177  L(35,82,81,1,-2)      179.7681         estimate D2E/DX2                !
 ! A178  L(14,83,81,11,-2)     176.3489         estimate D2E/DX2                !
 ! D1    D(6,1,2,3)            -57.2913         estimate D2E/DX2                !
 ! D2    D(6,1,2,7)           -176.8136         estimate D2E/DX2                !
 ! D3    D(6,1,2,15)            62.328          estimate D2E/DX2                !
 ! D4    D(2,1,6,5)             57.5146         estimate D2E/DX2                !
 ! D5    D(2,1,6,11)           -61.2292         estimate D2E/DX2                !
 ! D6    D(2,1,6,16)          -176.1349         estimate D2E/DX2                !
 ! D7    D(1,2,3,4)             56.794          estimate D2E/DX2                !
 ! D8    D(1,2,3,8)            -61.8124         estimate D2E/DX2                !
 ! D9    D(1,2,3,14)           179.7778         estimate D2E/DX2                !
 ! D10   D(7,2,3,4)            172.4513         estimate D2E/DX2                !
 ! D11   D(7,2,3,8)             53.8449         estimate D2E/DX2                !
 ! D12   D(7,2,3,14)           -64.5649         estimate D2E/DX2                !
 ! D13   D(15,2,3,4)           -66.4561         estimate D2E/DX2                !
 ! D14   D(15,2,3,8)           174.9375         estimate D2E/DX2                !
 ! D15   D(15,2,3,14)           56.5277         estimate D2E/DX2                !
 ! D16   D(1,2,15,27)           59.6096         estimate D2E/DX2                !
 ! D17   D(3,2,15,27)         -179.0258         estimate D2E/DX2                !
 ! D18   D(7,2,15,27)          -57.7848         estimate D2E/DX2                !
 ! D19   D(2,3,4,5)            -55.9811         estimate D2E/DX2                !
 ! D20   D(2,3,4,9)             64.1035         estimate D2E/DX2                !
 ! D21   D(2,3,4,13)          -179.3983         estimate D2E/DX2                !
 ! D22   D(8,3,4,5)             61.2805         estimate D2E/DX2                !
 ! D23   D(8,3,4,9)           -178.635          estimate D2E/DX2                !
 ! D24   D(8,3,4,13)           -62.1368         estimate D2E/DX2                !
 ! D25   D(14,3,4,5)          -179.6075         estimate D2E/DX2                !
 ! D26   D(14,3,4,9)           -59.523          estimate D2E/DX2                !
 ! D27   D(14,3,4,13)           56.9753         estimate D2E/DX2                !
 ! D28   D(2,3,14,23)         -174.9391         estimate D2E/DX2                !
 ! D29   D(2,3,14,83)          -48.2102         estimate D2E/DX2                !
 ! D30   D(4,3,14,23)          -51.1092         estimate D2E/DX2                !
 ! D31   D(4,3,14,83)           75.6196         estimate D2E/DX2                !
 ! D32   D(8,3,14,23)           68.0051         estimate D2E/DX2                !
 ! D33   D(8,3,14,83)         -165.2661         estimate D2E/DX2                !
 ! D34   D(3,4,5,6)             53.6921         estimate D2E/DX2                !
 ! D35   D(3,4,5,10)           170.6095         estimate D2E/DX2                !
 ! D36   D(3,4,5,12)           -70.8146         estimate D2E/DX2                !
 ! D37   D(9,4,5,6)            -66.4735         estimate D2E/DX2                !
 ! D38   D(9,4,5,10)            50.444          estimate D2E/DX2                !
 ! D39   D(9,4,5,12)           169.0198         estimate D2E/DX2                !
 ! D40   D(13,4,5,6)           174.9848         estimate D2E/DX2                !
 ! D41   D(13,4,5,10)          -68.0977         estimate D2E/DX2                !
 ! D42   D(13,4,5,12)           50.4781         estimate D2E/DX2                !
 ! D43   D(3,4,13,22)           85.5968         estimate D2E/DX2                !
 ! D44   D(5,4,13,22)          -35.8415         estimate D2E/DX2                !
 ! D45   D(9,4,13,22)         -156.0298         estimate D2E/DX2                !
 ! D46   D(4,5,6,1)            -54.1786         estimate D2E/DX2                !
 ! D47   D(4,5,6,11)            65.3513         estimate D2E/DX2                !
 ! D48   D(4,5,6,16)          -176.5388         estimate D2E/DX2                !
 ! D49   D(10,5,6,1)          -171.9976         estimate D2E/DX2                !
 ! D50   D(10,5,6,11)          -52.4677         estimate D2E/DX2                !
 ! D51   D(10,5,6,16)           65.6422         estimate D2E/DX2                !
 ! D52   D(12,5,6,1)            64.289          estimate D2E/DX2                !
 ! D53   D(12,5,6,11)         -176.1812         estimate D2E/DX2                !
 ! D54   D(12,5,6,16)          -58.0713         estimate D2E/DX2                !
 ! D55   D(4,5,12,21)          155.5412         estimate D2E/DX2                !
 ! D56   D(6,5,12,21)           35.1246         estimate D2E/DX2                !
 ! D57   D(10,5,12,21)         -86.9718         estimate D2E/DX2                !
 ! D58   D(1,6,11,36)          -14.4081         estimate D2E/DX2                !
 ! D59   D(5,6,11,36)         -136.139          estimate D2E/DX2                !
 ! D60   D(16,6,11,36)         100.8519         estimate D2E/DX2                !
 ! D61   D(1,6,16,17)           50.4524         estimate D2E/DX2                !
 ! D62   D(1,6,16,18)          168.1044         estimate D2E/DX2                !
 ! D63   D(1,6,16,19)          -70.709          estimate D2E/DX2                !
 ! D64   D(5,6,16,17)          175.5445         estimate D2E/DX2                !
 ! D65   D(5,6,16,18)          -66.8035         estimate D2E/DX2                !
 ! D66   D(5,6,16,19)           54.3831         estimate D2E/DX2                !
 ! D67   D(11,6,16,17)         -65.885          estimate D2E/DX2                !
 ! D68   D(11,6,16,18)          51.767          estimate D2E/DX2                !
 ! D69   D(11,6,16,19)         172.9536         estimate D2E/DX2                !
 ! D70   D(6,11,36,26)          28.8449         estimate D2E/DX2                !
 ! D71   D(6,11,36,44)         167.6639         estimate D2E/DX2                !
 ! D72   D(3,14,81,78)        -171.3681         estimate D2E/DX2                !
 ! D73   D(3,14,81,82)          65.296          estimate D2E/DX2                !
 ! D74   D(3,14,81,84)         -47.3866         estimate D2E/DX2                !
 ! D75   D(23,14,81,78)        -48.7119         estimate D2E/DX2                !
 ! D76   D(23,14,81,82)       -172.0478         estimate D2E/DX2                !
 ! D77   D(23,14,81,84)         75.2696         estimate D2E/DX2                !
 ! D78   D(2,15,27,26)        -151.1578         estimate D2E/DX2                !
 ! D79   D(2,15,27,28)          88.2674         estimate D2E/DX2                !
 ! D80   D(2,15,27,32)         -32.7821         estimate D2E/DX2                !
 ! D81   D(6,16,19,20)        -177.3933         estimate D2E/DX2                !
 ! D82   D(17,16,19,20)         62.6845         estimate D2E/DX2                !
 ! D83   D(18,16,19,20)        -57.9797         estimate D2E/DX2                !
 ! D84   D(29,24,25,26)        -50.5617         estimate D2E/DX2                !
 ! D85   D(29,24,25,30)         72.1853         estimate D2E/DX2                !
 ! D86   D(29,24,25,37)       -174.6247         estimate D2E/DX2                !
 ! D87   D(25,24,29,28)         52.9988         estimate D2E/DX2                !
 ! D88   D(25,24,29,34)        -67.6288         estimate D2E/DX2                !
 ! D89   D(25,24,29,38)        175.5449         estimate D2E/DX2                !
 ! D90   D(24,25,26,27)         49.5868         estimate D2E/DX2                !
 ! D91   D(24,25,26,31)        -68.192          estimate D2E/DX2                !
 ! D92   D(24,25,26,36)        171.3445         estimate D2E/DX2                !
 ! D93   D(30,25,26,27)        -74.3724         estimate D2E/DX2                !
 ! D94   D(30,25,26,31)        167.8489         estimate D2E/DX2                !
 ! D95   D(30,25,26,36)         47.3853         estimate D2E/DX2                !
 ! D96   D(37,25,26,27)        170.4803         estimate D2E/DX2                !
 ! D97   D(37,25,26,31)         52.7016         estimate D2E/DX2                !
 ! D98   D(37,25,26,36)        -67.762          estimate D2E/DX2                !
 ! D99   D(24,25,37,49)         60.393          estimate D2E/DX2                !
 ! D100  D(26,25,37,49)        -63.7963         estimate D2E/DX2                !
 ! D101  D(30,25,37,49)        178.2223         estimate D2E/DX2                !
 ! D102  D(25,26,27,15)       -173.9849         estimate D2E/DX2                !
 ! D103  D(25,26,27,28)        -52.7466         estimate D2E/DX2                !
 ! D104  D(25,26,27,32)         67.8714         estimate D2E/DX2                !
 ! D105  D(31,26,27,15)        -55.8182         estimate D2E/DX2                !
 ! D106  D(31,26,27,28)         65.4202         estimate D2E/DX2                !
 ! D107  D(31,26,27,32)       -173.9618         estimate D2E/DX2                !
 ! D108  D(36,26,27,15)         64.0743         estimate D2E/DX2                !
 ! D109  D(36,26,27,28)       -174.6874         estimate D2E/DX2                !
 ! D110  D(36,26,27,32)        -54.0694         estimate D2E/DX2                !
 ! D111  D(25,26,36,11)       -135.7765         estimate D2E/DX2                !
 ! D112  D(25,26,36,44)         75.069          estimate D2E/DX2                !
 ! D113  D(27,26,36,11)        -13.0088         estimate D2E/DX2                !
 ! D114  D(27,26,36,44)       -162.1634         estimate D2E/DX2                !
 ! D115  D(31,26,36,11)        105.1142         estimate D2E/DX2                !
 ! D116  D(31,26,36,44)        -44.0404         estimate D2E/DX2                !
 ! D117  D(15,27,28,29)        172.8409         estimate D2E/DX2                !
 ! D118  D(15,27,28,33)        -69.1642         estimate D2E/DX2                !
 ! D119  D(15,27,28,35)         50.2567         estimate D2E/DX2                !
 ! D120  D(26,27,28,29)         54.6524         estimate D2E/DX2                !
 ! D121  D(26,27,28,33)        172.6473         estimate D2E/DX2                !
 ! D122  D(26,27,28,35)        -67.9318         estimate D2E/DX2                !
 ! D123  D(32,27,28,29)        -66.1423         estimate D2E/DX2                !
 ! D124  D(32,27,28,33)         51.8525         estimate D2E/DX2                !
 ! D125  D(32,27,28,35)        171.2734         estimate D2E/DX2                !
 ! D126  D(27,28,29,24)        -53.6802         estimate D2E/DX2                !
 ! D127  D(27,28,29,34)         68.3741         estimate D2E/DX2                !
 ! D128  D(27,28,29,38)       -171.672          estimate D2E/DX2                !
 ! D129  D(33,28,29,24)       -172.705          estimate D2E/DX2                !
 ! D130  D(33,28,29,34)        -50.6508         estimate D2E/DX2                !
 ! D131  D(33,28,29,38)         69.3031         estimate D2E/DX2                !
 ! D132  D(35,28,29,24)         67.8488         estimate D2E/DX2                !
 ! D133  D(35,28,29,34)       -170.097          estimate D2E/DX2                !
 ! D134  D(35,28,29,38)        -50.1431         estimate D2E/DX2                !
 ! D135  D(27,28,35,43)        145.6872         estimate D2E/DX2                !
 ! D136  D(27,28,35,82)        -23.5            estimate D2E/DX2                !
 ! D137  D(29,28,35,43)         23.9136         estimate D2E/DX2                !
 ! D138  D(29,28,35,82)       -145.2736         estimate D2E/DX2                !
 ! D139  D(33,28,35,43)        -94.7101         estimate D2E/DX2                !
 ! D140  D(33,28,35,82)         96.1027         estimate D2E/DX2                !
 ! D141  D(24,29,38,39)         58.36           estimate D2E/DX2                !
 ! D142  D(24,29,38,40)        176.922          estimate D2E/DX2                !
 ! D143  D(24,29,38,41)        -64.1414         estimate D2E/DX2                !
 ! D144  D(28,29,38,39)       -179.4603         estimate D2E/DX2                !
 ! D145  D(28,29,38,40)        -60.8982         estimate D2E/DX2                !
 ! D146  D(28,29,38,41)         58.0384         estimate D2E/DX2                !
 ! D147  D(34,29,38,39)        -59.8059         estimate D2E/DX2                !
 ! D148  D(34,29,38,40)         58.7561         estimate D2E/DX2                !
 ! D149  D(34,29,38,41)        177.6927         estimate D2E/DX2                !
 ! D150  D(28,35,81,78)       -169.7677         estimate D2E/DX2                !
 ! D151  D(28,35,81,83)        -46.2066         estimate D2E/DX2                !
 ! D152  D(28,35,81,84)         65.5062         estimate D2E/DX2                !
 ! D153  D(43,35,81,78)         23.2577         estimate D2E/DX2                !
 ! D154  D(43,35,81,83)        146.8188         estimate D2E/DX2                !
 ! D155  D(43,35,81,84)       -101.4684         estimate D2E/DX2                !
 ! D156  D(25,37,49,48)        121.124          estimate D2E/DX2                !
 ! D157  D(25,37,49,50)       -121.3163         estimate D2E/DX2                !
 ! D158  D(25,37,49,55)         -1.6881         estimate D2E/DX2                !
 ! D159  D(29,38,41,42)         75.8802         estimate D2E/DX2                !
 ! D160  D(39,38,41,42)        -45.8865         estimate D2E/DX2                !
 ! D161  D(40,38,41,42)       -163.6465         estimate D2E/DX2                !
 ! D162  D(38,41,62,59)         -8.9648         estimate D2E/DX2                !
 ! D163  D(38,41,62,63)       -152.4358         estimate D2E/DX2                !
 ! D164  D(50,45,46,47)         58.4866         estimate D2E/DX2                !
 ! D165  D(50,45,46,51)        178.3346         estimate D2E/DX2                !
 ! D166  D(50,45,46,58)        -63.9913         estimate D2E/DX2                !
 ! D167  D(46,45,50,49)        -24.2819         estimate D2E/DX2                !
 ! D168  D(46,45,50,54)       -139.9209         estimate D2E/DX2                !
 ! D169  D(46,45,50,59)        105.6802         estimate D2E/DX2                !
 ! D170  D(45,46,47,48)        -26.8662         estimate D2E/DX2                !
 ! D171  D(45,46,47,52)       -144.6606         estimate D2E/DX2                !
 ! D172  D(45,46,47,57)         99.8965         estimate D2E/DX2                !
 ! D173  D(51,46,47,48)       -144.3452         estimate D2E/DX2                !
 ! D174  D(51,46,47,52)         97.8604         estimate D2E/DX2                !
 ! D175  D(51,46,47,57)        -17.5825         estimate D2E/DX2                !
 ! D176  D(58,46,47,48)         94.9894         estimate D2E/DX2                !
 ! D177  D(58,46,47,52)        -22.805          estimate D2E/DX2                !
 ! D178  D(58,46,47,57)       -138.2479         estimate D2E/DX2                !
 ! D179  D(45,46,58,63)          5.1504         estimate D2E/DX2                !
 ! D180  D(45,46,58,66)       -152.0678         estimate D2E/DX2                !
 ! D181  D(47,46,58,63)       -118.842          estimate D2E/DX2                !
 ! D182  D(47,46,58,66)         83.9398         estimate D2E/DX2                !
 ! D183  D(51,46,58,63)        120.3688         estimate D2E/DX2                !
 ! D184  D(51,46,58,66)        -36.8494         estimate D2E/DX2                !
 ! D185  D(46,47,48,49)        -32.581          estimate D2E/DX2                !
 ! D186  D(46,47,48,53)         85.5025         estimate D2E/DX2                !
 ! D187  D(46,47,48,56)       -154.7413         estimate D2E/DX2                !
 ! D188  D(52,47,48,49)         85.6076         estimate D2E/DX2                !
 ! D189  D(52,47,48,53)       -156.3089         estimate D2E/DX2                !
 ! D190  D(52,47,48,56)        -36.5527         estimate D2E/DX2                !
 ! D191  D(57,47,48,49)       -160.3502         estimate D2E/DX2                !
 ! D192  D(57,47,48,53)        -42.2667         estimate D2E/DX2                !
 ! D193  D(57,47,48,56)         77.4895         estimate D2E/DX2                !
 ! D194  D(46,47,57,65)        -59.7685         estimate D2E/DX2                !
 ! D195  D(48,47,57,65)         66.9575         estimate D2E/DX2                !
 ! D196  D(52,47,57,65)       -177.2578         estimate D2E/DX2                !
 ! D197  D(47,48,49,37)       -178.1256         estimate D2E/DX2                !
 ! D198  D(47,48,49,50)         64.5186         estimate D2E/DX2                !
 ! D199  D(47,48,49,55)        -55.6675         estimate D2E/DX2                !
 ! D200  D(53,48,49,37)         62.8733         estimate D2E/DX2                !
 ! D201  D(53,48,49,50)        -54.4824         estimate D2E/DX2                !
 ! D202  D(53,48,49,55)       -174.6686         estimate D2E/DX2                !
 ! D203  D(56,48,49,37)        -56.0782         estimate D2E/DX2                !
 ! D204  D(56,48,49,50)       -173.434          estimate D2E/DX2                !
 ! D205  D(56,48,49,55)         66.3799         estimate D2E/DX2                !
 ! D206  D(47,48,56,64)        -60.9491         estimate D2E/DX2                !
 ! D207  D(49,48,56,64)        176.9823         estimate D2E/DX2                !
 ! D208  D(53,48,56,64)         58.8761         estimate D2E/DX2                !
 ! D209  D(37,49,50,45)       -155.8017         estimate D2E/DX2                !
 ! D210  D(37,49,50,54)        -41.4594         estimate D2E/DX2                !
 ! D211  D(37,49,50,59)         77.2446         estimate D2E/DX2                !
 ! D212  D(48,49,50,45)        -36.6762         estimate D2E/DX2                !
 ! D213  D(48,49,50,54)         77.666          estimate D2E/DX2                !
 ! D214  D(48,49,50,59)       -163.6299         estimate D2E/DX2                !
 ! D215  D(55,49,50,45)         84.2271         estimate D2E/DX2                !
 ! D216  D(55,49,50,54)       -161.4307         estimate D2E/DX2                !
 ! D217  D(55,49,50,59)        -42.7266         estimate D2E/DX2                !
 ! D218  D(45,50,59,60)         51.3582         estimate D2E/DX2                !
 ! D219  D(45,50,59,61)        169.0327         estimate D2E/DX2                !
 ! D220  D(45,50,59,62)        -71.171          estimate D2E/DX2                !
 ! D221  D(49,50,59,60)        179.7655         estimate D2E/DX2                !
 ! D222  D(49,50,59,61)        -62.5599         estimate D2E/DX2                !
 ! D223  D(49,50,59,62)         57.2363         estimate D2E/DX2                !
 ! D224  D(54,50,59,60)        -61.589          estimate D2E/DX2                !
 ! D225  D(54,50,59,61)         56.0856         estimate D2E/DX2                !
 ! D226  D(54,50,59,62)        175.8818         estimate D2E/DX2                !
 ! D227  D(46,58,63,62)         60.6175         estimate D2E/DX2                !
 ! D228  D(66,58,63,62)       -145.6009         estimate D2E/DX2                !
 ! D229  D(46,58,66,67)        -50.5411         estimate D2E/DX2                !
 ! D230  D(46,58,66,68)         67.273          estimate D2E/DX2                !
 ! D231  D(46,58,66,69)       -172.36           estimate D2E/DX2                !
 ! D232  D(63,58,66,67)        156.3165         estimate D2E/DX2                !
 ! D233  D(63,58,66,68)        -85.8693         estimate D2E/DX2                !
 ! D234  D(63,58,66,69)         34.4976         estimate D2E/DX2                !
 ! D235  D(50,59,62,42)       -107.9357         estimate D2E/DX2                !
 ! D236  D(50,59,62,63)         38.8996         estimate D2E/DX2                !
 ! D237  D(60,59,62,42)        130.8377         estimate D2E/DX2                !
 ! D238  D(60,59,62,63)        -82.327          estimate D2E/DX2                !
 ! D239  D(61,59,62,42)         12.8206         estimate D2E/DX2                !
 ! D240  D(61,59,62,63)        159.6559         estimate D2E/DX2                !
 ! D241  D(42,62,63,58)         90.6952         estimate D2E/DX2                !
 ! D242  D(59,62,63,58)        -59.1954         estimate D2E/DX2                !
 ! D243  D(58,66,69,70)        -58.7812         estimate D2E/DX2                !
 ! D244  D(58,66,69,71)       -173.0082         estimate D2E/DX2                !
 ! D245  D(58,66,69,72)         63.573          estimate D2E/DX2                !
 ! D246  D(67,66,69,70)       -179.5944         estimate D2E/DX2                !
 ! D247  D(67,66,69,71)         66.1786         estimate D2E/DX2                !
 ! D248  D(67,66,69,72)        -57.2401         estimate D2E/DX2                !
 ! D249  D(68,66,69,70)         60.7245         estimate D2E/DX2                !
 ! D250  D(68,66,69,71)        -53.5025         estimate D2E/DX2                !
 ! D251  D(68,66,69,72)       -176.9212         estimate D2E/DX2                !
 ! D252  D(66,69,72,73)       -167.4204         estimate D2E/DX2                !
 ! D253  D(66,69,72,74)        -52.5517         estimate D2E/DX2                !
 ! D254  D(66,69,72,75)         71.384          estimate D2E/DX2                !
 ! D255  D(70,69,72,73)        -45.479          estimate D2E/DX2                !
 ! D256  D(70,69,72,74)         69.3898         estimate D2E/DX2                !
 ! D257  D(70,69,72,75)       -166.6746         estimate D2E/DX2                !
 ! D258  D(71,69,72,73)         70.3271         estimate D2E/DX2                !
 ! D259  D(71,69,72,74)       -174.8042         estimate D2E/DX2                !
 ! D260  D(71,69,72,75)        -50.8686         estimate D2E/DX2                !
 ! D261  D(69,72,75,76)        -66.2115         estimate D2E/DX2                !
 ! D262  D(69,72,75,77)         49.7466         estimate D2E/DX2                !
 ! D263  D(69,72,75,78)        169.282          estimate D2E/DX2                !
 ! D264  D(73,72,75,76)        172.9801         estimate D2E/DX2                !
 ! D265  D(73,72,75,77)        -71.0618         estimate D2E/DX2                !
 ! D266  D(73,72,75,78)         48.4736         estimate D2E/DX2                !
 ! D267  D(74,72,75,76)         56.7381         estimate D2E/DX2                !
 ! D268  D(74,72,75,77)        172.6962         estimate D2E/DX2                !
 ! D269  D(74,72,75,78)        -67.7685         estimate D2E/DX2                !
 ! D270  D(72,75,78,79)        -53.2464         estimate D2E/DX2                !
 ! D271  D(72,75,78,80)       -172.8622         estimate D2E/DX2                !
 ! D272  D(72,75,78,81)         66.5886         estimate D2E/DX2                !
 ! D273  D(76,75,78,79)       -178.866          estimate D2E/DX2                !
 ! D274  D(76,75,78,80)         61.5182         estimate D2E/DX2                !
 ! D275  D(76,75,78,81)        -59.031          estimate D2E/DX2                !
 ! D276  D(77,75,78,79)         67.8938         estimate D2E/DX2                !
 ! D277  D(77,75,78,80)        -51.7219         estimate D2E/DX2                !
 ! D278  D(77,75,78,81)       -172.2712         estimate D2E/DX2                !
 ! D279  D(75,78,81,82)        -67.0479         estimate D2E/DX2                !
 ! D280  D(75,78,81,83)        173.5025         estimate D2E/DX2                !
 ! D281  D(75,78,81,84)         53.8923         estimate D2E/DX2                !
 ! D282  D(79,78,81,82)         55.4891         estimate D2E/DX2                !
 ! D283  D(79,78,81,83)        -63.9606         estimate D2E/DX2                !
 ! D284  D(79,78,81,84)        176.4292         estimate D2E/DX2                !
 ! D285  D(80,78,81,82)        170.6362         estimate D2E/DX2                !
 ! D286  D(80,78,81,83)         51.1866         estimate D2E/DX2                !
 ! D287  D(80,78,81,84)        -68.4236         estimate D2E/DX2                !
 --------------------------------------------------------------------------------
 Trust Radius=3.00D-01 FncErr=1.00D-07 GrdErr=1.00D-06
 Number of steps in this run=    504 maximum allowed number of steps=    504.
 GradGradGradGradGradGradGradGradGradGradGradGradGradGradGradGradGradGrad

 Leave Link  103 at Wed Apr  6 16:51:48 2016, MaxMem= 10737418240 cpu:         0.5
 (Enter /share/apps//g09/l202.exe)
 Stoichiometry    C23H44NO16(1+)
 Framework group  C1[X(C23H44NO16)]
 Deg. of freedom   246
 Full point group                 C1      NOp   1
 Largest Abelian subgroup         C1      NOp   1
 Largest concise Abelian subgroup C1      NOp   1
                         Standard orientation:                         
 ---------------------------------------------------------------------
 Center     Atomic      Atomic             Coordinates (Angstroms)
 Number     Number       Type             X           Y           Z
 ---------------------------------------------------------------------
      1          8           0        4.271771   -0.921056    0.666313
      2          6           0        3.466333    0.160539    1.071478
      3          6           0        4.096021    1.480900    0.623274
      4          6           0        4.318158    1.509225   -0.892066
      5          6           0        5.172114    0.304926   -1.300716
      6          6           0        4.515030   -0.981214   -0.766225
      7          1           0        3.432248    0.090761    2.172451
      8          1           0        5.073088    1.550543    1.127174
      9          1           0        3.346632    1.464897   -1.410243
     10          1           0        5.187095    0.235158   -2.407539
     11          1           0        3.546511   -1.099518   -1.287019
     12          8           0        6.479459    0.577488   -0.800215
     13          8           0        4.918929    2.754706   -1.251551
     14          8           0        3.282061    2.608786    1.024535
     15          8           0        2.149061    0.116506    0.518234
     16          6           0        5.309938   -2.248849   -1.033383
     17          1           0        4.798482   -3.094950   -0.544877
     18          1           0        5.318496   -2.424242   -2.123232
     19          8           0        6.647377   -2.101619   -0.524759
     20          1           0        7.158683   -2.899731   -0.736705
     21          1           0        6.933431   -0.285687   -0.683781
     22          1           0        5.883671    2.628747   -1.130714
     23          1           0        3.732976    3.378156    0.617395
     24          8           0       -1.196598   -2.290152    1.265668
     25          6           0       -0.569203   -2.428896   -0.005226
     26          6           0        0.419093   -1.281883   -0.310478
     27          6           0        1.379805   -1.053640    0.849883
     28          6           0        0.603758   -0.864300    2.160262
     29          6           0       -0.340685   -2.058538    2.388428
     30          1           0       -0.035931   -3.394710   -0.084581
     31          1           0       -0.163663   -0.354321   -0.444619
     32          1           0        2.057170   -1.920370    0.947430
     33          1           0        1.315672   -0.832964    3.006296
     34          1           0        0.280834   -2.953867    2.595290
     35          8           0       -0.124188    0.376142    2.113060
     36          8           0        1.153997   -1.576028   -1.487509
     37          8           0       -1.601443   -2.521599   -0.963280
     38          6           0       -1.293481   -1.841228    3.570850
     39          1           0       -1.933305   -2.729356    3.688363
     40          1           0       -0.715923   -1.708550    4.497255
     41          8           0       -2.096079   -0.663125    3.395977
     42          1           0       -2.813182   -0.865953    2.727339
     43          1           0       -0.981998    0.211989    2.624552
     44          1           0        0.524237   -1.422171   -2.223280
     45          8           0       -4.942374   -1.021952   -1.335150
     46          6           0       -4.588739    0.310891   -1.560175
     47          6           0       -3.370202    0.452728   -2.506970
     48          6           0       -2.462093   -0.786035   -2.443256
     49          6           0       -2.484661   -1.387506   -1.037353
     50          6           0       -3.918538   -1.892464   -0.758469
     51          1           0       -5.474984    0.781753   -2.019560
     52          1           0       -2.774517    1.315834   -2.170200
     53          1           0       -2.844739   -1.553488   -3.143125
     54          1           0       -4.030123   -2.849078   -1.295987
     55          1           0       -2.202922   -0.635273   -0.284644
     56          8           0       -1.117739   -0.437032   -2.818288
     57          8           0       -3.731628    0.767739   -3.850888
     58          8           0       -4.308128    0.943018   -0.292428
     59          6           0       -4.243576   -2.166450    0.709123
     60          1           0       -5.289326   -2.512636    0.758183
     61          1           0       -3.587950   -2.967995    1.072422
     62          8           0       -4.059551   -1.045249    1.582241
     63          1           0       -4.365675   -0.240723    1.102970
     64          1           0       -1.160321   -0.107088   -3.734296
     65          1           0       -4.302811    0.054711   -4.194728
     66          6           0       -4.544026    2.365587   -0.248895
     67          1           0       -4.042194    2.855978   -1.102452
     68          1           0       -5.626858    2.557940   -0.343255
     69          6           0       -4.020512    2.888704    1.081929
     70          1           0       -4.548939    2.361463    1.891752
     71          1           0       -4.313841    3.947808    1.168110
     72          6           0       -2.504316    2.742234    1.294190
     73          1           0       -2.286695    2.938587    2.356729
     74          1           0       -2.221168    1.693506    1.111481
     75          6           0       -1.654969    3.688553    0.431704
     76          1           0       -1.748140    3.441534   -0.640723
     77          1           0       -2.041128    4.716337    0.530872
     78          6           0       -0.173821    3.748016    0.801696
     79          1           0       -0.039414    3.972377    1.869368
     80          1           0        0.334840    4.534404    0.227589
     81          7           0        0.554531    2.464990    0.544185
     82          1           0        0.242267    1.664965    1.174661
     83          1           0        1.598946    2.551420    0.700344
     84          1           0        0.430743    2.148507   -0.425064
 ---------------------------------------------------------------------
 Rotational constants (GHZ):      0.1399552      0.0571303      0.0546947
 Leave Link  202 at Wed Apr  6 16:51:48 2016, MaxMem= 10737418240 cpu:         0.7
 (Enter /share/apps//g09/l301.exe)
 Standard basis: 6-311+G(d,p) (5D, 7F)
 Ernie: Thresh=  0.10000D-02 Tol=  0.10000D-05 Strict=F.
 There are  1184 symmetry adapted cartesian basis functions of A   symmetry.
 There are  1144 symmetry adapted basis functions of A   symmetry.
  1144 basis functions,  1792 primitive gaussians,  1184 cartesian basis functions
   158 alpha electrons      158 beta electrons
       nuclear repulsion energy      5872.9261882088 Hartrees.
 IExCor= 1009 DFT=T Ex+Corr=PBE1PBE ExCW=0 ScaHFX=  0.250000
 ScaDFX=  0.750000  0.750000  1.000000  1.000000 ScalE2=  1.000000  1.000000
 IRadAn=      0 IRanWt=     -1 IRanGd=            0 ICorTp=0 IEmpDi=131
 NAtoms=   84 NActive=   84 NUniq=   84 SFac= 1.00D+00 NAtFMM=   60 NAOKFM=T Big=T
 Integral buffers will be    131072 words long.
 Raffenetti 2 integral format.
 Two-electron integral symmetry is turned on.
 R6Disp:  Grimme-D3 Dispersion energy=       -0.0847467031 Hartrees.
 Nuclear repulsion after empirical dispersion term =     5872.8414415057 Hartrees.
 Leave Link  301 at Wed Apr  6 16:51:48 2016, MaxMem= 10737418240 cpu:         1.5
 (Enter /share/apps//g09/l302.exe)
 NPDir=0 NMtPBC=     1 NCelOv=     1 NCel=       1 NClECP=     1 NCelD=      1
         NCelK=      1 NCelE2=     1 NClLst=     1 CellRange=     0.0.
 One-electron integrals computed using PRISM.
 NBasis=  1144 RedAO= T EigKep=  1.01D-06  NBF=  1144
 NBsUse=  1144 1.00D-06 EigRej= -1.00D+00 NBFU=  1144
 Precomputing XC quadrature grid using
 IXCGrd= 4 IRadAn=           0 IRanWt=          -1 IRanGd=           0 AccXCQ= 0.00D+00.
 Generated NRdTot=       0 NPtTot=           0 NUsed=           0 NTot=          32
 NSgBfM=  1076  1079  1080  1080  1080 MxSgAt=    84 MxSgA2=    84.
 Leave Link  302 at Wed Apr  6 16:51:52 2016, MaxMem= 10737418240 cpu:        52.3
 (Enter /share/apps//g09/l303.exe)
 DipDrv:  MaxL=1.
 Leave Link  303 at Wed Apr  6 16:51:54 2016, MaxMem= 10737418240 cpu:        26.7
 (Enter /share/apps//g09/l401.exe)
 ExpMin= 4.38D-02 ExpMax= 8.59D+03 ExpMxC= 1.30D+03 IAcc=2 IRadAn=         4 AccDes= 0.00D+00
 Harris functional with IExCor= 1009 and IRadAn=       4 diagonalized for initial guess.
 HarFok:  IExCor= 1009 AccDes= 0.00D+00 IRadAn=         4 IDoV= 1 UseB2=F ITyADJ=14
 ICtDFT=  3500011 ScaDFX=  1.000000  1.000000  1.000000  1.000000
 FoFCou: FMM=F IPFlag=           0 FMFlag=      100000 FMFlg1=        2001
         NFxFlg=           0 DoJE=T BraDBF=F KetDBF=T FulRan=T
         wScrn=  0.000000 ICntrl=     500 IOpCl=  0 I1Cent=   200000004 NGrid=           0
         NMat0=    1 NMatS0=      1 NMatT0=    0 NMatD0=    1 NMtDS0=    0 NMtDT0=    0
 Petite list used in FoFCou.
 Harris En= -2159.71519385440    
 JPrj=0 DoOrth=F DoCkMO=F.
 Leave Link  401 at Wed Apr  6 16:52:00 2016, MaxMem= 10737418240 cpu:       114.4
 (Enter /share/apps//g09/l502.exe)
 Closed shell SCF:
 Using DIIS extrapolation, IDIIS=  1040.
 Integral symmetry usage will be decided dynamically.
 IVT=     4256630 IEndB=     4256630 NGot= 10737418240 MDV= 10734581291
 LenX= 10734581291 LenY= 10733178251
 Requested convergence on RMS density matrix=1.00D-08 within 128 cycles.
 Requested convergence on MAX density matrix=1.00D-06.
 Requested convergence on             energy=1.00D-06.
 No special actions if energy rises.
 Fock matrices will be formed incrementally for  20 cycles.

 Cycle   1  Pass 1  IDiag  1:
 FoFJK:  IHMeth= 1 ICntrl=       0 DoSepK=F KAlg= 0 I1Cent=   0 FoldK=F
 IRaf= 770000000 NMat=   1 IRICut=       1 DoRegI=T DoRafI=F ISym2E= 0.
 FoFCou: FMM=T IPFlag=           0 FMFlag=      100000 FMFlg1=        2001
         NFxFlg=           0 DoJE=F BraDBF=F KetDBF=F FulRan=T
         wScrn=  0.000000 ICntrl=       0 IOpCl=  0 I1Cent=           0 NGrid=           0
         NMat0=    1 NMatS0=      1 NMatT0=    0 NMatD0=    1 NMtDS0=    0 NMtDT0=    0
 Symmetry not used in FoFCou.
 FMM levels:  10  Number of levels for PrismC:   9
 E= -2158.70403743550    
 DIIS: error= 1.21D-02 at cycle   1 NSaved=   1.
 NSaved= 1 IEnMin= 1 EnMin= -2158.70403743550     IErMin= 1 ErrMin= 1.21D-02
 ErrMax= 1.21D-02  0.00D+00 EMaxC= 1.00D-01 BMatC= 1.01D+00 BMatP= 1.01D+00
 IDIUse=3 WtCom= 8.79D-01 WtEn= 1.21D-01
 Coeff-Com:  0.100D+01
 Coeff-En:   0.100D+01
 Coeff:      0.100D+01
 Gap=     0.280 Goal=   None    Shift=    0.000
 GapD=    0.280 DampG=1.000 DampE=0.500 DampFc=0.5000 IDamp=-1.
 Damping current iteration by 5.00D-01
 RMSDP=1.09D-02 MaxDP=2.03D+00              OVMax= 1.37D-01

 Cycle   2  Pass 1  IDiag  1:
 RMSU=  5.44D-03    CP:  1.01D+00
 E= -2158.98626442232     Delta-E=       -0.282226986821 Rises=F Damp=T
 DIIS: error= 3.10D-03 at cycle   2 NSaved=   2.
 NSaved= 2 IEnMin= 2 EnMin= -2158.98626442232     IErMin= 2 ErrMin= 3.10D-03
 ErrMax= 3.10D-03  0.00D+00 EMaxC= 1.00D-01 BMatC= 7.92D-02 BMatP= 1.01D+00
 IDIUse=3 WtCom= 9.69D-01 WtEn= 3.10D-02
 Coeff-Com:  0.550D-01 0.945D+00
 Coeff-En:   0.148D+00 0.852D+00
 Coeff:      0.579D-01 0.942D+00
 Gap=     0.276 Goal=   None    Shift=    0.000
 RMSDP=5.69D-03 MaxDP=2.74D+00 DE=-2.82D-01 OVMax= 8.08D-02

 Cycle   3  Pass 1  IDiag  1:
 RMSU=  3.42D-03    CP:  9.27D-01  8.51D-01
 E= -2159.34854953055     Delta-E=       -0.362285108224 Rises=F Damp=F
 DIIS: error= 3.15D-03 at cycle   3 NSaved=   3.
 NSaved= 3 IEnMin= 3 EnMin= -2159.34854953055     IErMin= 2 ErrMin= 3.10D-03
 ErrMax= 3.15D-03  0.00D+00 EMaxC= 1.00D-01 BMatC= 4.40D-02 BMatP= 7.92D-02
 IDIUse=3 WtCom= 9.68D-01 WtEn= 3.15D-02
 Coeff-Com: -0.695D-01 0.410D+00 0.660D+00
 Coeff-En:   0.000D+00 0.000D+00 0.100D+01
 Coeff:     -0.673D-01 0.397D+00 0.670D+00
 Gap=     0.267 Goal=   None    Shift=    0.000
 RMSDP=1.69D-03 MaxDP=8.49D-01 DE=-3.62D-01 OVMax= 1.55D-02

 Cycle   4  Pass 1  IDiag  1:
 RMSU=  1.38D-03    CP:  9.38D-01  8.96D-01  7.83D-01
 E= -2159.37625958721     Delta-E=       -0.027710056661 Rises=F Damp=F
 DIIS: error= 1.25D-03 at cycle   4 NSaved=   4.
 NSaved= 4 IEnMin= 4 EnMin= -2159.37625958721     IErMin= 4 ErrMin= 1.25D-03
 ErrMax= 1.25D-03  0.00D+00 EMaxC= 1.00D-01 BMatC= 5.61D-03 BMatP= 4.40D-02
 IDIUse=3 WtCom= 9.87D-01 WtEn= 1.25D-02
 Coeff-Com: -0.362D-01 0.124D+00 0.339D+00 0.574D+00
 Coeff-En:   0.000D+00 0.000D+00 0.683D-01 0.932D+00
 Coeff:     -0.357D-01 0.122D+00 0.335D+00 0.578D+00
 Gap=     0.259 Goal=   None    Shift=    0.000
 RMSDP=1.31D-03 MaxDP=7.08D-01 DE=-2.77D-02 OVMax= 5.74D-03

 Cycle   5  Pass 1  IDiag  1:
 RMSU=  4.05D-04    CP:  9.17D-01  8.77D-01  8.02D-01  6.54D-01
 E= -2159.38107493041     Delta-E=       -0.004815343199 Rises=F Damp=F
 DIIS: error= 2.61D-04 at cycle   5 NSaved=   5.
 NSaved= 5 IEnMin= 5 EnMin= -2159.38107493041     IErMin= 5 ErrMin= 2.61D-04
 ErrMax= 2.61D-04  0.00D+00 EMaxC= 1.00D-01 BMatC= 2.54D-04 BMatP= 5.61D-03
 IDIUse=3 WtCom= 9.97D-01 WtEn= 2.61D-03
 Coeff-Com: -0.112D-01 0.252D-01 0.997D-01 0.250D+00 0.636D+00
 Coeff-En:   0.000D+00 0.000D+00 0.000D+00 0.000D+00 0.100D+01
 Coeff:     -0.112D-01 0.252D-01 0.994D-01 0.250D+00 0.637D+00
 Gap=     0.259 Goal=   None    Shift=    0.000
 RMSDP=2.26D-04 MaxDP=6.78D-02 DE=-4.82D-03 OVMax= 1.43D-03

 Cycle   6  Pass 1  IDiag  1:
 RMSU=  9.66D-05    CP:  9.20D-01  8.86D-01  8.23D-01  6.45D-01  7.61D-01
 E= -2159.38126408005     Delta-E=       -0.000189149643 Rises=F Damp=F
 DIIS: error= 6.82D-05 at cycle   6 NSaved=   6.
 NSaved= 6 IEnMin= 6 EnMin= -2159.38126408005     IErMin= 6 ErrMin= 6.82D-05
 ErrMax= 6.82D-05  0.00D+00 EMaxC= 1.00D-01 BMatC= 2.18D-05 BMatP= 2.54D-04
 IDIUse=1 WtCom= 1.00D+00 WtEn= 0.00D+00
 Coeff-Com: -0.389D-02 0.683D-02 0.344D-01 0.100D+00 0.326D+00 0.536D+00
 Coeff:     -0.389D-02 0.683D-02 0.344D-01 0.100D+00 0.326D+00 0.536D+00
 Gap=     0.259 Goal=   None    Shift=    0.000
 RMSDP=4.95D-05 MaxDP=2.22D-02 DE=-1.89D-04 OVMax= 4.06D-04

 Cycle   7  Pass 1  IDiag  1:
 RMSU=  2.45D-05    CP:  9.20D-01  8.86D-01  8.21D-01  6.64D-01  7.54D-01
                    CP:  7.21D-01
 E= -2159.38128060465     Delta-E=       -0.000016524602 Rises=F Damp=F
 DIIS: error= 1.70D-05 at cycle   7 NSaved=   7.
 NSaved= 7 IEnMin= 7 EnMin= -2159.38128060465     IErMin= 7 ErrMin= 1.70D-05
[...]
 92,-0.00003056,-0.00002251,0.00002569,0.00002303,0.00000527,0.00005340
 ,-0.00006166,0.00004532,-0.00021339,-0.00035638,0.00001531,0.00003961,
 -0.00001498,-0.00002367,0.00004250,0.00005864,-0.00039792,0.00057177,0
 .00061600,-0.00013538,0.00004255,-0.00029451,-0.00004589,0.00015681,-0
 .00017261,0.00013920,-0.00012825,-0.00004135,-0.00003640,0.00001050,-0
 .00001234,0.00000172,-0.00000209,-0.00000386,-0.00005199,0.00014200,0.
 00011744,0.00001628,0.00000666,-0.00001588,-0.00009267,0.00004610,-0.0
 0020037,0.00001417,-0.00010337,0.00007855,-0.00003256,0.00006618,0.000
 03511,0.00006299,-0.00000899,-0.00007651,0.00009942,0.00000674,-0.0000
 8101,0.00002477,-0.00000947,-0.00000768,0.00011702,-0.00010745,-0.0000
 1017,-0.00000147,-0.00002910,0.00001087,-0.00000338,-0.00000187,0.0000
 0347,-0.00001815,0.00004104,0.00001234,-0.00000995,-0.00000026,0.00000
 940,-0.00000649,-0.00000085,0.00000924,-0.00001541,-0.00001459,-0.0000
 1725,-0.00016680,0.00008579,-0.00001154,-0.00006494,-0.00001779,0.0000
 2734,-0.00006183,-0.00000472,0.00007095,0.00004177,-0.00001466,-0.0000
 2149,-0.00000561,0.00000094,0.00000401,-0.00000038,0.00000601,0.000007
 31,-0.00004716,0.00002594,0.00003497,0.00000822,-0.00002554,-0.0000266
 8,0.00005319,-0.00000948,0.00002899,0.00000791,-0.00000364,0.00000103,
 0.00002249,-0.00001579,-0.00001149,-0.00000930,0.00001413,-0.00000221,
 -0.00000959,-0.00000301,0.00001699,-0.00004275,0.00001741,-0.00005470,
 0.00001720,-0.00001702,-0.00000324,0.00003129,-0.00003194,0.00001627,0
 .00013973,0.00001522,0.00036310,-0.00002619,-0.00004920,-0.00003644,-0
 .00000606,-0.00008563,-0.00006596,-0.00348467,0.00269965,0.00171603,0.
 00020193,0.00011977,0.00010439,0.00024548,0.00070583,-0.00106897,-0.00
 101779,0.00986656,-0.02255141,-0.00057763,-0.00026290,-0.00062086,0.00
 102202,-0.00045129,0.00028763,-0.06500677,0.00821656,-0.01666099,-0.00
 061514,0.00318543,-0.00788255,0.07430883,-0.00148244,0.00069987,0.0004
 9867,0.00167648,-0.00260245,-0.00029756,0.00480319,-0.00491407,0.00108
 145,0.00053019,0.00152661,-0.00023186,-0.00018576,-0.00047915,-0.00005
 988,0.00069934,0.00031629,-0.00008507,-0.00003257,-0.00023646,-0.00004
 982,-0.00074274,0.00061459,-0.00014258,-0.00009071,-0.00005122,0.00017
 361,-0.00027007,0.00010461,-0.00007881,-0.00002717,-0.00002040,-0.0000
 6414,-0.00042033,0.00017556,-0.00016004,-0.00099630,-0.00052052,-0.000
 38291,-0.00085336,-0.00768208,-0.00563792,-0.00066064,-0.00045111,0.00
 285455,0.00005475,-0.00014566,0.00001387,0.00002145,0.00005053,0.00000
 726,-0.00006547,0.00002134,-0.00004354,-0.00014435,0.00019589,-0.00001
 001,0.00003004,-0.00005060,0.00002897,0.00013635,-0.00018533,0.0000351
 7,0.00019455,0.00001025,0.00022412,-0.00090179,0.00584916,-0.00296100,
 -0.00005527,-0.00019159,0.00020383,0.00001778,-0.00002661,-0.00029157,
 -0.00039667,0.00081678,-0.00008634,0.00003954,-0.00034316,-0.00268078,
 -0.00122981,0.00095653,-0.00056873,0.00047960,-0.00017215,-0.00006158,
 0.00003230,-0.00006544,-0.00005770,-0.00003057,-0.00023990,0.00016012,
 -0.00005163,0.00025032,0.00038187,0.00003160,-0.00040057,-0.00002572,0
 .00006646,-0.00009254,-0.00011434,0.00060590,-0.00443047,-0.00052222,0
 .00022321,-0.00039983,0.00031853,0.00006611,-0.00043125,0.00035178,-0.
 00023126,0.00033465,0.00002426,0.00006343,-0.00003028,0.00002875,-0.00
 001816,-0.00002965,0.00000905,0.00008416,-0.00041795,-0.00006239,0.000
 01927,0.00015405,-0.00002835,0.00001710,0.00014914,0.00022663,-0.00008
 804,0.00025323,-0.00002418,0.00014661,-0.00026319,-0.00015344,-0.00034
 820,0.00004396,0.00031270,-0.00021018,-0.00001535,0.00014485,-0.000017
 87,0.00004449,0.00003070,-0.00025484,0.00027315,0.00001968,-0.00001961
 ,0.00014285,-0.00002183,0.00001720,0.00000648,-0.00000713,0.00001864,-
 0.00004710,-0.00004938,0.00002529,-0.00000177,-0.00003002,0.00001890,-
 0.00000699,-0.00002077,0.00002296,0.00004902,0.00002563,0.00024937,-0.
 00020987,-0.00008706,0.00016894,0.00004169,-0.00006456,0.00039788,-0.0
 0007370,-0.00035052,-0.00010447,0.00003463,0.00006639,0.00001221,0.000
 00187,-0.00001457,0.00000772,-0.00001827,-0.00001813,0.00009650,-0.000
 19081,-0.00010387,-0.00003817,0.00015877,0.00014512,-0.00013593,0.0000
 2849,0.00002971,-0.00003390,-0.00000634,0.00000554,-0.00022034,0.00013
 022,0.00016611,-0.00002046,-0.00008239,0.00001813,0.00005123,-0.000002
 35,-0.00008773,-0.00007187,-0.00009831,0.00021421,-0.00003212,0.000042
 43,-0.00012852,-0.00000159,0.00009653,-0.00008067,0.00029315,0.0002026
 8,-0.00038301,-0.00000096,0.00002574,0.00006244,-0.00019404,0.00020592
 ,0.00034127,0.00235260,-0.00199417,-0.00122455,0.00004104,0.00008806,-
 0.00028594,-0.00001359,-0.00008321,0.00064967,0.00390241,-0.01263088,0
 .01771838,-0.00070592,0.00115873,-0.00020963,-0.00097740,0.00009748,0.
 00008355,0.00515197,-0.11260816,0.10463573,-0.00029129,0.01986894,-0.0
 1991944,-0.01020636,0.12404547,0.00071598,-0.00029181,-0.00245401,-0.0
 0039646,-0.00016010,0.00669117,-0.01134012,0.00708503,0.00346942,-0.00
 055336,-0.00170185,0.00001081,0.00001210,0.00096121,0.00046113,-0.0004
 3592,-0.00004855,0.00071992,0.00003439,0.00022461,-0.00034795,0.002510
 73,-0.00214751,0.00003100,-0.00002332,0.00025646,0.00008890,0.00047742
 ,-0.00022562,0.00006141,0.00012126,-0.00001732,0.00014540,0.00098084,-
 0.00066654,0.00009084,0.00173299,0.00013856,0.00041677,0.00730064,-0.0
 0940265,0.00375876,-0.00113794,0.00246136,-0.00467173,-0.00011965,0.00
 006362,0.00001953,0.00002909,-0.00015677,-0.00004607,0.00003636,0.0000
 1271,0.00004706,0.00019260,-0.00028058,-0.00020289,-0.00002443,0.00008
 518,-0.00003924,-0.00026394,0.00046235,0.00008124,-0.00035122,-0.00001
 798,-0.00046931,0.00069986,-0.00269522,-0.00274131,-0.00013871,0.00016
 828,-0.00009285,0.00012932,0.00007293,0.00001608,0.00092432,-0.0007449
 0,0.00014122,0.00024791,0.00020851,0.00053258,0.00135976,-0.00203695,0
 .00042100,-0.00030914,0.00021242,-0.00012883,-0.00005113,0.00009036,0.
 00009750,-0.00003955,0.00034404,-0.00030123,-0.00010447,0.00008040,0.0
 0014784,0.00001503,0.00040277,-0.00000911,-0.00010576,0.00012209,0.000
 17335,-0.00018284,0.00308749,0.00229867,-0.00067773,0.00028168,-0.0004
 3855,-0.00016955,0.00028151,-0.00015291,0.00018938,-0.00051167,-0.0000
 1542,-0.00005816,0.00005032,0.00002266,0.00001195,0.00002510,-0.000032
 59,0.00004527,0.00063206,0.00057065,0.00001412,-0.00006231,-0.00011187
 ,-0.00062216,0.00009406,-0.00077664,0.00016178,-0.00019237,0.00005446,
 -0.00020556,0.00027399,0.00024910,0.00053072,0.00000368,-0.00045447,0.
 00033394,0.00011553,-0.00023135,0.00007741,-0.00006287,-0.00003454,0.0
 0030070,-0.00019373,-0.00006225,0.00001643,-0.00014539,-0.00000630,-0.
 00001861,-0.00002147,0.00000987,-0.00001518,0.00007273,0.00007445,-0.0
 0004675,0.00000235,0.00004618,-0.00002965,0.00000733,0.00002661,-0.000
 03836,-0.00005165,-0.00002605,-0.00041626,0.00017604,0.00005793,-0.000
 30944,-0.00017377,0.00009867,-0.00061367,0.00006406,0.00051097,0.00018
 964,-0.00004923,-0.00014511,-0.00001944,-0.00001410,0.00004039,-0.0000
 0890,0.00002317,-0.00000596,-0.00018340,0.00018595,0.00025551,0.000041
 67,-0.00018134,-0.00020931,0.00020831,-0.00001867,0.00004859,0.0000657
 9,0.00003125,-0.00001333,0.00032493,-0.00018744,-0.00027625,0.00005860
 ,0.00014070,-0.00004819,-0.00006674,0.00000353,0.00014642,-0.00000696,
 0.00028134,-0.00007057,0.00001842,-0.00004005,0.00024316,-0.00006758,-
 0.00005277,-0.00001566,-0.00020419,-0.00046937,-0.00026590,-0.00000658
 ,0.00003558,0.00000709,0.00004359,0.00002581,-0.00015924,0.00332934,-0
 .00284940,-0.00086356,-0.00012612,0.00033260,-0.00020444,0.00048842,-0
 .00091728,0.00131671,-0.00696615,0.00069550,0.01132039,0.00060603,-0.0
 0027491,0.00023270,0.00056210,-0.00141555,0.00044713,-0.01095475,0.108
 85732,-0.27020265,-0.00126290,0.00476673,-0.02356534,0.01265251,-0.105
 17642,0.27697563,-0.00021042,-0.00000211,0.00005561,0.00013216,-0.0000
 9191,-0.00015978,0.00065763,-0.00044539,-0.00004188,0.00023976,0.00033
 099,-0.00045717,-0.00010012,0.00002696,-0.00003465,0.00015755,0.000109
 34,-0.00003764,-0.00002675,-0.00009796,0.00005081,-0.00015220,0.000067
 12,-0.00000884,-0.00012601,-0.00007142,-0.00008940,-0.00004589,0.00000
 675,-0.00001552,-0.00002614,0.00003272,-0.00000114,-0.00002019,-0.0001
 1708,0.00009432,-0.00016137,-0.00004705,0.00019201,-0.00068530,0.00086
 358,-0.00108803,-0.00045259,0.00005357,0.00008605,-0.00003029,0.000030
 98,-0.00002113,0.00000477,-0.00000152,-0.00000029,-0.00001597,0.000002
 34,-0.00000350,0.00000698,-0.00005817,0.00003983,-0.00000011,0.0000103
 8,-0.00000111,0.00000141,0.00001677,0.00001002,-0.00000037,0.00001337,
 0.00001179,0.00003260,0.00006352,0.00006422,-0.00036364,-0.00015101,-0
 .00008045,0.00037710,-0.00007366,0.00035375,0.00005886,0.00057198,0.00
 010165,0.00024500,0.00001434,-0.00000944,0.00058666,-0.00052312,0.0001
 3074,0.00004637,0.00019816,-0.00016935,-0.00001917,-0.00000561,-0.0000
 8963,0.00034822,0.00024349,0.00048292,-0.00007270,-0.00002181,0.000012
 71,-0.00009132,0.00009870,-0.00001831,-0.00003367,0.00001467,0.0000571
 9,-0.00019530,0.00109766,0.00063286,-0.00016557,-0.00050270,-0.0004460
 8,-0.00016225,0.00001862,-0.00010047,0.00007843,-0.00015000,0.00001262
 ,-0.00001404,0.00001952,0.00000781,-0.00001570,0.00000124,-0.00001020,
 -0.00004935,0.00014738,0.00017941,0.00005373,0.00002507,-0.00005629,-0
 .00010683,-0.00000394,-0.00026931,-0.00025464,0.00022110,0.00029603,-0
 .00015088,0.00006829,0.00000252,0.00040449,0.00008488,-0.00008983,0.00
 003181,-0.00003399,-0.00007252,0.00035530,0.00000364,0.00065436,0.0001
 4550,0.00002223,-0.00003150,0.00003001,-0.00009229,0.00006927,-0.00003
 664,-0.00001014,-0.00001915,0.00008177,0.00002557,0.00000661,-0.000040
 95,0.00002748,-0.00015894,-0.00001266,0.00000503,0.00000734,0.00003891
 ,-0.00002354,-0.00000610,0.00004391,-0.00006889,-0.00098829,-0.0001260
 9,0.00005125,-0.00007085,-0.00040851,0.00002243,0.00021703,0.00013130,
 0.00000734,-0.00007766,-0.00002950,-0.00000853,0.00000305,-0.00000094,
 0.00001116,0.00001036,-0.00015944,0.00003396,0.00007938,0.00004921,-0.
 00004876,-0.00005395,-0.00014392,-0.00007952,0.00016579,0.00002482,-0.
 00003791,0.00003159,0.00019126,-0.00009913,-0.00013313,0.00001799,0.00
 003965,-0.00002141,-0.00003269,0.00000890,0.00004668,0.00009814,0.0000
 7006,-0.00007951,0.00000649,-0.00002517,0.00008488,-0.00002465,-0.0000
 3346,0.00003562,-0.00025367,-0.00011893,-0.00010287,0.00008981,0.00002
 126,0.00010743,-0.00006173,-0.00005169,-0.00027192,0.00161604,-0.00069
 853,-0.00060797,-0.00005071,0.00060931,-0.00076126,0.00048604,-0.00020
 466,0.00050978,-0.02266671,-0.00750137,0.00482029,-0.00093700,0.004115
 44,0.00019148,0.00101619,-0.00022119,0.00034162,-0.34900933,-0.1264227
 3,0.06892645,-0.00611505,-0.00348309,0.00129020,0.00371044,0.00000679,
 0.00088111,0.37226232,-0.00043637,0.00041342,-0.00047899,-0.00018190,-
 0.00055181,0.00160744,-0.00034269,0.00013385,0.00033050,-0.00005304,-0
 .00003677,0.00039332,0.00006940,-0.00001065,0.00005680,0.00021451,0.00
 006042,0.00015734,0.00006570,0.00020503,-0.00019278,0.00007639,-0.0000
 7129,-0.00005717,0.00018015,0.00018335,0.00012013,-0.00001774,-0.00000
 853,-0.00001930,0.00003657,-0.00003434,0.00001003,-0.00003593,0.000038
 11,-0.00013811,0.00000938,-0.00014591,-0.00030540,0.00068812,-0.000378
 37,0.00046199,0.00013094,0.00181745,-0.00110060,0.00004283,-0.00007862
 ,0.00004269,0.00001458,-0.00001232,-0.00000759,-0.00001867,0.00000728,
 -0.00001249,-0.00004804,0.00008354,-0.00008531,0.00001505,-0.00001408,
 0.00001113,0.00002326,-0.00000784,0.00003066,0.00002412,0.00000217,0.0
 0000575,0.00006878,0.00005159,0.00006726,0.00019000,0.00004550,0.00022
 846,-0.00033081,0.00049899,-0.00095038,0.00094049,-0.00098712,0.000713
 82,0.00001238,-0.00063547,-0.00089181,-0.00047525,0.00013955,-0.000286
 54,0.00014268,-0.00023168,0.00002889,-0.00001363,0.00003459,0.00021983
 ,0.00001124,0.00051820,-0.00094704,0.00001058,0.00020556,0.00011390,0.
 00003400,0.00000272,0.00001203,0.00001854,-0.00002393,-0.00005446,0.00
 099997,-0.00102797,-0.00081521,-0.00065087,0.00003262,0.00011708,0.000
 05703,-0.00045996,0.00040104,-0.00013657,0.00011534,-0.00001405,0.0000
 2941,-0.00000985,0.00002325,0.00000514,-0.00001035,-0.00000018,0.00006
 906,-0.00015862,0.00007822,-0.00000485,0.00009718,-0.00006668,0.000038
 52,0.00006738,-0.00019545,0.00017905,0.00030405,-0.00021648,0.00006850
 ,-0.00027688,-0.00009949,-0.00004406,0.00011023,0.00021016,-0.00021698
 ,0.00011222,0.00017534,0.00007628,0.00005688,0.00008333,-0.00002724,0.
 00032294,-0.00009678,-0.00008995,0.00016527,-0.00005990,0.00000427,-0.
 00001291,0.00000049,0.00008710,-0.00002261,-0.00001735,-0.00000135,-0.
 00002567,-0.00003584,0.00001247,-0.00000885,0.00000977,-0.00005667,0.0
 0002012,-0.00004995,0.00022938,-0.00046368,-0.00023055,0.00007235,-0.0
 0007517,-0.00009271,0.00011749,-0.00015139,-0.00016084,-0.00003261,0.0
 0000959,-0.00000002,0.00000921,-0.00000418,0.00000844,-0.00000514,-0.0
 0001709,-0.00002975,0.00003808,-0.00012573,0.00001262,-0.00002217,0.00
 012215,0.00005005,-0.00021270,0.00006810,0.00017811,-0.00000534,0.0000
 1270,0.00000162,-0.00003388,0.00016091,0.00014447,-0.00003294,-0.00007
 202,-0.00001482,-0.00000286,-0.00002766,-0.00003567,0.00003296,-0.0000
 8112,0.00000938,-0.00001408,0.00000426,-0.00004347,0.00002533,-0.00000
 603,0.00001641,-0.00031609,0.00004220,0.00042971,-0.00010917,-0.000155
 09,-0.00022073,0.00004077,-0.00001591,-0.00007854,0.00092912,0.0023689
 1,-0.00091897,-0.00110327,-0.00093375,0.00071172,-0.00049665,-0.000104
 69,-0.00020328,0.02672983,0.01340017,-0.00615869,0.00403992,-0.0041515
 7,0.00001466,-0.00010071,0.00048836,-0.00057441,-0.12559589,-0.1115488
 7,0.03000060,-0.02260192,-0.00729003,0.01052139,-0.01513584,-0.0063237
 4,-0.00034417,0.13209297,0.11426720,0.00007150,-0.00014689,-0.00017447
 ,-0.00004051,0.00013838,0.00015287,0.00001310,0.00034337,-0.00035961,0
 .00038048,0.00052102,-0.00068350,-0.00026224,0.00014767,0.00008938,0.0
 0002751,0.00002985,0.00010832,-0.00002473,-0.00005558,0.00000130,-0.00
 009101,-0.00004153,-0.00000209,-0.00042507,-0.00008337,0.00009810,0.00
 000762,-0.00000117,0.00000021,-0.00001854,0.00001238,0.00008412,0.0001
 4500,-0.00032027,0.00006487,0.00002461,-0.00020226,0.00028085,-0.00130
 307,-0.00019447,-0.00073514,0.00027106,-0.00076789,-0.00099451,-0.0000
 4817,0.00000554,0.00001431,0.00000832,-0.00004313,-0.00001315,0.000002
 17,0.00000588,0.00001062,0.00003869,-0.00006786,-0.00004997,-0.0000015
 3,0.00001776,-0.00000157,-0.00004537,0.00009483,0.00005693,-0.00004789
 ,0.00002837,-0.00004448,0.00015138,0.00027811,-0.00035425,0.00030802,0
 .00027369,-0.00000551,-0.00044324,0.00018921,-0.00038084,0.00134867,-0
 .00123904,0.00079020,-0.00037488,-0.00012848,0.00101465,-0.00008667,-0
 .00008503,-0.00046943,-0.00016798,-0.00032159,0.00021579,-0.00002559,0
 .00007916,0.00018748,0.00000178,0.00012312,-0.00073651,0.00010113,0.00
 000327,-0.00019331,0.00005171,0.00005606,0.00001012,0.00001294,0.00001
 541,-0.00005763,0.00076821,-0.00089542,-0.00115630,-0.00071089,0.00023
 514,-0.00043286,-0.00001392,0.00019196,-0.00000315,0.00003697,-0.00002
 694,-0.00001235,-0.00001961,-0.00000429,-0.00000979,0.00002144,0.00001
 102,0.00000063,-0.00000049,0.00006823,-0.00013799,-0.00008089,-0.00009
 427,0.00005948,0.00008677,-0.00011826,0.00007280,0.00020035,-0.0001114
 4,0.00004842,0.00002977,0.00006492,0.00014055,-0.00007137,-0.00001650,
 -0.00018348,0.00029964,0.00011404,-0.00023577,0.00002201,-0.00002596,-
 0.00035081,0.00026082,-0.00009665,-0.00008693,-0.00009032,0.00000440,-
 0.00007399,0.00001326,-0.00001084,0.00002905,-0.00009348,0.00010013,0.
 00009729,-0.00002976,-0.00001466,0.00008388,-0.00000192,-0.00000230,0.
 00003535,-0.00014819,-0.00006601,-0.00007441,-0.00058118,0.00004315,0.
 00025128,-0.00015602,-0.00018979,0.00013469,0.00010038,-0.00006432,0.0
 0014653,-0.00003234,-0.00003477,-0.00001317,0.00001819,0.00000233,0.00
 001633,-0.00000775,0.00000088,-0.00000662,0.00008895,0.00008919,0.0000
 4963,-0.00004303,-0.00006370,-0.00007543,0.00012934,0.00004735,0.00016
 682,0.00000563,0.00002495,-0.00002419,-0.00012322,0.00008996,-0.000042
 49,0.00001468,0.00004442,-0.00000710,0.00001754,-0.00000507,0.00003579
 ,0.00012080,-0.00005409,-0.00012015,0.00000437,0.00000473,0.00001078,0
 .00001838,-0.00004103,0.00005161,-0.00024985,0.00021933,-0.00009742,0.
 00024402,-0.00000475,0.00006600,-0.00005329,-0.00026415,-0.00030149,-0
 .00193715,-0.00095789,0.00076213,0.00058915,0.00060658,0.00007387,0.00
 035437,0.00010907,-0.00018481,-0.00009060,-0.00081317,-0.00052507,-0.0
 0055412,0.00005391,0.00033446,0.00079451,-0.00012188,-0.00048135,0.067
 49722,0.02926615,-0.07088242,-0.02431293,-0.00630419,0.00908002,0.0327
 0518,0.01185390,-0.00278389,-0.07459877,-0.03150789,0.06863187\\-0.000
 01166,0.00000186,-0.00000579,0.00000520,-0.00001296,0.00000632,-0.0000
 0858,-0.00000313,-0.00000558,-0.00000471,-0.00000103,0.00000212,-0.000
 00350,-0.00000871,-0.00000116,-0.00000252,-0.00000406,0.00000431,-0.00
 000480,-0.00000206,-0.00000338,-0.00000500,-0.00000443,-0.00000171,-0.
 00000187,-0.00000430,0.00000131,-0.00000426,-0.00000588,0.00000339,-0.
 00000005,0.00000073,-0.00000021,-0.00000573,-0.00000963,-0.00000371,-0
 .00000433,-0.00000816,0.00000310,-0.00000538,-0.00001691,0.00000977,-0
 .00000461,0.00000347,-0.00000228,-0.00000116,-0.00000055,-0.00000182,-
 0.00000692,-0.00000305,-0.00000006,-0.00000429,-0.00000584,0.00000132,
 -0.00000614,-0.00001142,0.00000016,-0.00000425,-0.00000247,0.00000058,
 -0.00000669,0.00000158,-0.00000097,-0.00000679,-0.00000334,0.00000042,
 -0.00000454,0.00000148,-0.00000533,0.00000441,-0.00000065,-0.00000384,
 0.00000165,0.00001157,-0.00000359,-0.00000169,-0.00000180,-0.00000593,
 0.00000332,-0.00000559,-0.00000652,-0.00001368,0.00001096,-0.00000479,
 -0.00000578,0.00000500,-0.00000479,0.00000264,0.00000050,0.00000142,0.
 00000033,0.00000120,0.00000360,-0.00000124,-0.00000003,-0.00000045,-0.
 00000090,-0.00000297,-0.00000352,0.00000152,-0.00000045,-0.00000251,0.
 00000815,-0.00001129,-0.00001140,0.00000192,0.00000194,0.00000615,0.00
 000010,-0.00000444,0.00000284,0.00000919,-0.00001111,-0.00000148,0.000
 00390,0.00000525,-0.00000375,-0.00000197,0.00000571,-0.00000776,0.0000
 0045,0.00001589,-0.00000323,-0.00000116,-0.00000517,0.00000074,0.00000
 230,0.00000159,0.00000210,0.,-0.00000368,0.00000261,0.00000292,0.00001
 494,0.00000450,0.00001186,0.00000255,-0.00000742,0.00000082,0.00000182
 ,0.00000440,-0.00000201,0.00000423,0.00000088,0.00000458,0.00000497,0.
 00000233,0.00000523,-0.00001092,0.00000606,0.00000256,0.00000415,0.000
 00360,0.00000453,0.00000289,0.00000458,0.00000379,0.00000019,0.0000034
 8,0.00000537,0.00000480,0.00000233,0.00000139,-0.00000004,0.00000010,0
 .00000216,0.00000009,0.00000584,0.00000251,0.00000251,0.00000228,-0.00
 000361,0.00000068,0.00001201,0.00000800,0.00000601,-0.00000240,0.00000
 600,0.00000599,-0.00000013,0.00000313,0.00000305,-0.00000131,-0.000000
 89,0.00000646,-0.00000237,0.00000991,0.00000563,-0.00000357,0.00000093
 ,-0.00000201,0.00000485,0.00000503,0.00000224,0.00000769,0.00000341,0.
 00000435,-0.00000017,0.00000258,0.00000156,0.00000314,0.00000436,0.000
 00416,0.00000148,0.00000356,0.00000367,-0.00000300,0.00000314,0.000003
 97,-0.00000108,0.00000214,0.00000296,0.00000027,0.00000009,0.00000052,
 -0.00000244,0.00000126,0.00000121,-0.00000175,0.00000169,0.00000045,-0
 .00000031,-0.00000027,0.00000199,0.00000263,0.00000099,0.00000038,0.00
 000072,0.00000045,0.00000014,-0.00000005,0.00000460,-0.00000580,0.0000
 0030,-0.00000259,-0.00000037,-0.00000147,-0.00000275,-0.00000155,0.000
 00046,-0.00000803,0.00000429,0.00000114,-0.00000086,0.00000353,0.00000
 214,-0.00000028,0.00000301,-0.00000621,0.00000143,-0.00000232,-0.00000
 021\\\@


 LIFE IS A CONTINUAL STRUGGLE AGAINST THE TENDENCY TO PRODUCE ENTROPY.
 Job cpu time:      17 days  7 hours 30 minutes 16.1 seconds.
 File lengths (MBytes):  RWF=  17232 Int=      0 D2E=      0 Chk=    103 Scr=      1
 Normal termination of Gaussian 09 at Fri Apr  8 11:36:00 2016.
