 Entering Gaussian System, Link 0=g16
 Input=input.com
 Output=input.log
 Initial command:
 /home/matma/Programs/gaussian/G16_x86_SSE4/tar/g16/l1.exe "/scratch-data/gaussian/Gau-13581.inp" -scrdir="/scratch-data/gaussian/"
 Entering Link 1 = /home/matma/Programs/gaussian/G16_x86_SSE4/tar/g16/l1.exe PID=     13583.
  
 Copyright (c) 1988-2017, Gaussian, Inc.  All Rights Reserved.
  
 This is part of the Gaussian(R) 16 program.  It is based on
 the Gaussian(R) 09 system (copyright 2009, Gaussian, Inc.),
 the Gaussian(R) 03 system (copyright 2003, Gaussian, Inc.),
 the Gaussian(R) 98 system (copyright 1998, Gaussian, Inc.),
 the Gaussian(R) 94 system (copyright 1995, Gaussian, Inc.),
 the Gaussian 92(TM) system (copyright 1992, Gaussian, Inc.),
 the Gaussian 90(TM) system (copyright 1990, Gaussian, Inc.),
 the Gaussian 88(TM) system (copyright 1988, Gaussian, Inc.),
 the Gaussian 86(TM) system (copyright 1986, Carnegie Mellon
 University), and the Gaussian 82(TM) system (copyright 1983,
 Carnegie Mellon University). Gaussian is a federally registered
 trademark of Gaussian, Inc.
  
 This software contains proprietary and confidential information,
 including trade secrets, belonging to Gaussian, Inc.
  
 This software is provided under written license and may be
 used, copied, transmitted, or stored only in accord with that
 written license.
  
 The following legend is applicable only to US Government
 contracts under FAR:
  
                    RESTRICTED RIGHTS LEGEND
  
 Use, reproduction and disclosure by the US Government is
 subject to restrictions as set forth in subparagraphs (a)
 and (c) of the Commercial Computer Software - Restricted
 Rights clause in FAR 52.227-19.
  
 Gaussian, Inc.
 340 Quinnipiac St., Bldg. 40, Wallingford CT 06492
  
  
 ---------------------------------------------------------------
 Warning -- This program may not be used in any manner that
 competes with the business of Gaussian, Inc. or will provide
 assistance to any competitor of Gaussian, Inc.  The licensee
 of this program is prohibited from giving any competitor of
 Gaussian, Inc. access to this program.  By using this program,
 the user acknowledges that Gaussian, Inc. is engaged in the
 business of creating and licensing software in the field of
 computational chemistry and represents and warrants to the
 licensee that it is not a competitor of Gaussian, Inc. and that
 it will not use this program in any manner prohibited above.
 ---------------------------------------------------------------
  

 Cite this work as:
 Gaussian 16, Revision B.01,
 M. J. Frisch, G. W. Trucks, H. B. Schlegel, G. E. Scuseria, 
 M. A. Robb, J. R. Cheeseman, G. Scalmani, V. Barone, 
 G. A. Petersson, H. Nakatsuji, X. Li, M. Caricato, A. V. Marenich, 
 J. Bloino, B. G. Janesko, R. Gomperts, B. Mennucci, H. P. Hratchian, 
 J. V. Ortiz, A. F. Izmaylov, J. L. Sonnenberg, D. Williams-Young, 
 F. Ding, F. Lipparini, F. Egidi, J. Goings, B. Peng, A. Petrone, 
 T. Henderson, D. Ranasinghe, V. G. Zakrzewski, J. Gao, N. Rega, 
 G. Zheng, W. Liang, M. Hada, M. Ehara, K. Toyota, R. Fukuda, 
 J. Hasegawa, M. Ishida, T. Nakajima, Y. Honda, O. Kitao, H. Nakai, 
 T. Vreven, K. Throssell, J. A. Montgomery, Jr., J. E. Peralta, 
 F. Ogliaro, M. J. Bearpark, J. J. Heyd, E. N. Brothers, K. N. Kudin, 
 V. N. Staroverov, T. A. Keith, R. Kobayashi, J. Normand, 
 K. Raghavachari, A. P. Rendell, J. C. Burant, S. S. Iyengar, 
 J. Tomasi, M. Cossi, J. M. Millam, M. Klene, C. Adamo, R. Cammi, 
 J. W. Ochterski, R. L. Martin, K. Morokuma, O. Farkas, 
 J. B. Foresman, and D. J. Fox, Gaussian, Inc., Wallingford CT, 2016.
 
 ******************************************
 Gaussian 16:  ES64L-G16RevB.01 20-Dec-2017
                22-Jun-2021 
 ******************************************
 %nproc=12
 Will use up to   12 processors via shared memory.
 %mem=16GB
 --------------------------------------
 #P pm6 opt=loose freq int=(grid=99590)
 --------------------------------------
 1/7=-1,18=20,19=15,26=1,38=1/1,3;
 2/9=110,12=2,17=6,18=5,40=1/2;
 3/5=2,25=1,41=3900000,71=1,75=99590/1,2,3;
 4/35=1/1;
 5/5=2,35=1,38=5/2;
 6/7=2,8=2,9=2,10=2,28=1/1;
 7//1,2,3,16;
 1/7=-1,18=20,19=15,26=1/3(2);
 2/9=110/2;
 99//99;
 2/9=110/2;
 3/5=2,25=1,41=3900000,71=1,75=99590,135=20/1,2,3;
 4/5=5,16=3,35=1/1;
 5/5=2,35=1,38=5/2;
 7//1,2,3,16;
 1/7=-1,18=20,19=15,26=1/3(-5);
 2/9=110/2;
 6/7=2,8=2,9=2,10=2,19=2,28=1/1;
 99/9=1/99;
 Leave Link    1 at Tue Jun 22 14:22:03 2021, MaxMem=  2147483648 cpu:               0.2 elap:               0.0
 (Enter /home/matma/Programs/gaussian/G16_x86_SSE4/tar/g16/l101.exe)
 ------------
 offspring-11
 ------------
 Symbolic Z-matrix:
 Charge =  0 Multiplicity = 1
 O                     1.964     0.956     0.206 
 C                     2.445     2.126     0.881 
 C                     3.127     1.707     2.203 
 O                     3.988     0.63      1.811 
 C                     2.07      1.193     3.204 
 C                     1.086     2.332     3.534 
 O                     1.056     3.347     2.536 
 C                     1.213     3.022     1.138 
 C                    -0.098     2.419     0.616 
 O                    -1.207     3.117     1.212 
 O                    -1.99     -0.511     7.284 
 C                    -1.52     -0.711     5.94 
 C                    -1.568     0.64      5.193 
 C                    -0.734     0.627     3.892 
 C                     0.568    -0.217     3.962 
 O                     0.505    -1.377     4.795 
 C                    -0.077    -1.215     6.111 
 C                     0.007    -2.638     6.704 
 O                    -1.255    -3.111     7.162 
 O                     0.795    -0.797     2.679 
 O                    -0.288     1.994     3.765 
 O                    -2.949     0.766     4.874 
 O                     2.802     0.88      4.391 
 H                     3.178     2.625     0.206 
 H                     3.745     2.518     2.648 
 H                     4.348     0.189     2.621 
 H                     1.565     0.279     2.809 
 H                     1.352     2.916     4.452 
 H                     1.373     4.052     0.73 
 H                    -0.227     2.567    -0.472 
 H                    -0.195     1.34      0.851 
 H                    -0.975     3.338     2.17 
 H                    -2.172    -1.467     5.438 
 H                    -1.246     1.485     5.848 
 H                    -1.367     0.326     3.025 
 H                     1.467     0.387     4.204 
 H                     0.54     -0.488     6.682 
 H                     0.291    -3.374     5.921 
 H                     0.735    -2.677     7.534 
 H                    -1.657    -2.463     7.802 
 H                    -3.186     1.736     4.657 
 H                    -2.925    -0.185     7.251 
 H                     2.369     0.113     4.859 
 H                     0.579    -1.766     2.695 
 H                     2.678     0.262     0.202 
 
 ITRead=  0  0  0  0  0  0  0  0  0  0  0  0  0  0  0  0  0  0  0  0
 ITRead=  0  0  0  0  0  0  0  0  0  0  0  0  0  0  0  0  0  0  0  0
 ITRead=  0  0  0  0  0
 MicOpt= -1 -1 -1 -1 -1 -1 -1 -1 -1 -1 -1 -1 -1 -1 -1 -1 -1 -1 -1 -1
 MicOpt= -1 -1 -1 -1 -1 -1 -1 -1 -1 -1 -1 -1 -1 -1 -1 -1 -1 -1 -1 -1
 MicOpt= -1 -1 -1 -1 -1
 NAtoms=     45 NQM=       45 NQMF=       0 NMMI=      0 NMMIF=      0
                NMic=       0 NMicF=      0.
                    Isotopes and Nuclear Properties:
 (Nuclear quadrupole moments (NQMom) in fm**2, nuclear magnetic moments (NMagM)
  in nuclear magnetons)

  Atom         1           2           3           4           5           6           7           8           9          10
 IAtWgt=          16          12          12          16          12          12          16          12          12          16
 AtmWgt=  15.9949146  12.0000000  12.0000000  15.9949146  12.0000000  12.0000000  15.9949146  12.0000000  12.0000000  15.9949146
 NucSpn=           0           0           0           0           0           0           0           0           0           0
 AtZEff=  -0.0000000  -0.0000000  -0.0000000  -0.0000000  -0.0000000  -0.0000000  -0.0000000  -0.0000000  -0.0000000  -0.0000000
 NQMom=    0.0000000   0.0000000   0.0000000   0.0000000   0.0000000   0.0000000   0.0000000   0.0000000   0.0000000   0.0000000
 NMagM=    0.0000000   0.0000000   0.0000000   0.0000000   0.0000000   0.0000000   0.0000000   0.0000000   0.0000000   0.0000000
 AtZNuc=   8.0000000   6.0000000   6.0000000   8.0000000   6.0000000   6.0000000   8.0000000   6.0000000   6.0000000   8.0000000

  Atom        11          12          13          14          15          16          17          18          19          20
 IAtWgt=          16          12          12          12          12          16          12          12          16          16
 AtmWgt=  15.9949146  12.0000000  12.0000000  12.0000000  12.0000000  15.9949146  12.0000000  12.0000000  15.9949146  15.9949146
 NucSpn=           0           0           0           0           0           0           0           0           0           0
 AtZEff=  -0.0000000  -0.0000000  -0.0000000  -0.0000000  -0.0000000  -0.0000000  -0.0000000  -0.0000000  -0.0000000  -0.0000000
 NQMom=    0.0000000   0.0000000   0.0000000   0.0000000   0.0000000   0.0000000   0.0000000   0.0000000   0.0000000   0.0000000
 NMagM=    0.0000000   0.0000000   0.0000000   0.0000000   0.0000000   0.0000000   0.0000000   0.0000000   0.0000000   0.0000000
 AtZNuc=   8.0000000   6.0000000   6.0000000   6.0000000   6.0000000   8.0000000   6.0000000   6.0000000   8.0000000   8.0000000

  Atom        21          22          23          24          25          26          27          28          29          30
 IAtWgt=          16          16          16           1           1           1           1           1           1           1
 AtmWgt=  15.9949146  15.9949146  15.9949146   1.0078250   1.0078250   1.0078250   1.0078250   1.0078250   1.0078250   1.0078250
 NucSpn=           0           0           0           1           1           1           1           1           1           1
 AtZEff=  -0.0000000  -0.0000000  -0.0000000  -0.0000000  -0.0000000  -0.0000000  -0.0000000  -0.0000000  -0.0000000  -0.0000000
 NQMom=    0.0000000   0.0000000   0.0000000   0.0000000   0.0000000   0.0000000   0.0000000   0.0000000   0.0000000   0.0000000
 NMagM=    0.0000000   0.0000000   0.0000000   2.7928460   2.7928460   2.7928460   2.7928460   2.7928460   2.7928460   2.7928460
 AtZNuc=   8.0000000   8.0000000   8.0000000   1.0000000   1.0000000   1.0000000   1.0000000   1.0000000   1.0000000   1.0000000

  Atom        31          32          33          34          35          36          37          38          39          40
 IAtWgt=           1           1           1           1           1           1           1           1           1           1
 AtmWgt=   1.0078250   1.0078250   1.0078250   1.0078250   1.0078250   1.0078250   1.0078250   1.0078250   1.0078250   1.0078250
 NucSpn=           1           1           1           1           1           1           1           1           1           1
 AtZEff=  -0.0000000  -0.0000000  -0.0000000  -0.0000000  -0.0000000  -0.0000000  -0.0000000  -0.0000000  -0.0000000  -0.0000000
 NQMom=    0.0000000   0.0000000   0.0000000   0.0000000   0.0000000   0.0000000   0.0000000   0.0000000   0.0000000   0.0000000
 NMagM=    2.7928460   2.7928460   2.7928460   2.7928460   2.7928460   2.7928460   2.7928460   2.7928460   2.7928460   2.7928460
 AtZNuc=   1.0000000   1.0000000   1.0000000   1.0000000   1.0000000   1.0000000   1.0000000   1.0000000   1.0000000   1.0000000

  Atom        41          42          43          44          45
 IAtWgt=           1           1           1           1           1
 AtmWgt=   1.0078250   1.0078250   1.0078250   1.0078250   1.0078250
 NucSpn=           1           1           1           1           1
 AtZEff=  -0.0000000  -0.0000000  -0.0000000  -0.0000000  -0.0000000
 NQMom=    0.0000000   0.0000000   0.0000000   0.0000000   0.0000000
 NMagM=    2.7928460   2.7928460   2.7928460   2.7928460   2.7928460
 AtZNuc=   1.0000000   1.0000000   1.0000000   1.0000000   1.0000000
 Leave Link  101 at Tue Jun 22 14:22:03 2021, MaxMem=  2147483648 cpu:               3.0 elap:               0.2
 (Enter /home/matma/Programs/gaussian/G16_x86_SSE4/tar/g16/l103.exe)

 GradGradGradGradGradGradGradGradGradGradGradGradGradGradGradGradGradGrad
 Berny optimization.
 Initialization pass.
                           ----------------------------
                           !    Initial Parameters    !
                           ! (Angstroms and Degrees)  !
 --------------------------                            --------------------------
 ! Name  Definition              Value          Derivative Info.                !
 --------------------------------------------------------------------------------
 ! R1    R(1,2)                  1.4338         estimate D2E/DX2                !
 ! R2    R(1,45)                 0.9957         estimate D2E/DX2                !
 ! R3    R(2,3)                  1.5454         estimate D2E/DX2                !
 ! R4    R(2,8)                  1.5449         estimate D2E/DX2                !
 ! R5    R(2,24)                 1.1144         estimate D2E/DX2                !
 ! R6    R(3,4)                  1.4335         estimate D2E/DX2                !
 ! R7    R(3,5)                  1.5438         estimate D2E/DX2                !
 ! R8    R(3,25)                 1.1125         estimate D2E/DX2                !
 ! R9    R(4,26)                 0.99           estimate D2E/DX2                !
 ! R10   R(5,6)                  1.5409         estimate D2E/DX2                !
 ! R11   R(5,23)                 1.4293         estimate D2E/DX2                !
 ! R12   R(5,27)                 1.1164         estimate D2E/DX2                !
 ! R13   R(6,7)                  1.4238         estimate D2E/DX2                !
 ! R14   R(6,21)                 1.4337         estimate D2E/DX2                !
 ! R15   R(6,28)                 1.1201         estimate D2E/DX2                !
 ! R16   R(7,8)                  1.4438         estimate D2E/DX2                !
 ! R17   R(8,9)                  1.5345         estimate D2E/DX2                !
 ! R18   R(8,29)                 1.1194         estimate D2E/DX2                !
 ! R19   R(9,10)                 1.4395         estimate D2E/DX2                !
 ! R20   R(9,30)                 1.1056         estimate D2E/DX2                !
 ! R21   R(9,31)                 1.1085         estimate D2E/DX2                !
 ! R22   R(10,32)                1.0102         estimate D2E/DX2                !
 ! R23   R(11,12)                1.4378         estimate D2E/DX2                !
 ! R24   R(11,42)                0.9908         estimate D2E/DX2                !
 ! R25   R(12,13)                1.5445         estimate D2E/DX2                !
 ! R26   R(12,17)                1.538          estimate D2E/DX2                !
 ! R27   R(12,33)                1.1174         estimate D2E/DX2                !
 ! R28   R(13,14)                1.5454         estimate D2E/DX2                !
 ! R29   R(13,22)                1.423          estimate D2E/DX2                !
 ! R30   R(13,34)                1.1166         estimate D2E/DX2                !
 ! R31   R(14,15)                1.5532         estimate D2E/DX2                !
 ! R32   R(14,21)                1.4435         estimate D2E/DX2                !
 ! R33   R(14,35)                1.1149         estimate D2E/DX2                !
 ! R34   R(15,16)                1.4295         estimate D2E/DX2                !
 ! R35   R(15,20)                1.4262         estimate D2E/DX2                !
 ! R36   R(15,36)                1.1098         estimate D2E/DX2                !
 ! R37   R(16,17)                1.448          estimate D2E/DX2                !
 ! R38   R(17,18)                1.5439         estimate D2E/DX2                !
 ! R39   R(17,37)                1.1114         estimate D2E/DX2                !
 ! R40   R(18,19)                1.4234         estimate D2E/DX2                !
 ! R41   R(18,38)                1.1115         estimate D2E/DX2                !
 ! R42   R(18,39)                1.1047         estimate D2E/DX2                !
 ! R43   R(19,40)                0.9955         estimate D2E/DX2                !
 ! R44   R(20,44)                0.9929         estimate D2E/DX2                !
 ! R45   R(22,41)                1.0218         estimate D2E/DX2                !
 ! R46   R(23,43)                0.9974         estimate D2E/DX2                !
 ! A1    A(2,1,45)             109.2734         estimate D2E/DX2                !
 ! A2    A(1,2,3)              109.2391         estimate D2E/DX2                !
 ! A3    A(1,2,8)              106.502          estimate D2E/DX2                !
 ! A4    A(1,2,24)             107.5107         estimate D2E/DX2                !
 ! A5    A(3,2,8)              111.5222         estimate D2E/DX2                !
 ! A6    A(3,2,24)             110.4425         estimate D2E/DX2                !
 ! A7    A(8,2,24)             111.4443         estimate D2E/DX2                !
 ! A8    A(2,3,4)              103.5817         estimate D2E/DX2                !
 ! A9    A(2,3,5)              110.0456         estimate D2E/DX2                !
 ! A10   A(2,3,25)             112.9338         estimate D2E/DX2                !
 ! A11   A(4,3,5)              109.7789         estimate D2E/DX2                !
 ! A12   A(4,3,25)             108.8701         estimate D2E/DX2                !
 ! A13   A(5,3,25)             111.3265         estimate D2E/DX2                !
 ! A14   A(3,4,26)             109.2283         estimate D2E/DX2                !
 ! A15   A(3,5,6)              109.2666         estimate D2E/DX2                !
 ! A16   A(3,5,23)             105.1143         estimate D2E/DX2                !
 ! A17   A(3,5,27)             110.6621         estimate D2E/DX2                !
 ! A18   A(6,5,23)             108.1234         estimate D2E/DX2                !
 ! A19   A(6,5,27)             113.0824         estimate D2E/DX2                !
 ! A20   A(23,5,27)            110.2558         estimate D2E/DX2                !
 ! A21   A(5,6,7)              112.9723         estimate D2E/DX2                !
 ! A22   A(5,6,21)             118.1791         estimate D2E/DX2                !
 ! A23   A(5,6,28)             114.1589         estimate D2E/DX2                !
 ! A24   A(7,6,21)             105.1184         estimate D2E/DX2                !
 ! A25   A(7,6,28)             101.9936         estimate D2E/DX2                !
 ! A26   A(21,6,28)            102.6189         estimate D2E/DX2                !
 ! A27   A(6,7,8)              121.0603         estimate D2E/DX2                !
 ! A28   A(2,8,7)              112.2307         estimate D2E/DX2                !
 ! A29   A(2,8,9)              113.3787         estimate D2E/DX2                !
 ! A30   A(2,8,29)             111.042          estimate D2E/DX2                !
 ! A31   A(7,8,9)              108.9607         estimate D2E/DX2                !
 ! A32   A(7,8,29)              99.2847         estimate D2E/DX2                !
 ! A33   A(9,8,29)             111.0824         estimate D2E/DX2                !
 ! A34   A(8,9,10)             109.074          estimate D2E/DX2                !
 ! A35   A(8,9,30)             112.4478         estimate D2E/DX2                !
 ! A36   A(8,9,31)             112.6513         estimate D2E/DX2                !
 ! A37   A(10,9,30)            104.6338         estimate D2E/DX2                !
 ! A38   A(10,9,31)            108.4679         estimate D2E/DX2                !
 ! A39   A(30,9,31)            109.1905         estimate D2E/DX2                !
 ! A40   A(9,10,32)            108.7711         estimate D2E/DX2                !
 ! A41   A(12,11,42)           108.8524         estimate D2E/DX2                !
 ! A42   A(11,12,13)           108.679          estimate D2E/DX2                !
 ! A43   A(11,12,17)           104.3798         estimate D2E/DX2                !
 ! A44   A(11,12,33)           108.8636         estimate D2E/DX2                !
 ! A45   A(13,12,17)           111.689          estimate D2E/DX2                !
 ! A46   A(13,12,33)           110.8779         estimate D2E/DX2                !
 ! A47   A(17,12,33)           112.0664         estimate D2E/DX2                !
 ! A48   A(12,13,14)           112.5212         estimate D2E/DX2                !
 ! A49   A(12,13,22)           102.4766         estimate D2E/DX2                !
 ! A50   A(12,13,34)           111.6715         estimate D2E/DX2                !
 ! A51   A(14,13,22)           109.6192         estimate D2E/DX2                !
 ! A52   A(14,13,34)           110.1559         estimate D2E/DX2                !
 ! A53   A(22,13,34)           110.1438         estimate D2E/DX2                !
 ! A54   A(13,14,15)           114.7721         estimate D2E/DX2                !
 ! A55   A(13,14,21)           103.4641         estimate D2E/DX2                !
 ! A56   A(13,14,35)           110.5199         estimate D2E/DX2                !
 ! A57   A(15,14,21)           105.0438         estimate D2E/DX2                !
 ! A58   A(15,14,35)           111.3635         estimate D2E/DX2                !
 ! A59   A(21,14,35)           111.2646         estimate D2E/DX2                !
 ! A60   A(14,15,16)           115.4846         estimate D2E/DX2                !
 ! A61   A(14,15,20)           108.2924         estimate D2E/DX2                !
 ! A62   A(14,15,36)           113.1504         estimate D2E/DX2                !
 ! A63   A(16,15,20)           101.6085         estimate D2E/DX2                !
 ! A64   A(16,15,36)           110.5046         estimate D2E/DX2                !
 ! A65   A(20,15,36)           106.7725         estimate D2E/DX2                !
 ! A66   A(15,16,17)           117.1625         estimate D2E/DX2                !
 ! A67   A(12,17,16)           108.2225         estimate D2E/DX2                !
 ! A68   A(12,17,18)           113.3148         estimate D2E/DX2                !
 ! A69   A(12,17,37)           111.3225         estimate D2E/DX2                !
 ! A70   A(16,17,18)           102.9491         estimate D2E/DX2                !
 ! A71   A(16,17,37)           108.4794         estimate D2E/DX2                !
 ! A72   A(18,17,37)           112.0466         estimate D2E/DX2                !
 ! A73   A(17,18,19)           112.4342         estimate D2E/DX2                !
 ! A74   A(17,18,38)           110.7101         estimate D2E/DX2                !
 ! A75   A(17,18,39)           110.9142         estimate D2E/DX2                !
 ! A76   A(19,18,38)           103.4833         estimate D2E/DX2                !
 ! A77   A(19,18,39)           109.3162         estimate D2E/DX2                !
 ! A78   A(38,18,39)           109.7255         estimate D2E/DX2                !
 ! A79   A(18,19,40)           110.3993         estimate D2E/DX2                !
 ! A80   A(15,20,44)           110.3505         estimate D2E/DX2                !
 ! A81   A(6,21,14)            122.2448         estimate D2E/DX2                !
 ! A82   A(13,22,41)           110.9013         estimate D2E/DX2                !
 ! A83   A(5,23,43)            109.6185         estimate D2E/DX2                !
 ! D1    D(45,1,2,3)           -46.7431         estimate D2E/DX2                !
 ! D2    D(45,1,2,8)          -167.3168         estimate D2E/DX2                !
 ! D3    D(45,1,2,24)           73.1255         estimate D2E/DX2                !
 ! D4    D(1,2,3,4)             47.6974         estimate D2E/DX2                !
 ! D5    D(1,2,3,5)            -69.6074         estimate D2E/DX2                !
 ! D6    D(1,2,3,25)           165.3109         estimate D2E/DX2                !
 ! D7    D(8,2,3,4)            165.1511         estimate D2E/DX2                !
 ! D8    D(8,2,3,5)             47.8463         estimate D2E/DX2                !
 ! D9    D(8,2,3,25)           -77.2354         estimate D2E/DX2                !
 ! D10   D(24,2,3,4)           -70.349          estimate D2E/DX2                !
 ! D11   D(24,2,3,5)           172.3462         estimate D2E/DX2                !
 ! D12   D(24,2,3,25)           47.2645         estimate D2E/DX2                !
 ! D13   D(1,2,8,7)            123.9412         estimate D2E/DX2                !
 ! D14   D(1,2,8,9)             -0.052          estimate D2E/DX2                !
 ! D15   D(1,2,8,29)          -125.939          estimate D2E/DX2                !
 ! D16   D(3,2,8,7)              4.8465         estimate D2E/DX2                !
 ! D17   D(3,2,8,9)           -119.1467         estimate D2E/DX2                !
 ! D18   D(3,2,8,29)           114.9663         estimate D2E/DX2                !
 ! D19   D(24,2,8,7)          -119.0895         estimate D2E/DX2                !
 ! D20   D(24,2,8,9)           116.9173         estimate D2E/DX2                !
 ! D21   D(24,2,8,29)           -8.9697         estimate D2E/DX2                !
 ! D22   D(2,3,4,26)          -169.961          estimate D2E/DX2                !
 ! D23   D(5,3,4,26)           -52.4698         estimate D2E/DX2                !
 ! D24   D(25,3,4,26)           69.6266         estimate D2E/DX2                !
 ! D25   D(2,3,5,6)            -62.3082         estimate D2E/DX2                !
 ! D26   D(2,3,5,23)          -178.1403         estimate D2E/DX2                !
 ! D27   D(2,3,5,27)            62.8392         estimate D2E/DX2                !
 ! D28   D(4,3,5,6)           -175.69           estimate D2E/DX2                !
 ! D29   D(4,3,5,23)            68.4779         estimate D2E/DX2                !
 ! D30   D(4,3,5,27)           -50.5427         estimate D2E/DX2                !
 ! D31   D(25,3,5,6)            63.6886         estimate D2E/DX2                !
 ! D32   D(25,3,5,23)          -52.1435         estimate D2E/DX2                !
 ! D33   D(25,3,5,27)         -171.1641         estimate D2E/DX2                !
 ! D34   D(3,5,6,7)             21.9387         estimate D2E/DX2                !
 ! D35   D(3,5,6,21)           145.2007         estimate D2E/DX2                !
 ! D36   D(3,5,6,28)           -94.0065         estimate D2E/DX2                !
 ! D37   D(23,5,6,7)           135.8324         estimate D2E/DX2                !
 ! D38   D(23,5,6,21)         -100.9057         estimate D2E/DX2                !
 ! D39   D(23,5,6,28)           19.8871         estimate D2E/DX2                !
 ! D40   D(27,5,6,7)          -101.7916         estimate D2E/DX2                !
 ! D41   D(27,5,6,21)           21.4704         estimate D2E/DX2                !
 ! D42   D(27,5,6,28)          142.2632         estimate D2E/DX2                !
 ! D43   D(3,5,23,43)         -147.8529         estimate D2E/DX2                !
 ! D44   D(6,5,23,43)           95.5297         estimate D2E/DX2                !
 ! D45   D(27,5,23,43)         -28.5607         estimate D2E/DX2                !
 ! D46   D(5,6,7,8)             35.1917         estimate D2E/DX2                !
 ! D47   D(21,6,7,8)           -95.0355         estimate D2E/DX2                !
 ! D48   D(28,6,7,8)           158.1819         estimate D2E/DX2                !
 ! D49   D(5,6,21,14)            9.2702         estimate D2E/DX2                !
 ! D50   D(7,6,21,14)          136.3821         estimate D2E/DX2                !
 ! D51   D(28,6,21,14)        -117.2943         estimate D2E/DX2                !
 ! D52   D(6,7,8,2)            -50.0793         estimate D2E/DX2                !
 ! D53   D(6,7,8,9)             76.3396         estimate D2E/DX2                !
 ! D54   D(6,7,8,29)          -167.4568         estimate D2E/DX2                !
 ! D55   D(2,8,9,10)           164.2096         estimate D2E/DX2                !
 ! D56   D(2,8,9,30)           -80.1903         estimate D2E/DX2                !
 ! D57   D(2,8,9,31)            43.7131         estimate D2E/DX2                !
 ! D58   D(7,8,9,10)            38.4529         estimate D2E/DX2                !
 ! D59   D(7,8,9,30)           154.053          estimate D2E/DX2                !
 ! D60   D(7,8,9,31)           -82.0435         estimate D2E/DX2                !
 ! D61   D(29,8,9,10)          -69.9249         estimate D2E/DX2                !
 ! D62   D(29,8,9,30)           45.6752         estimate D2E/DX2                !
 ! D63   D(29,8,9,31)          169.5786         estimate D2E/DX2                !
 ! D64   D(8,9,10,32)          -37.4977         estimate D2E/DX2                !
 ! D65   D(30,9,10,32)        -158.0187         estimate D2E/DX2                !
 ! D66   D(31,9,10,32)          85.5336         estimate D2E/DX2                !
 ! D67   D(42,11,12,13)         60.8458         estimate D2E/DX2                !
 ! D68   D(42,11,12,17)       -179.8524         estimate D2E/DX2                !
 ! D69   D(42,11,12,33)        -60.0216         estimate D2E/DX2                !
 ! D70   D(11,12,13,14)        164.1561         estimate D2E/DX2                !
 ! D71   D(11,12,13,22)        -78.1967         estimate D2E/DX2                !
 ! D72   D(11,12,13,34)         39.6728         estimate D2E/DX2                !
 ! D73   D(17,12,13,14)         49.5365         estimate D2E/DX2                !
 ! D74   D(17,12,13,22)        167.1838         estimate D2E/DX2                !
 ! D75   D(17,12,13,34)        -74.9468         estimate D2E/DX2                !
 ! D76   D(33,12,13,14)        -76.2252         estimate D2E/DX2                !
 ! D77   D(33,12,13,22)         41.422          estimate D2E/DX2                !
 ! D78   D(33,12,13,34)        159.2914         estimate D2E/DX2                !
 ! D79   D(11,12,17,16)       -176.9843         estimate D2E/DX2                !
 ! D80   D(11,12,17,18)         69.5138         estimate D2E/DX2                !
 ! D81   D(11,12,17,37)        -57.8587         estimate D2E/DX2                !
 ! D82   D(13,12,17,16)        -59.7401         estimate D2E/DX2                !
 ! D83   D(13,12,17,18)       -173.242          estimate D2E/DX2                !
 ! D84   D(13,12,17,37)         59.3854         estimate D2E/DX2                !
 ! D85   D(33,12,17,16)         65.3646         estimate D2E/DX2                !
 ! D86   D(33,12,17,18)        -48.1372         estimate D2E/DX2                !
 ! D87   D(33,12,17,37)       -175.5098         estimate D2E/DX2                !
 ! D88   D(12,13,14,15)        -35.4031         estimate D2E/DX2                !
 ! D89   D(12,13,14,21)       -149.2582         estimate D2E/DX2                !
 ! D90   D(12,13,14,35)         91.5458         estimate D2E/DX2                !
 ! D91   D(22,13,14,15)       -148.7375         estimate D2E/DX2                !
 ! D92   D(22,13,14,21)         97.4074         estimate D2E/DX2                !
 ! D93   D(22,13,14,35)        -21.7886         estimate D2E/DX2                !
 ! D94   D(34,13,14,15)         89.9105         estimate D2E/DX2                !
 ! D95   D(34,13,14,21)        -23.9445         estimate D2E/DX2                !
 ! D96   D(34,13,14,35)       -143.1406         estimate D2E/DX2                !
 ! D97   D(12,13,22,41)        161.1425         estimate D2E/DX2                !
 ! D98   D(14,13,22,41)        -79.1652         estimate D2E/DX2                !
 ! D99   D(34,13,22,41)         42.194          estimate D2E/DX2                !
 ! D100  D(13,14,15,16)         32.9487         estimate D2E/DX2                !
 ! D101  D(13,14,15,20)        146.0489         estimate D2E/DX2                !
 ! D102  D(13,14,15,36)        -95.794          estimate D2E/DX2                !
 ! D103  D(21,14,15,16)        145.8759         estimate D2E/DX2                !
 ! D104  D(21,14,15,20)       -101.0238         estimate D2E/DX2                !
 ! D105  D(21,14,15,36)         17.1333         estimate D2E/DX2                !
 ! D106  D(35,14,15,16)        -93.5676         estimate D2E/DX2                !
 ! D107  D(35,14,15,20)         19.5326         estimate D2E/DX2                !
 ! D108  D(35,14,15,36)        137.6897         estimate D2E/DX2                !
 ! D109  D(13,14,21,6)         129.8098         estimate D2E/DX2                !
 ! D110  D(15,14,21,6)           9.1134         estimate D2E/DX2                !
 ! D111  D(35,14,21,6)        -111.5083         estimate D2E/DX2                !
 ! D112  D(14,15,16,17)        -46.4679         estimate D2E/DX2                !
 ! D113  D(20,15,16,17)       -163.3959         estimate D2E/DX2                !
 ! D114  D(36,15,16,17)         83.5656         estimate D2E/DX2                !
 ! D115  D(14,15,20,44)       -105.6087         estimate D2E/DX2                !
 ! D116  D(16,15,20,44)         16.4331         estimate D2E/DX2                !
 ! D117  D(36,15,20,44)        132.2439         estimate D2E/DX2                !
 ! D118  D(15,16,17,12)         59.2484         estimate D2E/DX2                !
 ! D119  D(15,16,17,18)        179.4637         estimate D2E/DX2                !
 ! D120  D(15,16,17,37)        -61.6589         estimate D2E/DX2                !
 ! D121  D(12,17,18,19)         -9.0849         estimate D2E/DX2                !
 ! D122  D(12,17,18,38)        106.1147         estimate D2E/DX2                !
 ! D123  D(12,17,18,39)       -131.8286         estimate D2E/DX2                !
 ! D124  D(16,17,18,19)       -125.732          estimate D2E/DX2                !
 ! D125  D(16,17,18,38)        -10.5324         estimate D2E/DX2                !
 ! D126  D(16,17,18,39)        111.5243         estimate D2E/DX2                !
 ! D127  D(37,17,18,19)        117.9081         estimate D2E/DX2                !
 ! D128  D(37,17,18,38)       -126.8923         estimate D2E/DX2                !
 ! D129  D(37,17,18,39)         -4.8356         estimate D2E/DX2                !
 ! D130  D(17,18,19,40)        -54.1004         estimate D2E/DX2                !
 ! D131  D(38,18,19,40)       -173.6011         estimate D2E/DX2                !
 ! D132  D(39,18,19,40)         69.538          estimate D2E/DX2                !
 --------------------------------------------------------------------------------
 Trust Radius=3.00D-01 FncErr=1.00D-07 GrdErr=1.00D-07 EigMax=2.50D+02 EigMin=1.00D-04
 Number of steps in this run=    270 maximum allowed number of steps=    270.
 GradGradGradGradGradGradGradGradGradGradGradGradGradGradGradGradGradGrad

 Leave Link  103 at Tue Jun 22 14:22:03 2021, MaxMem=  2147483648 cpu:               0.1 elap:               0.0
 (Enter /home/matma/Programs/gaussian/G16_x86_SSE4/tar/g16/l202.exe)
                          Input orientation:                          
 ---------------------------------------------------------------------
 Center     Atomic      Atomic             Coordinates (Angstroms)
 Number     Number       Type             X           Y           Z
 ---------------------------------------------------------------------
      1          8           0        1.964000    0.956000    0.206000
      2          6           0        2.445000    2.126000    0.881000
      3          6           0        3.127000    1.707000    2.203000
      4          8           0        3.988000    0.630000    1.811000
      5          6           0        2.070000    1.193000    3.204000
      6          6           0        1.086000    2.332000    3.534000
      7          8           0        1.056000    3.347000    2.536000
      8          6           0        1.213000    3.022000    1.138000
      9          6           0       -0.098000    2.419000    0.616000
     10          8           0       -1.207000    3.117000    1.212000
     11          8           0       -1.990000   -0.511000    7.284000
     12          6           0       -1.520000   -0.711000    5.940000
     13          6           0       -1.568000    0.640000    5.193000
     14          6           0       -0.734000    0.627000    3.892000
     15          6           0        0.568000   -0.217000    3.962000
     16          8           0        0.505000   -1.377000    4.795000
     17          6           0       -0.077000   -1.215000    6.111000
     18          6           0        0.007000   -2.638000    6.704000
     19          8           0       -1.255000   -3.111000    7.162000
     20          8           0        0.795000   -0.797000    2.679000
     21          8           0       -0.288000    1.994000    3.765000
     22          8           0       -2.949000    0.766000    4.874000
     23          8           0        2.802000    0.880000    4.391000
     24          1           0        3.178000    2.625000    0.206000
     25          1           0        3.745000    2.518000    2.648000
     26          1           0        4.348000    0.189000    2.621000
     27          1           0        1.565000    0.279000    2.809000
     28          1           0        1.352000    2.916000    4.452000
     29          1           0        1.373000    4.052000    0.730000
     30          1           0       -0.227000    2.567000   -0.472000
     31          1           0       -0.195000    1.340000    0.851000
     32          1           0       -0.975000    3.338000    2.170000
     33          1           0       -2.172000   -1.467000    5.438000
     34          1           0       -1.246000    1.485000    5.848000
     35          1           0       -1.367000    0.326000    3.025000
     36          1           0        1.467000    0.387000    4.204000
     37          1           0        0.540000   -0.488000    6.682000
     38          1           0        0.291000   -3.374000    5.921000
     39          1           0        0.735000   -2.677000    7.534000
     40          1           0       -1.657000   -2.463000    7.802000
     41          1           0       -3.186000    1.736000    4.657000
     42          1           0       -2.925000   -0.185000    7.251000
     43          1           0        2.369000    0.113000    4.859000
     44          1           0        0.579000   -1.766000    2.695000
     45          1           0        2.678000    0.262000    0.202000
 ---------------------------------------------------------------------
                    Distance matrix (angstroms):
                    1          2          3          4          5
     1  O    0.000000
     2  C    1.433836   0.000000
     3  C    2.429934   1.545435   0.000000
     4  O    2.603628   2.341744   1.433497   0.000000
     5  C    3.009221   2.531293   1.543841   2.436420   0.000000
     6  C    3.706730   2.987930   2.515525   3.779833   1.540934
     7  O    3.459804   2.481771   2.662617   4.062553   2.472678
     8  C    2.387673   1.544891   2.554769   3.724945   2.889299
     9  C    2.561311   2.573504   3.664169   4.617785   3.591802
    10  O    3.967014   3.798519   4.664090   5.790682   4.290521
    11  O    8.239192   8.223223   7.544519   8.184870   6.002801
    12  C    6.913458   7.025900   6.434788   7.013201   4.898879
    13  C    6.119236   6.075007   5.667593   6.504395   4.182938
    14  C    4.579742   4.628084   4.350453   5.160218   2.942128
    15  C    4.175198   4.301783   3.652990   4.128027   2.195146
    16  O    5.350747   5.599465   4.806704   5.006355   3.403734
    17  C    6.614223   6.698930   5.837479   6.198246   4.342663
    18  C    7.679238   7.908658   6.990882   7.104198   5.584132
    19  O    8.676888   8.975919   8.185764   8.373609   6.726500
    20  O    3.248892   3.807786   3.454680   3.603471   2.421023
    21  O    4.337676   3.975446   3.766223   4.895180   2.552741
    22  O    6.779668   6.847546   6.703544   7.584355   5.306749
    23  O    4.268752   3.741666   2.361546   2.850526   1.429252
    24  H    2.063821   1.114412   2.198484   2.685545   3.502327
    25  H    3.402230   2.228442   1.112506   2.079462   2.206895
    26  H    3.479076   3.225055   1.992458   0.990041   2.556793
    27  H    2.719033   2.811226   2.201423   2.643886   1.116443
    28  H    4.716424   3.817170   3.109712   4.375977   2.245386
    29  H    3.195164   2.209403   3.277998   4.440368   3.844524
    30  H    2.802764   3.027321   4.375448   5.170134   4.547204
    31  H    2.285774   2.754686   3.605312   4.350079   3.269318
    32  H    4.262504   3.850567   4.414482   5.665114   3.865515
    33  H    7.095861   7.415699   6.972726   7.449707   5.482784
    34  H    6.512765   6.221371   5.697231   6.665069   4.251101
    35  H    4.408993   4.729490   4.772723   5.499294   3.549183
    36  H    4.068756   3.875943   2.915819   3.484385   1.418889
    37  H    6.786125   6.641809   5.618900   6.071678   4.154894
    38  H    7.362680   7.764748   6.905286   6.825828   5.603965
    39  H    8.270956   8.381845   7.304840   7.366884   5.958861
    40  H    9.082974   9.262050   8.463117   8.793450   6.956901
    41  H    6.851445   6.791056   6.773251   7.796745   5.480109
    42  H    8.650793   8.646070   8.104855   8.834444   6.574733
    43  H    4.746060   4.458972   3.189002   3.489807   1.998706
    44  H    3.939877   4.681903   4.335447   4.259525   3.352289
    45  H    0.995715   1.997455   2.508710   2.107227   3.201317
                    6          7          8          9         10
     6  C    0.000000
     7  O    1.423773   0.000000
     8  C    2.496607   1.443841   0.000000
     9  C    3.150262   2.424727   1.534540   0.000000
    10  O    3.356450   2.631928   2.422994   1.439549   0.000000
    11  O    5.622004   6.834163   7.779114   7.525077   7.116506
    12  C    4.673320   5.889852   6.668117   6.337504   6.091431
    13  C    3.557929   4.612253   5.463599   5.125882   4.702575
    14  C    2.519442   3.527214   4.136587   3.787867   3.688662
    15  C    2.636078   3.869589   4.345356   4.311353   4.672117
    16  O    3.960349   5.265250   5.764210   5.677787   5.997072
    17  C    4.535935   5.905604   6.659354   6.587976   6.636515
    18  C    5.992832   7.368368   8.029346   7.915050   8.047104
    19  O    6.947583   8.273232   8.943897   8.646945   8.613524
    20  O    3.256739   4.154673   4.139344   3.923783   4.634597
    21  O    1.433695   2.268785   3.195452   3.183226   2.936579
    22  O    4.530914   5.307337   6.030711   5.384345   4.687431
    23  O    2.405703   3.546213   4.206554   5.002914   5.584111
    24  H    3.941814   3.233120   2.210760   3.307977   4.525740
    25  H    2.808892   2.816115   2.990843   4.348273   5.190684
    26  H    4.008324   4.562615   4.478103   5.362820   6.435564
    27  H    2.229322   3.121896   3.231129   3.486319   4.276522
    28  H    1.120061   1.986060   3.318607   4.130908   4.133580
    29  H    3.301997   1.964472   1.119359   2.200801   2.786207
    30  H    4.222230   3.361927   2.207425   1.105572   2.024538
    31  H    3.134249   2.903838   2.212229   1.108546   2.076582
    32  H    2.668380   2.063734   2.439718   2.007139   1.010163
    33  H    5.354641   6.481989   7.078089   6.531015   6.308990
    34  H    3.392673   4.442476   5.531107   5.437286   4.915022
    35  H    3.209412   3.903395   4.181577   3.434282   3.332004
    36  H    2.092149   3.422389   4.050691   4.410441   4.853374
    37  H    4.261504   5.671225   6.596133   6.756778   6.780039
    38  H    6.236043   7.564079   8.039651   7.864680   8.157927
    39  H    6.419757   7.834004   8.579971   8.632603   8.792581
    40  H    6.980824   8.297423   9.095659   8.826268   8.646791
    41  H    4.457166   5.008845   5.778266   5.131463   4.206142
    42  H    6.019925   7.110177   8.048395   7.667853   7.093959
    43  H    2.885425   4.192738   4.862557   5.422801   5.925572
    44  H    4.213618   5.137663   5.074559   4.721736   5.406734
    45  H    4.233390   4.194719   3.261889   3.539805   4.925886
                   11         12         13         14         15
    11  O    0.000000
    12  C    1.437789   0.000000
    13  C    2.423874   1.544511   0.000000
    14  C    3.791866   2.569503   1.545421   0.000000
    15  C    4.203033   2.918264   2.610039   1.553203   0.000000
    16  O    3.629064   2.419753   2.919593   2.523202   1.429496
    17  C    2.351832   1.538020   2.550849   2.957799   2.455653
    18  C    2.974649   2.574637   3.938151   4.372259   3.700612
    19  O    2.704646   2.706198   4.247933   4.993695   4.683862
    20  O    5.389253   4.000093   3.737504   2.415986   1.426190
    21  O    4.642757   3.683134   2.347531   1.443514   2.379089
    22  O    2.891109   2.315151   1.422954   2.426905   3.763950
    23  O    5.767807   4.859050   4.449461   3.579987   2.525511
    24  H    9.308104   8.128890   7.164838   5.734313   5.384849
    25  H    7.972300   6.998852   6.183193   5.018452   4.393194
    26  H    7.899608   6.801411   6.466656   5.256806   4.031317
    27  H    5.769554   4.505606   3.953412   2.565033   1.602945
    28  H    5.561791   4.859800   3.775666   3.147144   3.266565
    29  H    8.665198   7.628874   6.341104   5.115498   5.414629
    30  H    8.528645   7.316480   6.132197   4.802619   5.295568
    31  H    6.930492   5.644479   4.607395   3.169633   3.561564
    32  H    6.480588   5.559166   4.095044   3.220697   4.269677
    33  H    2.086810   1.117427   2.205514   2.973684   3.353905
    34  H    2.568978   2.214939   1.116572   2.196416   3.121602
    35  H    4.384949   3.097742   2.199823   1.114890   2.217441
    36  H    4.716318   3.625116   3.202086   2.235922   1.109766
    37  H    2.600737   2.200885   2.816588   3.263495   2.733610
    38  H    3.906085   3.220505   4.483086   4.601681   3.725729
    39  H    3.489940   3.389840   4.667610   5.132109   4.340354
    40  H    2.046831   2.560335   4.055048   5.068346   4.974007
    41  H    3.657944   3.226369   2.026434   2.797751   4.288327
    42  H    0.990752   1.992341   2.599507   4.091785   4.797874
    43  H    5.027015   4.119691   3.986133   3.290577   2.038899
    44  H    5.406820   4.006102   4.079025   2.980474   2.001202
    45  H    8.517187   7.175972   6.563648   5.038955   4.338103
                   16         17         18         19         20
    16  O    0.000000
    17  C    1.448041   0.000000
    18  C    2.341454   1.543902   0.000000
    19  O    3.421556   2.467205   1.423424   0.000000
    20  O    2.213133   3.565632   4.495648   5.445584   0.000000
    21  O    3.612948   3.980693   5.493648   6.207715   3.184645
    22  O    4.065563   3.701745   4.865599   4.809959   4.612866
    23  O    3.245531   3.954247   5.053545   6.329753   3.125911
    24  H    6.649801   7.759488   8.943065  10.046846   4.848144
    25  H    5.502566   6.366737   7.550372   8.778487   4.437644
    26  H    4.684793   5.807921   6.595991   7.931222   3.687732
    27  H    2.794661   3.978870   5.109528   6.196217   1.329502
    28  H    4.389181   4.675413   6.142267   7.103892   4.152126
    29  H    6.837521   7.668047   9.072526   9.979257   5.257897
    30  H    6.620593   7.593544   8.868019   9.569453   4.721205
    31  H    4.840168   5.848893   7.079753   7.795109   2.981351
    32  H    5.595735   6.088324   7.565319   8.160151   4.526611
    33  H    2.754610   2.214827   2.778856   2.552607   4.106589
    34  H    3.516512   2.953935   4.393390   4.780156   4.406332
    35  H    3.088283   3.682686   4.920184   5.379617   2.460709
    36  H    2.094378   2.930356   4.187150   5.328701   2.044276
    37  H    2.086220   1.111422   2.215191   3.214429   4.022998
    38  H    2.302538   2.198364   1.111504   1.999841   4.171991
    39  H    3.040563   2.195841   1.104719   2.070469   5.206633
    40  H    3.859493   2.629332   2.001281   0.995544   5.918867
    41  H    4.830455   4.526411   5.789416   5.787676   5.116340
    42  H    4.383800   3.235986   3.861741   3.370207   5.925886
    43  H    2.387193   3.051885   4.068301   5.369484   2.838657
    44  H    2.137007   3.521788   4.142421   5.012651   0.992911
    45  H    5.338904   6.684896   7.603962   8.676821   3.286746
                   21         22         23         24         25
    21  O    0.000000
    22  O    3.133494   0.000000
    23  O    3.343796   5.772373   0.000000
    24  H    5.007774   7.923776   4.549794   0.000000
    25  H    4.217506   7.268715   2.571059   2.509243   0.000000
    26  H    5.104827   7.658665   2.449591   3.624255   2.405947
    27  H    2.699772   4.987744   2.096209   3.857602   3.129128
    28  H    2.002911   4.826923   2.500303   4.631142   3.023122
    29  H    4.025607   6.830096   5.050401   2.359858   3.414420
    30  H    4.276005   6.263593   5.972401   3.472330   5.051097
    31  H    2.987936   4.909024   4.661031   3.666658   4.487816
    32  H    2.195980   4.221786   5.023976   4.648986   4.814487
    33  H    4.280994   2.430661   5.598687   8.528821   7.659975
    34  H    2.348560   2.089461   4.344557   7.259720   6.018070
    35  H    2.119921   2.472878   4.421926   5.821442   5.574902
    36  H    2.419751   4.482588   1.435355   4.890825   3.485912
    37  H    3.918520   4.124864   3.498106   7.654305   5.964999
    38  H    5.813691   5.360355   5.171319   8.774052   7.573527
    39  H    6.088525   5.701027   5.177179   9.369047   7.740873
    40  H    6.167364   4.546305   6.534007  10.342349   8.975282
    41  H    3.043129   1.021840   6.054720   7.816791   7.258537
    42  H    4.884056   2.560294   6.489403   9.735232   8.542992
    43  H    3.434333   5.357962   0.997398   5.349302   3.544844
    44  H    4.004271   4.858585   3.849605   5.677218   5.327140
    45  H    4.948934   7.331080   4.236156   2.415323   3.494416
                   26         27         28         29         30
    26  H    0.000000
    27  H    2.790794   0.000000
    28  H    4.445796   3.114255   0.000000
    29  H    5.229653   4.312150   3.891558   0.000000
    30  H    6.012666   4.383055   5.182742   2.491993   0.000000
    31  H    5.009646   2.838500   4.224238   3.134997   1.804683
    32  H    6.201123   4.027084   3.286417   2.845435   2.852036
    33  H    7.293026   4.891352   5.709769   8.074135   7.415139
    34  H    6.586804   4.311807   3.278137   6.296235   6.492418
    35  H    5.730900   2.940321   4.017137   5.163110   4.307051
    36  H    3.293213   1.402602   2.543732   5.050716   5.430194
    37  H    5.608111   4.079098   4.149634   7.532051   7.816715
    38  H    6.328050   4.965081   6.545822   9.124839   8.742669
    39  H    6.738345   5.634932   6.415689   9.590667   9.618785
    40  H    8.362768   6.544455   7.015000  10.081632   9.787997
    41  H    7.956108   5.301882   4.693386   6.447454   5.979371
    42  H    8.629792   6.332990   5.978573   8.885292   8.631190
    43  H    2.988455   2.208274   3.009443   5.792787   6.417234
    44  H    4.246512   2.273151   5.060208   6.191994   5.427192
    45  H    2.940372   2.834697   5.183097   4.043007   3.769128
                   31         32         33         34         35
    31  H    0.000000
    32  H    2.517968   0.000000
    33  H    5.729603   5.933014   0.000000
    34  H    5.108389   4.127316   3.120878   0.000000
    35  H    2.669842   3.155445   3.112144   3.054055   0.000000
    36  H    3.861743   4.336925   4.266426   3.356890   3.070068
    37  H    6.154866   6.106689   3.140210   2.788921   4.203914
    38  H    6.939949   7.792541   3.152191   5.096820   4.982548
    39  H    7.852622   8.238739   3.782587   4.908075   5.810980
    40  H    8.057087   8.113948   2.616436   4.424222   5.539165
    41  H    4.856803   3.693250   3.449256   2.290214   2.821398
    42  H    7.123098   6.483100   2.344675   2.752517   4.532942
    43  H    4.913623   5.367838   4.842760   3.991081   4.167328
    44  H    3.694137   5.361097   3.896338   4.882728   2.876157
    45  H    3.136465   5.165192   7.343544   6.983611   4.933097
                   36         37         38         39         40
    36  H    0.000000
    37  H    2.786654   0.000000
    38  H    4.298393   2.995016   0.000000
    39  H    4.583974   2.357043   1.812378   0.000000
    40  H    5.552250   3.159404   2.857059   2.416461   0.000000
    41  H    4.865739   4.788515   6.308671   6.567034   5.464473
    42  H    5.375970   3.524457   4.720305   4.436863   2.664716
    43  H    1.147913   2.651372   4.195843   4.196389   5.612994
    44  H    2.775074   4.187001   3.616032   4.926477   5.618448
    45  H    4.183079   6.864688   7.185070   8.134568   9.163943
                   41         42         43         44         45
    41  H    0.000000
    42  H    3.238394   0.000000
    43  H    5.790765   5.816950   0.000000
    44  H    5.503515   5.961100   3.378999   0.000000
    45  H    7.510406   9.015643   4.669618   3.838442   0.000000
 Stoichiometry    C12H22O11
 Framework group  C1[X(C12H22O11)]
 Deg. of freedom   129
 Full point group                 C1      NOp   1
 Largest Abelian subgroup         C1      NOp   1
 Largest concise Abelian subgroup C1      NOp   1
                         Standard orientation:                         
 ---------------------------------------------------------------------
 Center     Atomic      Atomic             Coordinates (Angstroms)
 Number     Number       Type             X           Y           Z
 ---------------------------------------------------------------------
      1          8           0       -3.397930   -0.741558    1.547765
      2          6           0       -3.710489   -0.569336    0.159049
      3          6           0       -2.812382   -1.502135   -0.684551
      4          8           0       -2.919681   -2.766429   -0.017498
      5          6           0       -1.349568   -1.010551   -0.640217
      6          6           0       -1.266815    0.396239   -1.263571
      7          8           0       -2.515046    1.081082   -1.257363
      8          6           0       -3.449011    0.917622   -0.168479
      9          6           0       -2.956294    1.729170    1.037104
     10          8           0       -2.395352    2.970345    0.571134
     11          8           0        4.303620    1.001451   -0.804328
     12          6           0        3.209583    0.641163    0.056201
     13          6           0        1.981456    1.499108   -0.319497
     14          6           0        0.665160    0.934798    0.261230
     15          6           0        0.588313   -0.615661    0.312331
     16          8           0        1.829598   -1.285702    0.544097
     17          6           0        2.971028   -0.850394   -0.233378
     18          6           0        4.106837   -1.761714    0.279523
     19          8           0        5.235833   -1.021207    0.730253
     20          8           0       -0.159452   -0.988935    1.467983
     21          8           0       -0.326758    1.327246   -0.711302
     22          8           0        2.278659    2.747339    0.295636
     23          8           0       -0.627580   -1.912731   -1.481386
     24          1           0       -4.784249   -0.834073    0.021686
     25          1           0       -3.169192   -1.616559   -1.732055
     26          1           0       -2.249324   -3.390961   -0.392682
     27          1           0       -0.951614   -1.051555    0.402087
     28          1           0       -1.004448    0.400431   -2.352461
     29          1           0       -4.351056    1.391815   -0.631534
     30          1           0       -3.781125    2.030207    1.708907
     31          1           0       -2.184165    1.193775    1.625360
     32          1           0       -1.901508    2.799604   -0.293386
     33          1           0        3.510613    0.819867    1.117375
     34          1           0        1.890549    1.627187   -1.424968
     35          1           0        0.453492    1.385028    1.258961
     36          1           0        0.066480   -1.055708   -0.562672
     37          1           0        2.751121   -1.023107   -1.309050
     38          1           0        3.784489   -2.319671    1.185181
     39          1           0        4.425334   -2.473336   -0.503137
     40          1           0        5.548933   -0.398734    0.019196
     41          1           0        1.720676    3.498293   -0.115316
     42          1           0        4.516005    1.959532   -0.668081
     43          1           0        0.301426   -2.022409   -1.135380
     44          1           0        0.445576   -1.342556    2.171379
     45          1           0       -3.352211   -1.714138    1.756200
 ---------------------------------------------------------------------
 Rotational constants (GHZ):           0.4653738           0.1748531           0.1456166
 Leave Link  202 at Tue Jun 22 14:22:03 2021, MaxMem=  2147483648 cpu:               0.0 elap:               0.0
 (Enter /home/matma/Programs/gaussian/G16_x86_SSE4/tar/g16/l301.exe)
 Standard basis: VSTO-6G (5D, 7F)
 Ernie: Thresh=  0.10000D-02 Tol=  0.10000D-05 Strict=F.
  NNHCO=     0 NNPyr=     0 NCTC=     0               EPep=         0.000000000
    EC=      1223.866177707  ECS=         9.298027222   EG=         0.757227763
   EHC=         0.002720537  EAt=      -175.965002454  AtH=         6.138669069
 EPDDG=         0.000000000  ECC=      1233.924153229 EAtT=       182.103671523
 There are   114 symmetry adapted cartesian basis functions of A   symmetry.
 There are   114 symmetry adapted basis functions of A   symmetry.
   114 basis functions,   684 primitive gaussians,   114 cartesian basis functions
    68 alpha electrons       68 beta electrons
       nuclear repulsion energy      1416.0278247518 Hartrees.
 IExCor=    0 DFT=F Ex=HF Corr=None ExCW=0 ScaHFX=  1.000000
 ScaDFX=  1.000000  1.000000  1.000000  1.000000 ScalE2=  1.000000  1.000000
 IRadAn=  99590 IRanWt=     -1 IRanGd=            0 ICorTp=0 IEmpDi=  4
 Integral buffers will be    131072 words long.
 Regular integral format.
 Two-electron integral symmetry is turned off.
 Leave Link  301 at Tue Jun 22 14:22:03 2021, MaxMem=  2147483648 cpu:               0.2 elap:               0.0
 (Enter /home/matma/Programs/gaussian/G16_x86_SSE4/tar/g16/l302.exe)
 Do NDO integrals.
 NPDir=0 NMtPBC=     1 NCelOv=     1 NCel=       1 NClECP=     1 NCelD=      1
         NCelK=      1 NCelE2=     1 NClLst=     1 CellRange=     0.0.
 One-electron integrals computed using PRISM.
 NBasis=   114 RedAO= F EigKep=  0.00D+00  NBF=   114
 NBsUse=   114 1.00D-04 EigRej=  0.00D+00 NBFU=   114
 Leave Link  302 at Tue Jun 22 14:22:03 2021, MaxMem=  2147483648 cpu:               0.6 elap:               0.0
 (Enter /home/matma/Programs/gaussian/G16_x86_SSE4/tar/g16/l303.exe)
 DipDrv:  MaxL=1.
 Leave Link  303 at Tue Jun 22 14:22:03 2021, MaxMem=  2147483648 cpu:               0.1 elap:               0.0
 (Enter /home/matma/Programs/gaussian/G16_x86_SSE4/tar/g16/l401.exe)
 Simple Huckel Guess.
 JPrj=0 DoOrth=F DoCkMO=F.
 Leave Link  401 at Tue Jun 22 14:22:03 2021, MaxMem=  2147483648 cpu:               0.2 elap:               0.0
 (Enter /home/matma/Programs/gaussian/G16_x86_SSE4/tar/g16/l502.exe)
 Keep J ints in memory in canonical form, NReq=892272.
 FoFCou: FMM=F IPFlag=           0 FMFlag=           0 FMFlg1=           0
         NFxFlg=           0 DoJE=F BraDBF=F KetDBF=F FulRan=T
         wScrn=  0.000000 ICntrl=       600 IOpCl=  2 I1Cent=           0 NGrid=           0
         NMat0=    1 NMatS0=    252 NMatT0=    0 NMatD0=    1 NMtDS0=    0 NMtDT0=    0
 Symmetry not used in FoFCou.
 Two-electron integral symmetry not used.
 Closed shell SCF:
 Using DIIS extrapolation, IDIIS=  1040.
 Overlap will be assumed to be unity.
 NGot=  2147483648 LenX=  2147363403 LenY=  2147349966
 Requested convergence on RMS density matrix=1.00D-08 within 128 cycles.
 Requested convergence on MAX density matrix=1.00D-06.
 Requested convergence on             energy=1.00D-06.
 No special actions if energy rises.

 Cycle   1  Pass 1  IDiag  1:
 E= 0.682203739813303    
 DIIS: error= 5.68D-02 at cycle   1 NSaved=   1.
 NSaved= 1 IEnMin= 1 EnMin= 0.682203739813303     IErMin= 1 ErrMin= 5.68D-02
 ErrMax= 5.68D-02  0.00D+00 EMaxC= 1.00D-01 BMatC= 3.18D-01 BMatP= 3.18D-01
 IDIUse=3 WtCom= 4.32D-01 WtEn= 5.68D-01
 Coeff-Com:  0.100D+01
 Coeff-En:   0.100D+01
 Coeff:      0.100D+01
 GapD=    2.000 DampG=2.000 DampE=0.500 DampFc=1.0000 IDamp=-1.
 RMSDP=8.27D-03 MaxDP=1.27D-01              OVMax= 0.00D+00

 Cycle   2  Pass 1  IDiag  1:
 E=-0.325297694389292     Delta-E=       -1.007501434203 Rises=F Damp=F
 DIIS: error= 1.67D-02 at cycle   2 NSaved=   2.
 NSaved= 2 IEnMin= 2 EnMin=-0.325297694389292     IErMin= 2 ErrMin= 1.67D-02
 ErrMax= 1.67D-02  0.00D+00 EMaxC= 1.00D-01 BMatC= 4.62D-02 BMatP= 3.18D-01
 IDIUse=3 WtCom= 8.33D-01 WtEn= 1.67D-01
 Coeff-Com: -0.439D+00 0.144D+01
 Coeff-En:   0.000D+00 0.100D+01
 Coeff:     -0.366D+00 0.137D+01
 RMSDP=4.85D-03 MaxDP=5.76D-02 DE=-1.01D+00 OVMax= 0.00D+00

 Cycle   3  Pass 1  IDiag  3:
 E=-0.535374701273668     Delta-E=       -0.210077006884 Rises=F Damp=F
 DIIS: error= 5.79D-03 at cycle   3 NSaved=   3.
 NSaved= 3 IEnMin= 3 EnMin=-0.535374701273668     IErMin= 3 ErrMin= 5.79D-03
 ErrMax= 5.79D-03  0.00D+00 EMaxC= 1.00D-01 BMatC= 4.68D-03 BMatP= 4.62D-02
 IDIUse=3 WtCom= 9.42D-01 WtEn= 5.79D-02
 Coeff-Com:  0.257D+00-0.103D+01 0.177D+01
 Coeff-En:   0.000D+00 0.000D+00 0.100D+01
 Coeff:      0.242D+00-0.972D+00 0.173D+01
 Gap=     0.377 Goal=   None    Shift=    0.000
 RMSDP=2.41D-03 MaxDP=3.57D-02 DE=-2.10D-01 OVMax= 3.10D-02

 Cycle   4  Pass 1  IDiag  3:
 E=-0.566342992067121     Delta-E=       -0.030968290793 Rises=F Damp=F
 DIIS: error= 1.07D-03 at cycle   4 NSaved=   4.
 NSaved= 4 IEnMin= 4 EnMin=-0.566342992067121     IErMin= 4 ErrMin= 1.07D-03
 ErrMax= 1.07D-03  0.00D+00 EMaxC= 1.00D-01 BMatC= 2.22D-04 BMatP= 4.68D-03
 IDIUse=3 WtCom= 9.89D-01 WtEn= 1.07D-02
 Coeff-Com: -0.452D-01 0.207D+00-0.558D+00 0.140D+01
 Coeff-En:   0.000D+00 0.000D+00 0.000D+00 0.100D+01
 Coeff:     -0.447D-01 0.204D+00-0.552D+00 0.139D+01
 Gap=     0.373 Goal=   None    Shift=    0.000
 RMSDP=5.89D-04 MaxDP=9.78D-03 DE=-3.10D-02 OVMax= 9.83D-03

 Cycle   5  Pass 1  IDiag  3:
 E=-0.567926311445035     Delta-E=       -0.001583319378 Rises=F Damp=F
 DIIS: error= 2.48D-04 at cycle   5 NSaved=   5.
 NSaved= 5 IEnMin= 5 EnMin=-0.567926311445035     IErMin= 5 ErrMin= 2.48D-04
 ErrMax= 2.48D-04  0.00D+00 EMaxC= 1.00D-01 BMatC= 1.25D-05 BMatP= 2.22D-04
 IDIUse=3 WtCom= 9.98D-01 WtEn= 2.48D-03
 Coeff-Com: -0.187D-02 0.568D-02 0.419D-01-0.384D+00 0.134D+01
 Coeff-En:   0.000D+00 0.000D+00 0.000D+00 0.000D+00 0.100D+01
 Coeff:     -0.186D-02 0.566D-02 0.418D-01-0.383D+00 0.134D+01
 Gap=     0.374 Goal=   None    Shift=    0.000
 RMSDP=1.24D-04 MaxDP=2.02D-03 DE=-1.58D-03 OVMax= 2.42D-03

 Cycle   6  Pass 1  IDiag  3:
 E=-0.568007446722049     Delta-E=       -0.000081135277 Rises=F Damp=F
 DIIS: error= 1.09D-04 at cycle   6 NSaved=   6.
 NSaved= 6 IEnMin= 6 EnMin=-0.568007446722049     IErMin= 6 ErrMin= 1.09D-04
 ErrMax= 1.09D-04  0.00D+00 EMaxC= 1.00D-01 BMatC= 1.02D-06 BMatP= 1.25D-05
 IDIUse=3 WtCom= 9.99D-01 WtEn= 1.09D-03
 Coeff-Com:  0.342D-02-0.141D-01 0.131D-01 0.890D-01-0.608D+00 0.152D+01
 Coeff-En:   0.000D+00 0.000D+00 0.000D+00 0.000D+00 0.000D+00 0.100D+01
 Coeff:      0.341D-02-0.141D-01 0.131D-01 0.889D-01-0.608D+00 0.152D+01
 Gap=     0.374 Goal=   None    Shift=    0.000
 RMSDP=3.80D-05 MaxDP=7.19D-04 DE=-8.11D-05 OVMax= 7.23D-04

 Cycle   7  Pass 1  IDiag  3:
 E=-0.568014461704934     Delta-E=       -0.000007014983 Rises=F Damp=F
 DIIS: error= 3.65D-05 at cycle   7 NSaved=   7.
 NSaved= 7 IEnMin= 7 EnMin=-0.568014461704934     IErMin= 7 ErrMin= 3.65D-05
 ErrMax= 3.65D-05  0.00D+00 EMaxC= 1.00D-01 BMatC= 7.25D-08 BMatP= 1.02D-06
 IDIUse=1 WtCom= 1.00D+00 WtEn= 0.00D+00
 Coeff-Com: -0.111D-02 0.486D-02-0.532D-02-0.279D-01 0.222D+00-0.740D+00
 Coeff-Com:  0.155D+01
 Coeff:     -0.111D-02 0.486D-02-0.532D-02-0.279D-01 0.222D+00-0.740D+00
 Coeff:      0.155D+01
 Gap=     0.374 Goal=   None    Shift=    0.000
 RMSDP=1.05D-05 MaxDP=2.22D-04 DE=-7.01D-06 OVMax= 1.94D-04

 Cycle   8  Pass 1  IDiag  3:
 E=-0.568014985165064     Delta-E=       -0.000000523460 Rises=F Damp=F
 DIIS: error= 9.90D-06 at cycle   8 NSaved=   8.
 NSaved= 8 IEnMin= 8 EnMin=-0.568014985165064     IErMin= 8 ErrMin= 9.90D-06
 ErrMax= 9.90D-06  0.00D+00 EMaxC= 1.00D-01 BMatC= 6.07D-09 BMatP= 7.25D-08
 IDIUse=1 WtCom= 1.00D+00 WtEn= 0.00D+00
 Coeff-Com:  0.161D-03-0.852D-03 0.872D-03 0.701D-02-0.572D-01 0.220D+00
 Coeff-Com: -0.707D+00 0.154D+01
 Coeff:      0.161D-03-0.852D-03 0.872D-03 0.701D-02-0.572D-01 0.220D+00
 Coeff:     -0.707D+00 0.154D+01
 Gap=     0.374 Goal=   None    Shift=    0.000
 RMSDP=3.18D-06 MaxDP=6.87D-05 DE=-5.23D-07 OVMax= 4.34D-05

 Cycle   9  Pass 1  IDiag  3:
 E=-0.568015031353298     Delta-E=       -0.000000046188 Rises=F Damp=F
 DIIS: error= 3.63D-06 at cycle   9 NSaved=   9.
 NSaved= 9 IEnMin= 9 EnMin=-0.568015031353298     IErMin= 9 ErrMin= 3.63D-06
 ErrMax= 3.63D-06  0.00D+00 EMaxC= 1.00D-01 BMatC= 5.87D-10 BMatP= 6.07D-09
 IDIUse=1 WtCom= 1.00D+00 WtEn= 0.00D+00
 Coeff-Com: -0.168D-04 0.174D-03-0.185D-03-0.175D-02 0.165D-01-0.719D-01
 Coeff-Com:  0.279D+00-0.852D+00 0.163D+01
 Coeff:     -0.168D-04 0.174D-03-0.185D-03-0.175D-02 0.165D-01-0.719D-01
 Coeff:      0.279D+00-0.852D+00 0.163D+01
 Gap=     0.374 Goal=   None    Shift=    0.000
 RMSDP=1.03D-06 MaxDP=3.20D-05 DE=-4.62D-08 OVMax= 1.45D-05

 Cycle  10  Pass 1  IDiag  3:
 E=-0.568015036147472     Delta-E=       -0.000000004794 Rises=F Damp=F
 DIIS: error= 1.32D-06 at cycle  10 NSaved=  10.
 NSaved=10 IEnMin=10 EnMin=-0.568015036147472     IErMin=10 ErrMin= 1.32D-06
 ErrMax= 1.32D-06  0.00D+00 EMaxC= 1.00D-01 BMatC= 6.69D-11 BMatP= 5.87D-10
 IDIUse=1 WtCom= 1.00D+00 WtEn= 0.00D+00
 Coeff-Com:  0.124D-04-0.101D-03 0.156D-03 0.207D-03-0.466D-02 0.231D-01
 Coeff-Com: -0.985D-01 0.346D+00-0.957D+00 0.169D+01
 Coeff:      0.124D-04-0.101D-03 0.156D-03 0.207D-03-0.466D-02 0.231D-01
 Coeff:     -0.985D-01 0.346D+00-0.957D+00 0.169D+01
 Gap=     0.374 Goal=   None    Shift=    0.000
 RMSDP=3.84D-07 MaxDP=1.19D-05 DE=-4.79D-09 OVMax= 5.33D-06

 Cycle  11  Pass 1  IDiag  3:
 E=-0.568015036700444     Delta-E=       -0.000000000553 Rises=F Damp=F
 DIIS: error= 3.65D-07 at cycle  11 NSaved=  11.
 NSaved=11 IEnMin=11 EnMin=-0.568015036700444     IErMin=11 ErrMin= 3.65D-07
 ErrMax= 3.65D-07  0.00D+00 EMaxC= 1.00D-01 BMatC= 5.57D-12 BMatP= 6.69D-11
 IDIUse=1 WtCom= 1.00D+00 WtEn= 0.00D+00
 Coeff-Com: -0.753D-05 0.488D-04-0.859D-04 0.127D-03 0.654D-03-0.469D-02
 Coeff-Com:  0.230D-01-0.893D-01 0.296D+00-0.759D+00 0.153D+01
 Coeff:     -0.753D-05 0.488D-04-0.859D-04 0.127D-03 0.654D-03-0.469D-02
 Coeff:      0.230D-01-0.893D-01 0.296D+00-0.759D+00 0.153D+01
 Gap=     0.374 Goal=   None    Shift=    0.000
 RMSDP=1.02D-07 MaxDP=2.78D-06 DE=-5.53D-10 OVMax= 1.53D-06

 Cycle  12  Pass 1  IDiag  3:
 E=-0.568015036746601     Delta-E=       -0.000000000046 Rises=F Damp=F
 DIIS: error= 7.69D-08 at cycle  12 NSaved=  12.
 NSaved=12 IEnMin=12 EnMin=-0.568015036746601     IErMin=12 ErrMin= 7.69D-08
 ErrMax= 7.69D-08  0.00D+00 EMaxC= 1.00D-01 BMatC= 4.69D-13 BMatP= 5.57D-12
 IDIUse=1 WtCom= 1.00D+00 WtEn= 0.00D+00
 Coeff-Com:  0.218D-05-0.135D-04 0.266D-04-0.910D-04 0.178D-03-0.319D-04
 Coeff-Com: -0.180D-02 0.983D-02-0.411D-01 0.153D+00-0.590D+00 0.147D+01
 Coeff:      0.218D-05-0.135D-04 0.266D-04-0.910D-04 0.178D-03-0.319D-04
 Coeff:     -0.180D-02 0.983D-02-0.411D-01 0.153D+00-0.590D+00 0.147D+01
 Gap=     0.374 Goal=   None    Shift=    0.000
 RMSDP=2.75D-08 MaxDP=6.99D-07 DE=-4.62D-11 OVMax= 3.49D-07

 Cycle  13  Pass 1  IDiag  3:
 E=-0.568015036751376     Delta-E=       -0.000000000005 Rises=F Damp=F
 DIIS: error= 2.33D-08 at cycle  13 NSaved=  13.
 NSaved=13 IEnMin=13 EnMin=-0.568015036751376     IErMin=13 ErrMin= 2.33D-08
 ErrMax= 2.33D-08  0.00D+00 EMaxC= 1.00D-01 BMatC= 3.74D-14 BMatP= 4.69D-13
 IDIUse=1 WtCom= 1.00D+00 WtEn= 0.00D+00
 Coeff-Com: -0.416D-06 0.273D-05-0.635D-05 0.366D-04-0.144D-03 0.392D-03
 Coeff-Com: -0.912D-03 0.203D-02-0.266D-02-0.133D-01 0.142D+00-0.623D+00
 Coeff-Com:  0.150D+01
 Coeff:     -0.416D-06 0.273D-05-0.635D-05 0.366D-04-0.144D-03 0.392D-03
 Coeff:     -0.912D-03 0.203D-02-0.266D-02-0.133D-01 0.142D+00-0.623D+00
 Coeff:      0.150D+01
 Gap=     0.374 Goal=   None    Shift=    0.000
 RMSDP=7.33D-09 MaxDP=1.89D-07 DE=-4.77D-12 OVMax= 7.86D-08

 Cycle  14  Pass 2  IDiag  1:
 SCF Done:  E(RPM6) = -0.568015036751     A.U. after   14 cycles
            NFock= 13  Conv=0.73D-08     -V/T= 0.9981
 KE=-3.046763312963D+02 PE=-2.433105086656D+03 EE= 1.321185578164D+03
 Leave Link  502 at Tue Jun 22 14:22:03 2021, MaxMem=  2147483648 cpu:               0.5 elap:               0.0
 (Enter /home/matma/Programs/gaussian/G16_x86_SSE4/tar/g16/l601.exe)
 Copying SCF densities to generalized density rwf, IOpCl= 0 IROHF=0.

 **********************************************************************

            Population analysis using the SCF Density.

 **********************************************************************

 Orbital symmetries:
       Occupied  (A) (A) (A) (A) (A) (A) (A) (A) (A) (A) (A) (A)
                 (A) (A) (A) (A) (A) (A) (A) (A) (A) (A) (A) (A)
                 (A) (A) (A) (A) (A) (A) (A) (A) (A) (A) (A) (A)
                 (A) (A) (A) (A) (A) (A) (A) (A) (A) (A) (A) (A)
                 (A) (A) (A) (A) (A) (A) (A) (A) (A) (A) (A) (A)
                 (A) (A) (A) (A) (A) (A) (A) (A)
       Virtual   (A) (A) (A) (A) (A) (A) (A) (A) (A) (A) (A) (A)
                 (A) (A) (A) (A) (A) (A) (A) (A) (A) (A) (A) (A)
                 (A) (A) (A) (A) (A) (A) (A) (A) (A) (A) (A) (A)
                 (A) (A) (A) (A) (A) (A) (A) (A) (A) (A)
 The electronic state is 1-A.
 Alpha  occ. eigenvalues --   -1.29834  -1.16526  -1.15473  -1.14368  -1.13473
 Alpha  occ. eigenvalues --   -1.12741  -1.11783  -1.10585  -1.09185  -1.09142
 Alpha  occ. eigenvalues --   -1.07093  -1.02282  -1.00699  -1.00318  -0.98993
 Alpha  occ. eigenvalues --   -0.94289  -0.92252  -0.87974  -0.86502  -0.83557
 Alpha  occ. eigenvalues --   -0.82211  -0.79931  -0.76924  -0.74896  -0.72649
 Alpha  occ. eigenvalues --   -0.70752  -0.70037  -0.69466  -0.68239  -0.66418
 Alpha  occ. eigenvalues --   -0.65304  -0.65085  -0.64342  -0.63306  -0.62883
 Alpha  occ. eigenvalues --   -0.61037  -0.60467  -0.58973  -0.58952  -0.57972
 Alpha  occ. eigenvalues --   -0.57637  -0.56257  -0.55884  -0.54994  -0.53746
 Alpha  occ. eigenvalues --   -0.53334  -0.52359  -0.51774  -0.50879  -0.50074
 Alpha  occ. eigenvalues --   -0.49245  -0.49037  -0.48824  -0.47533  -0.47043
 Alpha  occ. eigenvalues --   -0.46594  -0.45528  -0.45372  -0.43179  -0.42660
 Alpha  occ. eigenvalues --   -0.42130  -0.41460  -0.41302  -0.40290  -0.40199
 Alpha  occ. eigenvalues --   -0.39838  -0.39345  -0.37082
 Alpha virt. eigenvalues --    0.00291   0.01495   0.03049   0.03197   0.03805
 Alpha virt. eigenvalues --    0.05142   0.05528   0.06170   0.07128   0.07475
 Alpha virt. eigenvalues --    0.07808   0.08070   0.08340   0.08548   0.09552
 Alpha virt. eigenvalues --    0.09746   0.09845   0.10141   0.10393   0.11024
 Alpha virt. eigenvalues --    0.11396   0.12194   0.12397   0.12763   0.13378
 Alpha virt. eigenvalues --    0.13725   0.15039   0.15745   0.16182   0.16408
 Alpha virt. eigenvalues --    0.16713   0.17052   0.17274   0.17378   0.17711
 Alpha virt. eigenvalues --    0.17760   0.17883   0.18126   0.18260   0.18442
 Alpha virt. eigenvalues --    0.19997   0.20219   0.20624   0.20716   0.21353
 Alpha virt. eigenvalues --    0.22812
          Condensed to atoms (all electrons):
               1          2          3          4          5          6
     1  O    6.551108   0.000000   0.000000   0.000000   0.000000   0.000000
     2  C    0.000000   3.927333   0.000000   0.000000   0.000000   0.000000
     3  C    0.000000   0.000000   3.878331   0.000000   0.000000   0.000000
     4  O    0.000000   0.000000   0.000000   6.557916   0.000000   0.000000
     5  C    0.000000   0.000000   0.000000   0.000000   4.179930   0.000000
     6  C    0.000000   0.000000   0.000000   0.000000   0.000000   3.660739
     7  O    0.000000   0.000000   0.000000   0.000000   0.000000   0.000000
     8  C    0.000000   0.000000   0.000000   0.000000   0.000000   0.000000
     9  C    0.000000   0.000000   0.000000   0.000000   0.000000   0.000000
    10  O    0.000000   0.000000   0.000000   0.000000   0.000000   0.000000
    11  O    0.000000   0.000000   0.000000   0.000000   0.000000   0.000000
    12  C    0.000000   0.000000   0.000000   0.000000   0.000000   0.000000
    13  C    0.000000   0.000000   0.000000   0.000000   0.000000   0.000000
    14  C    0.000000   0.000000   0.000000   0.000000   0.000000   0.000000
    15  C    0.000000   0.000000   0.000000   0.000000   0.000000   0.000000
    16  O    0.000000   0.000000   0.000000   0.000000   0.000000   0.000000
    17  C    0.000000   0.000000   0.000000   0.000000   0.000000   0.000000
    18  C    0.000000   0.000000   0.000000   0.000000   0.000000   0.000000
    19  O    0.000000   0.000000   0.000000   0.000000   0.000000   0.000000
    20  O    0.000000   0.000000   0.000000   0.000000   0.000000   0.000000
    21  O    0.000000   0.000000   0.000000   0.000000   0.000000   0.000000
    22  O    0.000000   0.000000   0.000000   0.000000   0.000000   0.000000
    23  O    0.000000   0.000000   0.000000   0.000000   0.000000   0.000000
    24  H    0.000000   0.000000   0.000000   0.000000   0.000000   0.000000
    25  H    0.000000   0.000000   0.000000   0.000000   0.000000   0.000000
    26  H    0.000000   0.000000   0.000000   0.000000   0.000000   0.000000
    27  H    0.000000   0.000000   0.000000   0.000000   0.000000   0.000000
    28  H    0.000000   0.000000   0.000000   0.000000   0.000000   0.000000
    29  H    0.000000   0.000000   0.000000   0.000000   0.000000   0.000000
    30  H    0.000000   0.000000   0.000000   0.000000   0.000000   0.000000
    31  H    0.000000   0.000000   0.000000   0.000000   0.000000   0.000000
    32  H    0.000000   0.000000   0.000000   0.000000   0.000000   0.000000
    33  H    0.000000   0.000000   0.000000   0.000000   0.000000   0.000000
    34  H    0.000000   0.000000   0.000000   0.000000   0.000000   0.000000
    35  H    0.000000   0.000000   0.000000   0.000000   0.000000   0.000000
    36  H    0.000000   0.000000   0.000000   0.000000   0.000000   0.000000
    37  H    0.000000   0.000000   0.000000   0.000000   0.000000   0.000000
    38  H    0.000000   0.000000   0.000000   0.000000   0.000000   0.000000
    39  H    0.000000   0.000000   0.000000   0.000000   0.000000   0.000000
    40  H    0.000000   0.000000   0.000000   0.000000   0.000000   0.000000
    41  H    0.000000   0.000000   0.000000   0.000000   0.000000   0.000000
    42  H    0.000000   0.000000   0.000000   0.000000   0.000000   0.000000
    43  H    0.000000   0.000000   0.000000   0.000000   0.000000   0.000000
    44  H    0.000000   0.000000   0.000000   0.000000   0.000000   0.000000
    45  H    0.000000   0.000000   0.000000   0.000000   0.000000   0.000000
               7          8          9         10         11         12
     1  O    0.000000   0.000000   0.000000   0.000000   0.000000   0.000000
     2  C    0.000000   0.000000   0.000000   0.000000   0.000000   0.000000
     3  C    0.000000   0.000000   0.000000   0.000000   0.000000   0.000000
     4  O    0.000000   0.000000   0.000000   0.000000   0.000000   0.000000
     5  C    0.000000   0.000000   0.000000   0.000000   0.000000   0.000000
     6  C    0.000000   0.000000   0.000000   0.000000   0.000000   0.000000
     7  O    6.455621   0.000000   0.000000   0.000000   0.000000   0.000000
     8  C    0.000000   3.935284   0.000000   0.000000   0.000000   0.000000
     9  C    0.000000   0.000000   4.028459   0.000000   0.000000   0.000000
    10  O    0.000000   0.000000   0.000000   6.560708   0.000000   0.000000
    11  O    0.000000   0.000000   0.000000   0.000000   6.561189   0.000000
    12  C    0.000000   0.000000   0.000000   0.000000   0.000000   3.921337
    13  C    0.000000   0.000000   0.000000   0.000000   0.000000   0.000000
    14  C    0.000000   0.000000   0.000000   0.000000   0.000000   0.000000
    15  C    0.000000   0.000000   0.000000   0.000000   0.000000   0.000000
    16  O    0.000000   0.000000   0.000000   0.000000   0.000000   0.000000
    17  C    0.000000   0.000000   0.000000   0.000000   0.000000   0.000000
    18  C    0.000000   0.000000   0.000000   0.000000   0.000000   0.000000
    19  O    0.000000   0.000000   0.000000   0.000000   0.000000   0.000000
    20  O    0.000000   0.000000   0.000000   0.000000   0.000000   0.000000
    21  O    0.000000   0.000000   0.000000   0.000000   0.000000   0.000000
    22  O    0.000000   0.000000   0.000000   0.000000   0.000000   0.000000
    23  O    0.000000   0.000000   0.000000   0.000000   0.000000   0.000000
    24  H    0.000000   0.000000   0.000000   0.000000   0.000000   0.000000
    25  H    0.000000   0.000000   0.000000   0.000000   0.000000   0.000000
    26  H    0.000000   0.000000   0.000000   0.000000   0.000000   0.000000
    27  H    0.000000   0.000000   0.000000   0.000000   0.000000   0.000000
    28  H    0.000000   0.000000   0.000000   0.000000   0.000000   0.000000
    29  H    0.000000   0.000000   0.000000   0.000000   0.000000   0.000000
    30  H    0.000000   0.000000   0.000000   0.000000   0.000000   0.000000
    31  H    0.000000   0.000000   0.000000   0.000000   0.000000   0.000000
    32  H    0.000000   0.000000   0.000000   0.000000   0.000000   0.000000
    33  H    0.000000   0.000000   0.000000   0.000000   0.000000   0.000000
    34  H    0.000000   0.000000   0.000000   0.000000   0.000000   0.000000
    35  H    0.000000   0.000000   0.000000   0.000000   0.000000   0.000000
    36  H    0.000000   0.000000   0.000000   0.000000   0.000000   0.000000
    37  H    0.000000   0.000000   0.000000   0.000000   0.000000   0.000000
    38  H    0.000000   0.000000   0.000000   0.000000   0.000000   0.000000
    39  H    0.000000   0.000000   0.000000   0.000000   0.000000   0.000000
    40  H    0.000000   0.000000   0.000000   0.000000   0.000000   0.000000
    41  H    0.000000   0.000000   0.000000   0.000000   0.000000   0.000000
    42  H    0.000000   0.000000   0.000000   0.000000   0.000000   0.000000
    43  H    0.000000   0.000000   0.000000   0.000000   0.000000   0.000000
    44  H    0.000000   0.000000   0.000000   0.000000   0.000000   0.000000
    45  H    0.000000   0.000000   0.000000   0.000000   0.000000   0.000000
              13         14         15         16         17         18
     1  O    0.000000   0.000000   0.000000   0.000000   0.000000   0.000000
     2  C    0.000000   0.000000   0.000000   0.000000   0.000000   0.000000
     3  C    0.000000   0.000000   0.000000   0.000000   0.000000   0.000000
     4  O    0.000000   0.000000   0.000000   0.000000   0.000000   0.000000
     5  C    0.000000   0.000000   0.000000   0.000000   0.000000   0.000000
     6  C    0.000000   0.000000   0.000000   0.000000   0.000000   0.000000
     7  O    0.000000   0.000000   0.000000   0.000000   0.000000   0.000000
     8  C    0.000000   0.000000   0.000000   0.000000   0.000000   0.000000
     9  C    0.000000   0.000000   0.000000   0.000000   0.000000   0.000000
    10  O    0.000000   0.000000   0.000000   0.000000   0.000000   0.000000
    11  O    0.000000   0.000000   0.000000   0.000000   0.000000   0.000000
    12  C    0.000000   0.000000   0.000000   0.000000   0.000000   0.000000
    13  C    3.945171   0.000000   0.000000   0.000000   0.000000   0.000000
[...]
 72297,-0.00153918,0.00212519,0.00008869,-0.00004710,-0.00033131,-0.000
 59325,0.00042319,0.00001511,-0.00024488,0.00034196,-0.00052031,-0.0041
 6458,0.00135595,0.00281377,0.00066939,0.00017575,-0.00017227,-0.000531
 80,-0.00064998,0.00025241,0.00041441,-0.00038532,-0.00028932,0.0007300
 1,0.00055522,-0.00050992,-0.00091612,0.00096426,-0.00116305,0.00013179
 ,-0.00000817,-0.00002884,-0.00001212,-0.00002747,0.00002731,-0.0000225
 5,-0.00002066,-0.00001539,-0.00006560,0.00000317,0.00002404,-0.0000421
 0,-0.00003199,0.00005396,0.00002077,0.00001130,-0.00011998,0.00000601,
 -0.00006472,-0.00001163,0.00006070,-0.00001177,0.00006357,0.00002123,-
 0.00004512,0.00007611,0.00006002,-0.00019024,0.00013556,0.00158159,0.0
 0139090,0.00046545,-0.00049950,-0.00064781,-0.00014636,0.00007527,0.00
 002868,0.00018411,-0.00003071,-0.00009051,-0.00003485,0.00015894,-0.00
 018197,0.00004836,-0.00010553,0.00008743,0.00002781,-0.00010843,0.0000
 0789,-0.00009839,0.00079376,0.00133754,-0.00047895,0.00025905,-0.00092
 771,0.00042628,0.16585413,0.00003528,-0.00008934,-0.00002703,0.0000115
 5,0.00004441,0.00001776,-0.00002355,0.00001658,0.00000452,0.00004133,-
 0.00006153,0.00000127,-0.00004972,0.00002352,-0.00003737,-0.00008006,0
 .00005916,-0.00012962,0.00014335,-0.00006868,0.00002270,-0.00002041,-0
 .00002732,-0.00002209,-0.00011675,0.00007070,0.00022829,0.00030173,0.0
 0004995,-0.00042775,0.05416667,-0.02966614,0.03663533,0.01474602,-0.00
 698615,0.00256134,-0.00362687,0.00132675,0.00039830,0.00045211,-0.0003
 6538,-0.00004050,0.00031636,0.00067019,-0.00046829,-0.00060428,-0.0004
 6818,0.00045945,0.00136915,-0.00013425,-0.00085366,0.00038842,0.000137
 74,0.00014817,-0.00076920,0.00017190,-0.00069562,-0.00012701,-0.000226
 97,0.00015458,-0.00011175,-0.00033410,0.00013887,0.00208360,-0.0012083
 7,-0.00110431,0.00005263,-0.00010303,0.00005867,0.00000032,-0.00000734
 ,0.00000209,-0.00000280,0.00000007,0.00000263,-0.00001075,0.00002675,-
 0.00001595,0.00001260,0.00004009,-0.00000566,-0.00001730,-0.00000095,0
 .00001349,-0.00000614,0.00000450,0.00001310,0.00000054,-0.00000225,0.0
 0001088,-0.00000273,0.00004715,-0.00000968,-0.00017571,-0.00001583,0.0
 0009704,0.00122445,-0.00033788,-0.00073691,-0.00059370,-0.00007528,0.0
 0029371,0.00006881,0.00005619,-0.00000750,0.00001396,-0.00000739,0.000
 05889,-0.00010079,0.00020430,0.00005095,0.00003207,-0.00010482,-0.0000
 1701,0.00000760,-0.00004547,0.00006482,0.00080956,-0.00021652,0.001300
 64,-0.00064904,0.00001787,0.00063721,-0.06929384,0.03738381,-0.0000635
 1,-0.00000714,-0.00004874,0.00002824,0.00001477,0.00001627,-0.00001720
 ,-0.00000106,0.00004069,-0.00000343,0.00001083,-0.00005104,0.00004312,
 0.00000437,0.00001055,-0.00007473,-0.00026021,0.00035346,-0.00017119,0
 .00013398,-0.00021281,0.00005502,0.00004312,0.00012814,0.00004873,-0.0
 0006019,-0.00016234,-0.00041330,-0.00029710,0.00017161,-0.08760549,0.0
 4940215,-0.10092503,0.01598159,-0.00891678,0.01390202,0.00387489,-0.00
 085763,0.00107614,-0.00051407,-0.00011715,-0.00023888,-0.00071858,-0.0
 0067669,0.00072209,0.00245387,-0.00016377,0.00003703,0.00167304,-0.000
 26414,-0.00346109,0.00031960,0.00027522,-0.00012462,-0.00030546,-0.000
 42246,0.00000414,0.00023304,-0.00001210,-0.00032443,0.00024202,0.00045
 607,-0.00028527,-0.00297092,-0.00009026,0.00030413,-0.00000935,0.00007
 976,-0.00008921,-0.00000530,-0.00000293,0.00000215,-0.00000127,0.00000
 122,-0.00000595,-0.00000449,-0.00001328,0.00002403,-0.00000862,-0.0000
 2884,0.00003320,0.00001780,0.00001848,-0.00002423,-0.00000462,-0.00000
 941,-0.00001650,0.00003151,0.00002097,0.00000605,0.00005026,-0.0000018
 4,0.00001843,0.00017547,0.00002781,0.00010587,0.00244168,-0.00034318,-
 0.00004991,-0.00005076,-0.00000988,-0.00001509,0.00003863,-0.00001300,
 0.00010857,-0.00005365,-0.00000457,-0.00006930,-0.00006971,-0.00002660
 ,-0.00031815,-0.00003902,0.00005059,0.00002971,-0.00004459,-0.00007083
 ,-0.00004294,-0.00016836,0.00047645,-0.00025516,0.00031327,0.00037937,
 -0.00048341,0.06538433,-0.03870103,0.08992044,-0.00016555,-0.00023527,
 -0.00008270,0.00049275,0.00050915,-0.00067657,-0.00433053,0.00082017,-
 0.00236251,-0.00021732,0.00030866,0.00044000,-0.00303212,0.03588472,-0
 .02358099,-0.00185044,0.00222073,-0.00305606,-0.00021415,0.00008632,0.
 00084901,0.00012372,-0.00014519,-0.00017849,0.00012457,-0.00005333,-0.
 00008790,-0.00013323,-0.00014318,0.00026518,0.00030690,-0.00007364,-0.
 00002258,-0.00019791,0.00000708,0.00008224,-0.00043679,-0.00005666,-0.
 00016877,0.00037123,0.00072549,-0.00013679,-0.00333630,0.00062691,0.00
 239907,0.00141641,0.00039341,-0.00085743,-0.00067610,0.00030820,0.0001
 1232,-0.00008713,-0.00012566,-0.00006636,0.00025552,0.00008985,-0.0000
 8365,-0.00427551,-0.00214431,0.00041786,-0.00051943,-0.00126388,0.0007
 1785,0.00034800,-0.00031019,0.00035367,-0.03863209,-0.04262758,0.01576
 227,-0.00023465,0.00004640,-0.00005529,-0.00020971,-0.00020193,0.00021
 411,0.00023663,-0.00036706,0.00017487,0.00004136,0.00064586,-0.0012024
 9,-0.00010429,0.00003991,-0.00004778,0.00002095,-0.00001367,0.00003346
 ,0.00000848,0.00000346,-0.00001229,0.00001229,0.00006966,-0.00003730,-
 0.00001602,0.00009826,-0.00010090,-0.00003280,-0.00003744,-0.00003469,
 0.00005048,0.00007008,0.00001866,-0.00011113,0.00001885,-0.00019119,0.
 00020395,-0.00001395,0.00048313,0.00005654,0.00002471,0.00004622,0.000
 02170,-0.00005750,0.00002024,0.00002055,0.00001647,0.00004533,-0.00007
 913,0.00000588,0.00006543,0.00003467,0.00031930,-0.00014950,-0.0000988
 4,0.00003258,-0.00006448,0.05328406,-0.00030614,-0.00069296,-0.0006142
 2,0.00074778,0.00062458,-0.00007224,-0.00168529,0.00147913,0.00100529,
 0.00092209,-0.00124931,-0.00060247,0.01018945,-0.01909500,0.01377151,0
 .00366980,-0.00132158,-0.00171913,-0.00101549,0.00045379,-0.00012660,0
 .00036477,0.00020498,0.00021756,0.00012764,-0.00007958,-0.00033224,-0.
 00043181,-0.00020388,0.00034372,0.00012094,-0.00020378,0.00012599,-0.0
 0008768,0.00013626,-0.00009409,-0.00023945,-0.00019455,-0.00001019,0.0
 0096369,0.00129136,-0.00011204,-0.00292855,0.00364380,0.00217011,0.001
 70276,-0.00037911,-0.00064690,-0.00081958,0.00021035,0.00002553,-0.000
 02187,-0.00011733,-0.00007863,0.00025802,-0.00002294,-0.00002873,0.002
 74651,-0.00253383,-0.00196808,-0.00200322,-0.00174823,0.00110292,0.000
 13542,-0.00044685,0.00036470,-0.01720973,-0.14346424,0.08844196,-0.000
 24079,-0.00006621,0.00004705,-0.00020925,-0.00022734,-0.00018109,-0.00
 052980,0.00083810,0.00009552,-0.00080029,0.00343562,-0.00088442,-0.000
 10715,-0.00039159,-0.00006929,-0.00000839,-0.00016725,-0.00005762,0.00
 006191,-0.00000150,0.00007910,0.00006024,0.00011409,0.00001644,0.00026
 974,0.00007044,-0.00007259,-0.00002726,-0.00000335,0.00000509,0.000027
 20,0.00006593,-0.00001051,0.00011040,0.00002641,-0.00018509,0.00055087
 ,0.00008042,0.00004817,0.00010264,0.00004371,0.00001409,-0.00004410,-0
 .00000043,0.00004423,-0.00000516,0.00001450,0.00003369,-0.00008417,0.0
 0008492,0.00001815,0.00020350,0.00046583,-0.00023211,-0.00002532,0.000
 08180,-0.00007583,0.00499404,0.15902670,0.00027438,-0.00021866,0.00028
 460,0.00020694,0.00027383,-0.00054162,-0.00304449,0.00200895,-0.002713
 19,0.00007781,-0.00068202,0.00093835,-0.00788159,0.02316277,-0.0193533
 4,-0.00014120,-0.00079098,0.00239039,0.00053602,-0.00086311,-0.0005371
 5,-0.00012922,0.00008732,-0.00000667,-0.00009507,0.00003782,0.00020716
 ,0.00023644,0.00007156,-0.00028609,-0.00010904,0.00009038,-0.00009725,
 0.00003445,-0.00006875,0.00002298,0.00019823,0.00005928,0.00003308,-0.
 00035188,-0.00086305,-0.00015432,0.00251086,-0.00029299,-0.00051873,-0
 .00108183,-0.00025713,0.00008870,0.00056077,-0.00016698,-0.00011833,0.
 00008780,0.00008370,0.00003929,-0.00022402,-0.00000573,-0.00001013,-0.
 00200401,-0.00174939,-0.00110870,0.00103695,0.00105146,-0.00154610,-0.
 00012715,0.00027231,-0.00032462,-0.00110219,0.07809655,-0.05338432,-0.
 00005773,0.00007692,-0.00008328,-0.00001332,0.00003769,0.00015730,0.00
 036601,0.00059211,-0.00090606,-0.00063184,-0.00060467,0.00014552,0.000
 45946,-0.00011822,0.00027171,-0.00001351,0.00007445,-0.00003718,-0.000
 03499,0.00000623,-0.00003339,-0.00005584,-0.00001490,0.00000333,-0.000
 11798,-0.00002093,0.00009503,0.00001107,0.00003255,0.00003263,0.000001
 06,-0.00003073,0.00002392,-0.00016575,0.00013245,0.00024376,0.00043824
 ,0.00011461,-0.00019299,-0.00001601,0.00000218,0.00001010,0.00002195,0
 .00002625,0.00000405,0.00000757,-0.00000940,-0.00001487,0.00005960,-0.
 00004934,-0.00000905,-0.00012842,-0.00028099,0.00016140,0.00003655,-0.
 00003734,0.00005919,0.01124260,-0.09982800,0.07651510,-0.00005243,-0.0
 0013311,0.00002061,0.00002692,0.00007094,0.00005091,0.00005331,-0.0000
 6954,-0.00010586,-0.00016077,0.00011776,0.00000578,0.00001060,-0.00005
 419,-0.00002643,-0.00013528,-0.00010428,0.00012608,-0.00004883,0.00000
 822,-0.00008425,0.00003225,0.00000544,0.00004506,-0.00001314,-0.000017
 90,0.00001701,-0.00004058,-0.00008301,-0.00004047,0.00014020,-0.000282
 05,-0.00000900,-0.00005289,0.00025398,-0.00010068,0.00020140,0.0002873
 5,-0.00022813,-0.00322322,0.00170979,0.00218921,0.00655535,0.03198432,
 0.00449474,-0.00104571,-0.00192808,-0.00069408,-0.00066845,-0.00020147
 ,0.00034980,0.00005784,-0.00007127,-0.00007979,0.00013968,0.00000093,-
 0.00020494,-0.03683983,-0.05670056,0.01119572,-0.00004610,-0.00002167,
 -0.00038822,-0.00025264,-0.00014416,-0.00025462,-0.00030086,-0.0002370
 6,0.00027548,0.00000016,-0.00000277,-0.00001051,0.00000728,0.00001094,
 0.00001620,0.00008978,-0.00011329,0.00006171,0.00014648,0.00015340,-0.
 00002763,0.00001431,0.00001818,0.00002027,-0.00000588,0.00000688,-0.00
 000877,-0.00000015,0.00001122,-0.00000406,0.00000034,0.00007651,-0.000
 00190,0.00003812,0.00001525,0.00004268,-0.00013031,0.00015925,0.000145
 96,-0.00002835,-0.00005555,0.00006902,-0.00002752,0.00050361,0.0002865
 9,-0.00185114,0.00106455,0.00132286,0.00016765,0.00005222,-0.00006225,
 -0.00004751,-0.00003674,0.00024822,0.00003776,-0.00002928,0.00005052,-
 0.00008155,0.00004887,0.00007073,-0.00001763,0.00006526,0.00000544,-0.
 00001260,0.00009072,-0.00004567,0.00153074,0.00057717,-0.00066095,0.03
 578439,-0.00000913,-0.00020564,-0.00033236,0.00014616,0.00013336,0.000
 06882,-0.00024262,0.00019569,0.00040349,0.00037065,-0.00032017,-0.0003
 0492,-0.00010689,0.00014421,-0.00006984,-0.00046647,-0.00108210,0.0012
 0779,-0.00024675,0.00049282,-0.00070173,0.00006813,0.00020266,0.000326
 35,-0.00010383,0.00002359,-0.00009265,-0.00008845,0.00015047,-0.000189
 46,-0.00052828,-0.00020810,0.00016927,0.00046375,0.00014150,-0.0003572
 7,0.00097065,0.00001288,0.00010490,-0.00028040,-0.00185010,0.00069186,
 0.00963569,-0.03240993,-0.01646173,0.00079583,-0.00066618,-0.00270069,
 0.00059522,-0.00156381,0.00020302,0.00013057,0.00012687,0.00004375,-0.
 00020670,-0.00042336,0.00001107,-0.03259559,-0.18338063,-0.02791484,0.
 00067340,0.00148155,-0.00052011,-0.00083874,0.00022856,-0.00050347,0.0
 0042402,-0.00011325,-0.00017641,-0.00003771,-0.00004489,0.00004114,-0.
 00003632,-0.00003560,-0.00006350,-0.00019602,0.00013660,0.00004955,-0.
 00019210,-0.00047706,0.00043717,-0.00003678,-0.00003662,-0.00012917,-0
 .00000621,-0.00009282,-0.00003705,0.00004565,-0.00000053,0.00007956,0.
 00005165,-0.00003776,0.00009697,0.00015843,-0.00015856,0.00011147,0.00
 001132,0.00023996,0.00017321,-0.00008605,-0.00011974,-0.00003700,0.000
 37732,-0.00005513,0.00042429,-0.00080607,-0.00054564,-0.00060105,0.000
 01837,-0.00001629,-0.00011513,-0.00039366,0.00029301,0.00036656,-0.000
 05212,-0.00007612,0.00000994,0.00000905,0.00017313,-0.00008592,0.00010
 476,-0.00026829,0.00010152,0.00017663,0.00007351,0.00006568,-0.0005718
 0,-0.00010774,0.00044029,0.02295873,0.21990665,0.00004469,-0.00042110,
 -0.00001311,0.00010059,0.00018772,0.00008647,-0.00009623,0.00016615,0.
 00005869,-0.00001310,-0.00038517,0.00000841,0.00020346,-0.00002730,-0.
 00003326,-0.00026899,-0.00029381,0.00030178,-0.00002474,0.00004806,-0.
 00024355,0.00002666,0.00003377,0.00014111,-0.00007963,-0.00000272,0.00
 007865,0.00005502,0.00000094,-0.00019699,-0.00017808,0.00017262,-0.000
 25277,-0.00010561,-0.00017788,0.00023032,-0.00005270,0.00010218,-0.000
 20200,-0.00102921,-0.00020102,0.00003308,0.00043405,-0.03628779,-0.011
 27609,-0.00054121,0.00097390,-0.00205564,0.00144731,0.00020025,-0.0005
 8718,0.00020825,0.00021302,0.00010342,-0.00046524,0.00000763,-0.000026
 28,0.01544679,-0.00876386,-0.01221760,0.00022808,0.00018631,-0.0001231
 5,-0.00011758,0.00011937,-0.00025031,-0.00017546,0.00010167,-0.0006092
 0,-0.00000338,-0.00000444,-0.00001966,0.00001831,0.00003204,-0.0000039
 9,0.00010609,0.00019836,-0.00004195,0.00016005,0.00051128,0.00027588,0
 .00003626,0.00000905,0.00000215,-0.00000738,0.00001030,-0.00002021,-0.
 00000816,0.00001452,0.00000463,-0.00001515,0.00008128,0.00003026,0.000
 02124,-0.00003072,0.00007039,-0.00000203,0.00010588,0.00015980,0.00002
 082,-0.00002369,-0.00002828,-0.00032204,0.00053336,0.00034054,0.003609
 32,-0.00265176,-0.00365169,-0.00029018,-0.00010045,0.00007125,0.000150
 58,0.00007977,-0.00005320,0.00000810,-0.00001015,-0.00006861,0.0001131
 4,-0.00010725,-0.00003260,-0.00005037,-0.00011646,0.00007472,0.0000399
 4,-0.00004139,0.00010377,-0.00053874,-0.00026533,0.00050852,-0.0180405
 4,0.04559526,0.02941206,-0.11011295,0.07942203,0.05863545,0.01444550,-
 0.01162534,-0.00808546,0.00092979,-0.00520054,-0.00458287,-0.00162505,
 0.00083097,0.00176090,0.00003927,-0.00008584,0.00042328,0.00025291,-0.
 00123765,0.00072333,-0.00018115,0.00028597,-0.00163753,-0.00229565,-0.
 00338218,-0.00004263,-0.00066687,0.00005784,0.00024326,0.00025705,0.00
 007863,-0.00036739,0.00002452,0.00003192,-0.00004721,-0.00004025,-0.00
 001254,0.00002703,0.00010499,-0.00001622,0.00010701,-0.00006966,-0.000
 14035,-0.00006399,0.00025949,-0.00022061,-0.00011120,-0.00011613,0.000
 04792,-0.00000589,0.00007319,-0.00001103,-0.00000113,-0.00001904,0.,0.
 00000694,-0.00001065,0.00003121,-0.00002260,-0.00025380,0.00018722,0.0
 0022825,0.00001827,0.00041444,-0.00009531,-0.00001868,0.00016670,-0.00
 024375,-0.00042665,0.00046585,0.00021949,-0.00048484,-0.00142077,-0.00
 132238,-0.00028127,0.00042098,0.00026948,0.00051638,0.00123567,0.00029
 380,0.00024040,-0.00001236,-0.00008882,-0.00002589,0.00017835,0.000004
 32,0.00033989,0.00004582,-0.00033101,-0.00003815,0.00000243,-0.0000265
 5,-0.00001650,0.00005066,0.00008820,-0.00001431,-0.00002457,0.00017168
 ,0.00000425,-0.00000461,0.00000585,-0.00001029,-0.00000437,0.00001211,
 0.00004924,-0.00002025,0.00009261,-0.00001925,0.00002928,0.00000047,-0
 .00000609,0.00000108,0.00000588,0.00001144,-0.00001152,-0.00000397,0.0
 0000505,-0.00000100,0.00000453,0.00000338,-0.00002529,0.00001874,-0.00
 010578,-0.00019775,0.00016134,-0.00000978,-0.00001858,0.00002164,0.000
 02995,-0.00007581,-0.00021742,0.00004927,-0.00005612,-0.00005319,0.099
 19576,0.05031259,-0.08836211,-0.05386521,0.01614757,-0.04063791,-0.024
 27657,-0.00195327,0.00189616,-0.00150923,-0.00306524,-0.00301721,-0.00
 174347,-0.00014198,-0.00007330,-0.00041261,0.00010189,0.00090514,-0.00
 076414,0.00056666,-0.00060698,0.00097883,-0.00207270,-0.00315730,-0.00
 229093,0.00028795,-0.00005909,-0.00051491,-0.00047060,-0.00005898,0.00
 085000,-0.00001577,-0.00008236,0.00002586,0.00001445,0.00002450,-0.000
 03364,-0.00011327,-0.00003016,-0.00009077,0.00013252,0.00034470,-0.000
 03877,-0.00022713,0.00031237,0.00016545,0.00006279,-0.00011574,-0.0000
 3901,-0.00007167,-0.00000700,0.00000970,0.00004603,-0.00000100,-0.0000
 1279,-0.00000118,-0.00003670,-0.00001504,0.00009222,-0.00044777,-0.000
 42220,-0.00035756,-0.00062727,0.00030472,0.00004075,-0.00033672,0.0001
 9918,0.00020164,-0.00070068,0.00016701,-0.00068520,-0.00173473,0.00035
 008,0.00039429,-0.00051784,0.00009986,0.00005768,0.00059070,0.00014054
 ,0.00009952,0.00049419,0.00032369,-0.00000488,-0.00014502,-0.00000091,
 0.00022238,-0.00027658,-0.00007737,0.00017972,-0.00002277,0.00000278,0
 .00020819,0.00022715,-0.00017285,-0.00009255,0.00007086,-0.00023689,-0
 .00000309,0.00003611,0.00004799,0.00001015,0.00002223,-0.00001069,-0.0
 0003093,0.00013733,0.00010068,0.00004061,-0.00001064,0.00000484,0.0000
 0800,0.00000882,0.00000092,-0.00001335,0.00001887,0.00002354,-0.000004
 80,-0.00000135,0.00000239,-0.00000911,0.00003082,-0.00000390,0.0001620
 1,0.00041675,-0.00022722,0.00001321,0.00004613,-0.00001244,0.00007606,
 0.00032577,0.00012205,0.00003423,0.00013926,0.00022741,-0.06018004,0.1
 3501943,0.04224981,-0.05936643,-0.03938452,0.00631740,-0.01862533,-0.0
 1488850,-0.00231403,-0.00224417,-0.00196409,-0.00079877,-0.00043774,-0
 .00197683,-0.00032321,0.00035721,-0.00069686,0.00074692,-0.00042173,-0
 .00029632,-0.00025996,0.00014156,-0.00029145,-0.00038107,-0.00253537,-
 0.00110885,0.00008875,-0.00010027,-0.00045957,-0.00025828,0.00002455,0
 .00011725,-0.00021444,-0.00000941,0.00006252,0.00012376,0.00003728,-0.
 00010087,0.00021664,-0.00006273,0.00007829,-0.00004060,0.00015543,0.00
 011470,0.00020371,0.00023138,-0.00036927,-0.00023110,-0.00020384,0.000
 24824,0.00012838,-0.00005912,-0.00007088,0.00008357,0.00005073,0.00001
 307,-0.00011772,-0.00005576,0.00004131,-0.00006493,-0.00020962,0.00039
 211,-0.00037982,-0.00004968,0.00036933,-0.00025276,0.00003541,-0.00004
 375,0.00043206,-0.00033220,0.00070259,0.00103805,0.00101279,0.00190097
 ,0.00009487,-0.00048812,0.00000531,-0.00060950,0.00047969,-0.00017236,
 -0.00008338,0.00005312,-0.00080814,-0.00014987,-0.00000585,-0.00003480
 ,0.00019477,-0.00023521,-0.00007063,0.00008371,-0.00000665,0.00017201,
 0.00017261,-0.00013237,0.00002046,0.00012367,-0.00007544,-0.00001164,0
 .00001889,0.00002306,0.00002479,-0.00001728,-0.00002251,-0.00003071,0.
 00012107,-0.00001818,-0.00023855,-0.00001335,-0.00001890,-0.00002171,-
 0.00000492,-0.00000337,-0.00001722,-0.00000706,0.00002266,-0.00000392,
 -0.00000944,-0.00000586,-0.00001881,0.00003975,0.00001862,-0.00003883,
 0.00012640,-0.00001389,-0.00002028,0.00008077,0.00000360,0.00002674,0.
 00005184,0.00029638,-0.00025835,-0.00003178,0.00017142,-0.00008824,-0.
 04617474,0.08262486,0.05919624\\-0.00001518,-0.00000558,0.00006628,0.0
 0005936,-0.00000691,-0.00004115,-0.00012028,-0.00012452,-0.00004399,-0
 .00006125,0.00008683,-0.00000530,0.00004732,-0.00006122,-0.00016971,-0
 .00013774,0.00026334,-0.00014136,0.00011632,-0.00024951,0.00004715,-0.
 00007794,0.00000194,0.00006056,-0.00002148,-0.00004465,-0.00001531,0.0
 0011003,0.00002309,0.00008159,-0.00007313,0.00005254,0.00002083,-0.000
 01148,-0.00006236,-0.00013416,-0.00002170,-0.00010830,0.00001693,-0.00
 001653,0.00007033,-0.00037896,0.00014869,0.00004745,0.00025105,-0.0001
 3968,0.00000249,-0.00011131,0.00011201,-0.00001313,0.00012381,0.000011
 56,0.00001736,-0.00001451,0.00000038,-0.00001472,0.00003166,0.00001380
 ,0.00012052,-0.00011816,-0.00009851,0.00007317,0.00009849,0.00009806,0
 .00001417,-0.00000727,0.00002907,-0.00006674,0.00010282,-0.00000151,-0
 .00001876,0.00001874,0.00004543,0.00003677,0.00002577,0.00003779,-0.00
 002824,0.00001403,0.00003330,0.00000860,-0.00001677,0.00000363,-0.0000
 3991,0.00001901,0.00001303,-0.00000187,-0.00001006,0.00004185,0.000019
 12,-0.00006138,-0.00002985,-0.00003578,-0.00001237,-0.00004683,0.00006
 094,0.00002278,0.00002117,0.00004101,0.00005821,0.00003627,0.00004833,
 0.00009445,0.00005701,0.00008225,0.00019034,-0.00010972,-0.00010428,-0
 .00006867,-0.00004206,0.00000419,-0.00002119,-0.00000698,0.00000165,-0
 .00000231,0.00000493,-0.00001391,0.00000095,-0.00001727,0.00001248,-0.
 00001399,-0.00007145,-0.00009224,-0.00001000,0.00001523,-0.00001762,0.
 00001272,0.00002758,0.00003582,-0.00001427,0.00001752,-0.00007818,0.00
 005318,0.00001921,0.00006404,0.00000085\\\@


 BE NOT THE FIRST BY WHOM THE NEW ARE TRIED,
 NOR YET THE THE LAST TO LAY THE OLD ASIDE.

                          -- ALEXANDER POPE
 Job cpu time:       0 days  0 hours  0 minutes 11.2 seconds.
 Elapsed time:       0 days  0 hours  0 minutes  1.0 seconds.
 File lengths (MBytes):  RWF=    217 Int=      0 D2E=      0 Chk=      4 Scr=      1
 Normal termination of Gaussian 16 at Tue Jun 22 14:22:11 2021.
