 Entering Gaussian System, Link 0=g09
 Initial command:
 /share/apps//g09/l1.exe "/scratch/Gau-45634.inp" -scrdir="/scratch/"
 Entering Link 1 = /share/apps//g09/l1.exe PID=     45635.
  
 Copyright (c) 1988,1990,1992,1993,1995,1998,2003,2009,2013,
            Gaussian, Inc.  All Rights Reserved.
  
 This is part of the Gaussian(R) 09 program.  It is based on
 the Gaussian(R) 03 system (copyright 2003, Gaussian, Inc.),
 the Gaussian(R) 98 system (copyright 1998, Gaussian, Inc.),
 the Gaussian(R) 94 system (copyright 1995, Gaussian, Inc.),
 the Gaussian 92(TM) system (copyright 1992, Gaussian, Inc.),
 the Gaussian 90(TM) system (copyright 1990, Gaussian, Inc.),
 the Gaussian 88(TM) system (copyright 1988, Gaussian, Inc.),
 the Gaussian 86(TM) system (copyright 1986, Carnegie Mellon
 University), and the Gaussian 82(TM) system (copyright 1983,
 Carnegie Mellon University). Gaussian is a federally registered
 trademark of Gaussian, Inc.
  
 This software contains proprietary and confidential information,
 including trade secrets, belonging to Gaussian, Inc.
  
 This software is provided under written license and may be
 used, copied, transmitted, or stored only in accord with that
 written license.
  
 The following legend is applicable only to US Government
 contracts under FAR:
  
                    RESTRICTED RIGHTS LEGEND
  
 Use, reproduction and disclosure by the US Government is
 subject to restrictions as set forth in subparagraphs (a)
 and (c) of the Commercial Computer Software - Restricted
 Rights clause in FAR 52.227-19.
  
 Gaussian, Inc.
 340 Quinnipiac St., Bldg. 40, Wallingford CT 06492
  
  
 ---------------------------------------------------------------
 Warning -- This program may not be used in any manner that
 competes with the business of Gaussian, Inc. or will provide
 assistance to any competitor of Gaussian, Inc.  The licensee
 of this program is prohibited from giving any competitor of
 Gaussian, Inc. access to this program.  By using this program,
 the user acknowledges that Gaussian, Inc. is engaged in the
 business of creating and licensing software in the field of
 computational chemistry and represents and warrants to the
 licensee that it is not a competitor of Gaussian, Inc. and that
 it will not use this program in any manner prohibited above.
 ---------------------------------------------------------------
  

 Cite this work as:
 Gaussian 09, Revision D.01,
 M. J. Frisch, G. W. Trucks, H. B. Schlegel, G. E. Scuseria, 
 M. A. Robb, J. R. Cheeseman, G. Scalmani, V. Barone, B. Mennucci, 
 G. A. Petersson, H. Nakatsuji, M. Caricato, X. Li, H. P. Hratchian, 
 A. F. Izmaylov, J. Bloino, G. Zheng, J. L. Sonnenberg, M. Hada, 
 M. Ehara, K. Toyota, R. Fukuda, J. Hasegawa, M. Ishida, T. Nakajima, 
 Y. Honda, O. Kitao, H. Nakai, T. Vreven, J. A. Montgomery, Jr., 
 J. E. Peralta, F. Ogliaro, M. Bearpark, J. J. Heyd, E. Brothers, 
 K. N. Kudin, V. N. Staroverov, T. Keith, R. Kobayashi, J. Normand, 
 K. Raghavachari, A. Rendell, J. C. Burant, S. S. Iyengar, J. Tomasi, 
 M. Cossi, N. Rega, J. M. Millam, M. Klene, J. E. Knox, J. B. Cross, 
 V. Bakken, C. Adamo, J. Jaramillo, R. Gomperts, R. E. Stratmann, 
 O. Yazyev, A. J. Austin, R. Cammi, C. Pomelli, J. W. Ochterski, 
 R. L. Martin, K. Morokuma, V. G. Zakrzewski, G. A. Voth, 
 P. Salvador, J. J. Dannenberg, S. Dapprich, A. D. Daniels, 
 O. Farkas, J. B. Foresman, J. V. Ortiz, J. Cioslowski, 
 and D. J. Fox, Gaussian, Inc., Wallingford CT, 2013.
 
 ******************************************
 Gaussian 09:  EM64L-G09RevD.01 24-Apr-2013
                 2-May-2016 
 ******************************************
 %nproc=20
 Will use up to   20 processors via shared memory.
 %mem=80GB
 %chk=Tri_A131_of.chk
 ----------------------------------------------------------------------
 #P PBE1PBE/6-311+G(d,p) opt=ModRedundant freq optcyc=999 EmpiricalDisp
 ersion=GD3
 ----------------------------------------------------------------------
 1/6=999,14=-1,18=120,19=15,26=3,38=1/1,3;
 2/9=110,12=2,17=6,18=5,40=1/2;
 3/5=4,6=6,7=111,11=2,16=1,25=1,30=1,71=1,74=-13,124=31/1,2,3;
 4//1;
 5/5=2,38=5/2;
 6/7=2,8=2,9=2,10=2,28=1/1;
 7//1,2,3,16;
 1/6=999,14=-1,18=20,19=15,26=3/3(2);
 2/9=110/2;
 99//99;
 2/9=110/2;
 3/5=4,6=6,7=111,11=2,16=1,25=1,30=1,71=1,74=-13,124=31/1,2,3;
 4/5=5,16=3,69=1/1;
 5/5=2,38=5/2;
 7//1,2,3,16;
 1/6=999,14=-1,18=20,19=15,26=3/3(-5);
 2/9=110/2;
 6/7=2,8=2,9=2,10=2,19=2,28=1/1;
 99/9=1/99;
 Leave Link    1 at Mon May  2 10:13:49 2016, MaxMem= 10737418240 cpu:         2.4
 (Enter /share/apps//g09/l101.exe)
 -----
 trich
 -----
 Symbolic Z-matrix:
 Charge =  1 Multiplicity = 1
 O                    -1.65544  -0.84288   6.42575 
 C                    -1.53632  -2.2007    6.07977 
 C                    -0.41518  -2.44513   5.05479 
 C                     0.9033   -1.84967   5.58753 
 C                     0.72002  -0.37764   5.97629 
 C                    -0.449    -0.26      6.96229 
 H                    -2.51865  -2.47826   5.66536 
 H                    -0.69489  -1.91293   4.13163 
 H                     1.22099  -2.41697   6.47428 
 H                     1.64074  -0.03072   6.48099 
 H                    -0.14098  -0.79602   7.87792 
 O                     0.53808   0.32305   4.73283 
 O                     1.9768   -1.98291   4.64143 
 O                    -0.28435  -3.82711   4.72579 
 O                    -1.20854  -3.04078   7.18943 
 C                    -0.79172   1.15914   7.37858 
 H                     0.14784   1.72505   7.5346 
 H                    -1.36922   1.64566   6.57448 
 O                    -1.54261   1.08132   8.59344 
 H                    -2.02583   1.91612   8.7086 
 H                     0.75471   1.26181   4.85576 
 H                     1.84504  -1.27464   3.97857 
 H                    -0.64218  -4.37489   5.46415 
 O                    -0.72845  -5.23441   8.7641 
 C                    -0.65453  -4.32036   9.88053 
 C                    -1.43828  -3.01092   9.585 
 C                    -2.18924  -3.10174   8.24268 
 C                    -3.00008  -4.40076   8.19405 
 C                    -2.07484  -5.63598   8.4343 
 H                    -1.11063  -4.79518   10.76756 
 H                    -0.72935  -2.17547   9.53694 
 H                    -2.8621   -2.23279   8.16483 
 H                    -3.72528  -4.34502   9.02056 
 H                    -2.472    -6.21479   9.29086 
 O                    -3.71136  -4.54339   6.94483 
 O                    -2.35801  -2.82947   10.66709 
 O                     0.69482  -4.15012   10.22399 
 C                    -1.97397  -6.59472   7.24911 
 H                    -1.18796  -7.3319    7.46655 
 H                    -2.92669  -7.13618   7.14446 
 O                    -1.61859  -5.96249   6.01235 
 H                    -2.42778  -5.48034   5.74547 
 H                    -4.62826  -4.25182   7.07078 
 H                    -2.4349   -1.87605   10.84117 
 O                     3.57311  -3.96885   7.93722 
 C                     4.3075   -2.87476   8.51611 
 C                     3.3239   -1.76687   8.88731 
 C                     2.19538  -2.27898   9.78927 
 C                     1.56053  -3.55923   9.23358 
 C                     2.68067  -4.56743   8.88841 
 H                     4.85638  -3.24357   9.41039 
 H                     2.88446  -1.41244   7.93536 
 H                     2.61757  -2.51335   10.78545 
 H                     3.22721  -4.81568   9.82175 
 H                     0.98879  -3.32707   8.3211 
 O                     1.18797  -1.27237   9.914 
 O                     3.94331  -0.69285   9.59093 
 O                     5.17155  -2.36053   7.55711 
 C                     2.19973  -5.88101   8.28945 
 H                     3.07792  -6.49004   8.03299 
 H                     1.60075  -6.42596   9.03255 
 O                     1.444    -5.70562   7.08259 
 H                     0.53622  -5.45043   7.36862 
 H                     1.6147   -0.49107   10.30968 
 H                     4.65193  -0.33997   9.023 
 C                     6.28305  -3.228     7.2088 
 H                     7.18186  -2.87182   7.73791 
 H                     6.06449  -4.25141   7.5491 
 C                     6.49506  -3.17926   5.6998 
 H                     7.35909  -3.82177   5.46055 
 H                     6.78666  -2.15489   5.42045 
 C                     5.26925  -3.58572   4.86674 
 H                     4.43821  -2.92155   5.15137 
 H                     5.48672  -3.37947   3.80562 
 C                     4.8581   -5.05742   5.01707 
 H                     5.68711  -5.71095   4.70048 
 H                     4.65776  -5.29261   6.07388 
 C                     3.63853  -5.4534    4.18804 
 H                     3.45239  -6.53371   4.25066 
 H                     3.77167  -5.19218   3.12824 
 N                     2.39182  -4.76789   4.66414 
 H                     1.5584   -4.99206   4.10234 
 H                     2.45232  -3.72567   4.61487 
 H                     2.13377  -5.04267   5.6536 
 
 The following ModRedundant input section has been read:
 B      45      84 B                                                           
 B      58      84 B                                                           
 B      56      84 B                                                           
 B      41      82 B                                                           
 B      62      82 B                                                           
 B      35      82 B                                                           
 B      13      83 B                                                           
 B      19      83 B                                                           
 B      14      83 B                                                           
 
 NAtoms=     84 NQM=       84 NQMF=       0 NMMI=      0 NMMIF=      0
                NMic=       0 NMicF=      0.
                    Isotopes and Nuclear Properties:
 (Nuclear quadrupole moments (NQMom) in fm**2, nuclear magnetic moments (NMagM)
  in nuclear magnetons)

  Atom         1           2           3           4           5           6           7           8           9          10
 IAtWgt=          16          12          12          12          12          12           1           1           1           1
 AtmWgt=  15.9949146  12.0000000  12.0000000  12.0000000  12.0000000  12.0000000   1.0078250   1.0078250   1.0078250   1.0078250
 NucSpn=           0           0           0           0           0           0           1           1           1           1
 AtZEff=   0.0000000   0.0000000   0.0000000   0.0000000   0.0000000   0.0000000   0.0000000   0.0000000   0.0000000   0.0000000
 NQMom=    0.0000000   0.0000000   0.0000000   0.0000000   0.0000000   0.0000000   0.0000000   0.0000000   0.0000000   0.0000000
 NMagM=    0.0000000   0.0000000   0.0000000   0.0000000   0.0000000   0.0000000   2.7928460   2.7928460   2.7928460   2.7928460
 AtZNuc=   8.0000000   6.0000000   6.0000000   6.0000000   6.0000000   6.0000000   1.0000000   1.0000000   1.0000000   1.0000000

  Atom        11          12          13          14          15          16          17          18          19          20
 IAtWgt=           1          16          16          16          16          12           1           1          16           1
 AtmWgt=   1.0078250  15.9949146  15.9949146  15.9949146  15.9949146  12.0000000   1.0078250   1.0078250  15.9949146   1.0078250
 NucSpn=           1           0           0           0           0           0           1           1           0           1
 AtZEff=   0.0000000   0.0000000   0.0000000   0.0000000   0.0000000   0.0000000   0.0000000   0.0000000   0.0000000   0.0000000
 NQMom=    0.0000000   0.0000000   0.0000000   0.0000000   0.0000000   0.0000000   0.0000000   0.0000000   0.0000000   0.0000000
 NMagM=    2.7928460   0.0000000   0.0000000   0.0000000   0.0000000   0.0000000   2.7928460   2.7928460   0.0000000   2.7928460
 AtZNuc=   1.0000000   8.0000000   8.0000000   8.0000000   8.0000000   6.0000000   1.0000000   1.0000000   8.0000000   1.0000000

  Atom        21          22          23          24          25          26          27          28          29          30
 IAtWgt=           1           1           1          16          12          12          12          12          12           1
 AtmWgt=   1.0078250   1.0078250   1.0078250  15.9949146  12.0000000  12.0000000  12.0000000  12.0000000  12.0000000   1.0078250
 NucSpn=           1           1           1           0           0           0           0           0           0           1
 AtZEff=   0.0000000   0.0000000   0.0000000   0.0000000   0.0000000   0.0000000   0.0000000   0.0000000   0.0000000   0.0000000
 NQMom=    0.0000000   0.0000000   0.0000000   0.0000000   0.0000000   0.0000000   0.0000000   0.0000000   0.0000000   0.0000000
 NMagM=    2.7928460   2.7928460   2.7928460   0.0000000   0.0000000   0.0000000   0.0000000   0.0000000   0.0000000   2.7928460
 AtZNuc=   1.0000000   1.0000000   1.0000000   8.0000000   6.0000000   6.0000000   6.0000000   6.0000000   6.0000000   1.0000000

  Atom        31          32          33          34          35          36          37          38          39          40
 IAtWgt=           1           1           1           1          16          16          16          12           1           1
 AtmWgt=   1.0078250   1.0078250   1.0078250   1.0078250  15.9949146  15.9949146  15.9949146  12.0000000   1.0078250   1.0078250
 NucSpn=           1           1           1           1           0           0           0           0           1           1
 AtZEff=   0.0000000   0.0000000   0.0000000   0.0000000   0.0000000   0.0000000   0.0000000   0.0000000   0.0000000   0.0000000
 NQMom=    0.0000000   0.0000000   0.0000000   0.0000000   0.0000000   0.0000000   0.0000000   0.0000000   0.0000000   0.0000000
 NMagM=    2.7928460   2.7928460   2.7928460   2.7928460   0.0000000   0.0000000   0.0000000   0.0000000   2.7928460   2.7928460
 AtZNuc=   1.0000000   1.0000000   1.0000000   1.0000000   8.0000000   8.0000000   8.0000000   6.0000000   1.0000000   1.0000000

  Atom        41          42          43          44          45          46          47          48          49          50
 IAtWgt=          16           1           1           1          16          12          12          12          12          12
 AtmWgt=  15.9949146   1.0078250   1.0078250   1.0078250  15.9949146  12.0000000  12.0000000  12.0000000  12.0000000  12.0000000
 NucSpn=           0           1           1           1           0           0           0           0           0           0
 AtZEff=   0.0000000   0.0000000   0.0000000   0.0000000   0.0000000   0.0000000   0.0000000   0.0000000   0.0000000   0.0000000
 NQMom=    0.0000000   0.0000000   0.0000000   0.0000000   0.0000000   0.0000000   0.0000000   0.0000000   0.0000000   0.0000000
 NMagM=    0.0000000   2.7928460   2.7928460   2.7928460   0.0000000   0.0000000   0.0000000   0.0000000   0.0000000   0.0000000
 AtZNuc=   8.0000000   1.0000000   1.0000000   1.0000000   8.0000000   6.0000000   6.0000000   6.0000000   6.0000000   6.0000000

  Atom        51          52          53          54          55          56          57          58          59          60
 IAtWgt=           1           1           1           1           1          16          16          16          12           1
 AtmWgt=   1.0078250   1.0078250   1.0078250   1.0078250   1.0078250  15.9949146  15.9949146  15.9949146  12.0000000   1.0078250
 NucSpn=           1           1           1           1           1           0           0           0           0           1
 AtZEff=   0.0000000   0.0000000   0.0000000   0.0000000   0.0000000   0.0000000   0.0000000   0.0000000   0.0000000   0.0000000
 NQMom=    0.0000000   0.0000000   0.0000000   0.0000000   0.0000000   0.0000000   0.0000000   0.0000000   0.0000000   0.0000000
 NMagM=    2.7928460   2.7928460   2.7928460   2.7928460   2.7928460   0.0000000   0.0000000   0.0000000   0.0000000   2.7928460
 AtZNuc=   1.0000000   1.0000000   1.0000000   1.0000000   1.0000000   8.0000000   8.0000000   8.0000000   6.0000000   1.0000000

  Atom        61          62          63          64          65          66          67          68          69          70
 IAtWgt=           1          16           1           1           1          12           1           1          12           1
 AtmWgt=   1.0078250  15.9949146   1.0078250   1.0078250   1.0078250  12.0000000   1.0078250   1.0078250  12.0000000   1.0078250
 NucSpn=           1           0           1           1           1           0           1           1           0           1
 AtZEff=   0.0000000   0.0000000   0.0000000   0.0000000   0.0000000   0.0000000   0.0000000   0.0000000   0.0000000   0.0000000
 NQMom=    0.0000000   0.0000000   0.0000000   0.0000000   0.0000000   0.0000000   0.0000000   0.0000000   0.0000000   0.0000000
 NMagM=    2.7928460   0.0000000   2.7928460   2.7928460   2.7928460   0.0000000   2.7928460   2.7928460   0.0000000   2.7928460
 AtZNuc=   1.0000000   8.0000000   1.0000000   1.0000000   1.0000000   6.0000000   1.0000000   1.0000000   6.0000000   1.0000000

  Atom        71          72          73          74          75          76          77          78          79          80
 IAtWgt=           1          12           1           1          12           1           1          12           1           1
 AtmWgt=   1.0078250  12.0000000   1.0078250   1.0078250  12.0000000   1.0078250   1.0078250  12.0000000   1.0078250   1.0078250
 NucSpn=           1           0           1           1           0           1           1           0           1           1
 AtZEff=   0.0000000   0.0000000   0.0000000   0.0000000   0.0000000   0.0000000   0.0000000   0.0000000   0.0000000   0.0000000
 NQMom=    0.0000000   0.0000000   0.0000000   0.0000000   0.0000000   0.0000000   0.0000000   0.0000000   0.0000000   0.0000000
 NMagM=    2.7928460   0.0000000   2.7928460   2.7928460   0.0000000   2.7928460   2.7928460   0.0000000   2.7928460   2.7928460
 AtZNuc=   1.0000000   6.0000000   1.0000000   1.0000000   6.0000000   1.0000000   1.0000000   6.0000000   1.0000000   1.0000000

  Atom        81          82          83          84
 IAtWgt=          14           1           1           1
 AtmWgt=  14.0030740   1.0078250   1.0078250   1.0078250
 NucSpn=           2           1           1           1
 AtZEff=   0.0000000   0.0000000   0.0000000   0.0000000
 NQMom=    2.0440000   0.0000000   0.0000000   0.0000000
 NMagM=    0.4037610   2.7928460   2.7928460   2.7928460
 AtZNuc=   7.0000000   1.0000000   1.0000000   1.0000000
 Leave Link  101 at Mon May  2 10:13:49 2016, MaxMem= 10737418240 cpu:         5.5
 (Enter /share/apps//g09/l103.exe)

 GradGradGradGradGradGradGradGradGradGradGradGradGradGradGradGradGradGrad
 Berny optimization.
 Initialization pass.
                           ----------------------------
                           !    Initial Parameters    !
                           ! (Angstroms and Degrees)  !
 --------------------------                            --------------------------
 ! Name  Definition              Value          Derivative Info.                !
 --------------------------------------------------------------------------------
 ! R1    R(1,2)                  1.4063         estimate D2E/DX2                !
 ! R2    R(1,6)                  1.4433         estimate D2E/DX2                !
 ! R3    R(2,3)                  1.5386         estimate D2E/DX2                !
 ! R4    R(2,7)                  1.1017         estimate D2E/DX2                !
 ! R5    R(2,15)                 1.4299         estimate D2E/DX2                !
 ! R6    R(3,4)                  1.5417         estimate D2E/DX2                !
 ! R7    R(3,8)                  1.1017         estimate D2E/DX2                !
 ! R8    R(3,14)                 1.4266         estimate D2E/DX2                !
 ! R9    R(4,5)                  1.5335         estimate D2E/DX2                !
 ! R10   R(4,9)                  1.0996         estimate D2E/DX2                !
 ! R11   R(4,13)                 1.4371         estimate D2E/DX2                !
 ! R12   R(5,6)                  1.5338         estimate D2E/DX2                !
 ! R13   R(5,10)                 1.1058         estimate D2E/DX2                !
 ! R14   R(5,12)                 1.4388         estimate D2E/DX2                !
 ! R15   R(6,11)                 1.1048         estimate D2E/DX2                !
 ! R16   R(6,16)                 1.5181         estimate D2E/DX2                !
 ! R17   R(12,21)                0.9712         estimate D2E/DX2                !
 ! R18   R(13,22)                0.979          estimate D2E/DX2                !
 ! R19   R(13,83)                1.8067         estimate D2E/DX2                !
 ! R20   R(14,23)                0.9865         estimate D2E/DX2                !
 ! R21   R(14,83)                2.7408         estimate D2E/DX2                !
 ! R22   R(15,27)                1.4404         estimate D2E/DX2                !
 ! R23   R(16,17)                1.1079         estimate D2E/DX2                !
 ! R24   R(16,18)                1.1031         estimate D2E/DX2                !
 ! R25   R(16,19)                1.4303         estimate D2E/DX2                !
 ! R26   R(19,20)                0.9714         estimate D2E/DX2                !
 ! R27   R(19,83)                7.4092         estimate D2E/DX2                !
 ! R28   R(24,25)                1.4448         estimate D2E/DX2                !
 ! R29   R(24,29)                1.4432         estimate D2E/DX2                !
 ! R30   R(25,26)                1.5544         estimate D2E/DX2                !
 ! R31   R(25,30)                1.1047         estimate D2E/DX2                !
 ! R32   R(25,37)                1.4027         estimate D2E/DX2                !
 ! R33   R(26,27)                1.5408         estimate D2E/DX2                !
 ! R34   R(26,31)                1.0968         estimate D2E/DX2                !
 ! R35   R(26,36)                1.4317         estimate D2E/DX2                !
 ! R36   R(27,28)                1.5321         estimate D2E/DX2                !
 ! R37   R(27,32)                1.1018         estimate D2E/DX2                !
 ! R38   R(28,29)                1.5619         estimate D2E/DX2                !
 ! R39   R(28,33)                1.101          estimate D2E/DX2                !
 ! R40   R(28,35)                1.4446         estimate D2E/DX2                !
 ! R41   R(29,34)                1.1075         estimate D2E/DX2                !
 ! R42   R(29,38)                1.5278         estimate D2E/DX2                !
 ! R43   R(35,43)                0.9704         estimate D2E/DX2                !
 ! R44   R(35,82)                6.0043         estimate D2E/DX2                !
 ! R45   R(36,44)                0.9722         estimate D2E/DX2                !
 ! R46   R(37,49)                1.4421         estimate D2E/DX2                !
 ! R47   R(38,39)                1.0993         estimate D2E/DX2                !
 ! R48   R(38,40)                1.1008         estimate D2E/DX2                !
 ! R49   R(38,41)                1.4337         estimate D2E/DX2                !
 ! R50   R(41,42)                0.979          estimate D2E/DX2                !
 ! R51   R(41,82)                3.8319         estimate D2E/DX2                !
 ! R52   R(45,46)                1.4393         estimate D2E/DX2                !
 ! R53   R(45,50)                1.4351         estimate D2E/DX2                !
 ! R54   R(45,84)                2.9051         estimate D2E/DX2                !
 ! R55   R(46,47)                1.5273         estimate D2E/DX2                !
 ! R56   R(46,51)                1.1122         estimate D2E/DX2                !
 ! R57   R(46,58)                1.3895         estimate D2E/DX2                !
 ! R58   R(47,48)                1.5328         estimate D2E/DX2                !
 ! R59   R(47,52)                1.1068         estimate D2E/DX2                !
 ! R60   R(47,57)                1.4256         estimate D2E/DX2                !
 ! R61   R(48,49)                1.5333         estimate D2E/DX2                !
 ! R62   R(48,53)                1.107          estimate D2E/DX2                !
 ! R63   R(48,56)                1.4296         estimate D2E/DX2                !
 ! R64   R(49,50)                1.5461         estimate D2E/DX2                !
 ! R65   R(49,55)                1.1015         estimate D2E/DX2                !
 ! R66   R(50,54)                1.1097         estimate D2E/DX2                !
 ! R67   R(50,59)                1.5217         estimate D2E/DX2                !
 ! R68   R(56,64)                0.9742         estimate D2E/DX2                !
 ! R69   R(56,84)                5.7672         estimate D2E/DX2                !
 ! R70   R(57,65)                0.9743         estimate D2E/DX2                !
 ! R71   R(58,66)                1.4523         estimate D2E/DX2                !
 ! R72   R(58,84)                4.4772         estimate D2E/DX2                !
 ! R73   R(59,60)                1.099          estimate D2E/DX2                !
 ! R74   R(59,61)                1.0991         estimate D2E/DX2                !
 ! R75   R(59,62)                1.4347         estimate D2E/DX2                !
 ! R76   R(62,63)                0.9854         estimate D2E/DX2                !
 ! R77   R(62,82)                3.0666         estimate D2E/DX2                !
 ! R78   R(66,67)                1.1021         estimate D2E/DX2                !
 ! R79   R(66,68)                1.1004         estimate D2E/DX2                !
 ! R80   R(66,69)                1.5246         estimate D2E/DX2                !
 ! R81   R(69,70)                1.103          estimate D2E/DX2                !
 ! R82   R(69,71)                1.1011         estimate D2E/DX2                !
 ! R83   R(69,72)                1.5368         estimate D2E/DX2                !
 ! R84   R(72,73)                1.1013         estimate D2E/DX2                !
 ! R85   R(72,74)                1.1026         estimate D2E/DX2                !
 ! R86   R(72,75)                1.5354         estimate D2E/DX2                !
 ! R87   R(75,76)                1.1021         estimate D2E/DX2                !
 ! R88   R(75,77)                1.101          estimate D2E/DX2                !
 ! R89   R(75,78)                1.5269         estimate D2E/DX2                !
 ! R90   R(78,79)                1.098          estimate D2E/DX2                !
 ! R91   R(78,80)                1.0996         estimate D2E/DX2                !
 ! R92   R(78,81)                1.5003         estimate D2E/DX2                !
 ! R93   R(81,82)                1.0298         estimate D2E/DX2                !
 ! R94   R(81,83)                1.0451         estimate D2E/DX2                !
 ! R95   R(81,84)                1.0588         estimate D2E/DX2                !
 ! A1    A(2,1,6)              114.2422         estimate D2E/DX2                !
 ! A2    A(1,2,3)              112.2727         estimate D2E/DX2                !
 ! A3    A(1,2,7)              105.0864         estimate D2E/DX2                !
 ! A4    A(1,2,15)             113.3141         estimate D2E/DX2                !
 ! A5    A(3,2,7)              111.0457         estimate D2E/DX2                !
 ! A6    A(3,2,15)             104.8693         estimate D2E/DX2                !
 ! A7    A(7,2,15)             110.3833         estimate D2E/DX2                !
 ! A8    A(2,3,4)              109.367          estimate D2E/DX2                !
 ! A9    A(2,3,8)              107.2461         estimate D2E/DX2                !
 ! A10   A(2,3,14)             111.9842         estimate D2E/DX2                !
 ! A11   A(4,3,8)              108.6698         estimate D2E/DX2                !
 ! A12   A(4,3,14)             112.0502         estimate D2E/DX2                !
 ! A13   A(8,3,14)             107.3378         estimate D2E/DX2                !
 ! A14   A(3,4,5)              110.8639         estimate D2E/DX2                !
 ! A15   A(3,4,9)              109.056          estimate D2E/DX2                !
 ! A16   A(3,4,13)             112.0576         estimate D2E/DX2                !
 ! A17   A(5,4,9)              108.9857         estimate D2E/DX2                !
 ! A18   A(5,4,13)             110.1925         estimate D2E/DX2                !
 ! A19   A(9,4,13)             105.5013         estimate D2E/DX2                !
 ! A20   A(4,5,6)              109.1281         estimate D2E/DX2                !
 ! A21   A(4,5,10)             108.5024         estimate D2E/DX2                !
 ! A22   A(4,5,12)             105.2772         estimate D2E/DX2                !
 ! A23   A(6,5,10)             108.4896         estimate D2E/DX2                !
 ! A24   A(6,5,12)             114.9495         estimate D2E/DX2                !
 ! A25   A(10,5,12)            110.3002         estimate D2E/DX2                !
 ! A26   A(1,6,5)              111.5389         estimate D2E/DX2                !
 ! A27   A(1,6,11)             110.1942         estimate D2E/DX2                !
 ! A28   A(1,6,16)             106.903          estimate D2E/DX2                !
 ! A29   A(5,6,11)             106.4432         estimate D2E/DX2                !
 ! A30   A(5,6,16)             114.8363         estimate D2E/DX2                !
 ! A31   A(11,6,16)            106.8112         estimate D2E/DX2                !
 ! A32   A(5,12,21)            109.4576         estimate D2E/DX2                !
 ! A33   A(4,13,22)            106.1495         estimate D2E/DX2                !
 ! A34   A(4,13,83)            107.2009         estimate D2E/DX2                !
 ! A35   A(22,13,83)           136.3327         estimate D2E/DX2                !
 ! A36   A(3,14,23)            109.3911         estimate D2E/DX2                !
 ! A37   A(3,14,83)             93.7296         estimate D2E/DX2                !
 ! A38   A(23,14,83)           114.3935         estimate D2E/DX2                !
 ! A39   A(2,15,27)            115.8648         estimate D2E/DX2                !
 ! A40   A(6,16,17)            108.9453         estimate D2E/DX2                !
 ! A41   A(6,16,18)            109.305          estimate D2E/DX2                !
 ! A42   A(6,16,19)            107.4915         estimate D2E/DX2                !
 ! A43   A(17,16,18)           108.7453         estimate D2E/DX2                !
 ! A44   A(17,16,19)           110.6958         estimate D2E/DX2                !
 ! A45   A(18,16,19)           111.6111         estimate D2E/DX2                !
 ! A46   A(16,19,20)           108.3658         estimate D2E/DX2                !
 ! A47   A(16,19,83)            45.2624         estimate D2E/DX2                !
 ! A48   A(20,19,83)           152.7999         estimate D2E/DX2                !
 ! A49   A(25,24,29)           113.6006         estimate D2E/DX2                !
 ! A50   A(24,25,26)           111.1149         estimate D2E/DX2                !
 ! A51   A(24,25,30)           109.113          estimate D2E/DX2                !
 ! A52   A(24,25,37)           108.3729         estimate D2E/DX2                !
 ! A53   A(26,25,30)           107.8527         estimate D2E/DX2                !
 ! A54   A(26,25,37)           115.425          estimate D2E/DX2                !
 ! A55   A(30,25,37)           104.6387         estimate D2E/DX2                !
 ! A56   A(25,26,27)           111.206          estimate D2E/DX2                !
 ! A57   A(25,26,31)           108.9117         estimate D2E/DX2                !
 ! A58   A(25,26,36)           106.6768         estimate D2E/DX2                !
 ! A59   A(27,26,31)           108.7698         estimate D2E/DX2                !
 ! A60   A(27,26,36)           110.6603         estimate D2E/DX2                !
 ! A61   A(31,26,36)           110.5988         estimate D2E/DX2                !
 ! A62   A(15,27,26)           107.6195         estimate D2E/DX2                !
 ! A63   A(15,27,28)           111.9009         estimate D2E/DX2                !
 ! A64   A(15,27,32)           109.3145         estimate D2E/DX2                !
 ! A65   A(26,27,28)           109.6075         estimate D2E/DX2                !
 ! A66   A(26,27,32)           108.2235         estimate D2E/DX2                !
 ! A67   A(28,27,32)           110.0755         estimate D2E/DX2                !
 ! A68   A(27,28,29)           110.6185         estimate D2E/DX2                !
 ! A69   A(27,28,33)           106.3707         estimate D2E/DX2                !
 ! A70   A(27,28,35)           111.8236         estimate D2E/DX2                !
 ! A71   A(29,28,33)           108.3463         estimate D2E/DX2                !
 ! A72   A(29,28,35)           110.2799         estimate D2E/DX2                !
 ! A73   A(33,28,35)           109.2602         estimate D2E/DX2                !
 ! A74   A(24,29,28)           111.5765         estimate D2E/DX2                !
 ! A75   A(24,29,34)           107.6528         estimate D2E/DX2                !
 ! A76   A(24,29,38)           106.876          estimate D2E/DX2                !
 ! A77   A(28,29,34)           108.6546         estimate D2E/DX2                !
 ! A78   A(28,29,38)           114.587          estimate D2E/DX2                !
 ! A79   A(34,29,38)           107.2002         estimate D2E/DX2                !
 ! A80   A(28,35,43)           108.8652         estimate D2E/DX2                !
 ! A81   A(28,35,82)            89.1189         estimate D2E/DX2                !
 ! A82   A(43,35,82)           155.9545         estimate D2E/DX2                !
 ! A83   A(26,36,44)           108.0847         estimate D2E/DX2                !
 ! A84   A(25,37,49)           117.3256         estimate D2E/DX2                !
 ! A85   A(29,38,39)           108.3355         estimate D2E/DX2                !
 ! A86   A(29,38,40)           108.9825         estimate D2E/DX2                !
 ! A87   A(29,38,41)           114.1314         estimate D2E/DX2                !
 ! A88   A(39,38,40)           107.9247         estimate D2E/DX2                !
 ! A89   A(39,38,41)           106.8038         estimate D2E/DX2                !
 ! A90   A(40,38,41)           110.4517         estimate D2E/DX2                !
 ! A91   A(38,41,42)           104.3263         estimate D2E/DX2                !
 ! A92   A(38,41,82)           138.3451         estimate D2E/DX2                !
 ! A93   A(42,41,82)           115.13           estimate D2E/DX2                !
 ! A94   A(46,45,50)           111.5794         estimate D2E/DX2                !
 ! A95   A(46,45,84)           148.2069         estimate D2E/DX2                !
 ! A96   A(50,45,84)            93.3671         estimate D2E/DX2                !
 ! A97   A(45,46,47)           108.6972         estimate D2E/DX2                !
 ! A98   A(45,46,51)           108.8528         estimate D2E/DX2                !
 ! A99   A(45,46,58)           108.7251         estimate D2E/DX2                !
 ! A100  A(47,46,51)           111.2807         estimate D2E/DX2                !
 ! A101  A(47,46,58)           107.4433         estimate D2E/DX2                !
 ! A102  A(51,46,58)           111.7636         estimate D2E/DX2                !
 ! A103  A(46,47,48)           112.0133         estimate D2E/DX2                !
 ! A104  A(46,47,52)           106.1978         estimate D2E/DX2                !
 ! A105  A(46,47,57)           112.7455         estimate D2E/DX2                !
 ! A106  A(48,47,52)           108.7114         estimate D2E/DX2                !
 ! A107  A(48,47,57)           106.3306         estimate D2E/DX2                !
 ! A108  A(52,47,57)           110.8411         estimate D2E/DX2                !
 ! A109  A(47,48,49)           111.7503         estimate D2E/DX2                !
 ! A110  A(47,48,53)           108.6309         estimate D2E/DX2                !
 ! A111  A(47,48,56)           109.568          estimate D2E/DX2                !
 ! A112  A(49,48,53)           107.8944         estimate D2E/DX2                !
 ! A113  A(49,48,56)           109.1343         estimate D2E/DX2                !
 ! A114  A(53,48,56)           109.8344         estimate D2E/DX2                !
 ! A115  A(37,49,48)           109.9863         estimate D2E/DX2                !
 ! A116  A(37,49,50)           108.728          estimate D2E/DX2                !
 ! A117  A(37,49,55)           110.1019         estimate D2E/DX2                !
 ! A118  A(48,49,50)           108.9916         estimate D2E/DX2                !
 ! A119  A(48,49,55)           109.8249         estimate D2E/DX2                !
 ! A120  A(50,49,55)           109.1804         estimate D2E/DX2                !
 ! A121  A(45,50,49)           109.0583         estimate D2E/DX2                !
 ! A122  A(45,50,54)           110.1511         estimate D2E/DX2                !
 ! A123  A(45,50,59)           107.2002         estimate D2E/DX2                !
 ! A124  A(49,50,54)           108.3568         estimate D2E/DX2                !
 ! A125  A(49,50,59)           114.9491         estimate D2E/DX2                !
 ! A126  A(54,50,59)           107.0738         estimate D2E/DX2                !
 ! A127  A(48,56,64)           106.9456         estimate D2E/DX2                !
 ! A128  A(48,56,84)            50.1826         estimate D2E/DX2                !
 ! A129  A(64,56,84)           138.807          estimate D2E/DX2                !
 ! A130  A(47,57,65)           107.5289         estimate D2E/DX2                !
 ! A131  A(46,58,66)           114.859          estimate D2E/DX2                !
 ! A132  A(46,58,84)            69.5009         estimate D2E/DX2                !
 ! A133  A(66,58,84)            93.4104         estimate D2E/DX2                !
 ! A134  A(50,59,60)           108.5216         estimate D2E/DX2                !
 ! A135  A(50,59,61)           109.52           estimate D2E/DX2                !
 ! A136  A(50,59,62)           113.0825         estimate D2E/DX2                !
 ! A137  A(60,59,61)           108.5712         estimate D2E/DX2                !
 ! A138  A(60,59,62)           106.9986         estimate D2E/DX2                !
 ! A139  A(61,59,62)           110.0161         estimate D2E/DX2                !
 ! A140  A(59,62,63)           105.8277         estimate D2E/DX2                !
 ! A141  A(59,62,82)           145.7195         estimate D2E/DX2                !
 ! A142  A(63,62,82)           104.8448         estimate D2E/DX2                !
 ! A143  A(58,66,67)           108.4194         estimate D2E/DX2                !
 ! A144  A(58,66,68)           109.2277         estimate D2E/DX2                !
 ! A145  A(58,66,69)           108.9477         estimate D2E/DX2                !
 ! A146  A(67,66,68)           108.3046         estimate D2E/DX2                !
 ! A147  A(67,66,69)           110.5749         estimate D2E/DX2                !
 ! A148  A(68,66,69)           111.311          estimate D2E/DX2                !
 ! A149  A(66,69,70)           107.7581         estimate D2E/DX2                !
 ! A150  A(66,69,71)           108.5224         estimate D2E/DX2                !
 ! A151  A(66,69,72)           114.6547         estimate D2E/DX2                !
 ! A152  A(70,69,71)           106.2269         estimate D2E/DX2                !
 ! A153  A(70,69,72)           110.6817         estimate D2E/DX2                !
 ! A154  A(71,69,72)           108.6486         estimate D2E/DX2                !
 ! A155  A(69,72,73)           107.5959         estimate D2E/DX2                !
 ! A156  A(69,72,74)           108.3531         estimate D2E/DX2                !
 ! A157  A(69,72,75)           114.4574         estimate D2E/DX2                !
 ! A158  A(73,72,74)           106.5439         estimate D2E/DX2                !
 ! A159  A(73,72,75)           110.5298         estimate D2E/DX2                !
 ! A160  A(74,72,75)           109.0457         estimate D2E/DX2                !
 ! A161  A(72,75,76)           109.8056         estimate D2E/DX2                !
 ! A162  A(72,75,77)           110.3307         estimate D2E/DX2                !
 ! A163  A(72,75,78)           114.1602         estimate D2E/DX2                !
 ! A164  A(76,75,77)           106.6143         estimate D2E/DX2                !
 ! A165  A(76,75,78)           106.9214         estimate D2E/DX2                !
 ! A166  A(77,75,78)           108.6876         estimate D2E/DX2                !
 ! A167  A(75,78,79)           111.0751         estimate D2E/DX2                !
 ! A168  A(75,78,80)           111.4061         estimate D2E/DX2                !
 ! A169  A(75,78,81)           111.8962         estimate D2E/DX2                !
 ! A170  A(79,78,80)           108.0121         estimate D2E/DX2                !
 ! A171  A(79,78,81)           106.8927         estimate D2E/DX2                !
 ! A172  A(80,78,81)           107.3327         estimate D2E/DX2                !
 ! A173  A(78,81,82)           113.574          estimate D2E/DX2                !
 ! A174  A(78,81,83)           113.1151         estimate D2E/DX2                !
 ! A175  A(78,81,84)           112.364          estimate D2E/DX2                !
 ! A176  A(82,81,83)           103.7809         estimate D2E/DX2                !
 ! A177  A(82,81,84)           104.8373         estimate D2E/DX2                !
 ! A178  A(83,81,84)           108.4785         estimate D2E/DX2                !
 ! A179  A(35,82,41)            19.1397         estimate D2E/DX2                !
 ! A180  A(35,82,62)            61.6126         estimate D2E/DX2                !
 ! A181  A(35,82,81)           115.8344         estimate D2E/DX2                !
 ! A182  A(41,82,62)            54.9511         estimate D2E/DX2                !
 ! A183  A(41,82,81)           117.0134         estimate D2E/DX2                !
 ! A184  A(62,82,81)            63.2986         estimate D2E/DX2                !
 ! A185  A(13,83,14)            76.8383         estimate D2E/DX2                !
 ! A186  A(13,83,19)            39.1358         estimate D2E/DX2                !
 ! A187  A(13,83,81)           161.0862         estimate D2E/DX2                !
 ! A188  A(14,83,19)            57.5818         estimate D2E/DX2                !
 ! A189  A(14,83,81)            84.4557         estimate D2E/DX2                !
 ! A190  A(19,83,81)           126.1892         estimate D2E/DX2                !
 ! A191  A(45,84,56)            42.1762         estimate D2E/DX2                !
 ! A192  A(45,84,58)            26.9            estimate D2E/DX2                !
 ! A193  A(45,84,81)           121.1912         estimate D2E/DX2                !
 ! A194  A(56,84,58)            53.5272         estimate D2E/DX2                !
 ! A195  A(56,84,81)           124.1001         estimate D2E/DX2                !
 ! A196  A(58,84,81)            94.3861         estimate D2E/DX2                !
 ! D1    D(6,1,2,3)            -57.5369         estimate D2E/DX2                !
 ! D2    D(6,1,2,7)           -178.3558         estimate D2E/DX2                !
 ! D3    D(6,1,2,15)            61.0486         estimate D2E/DX2                !
 ! D4    D(2,1,6,5)             58.154          estimate D2E/DX2                !
 ! D5    D(2,1,6,11)           -59.8428         estimate D2E/DX2                !
 ! D6    D(2,1,6,16)          -175.5548         estimate D2E/DX2                !
 ! D7    D(1,2,3,4)             54.1583         estimate D2E/DX2                !
 ! D8    D(1,2,3,8)            -63.5136         estimate D2E/DX2                !
 ! D9    D(1,2,3,14)           178.9815         estimate D2E/DX2                !
 ! D10   D(7,2,3,4)            171.4782         estimate D2E/DX2                !
 ! D11   D(7,2,3,8)             53.8063         estimate D2E/DX2                !
 ! D12   D(7,2,3,14)           -63.6986         estimate D2E/DX2                !
 ! D13   D(15,2,3,4)           -69.294          estimate D2E/DX2                !
 ! D14   D(15,2,3,8)           173.0341         estimate D2E/DX2                !
 ! D15   D(15,2,3,14)           55.5292         estimate D2E/DX2                !
 ! D16   D(1,2,15,27)           63.4501         estimate D2E/DX2                !
 ! D17   D(3,2,15,27)         -173.7685         estimate D2E/DX2                !
 ! D18   D(7,2,15,27)          -54.097          estimate D2E/DX2                !
 ! D19   D(2,3,4,5)            -53.3211         estimate D2E/DX2                !
 ! D20   D(2,3,4,9)             66.679          estimate D2E/DX2                !
 ! D21   D(2,3,4,13)          -176.8946         estimate D2E/DX2                !
 ! D22   D(8,3,4,5)             63.4538         estimate D2E/DX2                !
 ! D23   D(8,3,4,9)           -176.5461         estimate D2E/DX2                !
 ! D24   D(8,3,4,13)           -60.1197         estimate D2E/DX2                !
 ! D25   D(14,3,4,5)          -178.1059         estimate D2E/DX2                !
 ! D26   D(14,3,4,9)           -58.1058         estimate D2E/DX2                !
 ! D27   D(14,3,4,13)           58.3206         estimate D2E/DX2                !
 ! D28   D(2,3,14,23)          -24.0166         estimate D2E/DX2                !
 ! D29   D(2,3,14,83)         -141.5143         estimate D2E/DX2                !
 ! D30   D(4,3,14,23)           99.3067         estimate D2E/DX2                !
 ! D31   D(4,3,14,83)          -18.191          estimate D2E/DX2                !
 ! D32   D(8,3,14,23)         -141.4667         estimate D2E/DX2                !
 ! D33   D(8,3,14,83)          101.0357         estimate D2E/DX2                !
 ! D34   D(3,4,5,6)             54.1732         estimate D2E/DX2                !
 ! D35   D(3,4,5,10)           172.2092         estimate D2E/DX2                !
 ! D36   D(3,4,5,12)           -69.7139         estimate D2E/DX2                !
 ! D37   D(9,4,5,6)            -65.8688         estimate D2E/DX2                !
 ! D38   D(9,4,5,10)            52.1671         estimate D2E/DX2                !
 ! D39   D(9,4,5,12)           170.2441         estimate D2E/DX2                !
 ! D40   D(13,4,5,6)           178.8109         estimate D2E/DX2                !
 ! D41   D(13,4,5,10)          -63.1531         estimate D2E/DX2                !
 ! D42   D(13,4,5,12)           54.9238         estimate D2E/DX2                !
 ! D43   D(3,4,13,22)           78.7224         estimate D2E/DX2                !
 ! D44   D(3,4,13,83)          -72.6773         estimate D2E/DX2                !
 ! D45   D(5,4,13,22)          -45.2272         estimate D2E/DX2                !
 ! D46   D(5,4,13,83)          163.3731         estimate D2E/DX2                !
 ! D47   D(9,4,13,22)         -162.7257         estimate D2E/DX2                !
 ! D48   D(9,4,13,83)           45.8746         estimate D2E/DX2                !
 ! D49   D(4,5,6,1)            -55.1399         estimate D2E/DX2                !
 ! D50   D(4,5,6,11)            65.0874         estimate D2E/DX2                !
 ! D51   D(4,5,6,16)          -176.9507         estimate D2E/DX2                !
 ! D52   D(10,5,6,1)          -173.1839         estimate D2E/DX2                !
 ! D53   D(10,5,6,11)          -52.9566         estimate D2E/DX2                !
 ! D54   D(10,5,6,16)           65.0053         estimate D2E/DX2                !
 ! D55   D(12,5,6,1)            62.8261         estimate D2E/DX2                !
 ! D56   D(12,5,6,11)         -176.9465         estimate D2E/DX2                !
 ! D57   D(12,5,6,16)          -58.9847         estimate D2E/DX2                !
 ! D58   D(4,5,12,21)         -158.3624         estimate D2E/DX2                !
 ! D59   D(6,5,12,21)           81.5237         estimate D2E/DX2                !
 ! D60   D(10,5,12,21)         -41.5034         estimate D2E/DX2                !
 ! D61   D(1,6,16,17)         -164.7611         estimate D2E/DX2                !
 ! D62   D(1,6,16,18)          -46.0593         estimate D2E/DX2                !
 ! D63   D(1,6,16,19)           75.2432         estimate D2E/DX2                !
 ! D64   D(5,6,16,17)          -40.4655         estimate D2E/DX2                !
 ! D65   D(5,6,16,18)           78.2363         estimate D2E/DX2                !
 ! D66   D(5,6,16,19)         -160.4612         estimate D2E/DX2                !
 ! D67   D(11,6,16,17)          77.2884         estimate D2E/DX2                !
 ! D68   D(11,6,16,18)        -164.0098         estimate D2E/DX2                !
 ! D69   D(11,6,16,19)         -42.7073         estimate D2E/DX2                !
 ! D70   D(4,13,83,14)          41.0258         estimate D2E/DX2                !
 ! D71   D(4,13,83,19)         -13.177          estimate D2E/DX2                !
 ! D72   D(4,13,83,81)          32.3538         estimate D2E/DX2                !
 ! D73   D(22,13,83,14)        -97.2202         estimate D2E/DX2                !
 ! D74   D(22,13,83,19)       -151.423          estimate D2E/DX2                !
 ! D75   D(22,13,83,81)       -105.8923         estimate D2E/DX2                !
 ! D76   D(3,14,83,13)         -12.8948         estimate D2E/DX2                !
 ! D77   D(3,14,83,19)          24.4377         estimate D2E/DX2                !
 ! D78   D(3,14,83,81)         164.2906         estimate D2E/DX2                !
 ! D79   D(23,14,83,13)       -126.1541         estimate D2E/DX2                !
 ! D80   D(23,14,83,19)        -88.8217         estimate D2E/DX2                !
 ! D81   D(23,14,83,81)         51.0313         estimate D2E/DX2                !
 ! D82   D(2,15,27,26)        -136.4082         estimate D2E/DX2                !
 ! D83   D(2,15,27,28)         103.1171         estimate D2E/DX2                !
 ! D84   D(2,15,27,32)         -19.0858         estimate D2E/DX2                !
 ! D85   D(6,16,19,20)        -160.532          estimate D2E/DX2                !
 ! D86   D(6,16,19,83)          11.4963         estimate D2E/DX2                !
 ! D87   D(17,16,19,20)         80.5904         estimate D2E/DX2                !
 ! D88   D(17,16,19,83)       -107.3813         estimate D2E/DX2                !
 ! D89   D(18,16,19,20)        -40.6858         estimate D2E/DX2                !
 ! D90   D(18,16,19,83)        131.3425         estimate D2E/DX2                !
 ! D91   D(16,19,83,13)          2.8822         estimate D2E/DX2                !
 ! D92   D(16,19,83,14)       -107.794          estimate D2E/DX2                !
 ! D93   D(16,19,83,81)       -160.4625         estimate D2E/DX2                !
 ! D94   D(20,19,83,13)         19.6171         estimate D2E/DX2                !
 ! D95   D(20,19,83,14)        -91.059          estimate D2E/DX2                !
 ! D96   D(20,19,83,81)       -143.7275         estimate D2E/DX2                !
 ! D97   D(29,24,25,26)        -60.2903         estimate D2E/DX2                !
 ! D98   D(29,24,25,30)         58.5016         estimate D2E/DX2                !
 ! D99   D(29,24,25,37)        171.8879         estimate D2E/DX2                !
 ! D100  D(25,24,29,28)         54.2064         estimate D2E/DX2                !
 ! D101  D(25,24,29,34)        -64.9247         estimate D2E/DX2                !
 ! D102  D(25,24,29,38)       -179.8117         estimate D2E/DX2                !
 ! D103  D(24,25,26,27)          5.4652         estimate D2E/DX2                !
 ! D104  D(24,25,26,31)       -114.3868         estimate D2E/DX2                !
 ! D105  D(24,25,26,36)        126.2159         estimate D2E/DX2                !
 ! D106  D(30,25,26,27)       -114.0814         estimate D2E/DX2                !
 ! D107  D(30,25,26,31)        126.0666         estimate D2E/DX2                !
 ! D108  D(30,25,26,36)          6.6693         estimate D2E/DX2                !
 ! D109  D(37,25,26,27)        129.3616         estimate D2E/DX2                !
 ! D110  D(37,25,26,31)          9.5096         estimate D2E/DX2                !
 ! D111  D(37,25,26,36)       -109.8877         estimate D2E/DX2                !
 ! D112  D(24,25,37,49)         62.7947         estimate D2E/DX2                !
 ! D113  D(26,25,37,49)        -62.528          estimate D2E/DX2                !
 ! D114  D(30,25,37,49)        179.1124         estimate D2E/DX2                !
 ! D115  D(25,26,27,15)        -71.7606         estimate D2E/DX2                !
 ! D116  D(25,26,27,28)         50.1496         estimate D2E/DX2                !
 ! D117  D(25,26,27,32)        170.2102         estimate D2E/DX2                !
 ! D118  D(31,26,27,15)         48.1757         estimate D2E/DX2                !
 ! D119  D(31,26,27,28)        170.0859         estimate D2E/DX2                !
 ! D120  D(31,26,27,32)        -69.8536         estimate D2E/DX2                !
 ! D121  D(36,26,27,15)        169.862          estimate D2E/DX2                !
 ! D122  D(36,26,27,28)        -68.2277         estimate D2E/DX2                !
 ! D123  D(36,26,27,32)         51.8328         estimate D2E/DX2                !
 ! D124  D(25,26,36,44)        144.6634         estimate D2E/DX2                !
 ! D125  D(27,26,36,44)        -94.2374         estimate D2E/DX2                !
 ! D126  D(31,26,36,44)         26.3661         estimate D2E/DX2                !
 ! D127  D(15,27,28,29)         63.4082         estimate D2E/DX2                !
 ! D128  D(15,27,28,33)       -179.1378         estimate D2E/DX2                !
 ! D129  D(15,27,28,35)        -59.9303         estimate D2E/DX2                !
 ! D130  D(26,27,28,29)        -55.9017         estimate D2E/DX2                !
 ! D131  D(26,27,28,33)         61.5523         estimate D2E/DX2                !
 ! D132  D(26,27,28,35)       -179.2401         estimate D2E/DX2                !
 ! D133  D(32,27,28,29)       -174.8251         estimate D2E/DX2                !
 ! D134  D(32,27,28,33)        -57.371          estimate D2E/DX2                !
 ! D135  D(32,27,28,35)         61.8365         estimate D2E/DX2                !
 ! D136  D(27,28,29,24)          5.456          estimate D2E/DX2                !
 ! D137  D(27,28,29,34)        123.9903         estimate D2E/DX2                !
 ! D138  D(27,28,29,38)       -116.1617         estimate D2E/DX2                !
 ! D139  D(33,28,29,24)       -110.7778         estimate D2E/DX2                !
 ! D140  D(33,28,29,34)          7.7566         estimate D2E/DX2                !
 ! D141  D(33,28,29,38)        127.6046         estimate D2E/DX2                !
 ! D142  D(35,28,29,24)        129.6826         estimate D2E/DX2                !
 ! D143  D(35,28,29,34)       -111.7831         estimate D2E/DX2                !
 ! D144  D(35,28,29,38)          8.0649         estimate D2E/DX2                !
 ! D145  D(27,28,35,43)        -97.9168         estimate D2E/DX2                !
 ! D146  D(27,28,35,82)         65.8071         estimate D2E/DX2                !
 ! D147  D(29,28,35,43)        138.5536         estimate D2E/DX2                !
 ! D148  D(29,28,35,82)        -57.7226         estimate D2E/DX2                !
 ! D149  D(33,28,35,43)         19.5693         estimate D2E/DX2                !
 ! D150  D(33,28,35,82)       -176.7068         estimate D2E/DX2                !
 ! D151  D(24,29,38,39)         47.2174         estimate D2E/DX2                !
 ! D152  D(24,29,38,40)        164.403          estimate D2E/DX2                !
 ! D153  D(24,29,38,41)        -71.6108         estimate D2E/DX2                !
 ! D154  D(28,29,38,39)        171.3714         estimate D2E/DX2                !
 ! D155  D(28,29,38,40)        -71.443          estimate D2E/DX2                !
 ! D156  D(28,29,38,41)         52.5432         estimate D2E/DX2                !
 ! D157  D(34,29,38,39)        -67.9738         estimate D2E/DX2                !
 ! D158  D(34,29,38,40)         49.2118         estimate D2E/DX2                !
 ! D159  D(34,29,38,41)        173.198          estimate D2E/DX2                !
 ! D160  D(28,35,82,41)         87.843          estimate D2E/DX2                !
 ! D161  D(28,35,82,62)         23.5512         estimate D2E/DX2                !
 ! D162  D(28,35,82,81)        -10.4403         estimate D2E/DX2                !
 ! D163  D(43,35,82,41)       -132.7653         estimate D2E/DX2                !
 ! D164  D(43,35,82,62)        162.9429         estimate D2E/DX2                !
 ! D165  D(43,35,82,81)        128.9514         estimate D2E/DX2                !
 ! D166  D(25,37,49,48)        121.117          estimate D2E/DX2                !
 ! D167  D(25,37,49,50)       -119.6116         estimate D2E/DX2                !
 ! D168  D(25,37,49,55)         -0.0411         estimate D2E/DX2                !
 ! D169  D(29,38,41,42)        -73.3525         estimate D2E/DX2                !
 ! D170  D(29,38,41,82)         87.8305         estimate D2E/DX2                !
 ! D171  D(39,38,41,42)        166.9536         estimate D2E/DX2                !
 ! D172  D(39,38,41,82)        -31.8634         estimate D2E/DX2                !
 ! D173  D(40,38,41,42)         49.8409         estimate D2E/DX2                !
 ! D174  D(40,38,41,82)       -148.9761         estimate D2E/DX2                !
 ! D175  D(38,41,82,35)       -121.2015         estimate D2E/DX2                !
 ! D176  D(38,41,82,62)        -16.7251         estimate D2E/DX2                !
 ! D177  D(38,41,82,81)        -29.891          estimate D2E/DX2                !
 ! D178  D(42,41,82,35)         38.6051         estimate D2E/DX2                !
 ! D179  D(42,41,82,62)        143.0815         estimate D2E/DX2                !
 ! D180  D(42,41,82,81)        129.9156         estimate D2E/DX2                !
 ! D181  D(50,45,46,47)        -64.6649         estimate D2E/DX2                !
 ! D182  D(50,45,46,51)         56.6967         estimate D2E/DX2                !
 ! D183  D(50,45,46,58)        178.6642         estimate D2E/DX2                !
 ! D184  D(84,45,46,47)         74.6187         estimate D2E/DX2                !
 ! D185  D(84,45,46,51)       -164.0197         estimate D2E/DX2                !
 ! D186  D(84,45,46,58)        -42.0522         estimate D2E/DX2                !
 ! D187  D(46,45,50,49)         67.5306         estimate D2E/DX2                !
 ! D188  D(46,45,50,54)        -51.2655         estimate D2E/DX2                !
 ! D189  D(46,45,50,59)       -167.4322         estimate D2E/DX2                !
 ! D190  D(84,45,50,49)        -92.3323         estimate D2E/DX2                !
 ! D191  D(84,45,50,54)        148.8716         estimate D2E/DX2                !
 ! D192  D(84,45,50,59)         32.705          estimate D2E/DX2                !
 ! D193  D(46,45,84,56)        -76.8426         estimate D2E/DX2                !
 ! D194  D(46,45,84,58)         25.794          estimate D2E/DX2                !
 ! D195  D(46,45,84,81)         31.0893         estimate D2E/DX2                !
 ! D196  D(50,45,84,56)         65.7382         estimate D2E/DX2                !
 ! D197  D(50,45,84,58)        168.3748         estimate D2E/DX2                !
 ! D198  D(50,45,84,81)        173.6701         estimate D2E/DX2                !
 ! D199  D(45,46,47,48)         54.2447         estimate D2E/DX2                !
 ! D200  D(45,46,47,52)        -64.2955         estimate D2E/DX2                !
 ! D201  D(45,46,47,57)        174.1366         estimate D2E/DX2                !
 ! D202  D(51,46,47,48)        -65.6179         estimate D2E/DX2                !
 ! D203  D(51,46,47,52)        175.842          estimate D2E/DX2                !
 ! D204  D(51,46,47,57)         54.274          estimate D2E/DX2                !
 ! D205  D(58,46,47,48)        171.7343         estimate D2E/DX2                !
 ! D206  D(58,46,47,52)         53.1941         estimate D2E/DX2                !
 ! D207  D(58,46,47,57)        -68.3738         estimate D2E/DX2                !
 ! D208  D(45,46,58,66)        -69.9252         estimate D2E/DX2                !
 ! D209  D(45,46,58,84)         14.1499         estimate D2E/DX2                !
 ! D210  D(47,46,58,66)        172.6034         estimate D2E/DX2                !
 ! D211  D(47,46,58,84)       -103.3215         estimate D2E/DX2                !
 ! D212  D(51,46,58,66)         50.2545         estimate D2E/DX2                !
 ! D213  D(51,46,58,84)        134.3296         estimate D2E/DX2                !
 ! D214  D(46,47,48,49)        -48.9042         estimate D2E/DX2                !
 ! D215  D(46,47,48,53)         70.0176         estimate D2E/DX2                !
 ! D216  D(46,47,48,56)       -169.9921         estimate D2E/DX2                !
 ! D217  D(52,47,48,49)         68.1361         estimate D2E/DX2                !
 ! D218  D(52,47,48,53)       -172.942          estimate D2E/DX2                !
 ! D219  D(52,47,48,56)        -52.9518         estimate D2E/DX2                !
 ! D220  D(57,47,48,49)       -172.4797         estimate D2E/DX2                !
 ! D221  D(57,47,48,53)        -53.5579         estimate D2E/DX2                !
 ! D222  D(57,47,48,56)         66.4324         estimate D2E/DX2                !
 ! D223  D(46,47,57,65)         58.1701         estimate D2E/DX2                !
 ! D224  D(48,47,57,65)       -178.7126         estimate D2E/DX2                !
 ! D225  D(52,47,57,65)        -60.7281         estimate D2E/DX2                !
 ! D226  D(47,48,49,37)        168.8544         estimate D2E/DX2                !
 ! D227  D(47,48,49,50)         49.7442         estimate D2E/DX2                !
 ! D228  D(47,48,49,55)        -69.8216         estimate D2E/DX2                !
 ! D229  D(53,48,49,37)         49.4967         estimate D2E/DX2                !
 ! D230  D(53,48,49,50)        -69.6136         estimate D2E/DX2                !
 ! D231  D(53,48,49,55)        170.8206         estimate D2E/DX2                !
 ! D232  D(56,48,49,37)        -69.8062         estimate D2E/DX2                !
 ! D233  D(56,48,49,50)        171.0835         estimate D2E/DX2                !
 ! D234  D(56,48,49,55)         51.5177         estimate D2E/DX2                !
 ! D235  D(47,48,56,64)        -60.1172         estimate D2E/DX2                !
 ! D236  D(47,48,56,84)         80.25           estimate D2E/DX2                !
 ! D237  D(49,48,56,64)        177.2264         estimate D2E/DX2                !
 ! D238  D(49,48,56,84)        -42.4063         estimate D2E/DX2                !
 ! D239  D(53,48,56,64)         59.1345         estimate D2E/DX2                !
 ! D240  D(53,48,56,84)       -160.4982         estimate D2E/DX2                !
 ! D241  D(37,49,50,45)       -178.0278         estimate D2E/DX2                !
 ! D242  D(37,49,50,54)        -58.1172         estimate D2E/DX2                !
 ! D243  D(37,49,50,59)         61.5891         estimate D2E/DX2                !
 ! D244  D(48,49,50,45)        -58.1362         estimate D2E/DX2                !
 ! D245  D(48,49,50,54)         61.7744         estimate D2E/DX2                !
 ! D246  D(48,49,50,59)       -178.5193         estimate D2E/DX2                !
 ! D247  D(55,49,50,45)         61.8288         estimate D2E/DX2                !
 ! D248  D(55,49,50,54)       -178.2606         estimate D2E/DX2                !
 ! D249  D(55,49,50,59)        -58.5544         estimate D2E/DX2                !
 ! D250  D(45,50,59,60)         55.3989         estimate D2E/DX2                !
 ! D251  D(45,50,59,61)        173.7665         estimate D2E/DX2                !
 ! D252  D(45,50,59,62)        -63.1511         estimate D2E/DX2                !
 ! D253  D(49,50,59,60)        176.7989         estimate D2E/DX2                !
 ! D254  D(49,50,59,61)        -64.8334         estimate D2E/DX2                !
 ! D255  D(49,50,59,62)         58.249          estimate D2E/DX2                !
 ! D256  D(54,50,59,60)        -62.7867         estimate D2E/DX2                !
 ! D257  D(54,50,59,61)         55.581          estimate D2E/DX2                !
 ! D258  D(54,50,59,62)        178.6634         estimate D2E/DX2                !
 ! D259  D(48,56,84,45)        -16.3557         estimate D2E/DX2                !
 ! D260  D(48,56,84,58)        -49.6545         estimate D2E/DX2                !
 ! D261  D(48,56,84,81)       -116.9707         estimate D2E/DX2                !
 ! D262  D(64,56,84,45)         51.5351         estimate D2E/DX2                !
 ! D263  D(64,56,84,58)         18.2363         estimate D2E/DX2                !
 ! D264  D(64,56,84,81)        -49.0799         estimate D2E/DX2                !
 ! D265  D(46,58,66,67)       -100.8847         estimate D2E/DX2                !
 ! D266  D(46,58,66,68)         16.9381         estimate D2E/DX2                !
 ! D267  D(46,58,66,69)        138.7202         estimate D2E/DX2                !
 ! D268  D(84,58,66,67)       -169.8442         estimate D2E/DX2                !
 ! D269  D(84,58,66,68)        -52.0214         estimate D2E/DX2                !
 ! D270  D(84,58,66,69)         69.7607         estimate D2E/DX2                !
 ! D271  D(46,58,84,45)        -14.6858         estimate D2E/DX2                !
 ! D272  D(46,58,84,56)         39.874          estimate D2E/DX2                !
 ! D273  D(46,58,84,81)        169.8557         estimate D2E/DX2                !
 ! D274  D(66,58,84,45)        100.612          estimate D2E/DX2                !
 ! D275  D(66,58,84,56)        155.1718         estimate D2E/DX2                !
 ! D276  D(66,58,84,81)        -74.8466         estimate D2E/DX2                !
 ! D277  D(50,59,62,63)        -80.0073         estimate D2E/DX2                !
 ! D278  D(50,59,62,82)         72.701          estimate D2E/DX2                !
 ! D279  D(60,59,62,63)        160.5623         estimate D2E/DX2                !
 ! D280  D(60,59,62,82)        -46.7293         estimate D2E/DX2                !
 ! D281  D(61,59,62,63)         42.7999         estimate D2E/DX2                !
 ! D282  D(61,59,62,82)       -164.4917         estimate D2E/DX2                !
 ! D283  D(59,62,82,35)       -160.145          estimate D2E/DX2                !
 ! D284  D(59,62,82,41)        178.7024         estimate D2E/DX2                !
 ! D285  D(59,62,82,81)        -14.4266         estimate D2E/DX2                !
 ! D286  D(63,62,82,35)         -7.298          estimate D2E/DX2                !
 ! D287  D(63,62,82,41)        -28.4506         estimate D2E/DX2                !
 ! D288  D(63,62,82,81)        138.4204         estimate D2E/DX2                !
 ! D289  D(58,66,69,70)        178.4755         estimate D2E/DX2                !
 ! D290  D(58,66,69,71)         63.8461         estimate D2E/DX2                !
 ! D291  D(58,66,69,72)        -57.811          estimate D2E/DX2                !
 ! D292  D(67,66,69,70)         59.417          estimate D2E/DX2                !
 ! D293  D(67,66,69,71)        -55.2124         estimate D2E/DX2                !
 ! D294  D(67,66,69,72)       -176.8695         estimate D2E/DX2                !
 ! D295  D(68,66,69,70)        -61.0156         estimate D2E/DX2                !
 ! D296  D(68,66,69,71)       -175.6451         estimate D2E/DX2                !
 ! D297  D(68,66,69,72)         62.6978         estimate D2E/DX2                !
 ! D298  D(66,69,72,73)         57.3347         estimate D2E/DX2                !
 ! D299  D(66,69,72,74)        172.1659         estimate D2E/DX2                !
 ! D300  D(66,69,72,75)        -65.924          estimate D2E/DX2                !
 ! D301  D(70,69,72,73)        179.4739         estimate D2E/DX2                !
 ! D302  D(70,69,72,74)        -65.6949         estimate D2E/DX2                !
 ! D303  D(70,69,72,75)         56.2153         estimate D2E/DX2                !
 ! D304  D(71,69,72,73)        -64.2535         estimate D2E/DX2                !
 ! D305  D(71,69,72,74)         50.5777         estimate D2E/DX2                !
 ! D306  D(71,69,72,75)        172.4879         estimate D2E/DX2                !
 ! D307  D(69,72,75,76)        -60.038          estimate D2E/DX2                !
 ! D308  D(69,72,75,77)         57.1899         estimate D2E/DX2                !
 ! D309  D(69,72,75,78)        179.9218         estimate D2E/DX2                !
 ! D310  D(73,72,75,76)        178.2974         estimate D2E/DX2                !
 ! D311  D(73,72,75,77)        -64.4748         estimate D2E/DX2                !
 ! D312  D(73,72,75,78)         58.2571         estimate D2E/DX2                !
 ! D313  D(74,72,75,76)         61.493          estimate D2E/DX2                !
 ! D314  D(74,72,75,77)        178.7208         estimate D2E/DX2                !
 ! D315  D(74,72,75,78)        -58.5473         estimate D2E/DX2                !
 ! D316  D(72,75,78,79)        174.0837         estimate D2E/DX2                !
 ! D317  D(72,75,78,80)         53.6188         estimate D2E/DX2                !
 ! D318  D(72,75,78,81)        -66.5423         estimate D2E/DX2                !
 ! D319  D(76,75,78,79)         52.4397         estimate D2E/DX2                !
 ! D320  D(76,75,78,80)        -68.0251         estimate D2E/DX2                !
 ! D321  D(76,75,78,81)        171.8138         estimate D2E/DX2                !
 ! D322  D(77,75,78,79)        -62.2941         estimate D2E/DX2                !
 ! D323  D(77,75,78,80)        177.2411         estimate D2E/DX2                !
 ! D324  D(77,75,78,81)         57.08           estimate D2E/DX2                !
 ! D325  D(75,78,81,82)        178.0389         estimate D2E/DX2                !
 ! D326  D(75,78,81,83)         60.0799         estimate D2E/DX2                !
 ! D327  D(75,78,81,84)        -63.1681         estimate D2E/DX2                !
 ! D328  D(79,78,81,82)        -60.1526         estimate D2E/DX2                !
 ! D329  D(79,78,81,83)       -178.1116         estimate D2E/DX2                !
 ! D330  D(79,78,81,84)         58.6403         estimate D2E/DX2                !
 ! D331  D(80,78,81,82)         55.5254         estimate D2E/DX2                !
 ! D332  D(80,78,81,83)        -62.4336         estimate D2E/DX2                !
 ! D333  D(80,78,81,84)        174.3183         estimate D2E/DX2                !
 ! D334  D(78,81,82,35)        153.679          estimate D2E/DX2                !
 ! D335  D(78,81,82,41)        132.3217         estimate D2E/DX2                !
 ! D336  D(78,81,82,62)        120.274          estimate D2E/DX2                !
 ! D337  D(83,81,82,35)        -83.0881         estimate D2E/DX2                !
 ! D338  D(83,81,82,41)       -104.4454         estimate D2E/DX2                !
 ! D339  D(83,81,82,62)       -116.4932         estimate D2E/DX2                !
 ! D340  D(84,81,82,35)         30.6511         estimate D2E/DX2                !
 ! D341  D(84,81,82,41)          9.2938         estimate D2E/DX2                !
 ! D342  D(84,81,82,62)         -2.7539         estimate D2E/DX2                !
 ! D343  D(78,81,83,13)        169.1102         estimate D2E/DX2                !
 ! D344  D(78,81,83,14)        160.6277         estimate D2E/DX2                !
 ! D345  D(78,81,83,19)       -156.9664         estimate D2E/DX2                !
 ! D346  D(82,81,83,13)         45.5768         estimate D2E/DX2                !
 ! D347  D(82,81,83,14)         37.0943         estimate D2E/DX2                !
 ! D348  D(82,81,83,19)         79.5001         estimate D2E/DX2                !
 ! D349  D(84,81,83,13)        -65.5211         estimate D2E/DX2                !
 ! D350  D(84,81,83,14)        -74.0036         estimate D2E/DX2                !
 ! D351  D(84,81,83,19)        -31.5977         estimate D2E/DX2                !
 ! D352  D(78,81,84,45)         76.0718         estimate D2E/DX2                !
 ! D353  D(78,81,84,56)        126.5552         estimate D2E/DX2                !
 ! D354  D(78,81,84,58)         78.4719         estimate D2E/DX2                !
 ! D355  D(82,81,84,45)       -160.123          estimate D2E/DX2                !
 ! D356  D(82,81,84,56)       -109.6397         estimate D2E/DX2                !
 ! D357  D(82,81,84,58)       -157.7229         estimate D2E/DX2                !
 ! D358  D(83,81,84,45)        -49.7367         estimate D2E/DX2                !
 ! D359  D(83,81,84,56)          0.7466         estimate D2E/DX2                !
 ! D360  D(83,81,84,58)        -47.3366         estimate D2E/DX2                !
 --------------------------------------------------------------------------------
 Trust Radius=3.00D-01 FncErr=1.00D-07 GrdErr=1.00D-06
 Number of steps in this run=    504 maximum allowed number of steps=    504.
 GradGradGradGradGradGradGradGradGradGradGradGradGradGradGradGradGradGrad

 Leave Link  103 at Mon May  2 10:13:49 2016, MaxMem= 10737418240 cpu:         0.5
 (Enter /share/apps//g09/l202.exe)
 Stoichiometry    C23H44NO16(1+)
 Framework group  C1[X(C23H44NO16)]
 Deg. of freedom   246
 Full point group                 C1      NOp   1
 Largest Abelian subgroup         C1      NOp   1
 Largest concise Abelian subgroup C1      NOp   1
                         Standard orientation:                         
 ---------------------------------------------------------------------
 Center     Atomic      Atomic             Coordinates (Angstroms)
 Number     Number       Type             X           Y           Z
 ---------------------------------------------------------------------
      1          8           0        2.404620    1.908052    1.813603
      2          6           0        2.167552    0.524354    1.895731
      3          6           0        0.838486    0.201220    2.600324
      4          6           0       -0.307774    0.960221    1.902627
      5          6           0        0.005033    2.458737    1.812079
      6          6           0        1.367953    2.647617    1.134276
      7          1           0        3.023011    0.119855    2.459930
      8          1           0        0.921875    0.563976    3.637220
      9          1           0       -0.437428    0.559823    0.886776
     10          1           0       -0.768000    2.941369    1.185750
     11          1           0        1.255179    2.281858    0.097900
     12          8           0       -0.072956    2.944681    3.164128
     13          8           0       -1.569227    0.755635    2.560001
     14          8           0        0.593026   -1.202869    2.659583
     15          8           0        2.069085   -0.109745    0.617943
     16          6           0        1.840532    4.087412    1.042776
     17          1           0        0.978300    4.733247    0.784275
     18          1           0        2.239154    4.403294    2.021604
     19          8           0        2.840947    4.147486    0.022316
     20          1           0        3.364308    4.955213    0.153940
     21          1           0       -0.226300    3.903697    3.154898
     22          1           0       -1.566146    1.342251    3.343751
     23          1           0        1.088936   -1.652940    1.935160
     24          8           0        1.882535   -1.995660   -1.364633
     25          6           0        2.089378   -0.917072   -2.303372
     26          6           0        2.829046    0.274512   -1.633109
     27          6           0        3.257817   -0.073682   -0.194732
     28          6           0        3.995034   -1.416722   -0.188873
     29          6           0        3.107567   -2.534074   -0.824077
     30          1           0        2.716585   -1.278929   -3.137623
     31          1           0        2.154579    1.138759   -1.600867
     32          1           0        3.923903    0.724952    0.169119
     33          1           0        4.887962   -1.283316   -0.818970
     34          1           0        3.667199   -2.999127   -1.658936
     35          8           0        4.404279   -1.798884    1.142774
     36          8           0        3.972632    0.558108   -2.446455
     37          8           0        0.857064   -0.604349   -2.896078
     38          6           0        2.713644   -3.655449    0.135806
     39          1           0        1.972756   -4.294922   -0.364880
     40          1           0        3.600960   -4.270137    0.351756
     41          8           0        2.111494   -3.199382    1.354413
     42          1           0        2.855705   -2.820496    1.865370
     43          1           0        5.335044   -1.554419    1.267252
     44          1           0        4.117132    1.519510   -2.439310
     45          8           0       -2.451990   -0.583464   -1.284727
     46          6           0       -3.002865    0.634391   -1.818433
     47          6           0       -1.926042    1.716829   -1.780233
     48          6           0       -0.641633    1.274772   -2.490321
     49          6           0       -0.188541   -0.116206   -2.031241
     50          6           0       -1.389355   -1.087070   -2.107343
     51          1           0       -3.349668    0.446526   -2.858366
     52          1           0       -1.699202    1.889049   -0.710738
     53          1           0       -0.837921    1.226551   -3.578758
     54          1           0       -1.721269   -1.150227   -3.164367
     55          1           0        0.172066   -0.067396   -0.991537
     56          8           0        0.400061    2.217650   -2.226598
     57          8           0       -2.337685    2.926367   -2.412559
     58          8           0       -4.042305    1.051721   -0.996181
     59          6           0       -1.096941   -2.507117   -1.645272
     60          1           0       -2.029376   -3.087295   -1.688471
     61          1           0       -0.364954   -2.970076   -2.321888
     62          8           0       -0.624688   -2.572305   -0.292080
     63          1           0        0.331784   -2.338321   -0.329657
     64          1           0        0.097903    3.077945   -2.569649
     65          1           0       -3.143534    3.234566   -1.959975
     66          6           0       -5.230871    0.218490   -1.044061
     67          1           0       -5.976808    0.712532   -1.687630
     68          1           0       -4.974884   -0.752455   -1.494257
     69          6           0       -5.772963    0.047599    0.370626
     70          1           0       -6.688836   -0.563880    0.308359
     71          1           0       -6.086458    1.033885    0.746605
     72          6           0       -4.777989   -0.565256    1.368747
     73          1           0       -3.883418    0.076834    1.383833
     74          1           0       -5.220267   -0.511267    2.377351
     75          6           0       -4.391259   -2.020528    1.068471
     76          1           0       -5.290649   -2.657212    1.086344
     77          1           0       -3.967563   -2.102541    0.055528
     78          6           0       -3.401126   -2.622005    2.063109
     79          1           0       -3.240590   -3.689767    1.863731
     80          1           0       -3.759186   -2.519372    3.097709
     81          7           0       -2.058150   -1.957557    1.986927
     82          1           0       -1.378967   -2.322093    2.669777
     83          1           0       -2.094532   -0.933822    2.194179
     84          1           0       -1.594555   -2.092933    1.044654
 ---------------------------------------------------------------------
 Rotational constants (GHZ):      0.1174513      0.0801661      0.0746641
 Leave Link  202 at Mon May  2 10:13:50 2016, MaxMem= 10737418240 cpu:         2.4
 (Enter /share/apps//g09/l301.exe)
[...]
 407,0.00000406,-0.00002007,0.00002182,0.00010464,-0.00007797,0.0000037
 0,0.00000588,-0.00015235,-0.00033984,0.00004126,-0.00001667,0.00000955
 ,-0.00007478,0.00017090,-0.00000449,0.00003466,-0.00002941,0.00001806,
 0.00001619,-0.00004338,0.00007468,0.00045933,-0.00025124,-0.00012534,-
 0.00017811,0.00006000,-0.00003761,-0.00002859,0.00000169,0.00000251,0.
 00000741,0.00003914,-0.00045238,-0.00007401,0.00041200,0.00044358,0.00
 004919,-0.00065486,0.00010069,-0.00011512,0.00016778,0.00015829,-0.000
 08885,-0.00004838,0.00024638,-0.00003432,0.00008940,0.00040566,0.00011
 479,-0.00020069,-0.00003250,-0.00001263,0.00008834,0.00004023,0.000005
 21,-0.00004773,-0.00002864,0.00000516,-0.00003176,-0.00004670,0.000014
 64,0.00005111,-0.00002043,-0.00004186,0.00002564,-0.00023184,0.0001614
 3,-0.00003767,-0.00019837,0.00010990,-0.00000860,-0.00042849,0.0001897
 2,0.00076025,-0.00010097,0.00006492,0.00008122,-0.00001140,0.00006230,
 -0.00002666,0.00000693,-0.00003706,0.00002338,-0.00044317,0.00017275,0
 .00070013,0.00023100,-0.00027551,0.00014734,0.00003955,-0.00001490,0.0
 0001780,0.00009139,-0.00010710,-0.00002417,0.00030945,-0.00007969,-0.0
 0036809,-0.00002658,0.00005103,0.00015368,-0.00004951,-0.00001070,-0.0
 0001819,0.00027522,-0.00095880,-0.00062555,0.00039280,0.00009832,0.000
 30998,0.00005055,0.00007262,0.00003290,-0.00093504,0.00142808,0.001138
 80,-0.00078946,-0.00228663,-0.00124530,-0.00000364,-0.00006709,0.00000
 525,0.00050855,0.00087966,-0.00066952,0.00031882,-0.00041900,0.0000818
 7,-0.00025897,-0.00004605,-0.00008405,0.00506930,0.03106350,-0.0021299
 1,-0.00492020,0.00218949,0.00211856,0.00093160,-0.00046225,0.00007908,
 -0.06350488,-0.02684294,0.00273588,-0.00279239,-0.03228744,0.00228991,
 0.07161012,-0.00046865,-0.00086947,0.00000403,-0.00017680,0.00015001,-
 0.00145070,-0.00002197,0.00355603,0.00158784,0.00852599,0.00160808,-0.
 00909131,-0.00210355,-0.00030119,0.00083954,0.00089227,0.00159605,-0.0
 0033953,-0.00032291,0.00001645,0.00033020,0.00021322,-0.00020048,0.000
 13552,-0.00020246,-0.00001538,0.00064124,0.00010572,-0.00022637,-0.000
 10413,-0.00008041,0.00002063,-0.00009671,-0.00088623,0.00094620,0.0007
 3693,-0.00430275,0.00123802,-0.00147791,0.00196204,-0.00402368,-0.0001
 2595,-0.00046791,-0.00083382,0.00104741,-0.00005412,-0.00051426,-0.000
 20448,-0.00003544,-0.00006638,-0.00001429,0.00000615,0.00001018,0.0000
 1800,-0.00047046,0.00031208,0.00057099,0.00002763,-0.00004298,0.000010
 50,-0.00000216,-0.00025518,0.00016210,-0.00205747,0.00071314,0.0047290
 9,-0.00068780,0.00058072,-0.00009612,0.00039956,-0.00046865,-0.0003619
 8,-0.00014876,0.00049877,0.00018657,-0.00005680,0.00001720,-0.00010620
 ,0.00048988,0.00014282,-0.00041789,-0.00003928,0.00016781,0.00004794,-
 0.00018311,0.00008136,-0.00011499,0.00001044,-0.00005141,-0.00002787,-
 0.00001806,0.00000792,-0.00007465,0.00001476,0.00000465,0.00000804,-0.
 00001804,-0.00006061,0.00000465,0.00003947,-0.00001996,-0.00000246,0.0
 0002472,-0.00031867,0.00002933,-0.00000556,-0.00010915,0.00016690,0.00
 022330,-0.00034144,0.00004915,-0.00012319,0.00001014,0.00020089,-0.000
 00618,-0.00007384,0.00002326,0.00002852,0.00001004,-0.00001219,0.00029
 154,-0.00033143,-0.00011676,-0.00004564,0.00028950,0.00001605,0.000046
 73,0.00007648,-0.00002906,0.00002390,0.00002854,-0.00005307,-0.0001889
 1,-0.00109819,-0.00058620,0.00026918,0.00097383,0.00017357,-0.00040146
 ,0.00025083,-0.00065311,-0.00003628,0.00032859,0.00001887,-0.00034925,
 0.00018456,-0.00015186,-0.00018427,0.00022136,0.00013622,0.00001938,-0
 .00015663,-0.00004542,0.00007209,-0.00009722,0.00010755,0.00000803,-0.
 00005179,0.00009284,-0.00000962,-0.00011358,-0.00007423,0.00003666,0.0
 0020960,0.00000087,0.00021383,-0.00045840,0.00019205,0.00029586,-0.000
 28342,0.00023420,0.00034621,-0.00054166,-0.00004378,0.00110856,0.00007
 343,0.00113833,-0.00002770,-0.00009820,0.00000100,-0.00016524,0.000069
 45,-0.00032431,0.00122922,0.00060128,-0.00337296,-0.00085785,0.0005279
 0,0.00007085,-0.00001285,0.00003143,-0.00011848,-0.00016981,0.00013095
 ,-0.00009074,-0.00034097,0.00041228,0.00016364,0.00002540,-0.00009555,
 -0.00004324,0.00007193,-0.00010634,0.00015042,0.00024012,-0.00056163,-
 0.00003274,0.00020338,0.00003805,0.00005442,-0.00023861,-0.00014873,-0
 .00012536,-0.00033838,0.00138436,0.00032801,-0.00123596,0.00012298,-0.
 00077343,-0.00012791,-0.00001638,0.00009878,0.00016811,0.00090816,0.00
 099385,-0.00070513,-0.00042972,-0.00028181,0.00007640,-0.00011370,0.00
 014227,0.00727453,-0.00875797,-0.00231937,-0.00068834,0.00177599,-0.00
 019693,-0.00094185,0.00063397,0.00010245,-0.03202986,-0.35896997,0.010
 61551,-0.00384752,-0.00672392,0.00057837,0.03414226,0.37233318,-0.0000
 2536,0.00002287,-0.00006471,0.00001256,-0.00004538,0.00017047,0.000333
 30,0.00011713,0.00013949,0.00049782,-0.00318671,0.00139645,0.00063811,
 -0.00015682,-0.00072952,0.00002992,-0.00028372,0.00005638,-0.00000928,
 0.00000929,-0.00001281,-0.00014488,0.00000777,-0.00008504,0.00044276,-
 0.00010482,-0.00091055,-0.00003255,0.00002773,0.00000949,0.00001657,0.
 00000392,-0.00001901,-0.00007371,0.00041825,-0.00012604,0.00225825,-0.
 00110453,-0.00799465,-0.00019518,0.00031924,-0.00103130,-0.00005681,0.
 00002255,-0.00011530,0.00004194,0.00004407,-0.00002033,-0.00000331,-0.
 00000533,0.00000056,-0.00000453,0.00000618,-0.00000259,0.00000712,-0.0
 0002158,-0.00003228,0.00000792,-0.00000076,-0.00000517,-0.00006022,0.0
 0002239,-0.00001504,-0.00112879,0.00193578,0.00113293,0.00043515,-0.00
 011436,0.00001677,-0.00005163,-0.00008715,-0.00011644,0.00021957,0.000
 09054,0.00009724,0.00002506,-0.00000580,-0.00002176,-0.00001607,0.0000
 1319,-0.00001329,0.00002224,0.00000875,0.00003023,0.00005688,0.0000150
 5,0.00000946,-0.00002105,-0.00001238,-0.00000769,0.00001859,-0.0000083
 3,0.00000517,-0.00001132,-0.00000030,0.00000356,-0.00000062,-0.0000005
 7,-0.00000148,-0.00000546,-0.00000212,0.00000017,-0.00003028,-0.000005
 37,-0.00004547,-0.00004136,0.00000391,0.00000489,-0.00026038,-0.000077
 13,0.00013212,-0.00001143,-0.00000397,0.00004418,0.00000035,0.00000212
 ,-0.00000019,0.00000079,-0.00000140,-0.00000827,0.00000510,0.00001883,
 -0.00005769,-0.00000462,-0.00000144,0.00002052,0.00000571,-0.00000120,
 0.00000722,0.00001453,-0.00000462,-0.00000023,0.00019348,-0.00010976,0
 .00067382,-0.00041068,-0.00041644,-0.00025369,-0.00008346,-0.00006352,
 -0.00019882,0.00013122,-0.00009932,-0.00006307,0.00003232,0.00004295,-
 0.00016934,0.00042041,0.00039421,-0.00041883,0.00007175,0.00005483,0.0
 0009839,0.00005900,-0.00009128,0.00004909,-0.00001336,0.00000876,0.000
 01949,-0.00005991,-0.00007665,0.00011888,0.00008193,-0.00001132,0.0000
 1488,-0.00012021,0.00009395,0.00004061,0.00005345,0.00019026,0.0001382
 3,0.00032423,0.00003072,0.00004879,0.00038625,0.00009715,0.00004287,-0
 .00001340,0.00000696,0.00003158,-0.00008024,-0.00001316,-0.00010300,0.
 00061330,-0.00048796,-0.00188604,0.00005134,0.00017772,-0.00028748,0.0
 0001783,-0.00002925,-0.00001622,-0.00001800,-0.00006129,-0.00000200,-0
 .00032918,0.00009904,0.00002330,0.00005056,-0.00000030,-0.00002450,-0.
 00000596,-0.00000717,-0.00002613,0.00020664,0.00003011,-0.00025196,0.0
 0005294,-0.00000073,0.00002222,0.00003233,0.00002506,0.00003085,-0.000
 52391,0.00034859,0.00031096,-0.00066423,-0.00064213,0.00057340,0.00052
 174,-0.00010565,-0.00038220,-0.00058323,0.00107271,0.00023776,-0.00006
 920,-0.00010196,-0.00017238,-0.00016984,0.00017592,-0.00009118,-0.0022
 6934,-0.01354820,0.00025600,0.00242147,-0.00087378,-0.00063291,-0.0001
 8042,-0.00074815,-0.00052262,0.00332935,0.01556336,-0.06234392,-0.0029
 7904,-0.02406175,0.00100111,-0.00544174,-0.00895110,0.06670044,-0.0000
 9147,-0.00045509,-0.00007557,-0.00013599,0.00041604,-0.00033460,0.0000
 2493,0.00113228,0.00028867,0.00096671,0.00008784,-0.00117767,-0.000171
 43,0.00010364,0.00005721,0.00019777,0.00022488,0.00001287,-0.00003220,
 -0.00001052,0.00005280,0.00005865,-0.00022337,0.00001009,0.00009566,0.
 00018395,0.00014140,-0.00001279,-0.00008828,-0.00002205,-0.00000950,0.
 00001497,-0.00000128,-0.00014053,-0.00007914,0.00017936,-0.00092316,0.
 00112088,0.00070681,0.00077985,-0.00158716,0.00140609,0.00013768,-0.00
 039721,0.00013121,0.00000623,-0.00000383,-0.00001477,-0.00001889,-0.00
 002319,-0.00001085,0.00001003,-0.00000371,0.00000533,-0.00004847,-0.00
 002549,0.00003492,0.00000257,0.00001148,0.00001095,0.00004003,-0.00000
 213,-0.00001038,-0.00003591,-0.00009005,0.00006888,-0.00194950,0.00088
 851,-0.00028570,0.00056464,-0.00038562,-0.00068736,0.00014792,0.000534
 00,0.00053736,-0.00008820,0.00005212,0.00005065,-0.00000399,0.00001699
 ,0.00009127,-0.00007997,0.00010445,-0.00004910,-0.00036605,-0.00008312
 ,-0.00010838,-0.00001196,-0.00004984,-0.00007986,0.00004095,0.00001423
 ,-0.00000552,0.00003445,-0.00001733,-0.00002151,0.00002422,-0.00001767
 ,0.00000386,0.00007895,0.00001336,-0.00004192,0.00018336,-0.00012625,0
 .00005524,0.00009707,-0.00012284,-0.00012126,-0.00029292,-0.00029424,-
 0.00004594,-0.00019790,-0.00012483,0.00035453,-0.00004451,-0.00010969,
 -0.00000293,0.00010280,0.00001347,-0.00005920,0.00064735,0.00006544,0.
 00003215,-0.00004835,0.00016845,-0.00014324,-0.00004106,0.00000536,-0.
 00004358,0.00000253,0.00003737,0.00003183,-0.00060777,-0.00010637,0.00
 147086,0.00013271,-0.00006385,-0.00025517,0.00017834,0.00003163,-0.000
 09623,0.00022953,0.00021723,-0.00012481,-0.00000454,0.00003430,0.00018
 657,0.00100551,0.00112596,-0.00152575,0.00007880,0.00005123,0.00014370
 ,0.00002940,-0.00002510,0.00000566,-0.00002232,-0.00005086,0.00000306,
 -0.00031021,-0.00038716,0.00009296,-0.00002659,0.00022932,0.00001460,-
 0.00016851,-0.00019674,0.00004193,-0.00020103,0.00002858,0.00011962,-0
 .00046000,0.00006204,0.00060023,0.00699256,0.00117011,0.00098917,-0.00
 057772,0.00039755,-0.00040960,-0.00114246,0.00021430,-0.00160650,-0.01
 008125,0.00236843,-0.00622825,-0.00220903,-0.00083877,0.00196078,0.000
 05385,0.00001239,-0.00003327,0.00003756,-0.00006743,-0.00004879,0.0002
 0993,-0.00024423,-0.00020686,-0.00000227,0.00008827,0.00007406,-0.0000
 3675,0.00004357,-0.00011276,-0.00010759,-0.00000789,-0.00016722,0.0000
 2429,-0.00002043,0.00006409,0.00008929,0.00007625,0.00007217,-0.000188
 60,-0.00030028,-0.00010096,0.00002674,-0.00025231,0.00000707,0.0001725
 0,0.00020234,-0.00008129,0.00076123,-0.00109360,0.00125159,0.00069569,
 0.00027369,-0.00033965,-0.00067911,0.00009203,-0.00148123,-0.00798899,
 -0.00658591,0.02720145,0.00135864,-0.00032748,-0.00053287,-0.00338702,
 0.00252441,0.00076795,-0.07352136,-0.01406737,0.05381712,0.00900634,0.
 00961752,-0.03028933,-0.00161446,-0.00324352,0.00206243,0.08275505,-0.
 00016206,-0.00007181,0.00022110,0.00022867,0.00027991,-0.00059435,0.00
 039623,-0.00058730,0.00004355,0.00052267,-0.00068748,0.00051522,0.0001
 1028,-0.00024572,-0.00033362,0.00011552,0.00008946,-0.00011024,-0.0000
 1908,-0.00000692,0.00004650,-0.00006836,-0.00001317,-0.00001975,0.0000
 5977,-0.00025772,-0.00072829,0.00001190,0.00003908,-0.00000088,-0.0000
 0105,0.00001597,-0.00003271,-0.00012029,0.00033178,0.00003714,0.000158
 27,-0.00019299,-0.00092732,-0.00166625,-0.00012408,-0.00033184,-0.0002
 7232,-0.00032970,0.00063654,0.00004501,-0.00006117,-0.00008542,-0.0000
 1590,-0.00001103,0.00000127,0.00000054,-0.00000244,0.00000897,-0.00009
 028,0.00002904,0.00012529,0.00000737,-0.00000485,-0.00000527,-0.000006
 11,-0.00001343,-0.00002398,-0.00009364,0.00001800,0.00016877,0.0006161
 1,0.00095781,-0.00038560,0.00088745,-0.00059070,-0.00087224,0.00020525
 ,0.00066886,0.00049974,-0.00010523,0.00003292,-0.00005867,0.00024605,0
 .00014330,-0.00026304,-0.00008271,0.00013660,-0.00004904,-0.00042314,-
 0.00010971,-0.00018920,-0.00001793,-0.00006933,-0.00008737,0.00002016,
 -0.00000604,-0.00002304,-0.00001527,-0.00001730,0.00003218,0.00000758,
 -0.00004559,0.00001085,0.00009232,0.00002668,-0.00000614,0.00012745,-0
 .00018900,0.00010248,0.00006659,-0.00012446,0.00001664,-0.00020159,-0.
 00037903,0.00012216,-0.00024721,0.00006296,0.00000403,-0.00004346,-0.0
 0014708,0.00005240,0.00005725,-0.00002342,0.00002438,0.00032412,-0.000
 45287,0.00035599,0.00007180,0.00026201,-0.00015520,-0.00000574,0.00002
 547,-0.00002785,0.00001121,0.00002305,-0.00000076,-0.00021313,-0.00077
 767,0.00135079,0.00009295,-0.00005027,-0.00015041,-0.00004919,0.000053
 61,-0.00029832,0.00020996,0.00016699,-0.00006792,-0.00031743,0.0001629
 5,-0.00022825,0.00073119,0.00139406,-0.00152242,0.00011528,0.00005588,
 0.00013610,0.00003699,-0.00007511,0.00007202,0.00000472,-0.00002095,0.
 00004697,-0.00024030,-0.00039303,0.00010276,0.00015081,0.00007125,-0.0
 0001809,-0.00007005,-0.00025190,0.00007355,-0.00001941,-0.00001806,0.0
 0015919,-0.00014676,-0.00008889,0.00035218,0.00398956,-0.00036718,0.00
 232147,-0.00016875,-0.00002421,0.00013248,-0.00050281,0.00004776,-0.00
 094181,0.00199029,-0.00593313,-0.00147005,-0.00210630,0.00186561,-0.00
 264357,0.00003682,0.00000252,-0.00004701,-0.00001768,-0.00002121,-0.00
 004074,0.00003106,0.00002994,-0.00010920,0.00000998,0.00001989,0.00004
 624,-0.00000804,-0.00000718,-0.00003415,-0.00001482,-0.00002484,-0.000
 06291,0.00004184,-0.00000114,0.00003211,0.00003125,0.00002468,0.000033
 43,-0.00023874,-0.00001152,0.00021625,-0.00006847,-0.00032347,0.000115
 92,0.00005810,-0.00017303,-0.00002152,-0.00095370,0.00001626,-0.000143
 71,0.00002686,-0.00006906,0.00000996,0.00017248,0.00021830,0.00044764,
 0.00154414,0.00729486,-0.01996016,0.00007044,-0.00039793,-0.00094281,0
 .00425301,-0.00213997,-0.00118082,-0.01355156,-0.08239038,0.06944802,0
 .00302540,0.00269000,-0.01071245,-0.00679700,-0.00534764,0.03421472,0.
 00812904,0.08641460,0.00024161,0.00021092,-0.00059281,-0.00029106,-0.0
 0083317,0.00154965,0.00035673,0.00137893,-0.00011379,-0.00161934,-0.00
 018023,0.00226176,0.00020850,-0.00002888,0.00002479,-0.00009141,-0.000
 35364,0.00030308,-0.00001553,0.00004453,-0.00012489,-0.00008275,-0.000
 05911,-0.00007202,-0.00011546,-0.00025930,-0.00009637,-0.00005803,-0.0
 0004992,0.00000717,0.00004372,-0.00003500,0.00001516,0.00020780,-0.000
 07945,-0.00042912,0.00165086,-0.00300099,-0.00152652,0.00243901,-0.001
 52569,-0.00089817,0.00006267,0.00071399,-0.00134206,-0.00004100,0.0000
 9373,0.00011249,0.00002778,0.00000668,0.00000727,-0.00002303,0.0000275
 7,-0.00002316,0.00012137,-0.00002212,-0.00023177,0.00000875,-0.0000038
 4,0.00000039,-0.00003931,0.00003304,0.00000618,0.00013930,0.00017340,-
 0.00025562,-0.00039649,-0.00092634,0.00146236,-0.00227382,0.00087627,0
 .00153180,0.00040657,-0.00109276,-0.00074535,0.00031831,-0.00012803,0.
 00001830,-0.00035662,-0.00014781,0.00032368,0.00024859,-0.00019416,0.0
 0025613,0.00137680,0.00045151,0.00045530,-0.00004675,0.00010746,0.0001
 7693,-0.00001335,-0.00002496,0.00003626,-0.00003656,0.00003043,-0.0000
 3816,-0.00002769,0.00007732,-0.00002746,-0.00025637,-0.00010428,-0.000
 00286,-0.00036492,0.00022075,-0.00041229,-0.00031177,0.00028250,0.0000
 5251,-0.00053259,0.00057219,0.00031630,0.00043575,-0.00030021,0.000505
 03,0.00008858,0.00036042,-0.00002324,-0.00012390,0.00008332,-0.0001394
 0,-0.00042619,0.00058076,-0.00131038,-0.00014811,-0.00030020,0.0003044
 8,0.00005893,-0.00002114,0.00004861,0.00002332,-0.00006778,-0.00001399
 ,0.00273065,0.00297594,-0.00004874,-0.00234155,-0.00256927,0.00082709,
 0.00006158,-0.00036514,0.00027854,-0.00015939,-0.00081345,0.00002734,0
 .00065951,-0.00020076,-0.00052212,-0.00053026,-0.00143910,0.00001500,0
 .00012248,0.00034303,0.00007602,-0.00004241,0.00007006,-0.00003032,0.0
 0001886,0.00011393,-0.00003961,0.00039856,0.00059309,0.00029369,0.0002
 3282,-0.00052282,0.00005284,-0.00012519,0.00084229,-0.00002044,0.00024
 195,0.00066181,-0.00003689,0.00163689,0.00029552,-0.00160774,-0.008825
 74,0.00059875,-0.00804389,0.00074486,-0.00003807,0.00048484,0.00129732
 ,-0.00040320,0.00246819,-0.00604980,-0.00117007,0.00463254,0.00569094,
 -0.00403581,0.00247864,-0.00006041,-0.00007657,0.00004852,-0.00004990,
 -0.00006903,0.00011891,-0.00097609,0.00039137,0.00058784,0.00010266,-0
 .00009003,-0.00016730,0.00000972,0.00001789,0.00010971,0.00016827,-0.0
 0004838,0.00031470,-0.00004987,0.00001765,-0.00015618,-0.00016415,-0.0
 0010845,-0.00016628,-0.00006375,0.00009886,-0.00084683,0.00007625,0.00
 032776,0.00038636,0.00012773,0.00010681,-0.00015118,-0.00016298,0.0008
 1483,0.00286207,-0.00076717,-0.00026760,-0.00045927,-0.00009683,0.0000
 7802,-0.00031045,0.00852536,-0.00473704,-0.00394993,-0.00099847,0.0002
 9499,0.00020849,-0.00186744,0.00053906,0.00170136,0.04907150,0.0658253
 7,-0.29599144,0.00128845,0.00622686,-0.01814597,-0.00242052,0.00556307
 ,0.00557319,-0.04822737,-0.06642886,0.30579251\\0.00000540,-0.00000919
 ,-0.00000144,-0.00000980,0.00002130,0.00000036,0.00000404,0.00000226,0
 .00000405,0.00000279,-0.00001110,-0.00000740,-0.00000162,-0.00000077,0
 .00000601,0.00000348,0.00001128,-0.00000054,0.00000295,-0.00000536,0.0
 0000141,-0.00000151,0.00000114,0.00000202,-0.00000044,0.00000175,-0.00
 000071,0.00000106,-0.00000216,-0.00000126,-0.00000499,-0.00000015,0.00
 000311,-0.00000028,0.00000452,0.00000738,-0.00002125,0.00002992,0.0000
 1358,-0.00001435,0.00000284,0.00001054,0.00000444,-0.00000172,-0.00000
 470,0.00002504,-0.00000566,-0.00001369,-0.00000230,0.00000176,0.000001
 46,-0.00000349,-0.00000530,0.00000379,-0.00002694,-0.00000699,0.000024
 59,0.00001829,0.00001116,-0.00000863,-0.00000420,-0.00000405,-0.000002
 82,0.00000279,-0.00000873,-0.00000309,0.00000902,0.00000236,-0.0000087
 5,0.00000689,0.00000403,0.00000030,0.00001810,0.00000099,0.00000384,0.
 00001528,-0.00000779,-0.00000747,-0.00001673,-0.00000299,0.00001683,0.
 00001885,0.00000421,0.00002073,-0.00001537,-0.00000169,-0.00000457,-0.
 00000014,0.00000013,0.00000191,0.00000181,0.00000278,0.00000396,0.0000
 0636,0.00000228,0.00000128,-0.00000172,-0.00000444,-0.00000056,0.00000
 280,0.00000041,0.00000289,-0.00001420,-0.00000441,-0.00000316,-0.00000
 236,0.00000927,0.00000379,-0.00001702,-0.00000593,0.00000565,0.0000129
 1,0.00000143,0.00000230,-0.00000201,0.00000069,0.00000217,-0.00000086,
 -0.00000001,0.00000168,-0.00001607,0.00000347,-0.00000749,0.00000269,-
 0.00000225,0.00000610,0.00000326,0.00000670,-0.00000113,0.00000124,-0.
 00000420,0.00000312,0.00000993,0.00000906,0.00000659,-0.00000077,0.000
 00914,-0.00002141,-0.00000435,-0.00001680,0.00000220,0.00000667,-0.000
 00040,-0.00000619,0.00002988,0.00000556,-0.00001144,-0.00002600,-0.000
 00251,-0.00001174,0.00000185,-0.00000317,-0.00000153,-0.00000575,0.000
 00089,0.00000159,-0.00000234,-0.00000240,-0.00000180,-0.00000044,-0.00
 000460,0.00000107,-0.00000365,0.00000398,0.00000406,-0.00000360,0.0000
 0436,0.00001243,0.00000237,0.00000992,-0.00000721,-0.00000828,0.000001
 74,0.00002312,0.00000719,-0.00000874,0.00000272,0.00000349,0.00000437,
 -0.00000058,0.00000152,-0.00000162,-0.00000414,-0.00002160,0.00000950,
 0.00001359,0.00000504,-0.00000010,-0.00000062,0.00000242,-0.00000284,-
 0.00000701,0.00000201,-0.00000783,0.00000273,0.00001364,-0.00001328,-0
 .00001537,-0.00000315,0.00000049,-0.00000552,-0.00000217,0.00000290,-0
 .00000121,-0.00000341,0.00000003,0.00000096,-0.00000096,-0.00000097,-0
 .00000678,0.00000055,-0.00000159,-0.00000164,-0.00000113,-0.00000136,-
 0.00000417,0.00000207,-0.00000084,-0.00000164,-0.00000354,0.00000149,-
 0.00000264,0.00000157,-0.00000374,-0.00000153,-0.00000177,0.00000100,-
 0.00000221,-0.00000147,0.00000011,-0.00000333,-0.00001204,0.00000387,-
 0.00000187,-0.00000345,0.00000106,-0.00000069,0.00000065,-0.00000260,-
 0.00000226,-0.00000929,-0.00001948,-0.00002743,0.00000685,-0.00001162,
 0.00000913,0.00000991,-0.00002918,-0.00000921,0.00001972,0.00003440,0.
 00000354\\\@


 THE ONLY EXISTING THINGS ARE ATOMS AND EMPTY SPACE;
 ALL ELSE IS MERE OPINION. -- DEMOCRITUS OF ABDERA D. 370 B.C.
 EXPERIMENTS ARE THE ONLY MEANS OF KNOWLEDGE AT OUR DISPOSAL
 THE REST IS POETRY, IMAGINATION. -- MAX PLANCK
 Job cpu time:      22 days 11 hours 45 minutes 40.2 seconds.
 File lengths (MBytes):  RWF=  17390 Int=      0 D2E=      0 Chk=     99 Scr=      1
 Normal termination of Gaussian 09 at Wed May  4 12:12:11 2016.
