 Entering Gaussian System, Link 0=g09
 Initial command:
 /share/apps//g09/l1.exe "/scratch/Gau-7413.inp" -scrdir="/scratch/"
 Entering Link 1 = /share/apps//g09/l1.exe PID=      7414.
  
 Copyright (c) 1988,1990,1992,1993,1995,1998,2003,2009,2013,
            Gaussian, Inc.  All Rights Reserved.
  
 This is part of the Gaussian(R) 09 program.  It is based on
 the Gaussian(R) 03 system (copyright 2003, Gaussian, Inc.),
 the Gaussian(R) 98 system (copyright 1998, Gaussian, Inc.),
 the Gaussian(R) 94 system (copyright 1995, Gaussian, Inc.),
 the Gaussian 92(TM) system (copyright 1992, Gaussian, Inc.),
 the Gaussian 90(TM) system (copyright 1990, Gaussian, Inc.),
 the Gaussian 88(TM) system (copyright 1988, Gaussian, Inc.),
 the Gaussian 86(TM) system (copyright 1986, Carnegie Mellon
 University), and the Gaussian 82(TM) system (copyright 1983,
 Carnegie Mellon University). Gaussian is a federally registered
 trademark of Gaussian, Inc.
  
 This software contains proprietary and confidential information,
 including trade secrets, belonging to Gaussian, Inc.
  
 This software is provided under written license and may be
 used, copied, transmitted, or stored only in accord with that
 written license.
  
 The following legend is applicable only to US Government
 contracts under FAR:
  
                    RESTRICTED RIGHTS LEGEND
  
 Use, reproduction and disclosure by the US Government is
 subject to restrictions as set forth in subparagraphs (a)
 and (c) of the Commercial Computer Software - Restricted
 Rights clause in FAR 52.227-19.
  
 Gaussian, Inc.
 340 Quinnipiac St., Bldg. 40, Wallingford CT 06492
  
  
 ---------------------------------------------------------------
 Warning -- This program may not be used in any manner that
 competes with the business of Gaussian, Inc. or will provide
 assistance to any competitor of Gaussian, Inc.  The licensee
 of this program is prohibited from giving any competitor of
 Gaussian, Inc. access to this program.  By using this program,
 the user acknowledges that Gaussian, Inc. is engaged in the
 business of creating and licensing software in the field of
 computational chemistry and represents and warrants to the
 licensee that it is not a competitor of Gaussian, Inc. and that
 it will not use this program in any manner prohibited above.
 ---------------------------------------------------------------
  

 Cite this work as:
 Gaussian 09, Revision D.01,
 M. J. Frisch, G. W. Trucks, H. B. Schlegel, G. E. Scuseria, 
 M. A. Robb, J. R. Cheeseman, G. Scalmani, V. Barone, B. Mennucci, 
 G. A. Petersson, H. Nakatsuji, M. Caricato, X. Li, H. P. Hratchian, 
 A. F. Izmaylov, J. Bloino, G. Zheng, J. L. Sonnenberg, M. Hada, 
 M. Ehara, K. Toyota, R. Fukuda, J. Hasegawa, M. Ishida, T. Nakajima, 
 Y. Honda, O. Kitao, H. Nakai, T. Vreven, J. A. Montgomery, Jr., 
 J. E. Peralta, F. Ogliaro, M. Bearpark, J. J. Heyd, E. Brothers, 
 K. N. Kudin, V. N. Staroverov, T. Keith, R. Kobayashi, J. Normand, 
 K. Raghavachari, A. Rendell, J. C. Burant, S. S. Iyengar, J. Tomasi, 
 M. Cossi, N. Rega, J. M. Millam, M. Klene, J. E. Knox, J. B. Cross, 
 V. Bakken, C. Adamo, J. Jaramillo, R. Gomperts, R. E. Stratmann, 
 O. Yazyev, A. J. Austin, R. Cammi, C. Pomelli, J. W. Ochterski, 
 R. L. Martin, K. Morokuma, V. G. Zakrzewski, G. A. Voth, 
 P. Salvador, J. J. Dannenberg, S. Dapprich, A. D. Daniels, 
 O. Farkas, J. B. Foresman, J. V. Ortiz, J. Cioslowski, 
 and D. J. Fox, Gaussian, Inc., Wallingford CT, 2013.
 
 ******************************************
 Gaussian 09:  EM64L-G09RevD.01 24-Apr-2013
                 7-Apr-2016 
 ******************************************
 %nproc=20
 Will use up to   20 processors via shared memory.
 %mem=80GB
 %chk=Tri_A131_of.chk
 ----------------------------------------------------------------------
 #P PBE1PBE/6-311+G(d,p) opt=ModRedundant freq optcyc=999 EmpiricalDisp
 ersion=GD3
 ----------------------------------------------------------------------
 1/6=999,14=-1,18=120,19=15,26=3,38=1/1,3;
 2/9=110,12=2,17=6,18=5,40=1/2;
 3/5=4,6=6,7=111,11=2,16=1,25=1,30=1,71=1,74=-13,124=31/1,2,3;
 4//1;
 5/5=2,38=5/2;
 6/7=2,8=2,9=2,10=2,28=1/1;
 7//1,2,3,16;
 1/6=999,14=-1,18=20,19=15,26=3/3(2);
 2/9=110/2;
 99//99;
 2/9=110/2;
 3/5=4,6=6,7=111,11=2,16=1,25=1,30=1,71=1,74=-13,124=31/1,2,3;
 4/5=5,16=3,69=1/1;
 5/5=2,38=5/2;
 7//1,2,3,16;
 1/6=999,14=-1,18=20,19=15,26=3/3(-5);
 2/9=110/2;
 6/7=2,8=2,9=2,10=2,19=2,28=1/1;
 99/9=1/99;
 Leave Link    1 at Thu Apr  7 13:25:33 2016, MaxMem= 10737418240 cpu:         1.7
 (Enter /share/apps//g09/l101.exe)
 -------
 disacch
 -------
 Symbolic Z-matrix:
 Charge =  1 Multiplicity = 1
 O                    -2.96658  -3.30449   7.85809 
 C                    -3.70738  -2.94267   6.65521 
 C                    -5.17456  -3.36331   6.82773 
 C                    -5.24362  -4.69411   7.61583 
 C                    -3.9694   -5.5325    7.46767 
 C                    -2.75042  -4.73278   7.97321 
 H                    -3.28618  -3.47895   5.79233 
 H                    -5.58794  -3.52498   5.81478 
 H                    -5.3674   -4.42253   8.67999 
 H                    -4.07662  -6.43477   8.09636 
 H                    -2.64994  -4.89614   9.05687 
 O                    -3.76766  -5.92057   6.10088 
 O                    -6.30872  -5.53785   7.17475 
 O                    -5.95571  -2.4264    7.55776 
 O                    -3.63708  -1.5602    6.49651 
 C                    -1.4404   -5.12897   7.28355 
 H                    -1.2213   -6.18569   7.49268 
 H                    -1.52032  -5.01115   6.19236 
 O                    -0.3253   -4.36645   7.79694 
 H                    -0.52421  -3.40885   7.67868 
 H                    -4.6215   -6.28858   5.80361 
 H                    -7.14942  -5.06389   7.3009 
 H                    -5.83572  -1.55471   7.13821 
 O                     0.39833  -0.63562   5.53274 
 C                    -0.39226  -1.14378   4.46062 
 C                    -1.66636  -1.8683    4.96546 
 C                    -2.43036  -0.97383   5.93888 
 C                    -1.51007  -0.4546    7.05898 
 C                    -0.28594   0.23203   6.43969 
 H                    -0.68795  -0.3353    3.76637 
 H                    -1.33419  -2.77564   5.49774 
 H                    -2.80751  -0.09997   5.38089 
 H                    -2.07327   0.29252   7.64614 
 H                    -0.64447   1.13806   5.90893 
 O                    -1.05884  -1.49899   7.94622 
 O                    -2.5068   -2.20179   3.87889 
 O                     0.44187  -1.9763    3.68793 
 C                     0.76082   0.68086   7.46295 
 H                     1.5494    1.24749   6.95026 
 H                     0.28779   1.34506   8.20565 
 O                     1.41247  -0.42089   8.11449 
 H                     0.68052  -0.96064   8.4868 
 H                    -1.85939  -2.02534   8.20883 
 H                    -2.08319  -2.97658   3.44871 
 O                     3.07112  -4.28187   4.87461 
 C                     2.70733  -5.50059   4.22421 
 C                     1.18538  -5.64025   4.1323 
 C                     0.53878  -4.38168   3.56171 
 C                     0.97573  -3.14072   4.34233 
 C                     2.51687  -3.05566   4.36196 
 H                     3.17497  -5.5583    3.21971 
 H                     0.80292  -5.7875    5.16169 
 H                     0.84503  -4.25841   2.50535 
 H                     2.87463  -2.86645   3.33097 
 H                     0.62192  -3.20512   5.38328 
 O                    -0.88882  -4.50978   3.63284 
 O                     0.78689  -6.71665   3.28923 
 O                     3.15663  -6.54742   5.04798 
 C                     3.09515  -1.97184   5.27152 
 H                     4.18702  -1.96152   5.12733 
 H                     2.68792  -0.99585   4.98191 
 O                     2.82467  -2.2441    6.65388 
 H                     2.29052  -1.50896   7.06575 
 H                    -1.1116   -5.36637   3.22087 
 H                     1.07395  -7.55152   3.7 
 C                     4.6007   -6.77005   5.04111 
 H                     4.72146  -7.86049   5.12122 
 H                     5.00198  -6.45099   4.06624 
 C                     5.30617  -6.04779   6.18507 
 H                     5.10169  -4.97134   6.09311 
 H                     6.38968  -6.1598    6.02398 
 C                     4.93443  -6.56535   7.59857 
 H                     4.06032  -7.23661   7.53529 
 H                     5.74978  -7.20171   7.9683 
 C                     4.65226  -5.46228   8.64558 
 H                     5.0642   -5.75519   9.62232 
 H                     5.17174  -4.53095   8.36868 
 C                     3.16959  -5.17979   8.88266 
 H                     3.02818  -4.37203   9.61312 
 H                     2.66518  -6.07672   9.27024 
 N                     2.45036  -4.77581   7.63219 
 H                     2.72614  -3.81343   7.27469 
 H                     1.40908  -4.73692   7.75947 
 H                     2.64984  -5.43109   6.85767 
 
 The following ModRedundant input section has been read:
 B      19      83 B                                                           
 B      62      82 B                                                           
 B      58      84 B                                                           
 B       1      43 B                                                           
 B      44      56 B                                                           
 
 NAtoms=     84 NQM=       84 NQMF=       0 NMMI=      0 NMMIF=      0
                NMic=       0 NMicF=      0.
                    Isotopes and Nuclear Properties:
 (Nuclear quadrupole moments (NQMom) in fm**2, nuclear magnetic moments (NMagM)
  in nuclear magnetons)

  Atom         1           2           3           4           5           6           7           8           9          10
 IAtWgt=          16          12          12          12          12          12           1           1           1           1
 AtmWgt=  15.9949146  12.0000000  12.0000000  12.0000000  12.0000000  12.0000000   1.0078250   1.0078250   1.0078250   1.0078250
 NucSpn=           0           0           0           0           0           0           1           1           1           1
 AtZEff=   0.0000000   0.0000000   0.0000000   0.0000000   0.0000000   0.0000000   0.0000000   0.0000000   0.0000000   0.0000000
 NQMom=    0.0000000   0.0000000   0.0000000   0.0000000   0.0000000   0.0000000   0.0000000   0.0000000   0.0000000   0.0000000
 NMagM=    0.0000000   0.0000000   0.0000000   0.0000000   0.0000000   0.0000000   2.7928460   2.7928460   2.7928460   2.7928460
 AtZNuc=   8.0000000   6.0000000   6.0000000   6.0000000   6.0000000   6.0000000   1.0000000   1.0000000   1.0000000   1.0000000

  Atom        11          12          13          14          15          16          17          18          19          20
 IAtWgt=           1          16          16          16          16          12           1           1          16           1
 AtmWgt=   1.0078250  15.9949146  15.9949146  15.9949146  15.9949146  12.0000000   1.0078250   1.0078250  15.9949146   1.0078250
 NucSpn=           1           0           0           0           0           0           1           1           0           1
 AtZEff=   0.0000000   0.0000000   0.0000000   0.0000000   0.0000000   0.0000000   0.0000000   0.0000000   0.0000000   0.0000000
 NQMom=    0.0000000   0.0000000   0.0000000   0.0000000   0.0000000   0.0000000   0.0000000   0.0000000   0.0000000   0.0000000
 NMagM=    2.7928460   0.0000000   0.0000000   0.0000000   0.0000000   0.0000000   2.7928460   2.7928460   0.0000000   2.7928460
 AtZNuc=   1.0000000   8.0000000   8.0000000   8.0000000   8.0000000   6.0000000   1.0000000   1.0000000   8.0000000   1.0000000

  Atom        21          22          23          24          25          26          27          28          29          30
 IAtWgt=           1           1           1          16          12          12          12          12          12           1
 AtmWgt=   1.0078250   1.0078250   1.0078250  15.9949146  12.0000000  12.0000000  12.0000000  12.0000000  12.0000000   1.0078250
 NucSpn=           1           1           1           0           0           0           0           0           0           1
 AtZEff=   0.0000000   0.0000000   0.0000000   0.0000000   0.0000000   0.0000000   0.0000000   0.0000000   0.0000000   0.0000000
 NQMom=    0.0000000   0.0000000   0.0000000   0.0000000   0.0000000   0.0000000   0.0000000   0.0000000   0.0000000   0.0000000
 NMagM=    2.7928460   2.7928460   2.7928460   0.0000000   0.0000000   0.0000000   0.0000000   0.0000000   0.0000000   2.7928460
 AtZNuc=   1.0000000   1.0000000   1.0000000   8.0000000   6.0000000   6.0000000   6.0000000   6.0000000   6.0000000   1.0000000

  Atom        31          32          33          34          35          36          37          38          39          40
 IAtWgt=           1           1           1           1          16          16          16          12           1           1
 AtmWgt=   1.0078250   1.0078250   1.0078250   1.0078250  15.9949146  15.9949146  15.9949146  12.0000000   1.0078250   1.0078250
 NucSpn=           1           1           1           1           0           0           0           0           1           1
 AtZEff=   0.0000000   0.0000000   0.0000000   0.0000000   0.0000000   0.0000000   0.0000000   0.0000000   0.0000000   0.0000000
 NQMom=    0.0000000   0.0000000   0.0000000   0.0000000   0.0000000   0.0000000   0.0000000   0.0000000   0.0000000   0.0000000
 NMagM=    2.7928460   2.7928460   2.7928460   2.7928460   0.0000000   0.0000000   0.0000000   0.0000000   2.7928460   2.7928460
 AtZNuc=   1.0000000   1.0000000   1.0000000   1.0000000   8.0000000   8.0000000   8.0000000   6.0000000   1.0000000   1.0000000

  Atom        41          42          43          44          45          46          47          48          49          50
 IAtWgt=          16           1           1           1          16          12          12          12          12          12
 AtmWgt=  15.9949146   1.0078250   1.0078250   1.0078250  15.9949146  12.0000000  12.0000000  12.0000000  12.0000000  12.0000000
 NucSpn=           0           1           1           1           0           0           0           0           0           0
 AtZEff=   0.0000000   0.0000000   0.0000000   0.0000000   0.0000000   0.0000000   0.0000000   0.0000000   0.0000000   0.0000000
 NQMom=    0.0000000   0.0000000   0.0000000   0.0000000   0.0000000   0.0000000   0.0000000   0.0000000   0.0000000   0.0000000
 NMagM=    0.0000000   2.7928460   2.7928460   2.7928460   0.0000000   0.0000000   0.0000000   0.0000000   0.0000000   0.0000000
 AtZNuc=   8.0000000   1.0000000   1.0000000   1.0000000   8.0000000   6.0000000   6.0000000   6.0000000   6.0000000   6.0000000

  Atom        51          52          53          54          55          56          57          58          59          60
 IAtWgt=           1           1           1           1           1          16          16          16          12           1
 AtmWgt=   1.0078250   1.0078250   1.0078250   1.0078250   1.0078250  15.9949146  15.9949146  15.9949146  12.0000000   1.0078250
 NucSpn=           1           1           1           1           1           0           0           0           0           1
 AtZEff=   0.0000000   0.0000000   0.0000000   0.0000000   0.0000000   0.0000000   0.0000000   0.0000000   0.0000000   0.0000000
 NQMom=    0.0000000   0.0000000   0.0000000   0.0000000   0.0000000   0.0000000   0.0000000   0.0000000   0.0000000   0.0000000
 NMagM=    2.7928460   2.7928460   2.7928460   2.7928460   2.7928460   0.0000000   0.0000000   0.0000000   0.0000000   2.7928460
 AtZNuc=   1.0000000   1.0000000   1.0000000   1.0000000   1.0000000   8.0000000   8.0000000   8.0000000   6.0000000   1.0000000

  Atom        61          62          63          64          65          66          67          68          69          70
 IAtWgt=           1          16           1           1           1          12           1           1          12           1
 AtmWgt=   1.0078250  15.9949146   1.0078250   1.0078250   1.0078250  12.0000000   1.0078250   1.0078250  12.0000000   1.0078250
 NucSpn=           1           0           1           1           1           0           1           1           0           1
 AtZEff=   0.0000000   0.0000000   0.0000000   0.0000000   0.0000000   0.0000000   0.0000000   0.0000000   0.0000000   0.0000000
 NQMom=    0.0000000   0.0000000   0.0000000   0.0000000   0.0000000   0.0000000   0.0000000   0.0000000   0.0000000   0.0000000
 NMagM=    2.7928460   0.0000000   2.7928460   2.7928460   2.7928460   0.0000000   2.7928460   2.7928460   0.0000000   2.7928460
 AtZNuc=   1.0000000   8.0000000   1.0000000   1.0000000   1.0000000   6.0000000   1.0000000   1.0000000   6.0000000   1.0000000

  Atom        71          72          73          74          75          76          77          78          79          80
 IAtWgt=           1          12           1           1          12           1           1          12           1           1
 AtmWgt=   1.0078250  12.0000000   1.0078250   1.0078250  12.0000000   1.0078250   1.0078250  12.0000000   1.0078250   1.0078250
 NucSpn=           1           0           1           1           0           1           1           0           1           1
 AtZEff=   0.0000000   0.0000000   0.0000000   0.0000000   0.0000000   0.0000000   0.0000000   0.0000000   0.0000000   0.0000000
 NQMom=    0.0000000   0.0000000   0.0000000   0.0000000   0.0000000   0.0000000   0.0000000   0.0000000   0.0000000   0.0000000
 NMagM=    2.7928460   0.0000000   2.7928460   2.7928460   0.0000000   2.7928460   2.7928460   0.0000000   2.7928460   2.7928460
 AtZNuc=   1.0000000   6.0000000   1.0000000   1.0000000   6.0000000   1.0000000   1.0000000   6.0000000   1.0000000   1.0000000

  Atom        81          82          83          84
 IAtWgt=          14           1           1           1
 AtmWgt=  14.0030740   1.0078250   1.0078250   1.0078250
 NucSpn=           2           1           1           1
 AtZEff=   0.0000000   0.0000000   0.0000000   0.0000000
 NQMom=    2.0440000   0.0000000   0.0000000   0.0000000
 NMagM=    0.4037610   2.7928460   2.7928460   2.7928460
 AtZNuc=   7.0000000   1.0000000   1.0000000   1.0000000
 Leave Link  101 at Thu Apr  7 13:25:34 2016, MaxMem= 10737418240 cpu:         5.7
 (Enter /share/apps//g09/l103.exe)

 GradGradGradGradGradGradGradGradGradGradGradGradGradGradGradGradGradGrad
 Berny optimization.
 Initialization pass.
                           ----------------------------
                           !    Initial Parameters    !
                           ! (Angstroms and Degrees)  !
 --------------------------                            --------------------------
 ! Name  Definition              Value          Derivative Info.                !
 --------------------------------------------------------------------------------
 ! R1    R(1,2)                  1.4583         estimate D2E/DX2                !
 ! R2    R(1,6)                  1.4491         estimate D2E/DX2                !
 ! R3    R(1,43)                 1.7277         estimate D2E/DX2                !
 ! R4    R(2,3)                  1.536          estimate D2E/DX2                !
 ! R5    R(2,7)                  1.0998         estimate D2E/DX2                !
 ! R6    R(2,15)                 1.3933         estimate D2E/DX2                !
 ! R7    R(3,4)                  1.5482         estimate D2E/DX2                !
 ! R8    R(3,8)                  1.1059         estimate D2E/DX2                !
 ! R9    R(3,14)                 1.4216         estimate D2E/DX2                !
 ! R10   R(4,5)                  1.5325         estimate D2E/DX2                !
 ! R11   R(4,9)                  1.1052         estimate D2E/DX2                !
 ! R12   R(4,13)                 1.4286         estimate D2E/DX2                !
 ! R13   R(5,6)                  1.5431         estimate D2E/DX2                !
 ! R14   R(5,10)                 1.1049         estimate D2E/DX2                !
 ! R15   R(5,12)                 1.4351         estimate D2E/DX2                !
 ! R16   R(6,11)                 1.1005         estimate D2E/DX2                !
 ! R17   R(6,16)                 1.5326         estimate D2E/DX2                !
 ! R18   R(12,21)                0.9761         estimate D2E/DX2                !
 ! R19   R(13,22)                0.9733         estimate D2E/DX2                !
 ! R20   R(14,23)                0.9748         estimate D2E/DX2                !
 ! R21   R(15,27)                1.4529         estimate D2E/DX2                !
 ! R22   R(16,17)                1.0993         estimate D2E/DX2                !
 ! R23   R(16,18)                1.1004         estimate D2E/DX2                !
 ! R24   R(16,19)                1.4451         estimate D2E/DX2                !
 ! R25   R(19,20)                0.9852         estimate D2E/DX2                !
 ! R26   R(19,83)                1.7739         estimate D2E/DX2                !
 ! R27   R(24,25)                1.4257         estimate D2E/DX2                !
 ! R28   R(24,29)                1.4295         estimate D2E/DX2                !
 ! R29   R(25,26)                1.5502         estimate D2E/DX2                !
 ! R30   R(25,30)                1.1059         estimate D2E/DX2                !
 ! R31   R(25,37)                1.4092         estimate D2E/DX2                !
 ! R32   R(26,27)                1.5269         estimate D2E/DX2                !
 ! R33   R(26,31)                1.1031         estimate D2E/DX2                !
 ! R34   R(26,36)                1.4136         estimate D2E/DX2                !
 ! R35   R(27,28)                1.5399         estimate D2E/DX2                !
 ! R36   R(27,32)                1.1033         estimate D2E/DX2                !
 ! R37   R(28,29)                1.5341         estimate D2E/DX2                !
 ! R38   R(28,33)                1.1046         estimate D2E/DX2                !
 ! R39   R(28,35)                1.4428         estimate D2E/DX2                !
 ! R40   R(29,34)                1.1096         estimate D2E/DX2                !
 ! R41   R(29,38)                1.5311         estimate D2E/DX2                !
 ! R42   R(35,43)                0.9934         estimate D2E/DX2                !
 ! R43   R(36,44)                0.9822         estimate D2E/DX2                !
 ! R44   R(37,49)                1.4384         estimate D2E/DX2                !
 ! R45   R(38,39)                1.0981         estimate D2E/DX2                !
 ! R46   R(38,40)                1.103          estimate D2E/DX2                !
 ! R47   R(38,41)                1.4363         estimate D2E/DX2                !
 ! R48   R(41,42)                0.9827         estimate D2E/DX2                !
 ! R49   R(44,56)                1.9522         estimate D2E/DX2                !
 ! R50   R(45,46)                1.4285         estimate D2E/DX2                !
 ! R51   R(45,50)                1.44           estimate D2E/DX2                !
 ! R52   R(46,47)                1.5311         estimate D2E/DX2                !
 ! R53   R(46,51)                1.1095         estimate D2E/DX2                !
 ! R54   R(46,58)                1.4058         estimate D2E/DX2                !
 ! R55   R(47,48)                1.5257         estimate D2E/DX2                !
 ! R56   R(47,52)                1.108          estimate D2E/DX2                !
 ! R57   R(47,57)                1.4241         estimate D2E/DX2                !
 ! R58   R(48,49)                1.5298         estimate D2E/DX2                !
 ! R59   R(48,53)                1.1067         estimate D2E/DX2                !
 ! R60   R(48,56)                1.4351         estimate D2E/DX2                !
 ! R61   R(49,50)                1.5436         estimate D2E/DX2                !
 ! R62   R(49,55)                1.1013         estimate D2E/DX2                !
 ! R63   R(50,54)                1.1076         estimate D2E/DX2                !
 ! R64   R(50,59)                1.5285         estimate D2E/DX2                !
 ! R65   R(56,64)                0.9763         estimate D2E/DX2                !
 ! R66   R(57,65)                0.9737         estimate D2E/DX2                !
 ! R67   R(58,66)                1.4611         estimate D2E/DX2                !
 ! R68   R(58,84)                2.1859         estimate D2E/DX2                !
 ! R69   R(59,60)                1.1014         estimate D2E/DX2                !
 ! R70   R(59,61)                1.0965         estimate D2E/DX2                !
 ! R71   R(59,62)                1.4346         estimate D2E/DX2                !
 ! R72   R(62,63)                0.9977         estimate D2E/DX2                !
 ! R73   R(62,82)                1.6905         estimate D2E/DX2                !
 ! R74   R(66,67)                1.1            estimate D2E/DX2                !
 ! R75   R(66,68)                1.1015         estimate D2E/DX2                !
 ! R76   R(66,69)                1.5258         estimate D2E/DX2                !
 ! R77   R(69,70)                1.0996         estimate D2E/DX2                !
 ! R78   R(69,71)                1.1011         estimate D2E/DX2                !
 ! R79   R(69,72)                1.5505         estimate D2E/DX2                !
 ! R80   R(72,73)                1.1039         estimate D2E/DX2                !
 ! R81   R(72,74)                1.0984         estimate D2E/DX2                !
 ! R82   R(72,75)                1.5468         estimate D2E/DX2                !
 ! R83   R(75,76)                1.0998         estimate D2E/DX2                !
 ! R84   R(75,77)                1.1018         estimate D2E/DX2                !
 ! R85   R(75,78)                1.5278         estimate D2E/DX2                !
 ! R86   R(78,79)                1.0982         estimate D2E/DX2                !
 ! R87   R(78,80)                1.0996         estimate D2E/DX2                !
 ! R88   R(78,81)                1.4981         estimate D2E/DX2                !
 ! R89   R(81,82)                1.063          estimate D2E/DX2                !
 ! R90   R(81,83)                1.0498         estimate D2E/DX2                !
 ! R91   R(81,84)                1.034          estimate D2E/DX2                !
 ! A1    A(2,1,6)              112.6962         estimate D2E/DX2                !
 ! A2    A(2,1,43)             108.0166         estimate D2E/DX2                !
 ! A3    A(6,1,43)             128.1696         estimate D2E/DX2                !
 ! A4    A(1,2,3)              108.9436         estimate D2E/DX2                !
 ! A5    A(1,2,7)              109.3677         estimate D2E/DX2                !
 ! A6    A(1,2,15)             108.3306         estimate D2E/DX2                !
 ! A7    A(3,2,7)              108.6873         estimate D2E/DX2                !
 ! A8    A(3,2,15)             109.4331         estimate D2E/DX2                !
 ! A9    A(7,2,15)             112.0323         estimate D2E/DX2                !
 ! A10   A(2,3,4)              109.5836         estimate D2E/DX2                !
 ! A11   A(2,3,8)              107.1092         estimate D2E/DX2                !
 ! A12   A(2,3,14)             113.707          estimate D2E/DX2                !
 ! A13   A(4,3,8)              108.8999         estimate D2E/DX2                !
 ! A14   A(4,3,14)             106.2955         estimate D2E/DX2                !
 ! A15   A(8,3,14)             111.1804         estimate D2E/DX2                !
 ! A16   A(3,4,5)              112.5791         estimate D2E/DX2                !
 ! A17   A(3,4,9)              106.4936         estimate D2E/DX2                !
 ! A18   A(3,4,13)             112.5671         estimate D2E/DX2                !
 ! A19   A(5,4,9)              108.7017         estimate D2E/DX2                !
 ! A20   A(5,4,13)             105.483          estimate D2E/DX2                !
 ! A21   A(9,4,13)             111.0331         estimate D2E/DX2                !
 ! A22   A(4,5,6)              109.9766         estimate D2E/DX2                !
 ! A23   A(4,5,10)             108.1224         estimate D2E/DX2                !
 ! A24   A(4,5,12)             110.9106         estimate D2E/DX2                !
 ! A25   A(6,5,10)             108.2679         estimate D2E/DX2                !
 ! A26   A(6,5,12)             109.9458         estimate D2E/DX2                !
 ! A27   A(10,5,12)            109.5568         estimate D2E/DX2                !
 ! A28   A(1,6,5)              111.5277         estimate D2E/DX2                !
 ! A29   A(1,6,11)             103.7774         estimate D2E/DX2                !
 ! A30   A(1,6,16)             110.2766         estimate D2E/DX2                !
 ! A31   A(5,6,11)             108.5301         estimate D2E/DX2                !
 ! A32   A(5,6,16)             113.1944         estimate D2E/DX2                !
 ! A33   A(11,6,16)            109.0685         estimate D2E/DX2                !
 ! A34   A(5,12,21)            105.6067         estimate D2E/DX2                !
 ! A35   A(4,13,22)            108.443          estimate D2E/DX2                !
 ! A36   A(3,14,23)            107.4985         estimate D2E/DX2                !
 ! A37   A(2,15,27)            119.0819         estimate D2E/DX2                !
 ! A38   A(6,16,17)            109.4673         estimate D2E/DX2                !
 ! A39   A(6,16,18)            110.8832         estimate D2E/DX2                !
 ! A40   A(6,16,19)            111.3032         estimate D2E/DX2                !
 ! A41   A(17,16,18)           107.8209         estimate D2E/DX2                !
 ! A42   A(17,16,19)           106.609          estimate D2E/DX2                !
 ! A43   A(18,16,19)           110.5982         estimate D2E/DX2                !
 ! A44   A(16,19,20)           108.327          estimate D2E/DX2                !
 ! A45   A(16,19,83)           129.5481         estimate D2E/DX2                !
 ! A46   A(20,19,83)           113.4453         estimate D2E/DX2                !
 ! A47   A(25,24,29)           115.3395         estimate D2E/DX2                !
 ! A48   A(24,25,26)           112.1755         estimate D2E/DX2                !
 ! A49   A(24,25,30)           111.0856         estimate D2E/DX2                !
 ! A50   A(24,25,37)           107.1369         estimate D2E/DX2                !
 ! A51   A(26,25,30)           109.0479         estimate D2E/DX2                !
 ! A52   A(26,25,37)           112.8886         estimate D2E/DX2                !
 ! A53   A(30,25,37)           104.2368         estimate D2E/DX2                !
 ! A54   A(25,26,27)           110.1863         estimate D2E/DX2                !
 ! A55   A(25,26,31)           107.1017         estimate D2E/DX2                !
 ! A56   A(25,26,36)           110.4013         estimate D2E/DX2                !
 ! A57   A(27,26,31)           108.9591         estimate D2E/DX2                !
 ! A58   A(27,26,36)           109.3149         estimate D2E/DX2                !
 ! A59   A(31,26,36)           110.847          estimate D2E/DX2                !
 ! A60   A(15,27,26)           115.0774         estimate D2E/DX2                !
 ! A61   A(15,27,28)           110.6883         estimate D2E/DX2                !
 ! A62   A(15,27,32)           103.2883         estimate D2E/DX2                !
 ! A63   A(26,27,28)           111.2373         estimate D2E/DX2                !
 ! A64   A(26,27,32)           108.2171         estimate D2E/DX2                !
 ! A65   A(28,27,32)           107.7651         estimate D2E/DX2                !
 ! A66   A(27,28,29)           109.522          estimate D2E/DX2                !
 ! A67   A(27,28,33)           108.0596         estimate D2E/DX2                !
 ! A68   A(27,28,35)           112.9641         estimate D2E/DX2                !
 ! A69   A(29,28,33)           108.5842         estimate D2E/DX2                !
 ! A70   A(29,28,35)           108.8252         estimate D2E/DX2                !
 ! A71   A(33,28,35)           108.7955         estimate D2E/DX2                !
 ! A72   A(24,29,28)           111.4939         estimate D2E/DX2                !
 ! A73   A(24,29,34)           110.2913         estimate D2E/DX2                !
 ! A74   A(24,29,38)           105.9429         estimate D2E/DX2                !
 ! A75   A(28,29,34)           107.502          estimate D2E/DX2                !
 ! A76   A(28,29,38)           114.0132         estimate D2E/DX2                !
 ! A77   A(34,29,38)           107.5317         estimate D2E/DX2                !
 ! A78   A(28,35,43)           107.1017         estimate D2E/DX2                !
 ! A79   A(26,36,44)           105.4458         estimate D2E/DX2                !
 ! A80   A(25,37,49)           116.6448         estimate D2E/DX2                !
 ! A81   A(29,38,39)           109.2813         estimate D2E/DX2                !
 ! A82   A(29,38,40)           109.4723         estimate D2E/DX2                !
 ! A83   A(29,38,41)           112.86           estimate D2E/DX2                !
 ! A84   A(39,38,40)           108.1582         estimate D2E/DX2                !
 ! A85   A(39,38,41)           106.3674         estimate D2E/DX2                !
 ! A86   A(40,38,41)           110.5515         estimate D2E/DX2                !
 ! A87   A(38,41,42)           104.7881         estimate D2E/DX2                !
 ! A88   A(1,43,35)            148.7614         estimate D2E/DX2                !
 ! A89   A(36,44,56)           147.356          estimate D2E/DX2                !
 ! A90   A(46,45,50)           117.799          estimate D2E/DX2                !
 ! A91   A(45,46,47)           110.9953         estimate D2E/DX2                !
 ! A92   A(45,46,51)           110.441          estimate D2E/DX2                !
 ! A93   A(45,46,58)           106.6844         estimate D2E/DX2                !
 ! A94   A(47,46,51)           111.0921         estimate D2E/DX2                !
 ! A95   A(47,46,58)           106.5554         estimate D2E/DX2                !
 ! A96   A(51,46,58)           110.9204         estimate D2E/DX2                !
 ! A97   A(46,47,48)           111.6222         estimate D2E/DX2                !
 ! A98   A(46,47,52)           107.4262         estimate D2E/DX2                !
 ! A99   A(46,47,57)           112.4957         estimate D2E/DX2                !
 ! A100  A(48,47,52)           108.1078         estimate D2E/DX2                !
 ! A101  A(48,47,57)           106.4701         estimate D2E/DX2                !
 ! A102  A(52,47,57)           110.6685         estimate D2E/DX2                !
 ! A103  A(47,48,49)           110.9336         estimate D2E/DX2                !
 ! A104  A(47,48,53)           109.3644         estimate D2E/DX2                !
 ! A105  A(47,48,56)           109.234          estimate D2E/DX2                !
 ! A106  A(49,48,53)           108.5214         estimate D2E/DX2                !
 ! A107  A(49,48,56)           109.3447         estimate D2E/DX2                !
 ! A108  A(53,48,56)           109.4216         estimate D2E/DX2                !
 ! A109  A(37,49,48)           108.5729         estimate D2E/DX2                !
 ! A110  A(37,49,50)           109.3733         estimate D2E/DX2                !
 ! A111  A(37,49,55)           110.9837         estimate D2E/DX2                !
 ! A112  A(48,49,50)           109.6552         estimate D2E/DX2                !
 ! A113  A(48,49,55)           110.0665         estimate D2E/DX2                !
 ! A114  A(50,49,55)           108.1767         estimate D2E/DX2                !
 ! A115  A(45,50,49)           109.9917         estimate D2E/DX2                !
 ! A116  A(45,50,54)           110.6423         estimate D2E/DX2                !
 ! A117  A(45,50,59)           104.2606         estimate D2E/DX2                !
 ! A118  A(49,50,54)           108.6671         estimate D2E/DX2                !
 ! A119  A(49,50,59)           115.1102         estimate D2E/DX2                !
 ! A120  A(54,50,59)           108.094          estimate D2E/DX2                !
 ! A121  A(44,56,48)           122.2645         estimate D2E/DX2                !
 ! A122  A(44,56,64)           120.6424         estimate D2E/DX2                !
 ! A123  A(48,56,64)           106.5234         estimate D2E/DX2                !
 ! A124  A(47,57,65)           108.4102         estimate D2E/DX2                !
 ! A125  A(46,58,66)           115.25           estimate D2E/DX2                !
 ! A126  A(46,58,84)            91.7615         estimate D2E/DX2                !
 ! A127  A(66,58,84)           108.1102         estimate D2E/DX2                !
 ! A128  A(50,59,60)           107.6857         estimate D2E/DX2                !
 ! A129  A(50,59,61)           109.4793         estimate D2E/DX2                !
 ! A130  A(50,59,62)           111.5604         estimate D2E/DX2                !
 ! A131  A(60,59,61)           108.9817         estimate D2E/DX2                !
 ! A132  A(60,59,62)           108.3503         estimate D2E/DX2                !
 ! A133  A(61,59,62)           110.6955         estimate D2E/DX2                !
 ! A134  A(59,62,63)           111.0316         estimate D2E/DX2                !
 ! A135  A(59,62,82)           122.7518         estimate D2E/DX2                !
 ! A136  A(63,62,82)           120.08           estimate D2E/DX2                !
 ! A137  A(58,66,67)           105.0221         estimate D2E/DX2                !
 ! A138  A(58,66,68)           108.6681         estimate D2E/DX2                !
 ! A139  A(58,66,69)           112.415          estimate D2E/DX2                !
 ! A140  A(67,66,68)           108.1562         estimate D2E/DX2                !
 ! A141  A(67,66,69)           111.3391         estimate D2E/DX2                !
 ! A142  A(68,66,69)           110.9786         estimate D2E/DX2                !
 ! A143  A(66,69,70)           108.3449         estimate D2E/DX2                !
 ! A144  A(66,69,71)           107.2853         estimate D2E/DX2                !
 ! A145  A(66,69,72)           114.4968         estimate D2E/DX2                !
 ! A146  A(70,69,71)           105.6846         estimate D2E/DX2                !
 ! A147  A(70,69,72)           111.0049         estimate D2E/DX2                !
 ! A148  A(71,69,72)           109.5927         estimate D2E/DX2                !
 ! A149  A(69,72,73)           109.9109         estimate D2E/DX2                !
 ! A150  A(69,72,74)           108.8013         estimate D2E/DX2                !
 ! A151  A(69,72,75)           115.0096         estimate D2E/DX2                !
 ! A152  A(73,72,74)           104.7609         estimate D2E/DX2                !
 ! A153  A(73,72,75)           109.1464         estimate D2E/DX2                !
 ! A154  A(74,72,75)           108.7067         estimate D2E/DX2                !
 ! A155  A(72,75,76)           110.0535         estimate D2E/DX2                !
 ! A156  A(72,75,77)           110.2844         estimate D2E/DX2                !
 ! A157  A(72,75,78)           114.4509         estimate D2E/DX2                !
 ! A158  A(76,75,77)           105.7674         estimate D2E/DX2                !
 ! A159  A(76,75,78)           105.9574         estimate D2E/DX2                !
 ! A160  A(77,75,78)           109.8927         estimate D2E/DX2                !
 ! A161  A(75,78,79)           111.3562         estimate D2E/DX2                !
 ! A162  A(75,78,80)           110.4282         estimate D2E/DX2                !
 ! A163  A(75,78,81)           112.7211         estimate D2E/DX2                !
 ! A164  A(79,78,80)           107.8454         estimate D2E/DX2                !
 ! A165  A(79,78,81)           107.1601         estimate D2E/DX2                !
 ! A166  A(80,78,81)           107.0945         estimate D2E/DX2                !
 ! A167  A(78,81,82)           113.5972         estimate D2E/DX2                !
 ! A168  A(78,81,83)           112.6448         estimate D2E/DX2                !
 ! A169  A(78,81,84)           111.2077         estimate D2E/DX2                !
 ! A170  A(82,81,83)           105.3415         estimate D2E/DX2                !
 ! A171  A(82,81,84)           105.7704         estimate D2E/DX2                !
 ! A172  A(83,81,84)           107.7988         estimate D2E/DX2                !
 ! A173  L(62,82,81,1,-1)      168.5521         estimate D2E/DX2                !
 ! A174  L(19,83,81,24,-1)     168.5591         estimate D2E/DX2                !
 ! A175  L(58,84,81,3,-1)      180.3604         estimate D2E/DX2                !
 ! A176  L(62,82,81,1,-2)      177.3094         estimate D2E/DX2                !
 ! A177  L(19,83,81,24,-2)     179.9318         estimate D2E/DX2                !
 ! A178  L(58,84,81,3,-2)      189.2469         estimate D2E/DX2                !
 ! D1    D(6,1,2,3)             72.5537         estimate D2E/DX2                !
 ! D2    D(6,1,2,7)            -46.1136         estimate D2E/DX2                !
 ! D3    D(6,1,2,15)          -168.4812         estimate D2E/DX2                !
 ! D4    D(43,1,2,3)          -140.261          estimate D2E/DX2                !
 ! D5    D(43,1,2,7)           101.0718         estimate D2E/DX2                !
 ! D6    D(43,1,2,15)          -21.2959         estimate D2E/DX2                !
 ! D7    D(2,1,6,5)            -37.0948         estimate D2E/DX2                !
 ! D8    D(2,1,6,11)          -153.7412         estimate D2E/DX2                !
 ! D9    D(2,1,6,16)            89.5672         estimate D2E/DX2                !
 ! D10   D(43,1,6,5)          -176.1365         estimate D2E/DX2                !
 ! D11   D(43,1,6,11)           67.2171         estimate D2E/DX2                !
 ! D12   D(43,1,6,16)          -49.4745         estimate D2E/DX2                !
 ! D13   D(2,1,43,35)          -65.4902         estimate D2E/DX2                !
 ! D14   D(6,1,43,35)           75.0207         estimate D2E/DX2                !
 ! D15   D(1,2,3,4)            -36.177          estimate D2E/DX2                !
 ! D16   D(1,2,3,8)           -154.1615         estimate D2E/DX2                !
 ! D17   D(1,2,3,14)            82.6056         estimate D2E/DX2                !
 ! D18   D(7,2,3,4)             82.9157         estimate D2E/DX2                !
 ! D19   D(7,2,3,8)            -35.0688         estimate D2E/DX2                !
 ! D20   D(7,2,3,14)          -158.3017         estimate D2E/DX2                !
 ! D21   D(15,2,3,4)          -154.451          estimate D2E/DX2                !
 ! D22   D(15,2,3,8)            87.5646         estimate D2E/DX2                !
 ! D23   D(15,2,3,14)          -35.6683         estimate D2E/DX2                !
 ! D24   D(1,2,15,27)           79.016          estimate D2E/DX2                !
 ! D25   D(3,2,15,27)         -162.3287         estimate D2E/DX2                !
 ! D26   D(7,2,15,27)          -41.7115         estimate D2E/DX2                !
 ! D27   D(2,3,4,5)            -25.6889         estimate D2E/DX2                !
 ! D28   D(2,3,4,9)             93.3423         estimate D2E/DX2                !
 ! D29   D(2,3,4,13)          -144.7604         estimate D2E/DX2                !
 ! D30   D(8,3,4,5)             91.1739         estimate D2E/DX2                !
 ! D31   D(8,3,4,9)           -149.7949         estimate D2E/DX2                !
 ! D32   D(8,3,4,13)           -27.8976         estimate D2E/DX2                !
 ! D33   D(14,3,4,5)          -148.9605         estimate D2E/DX2                !
 ! D34   D(14,3,4,9)           -29.9293         estimate D2E/DX2                !
 ! D35   D(14,3,4,13)           91.9681         estimate D2E/DX2                !
 ! D36   D(2,3,14,23)           52.4924         estimate D2E/DX2                !
 ! D37   D(4,3,14,23)          173.1406         estimate D2E/DX2                !
 ! D38   D(8,3,14,23)          -68.4873         estimate D2E/DX2                !
 ! D39   D(3,4,5,6)             59.1396         estimate D2E/DX2                !
 ! D40   D(3,4,5,10)           177.1679         estimate D2E/DX2                !
 ! D41   D(3,4,5,12)           -62.6936         estimate D2E/DX2                !
 ! D42   D(9,4,5,6)            -58.5953         estimate D2E/DX2                !
 ! D43   D(9,4,5,10)            59.433          estimate D2E/DX2                !
 ! D44   D(9,4,5,12)           179.5715         estimate D2E/DX2                !
 ! D45   D(13,4,5,6)          -177.7358         estimate D2E/DX2                !
 ! D46   D(13,4,5,10)          -59.7075         estimate D2E/DX2                !
 ! D47   D(13,4,5,12)           60.431          estimate D2E/DX2                !
 ! D48   D(3,4,13,22)          -60.19           estimate D2E/DX2                !
 ! D49   D(5,4,13,22)          176.6778         estimate D2E/DX2                !
 ! D50   D(9,4,13,22)           59.098          estimate D2E/DX2                !
 ! D51   D(4,5,6,1)            -26.7181         estimate D2E/DX2                !
 ! D52   D(4,5,6,11)            86.9993         estimate D2E/DX2                !
 ! D53   D(4,5,6,16)          -151.7704         estimate D2E/DX2                !
 ! D54   D(10,5,6,1)          -144.6564         estimate D2E/DX2                !
 ! D55   D(10,5,6,11)          -30.939          estimate D2E/DX2                !
 ! D56   D(10,5,6,16)           90.2914         estimate D2E/DX2                !
 ! D57   D(12,5,6,1)            95.6876         estimate D2E/DX2                !
 ! D58   D(12,5,6,11)         -150.595          estimate D2E/DX2                !
 ! D59   D(12,5,6,16)          -29.3647         estimate D2E/DX2                !
 ! D60   D(4,5,12,21)          -49.2213         estimate D2E/DX2                !
 ! D61   D(6,5,12,21)         -171.0725         estimate D2E/DX2                !
 ! D62   D(10,5,12,21)          70.0596         estimate D2E/DX2                !
 ! D63   D(1,6,16,17)          172.4871         estimate D2E/DX2                !
 ! D64   D(1,6,16,18)          -68.6783         estimate D2E/DX2                !
 ! D65   D(1,6,16,19)           54.8906         estimate D2E/DX2                !
 ! D66   D(5,6,16,17)          -61.788          estimate D2E/DX2                !
 ! D67   D(5,6,16,18)           57.0466         estimate D2E/DX2                !
 ! D68   D(5,6,16,19)         -179.3845         estimate D2E/DX2                !
 ! D69   D(11,6,16,17)          59.1382         estimate D2E/DX2                !
 ! D70   D(11,6,16,18)         177.9729         estimate D2E/DX2                !
 ! D71   D(11,6,16,19)         -58.4583         estimate D2E/DX2                !
 ! D72   D(2,15,27,26)          29.429          estimate D2E/DX2                !
 ! D73   D(2,15,27,28)         -97.7431         estimate D2E/DX2                !
 ! D74   D(2,15,27,32)         147.1501         estimate D2E/DX2                !
 ! D75   D(6,16,19,20)         -56.8144         estimate D2E/DX2                !
 ! D76   D(6,16,19,83)         158.392          estimate D2E/DX2                !
 ! D77   D(17,16,19,20)       -176.1287         estimate D2E/DX2                !
 ! D78   D(17,16,19,83)         39.0777         estimate D2E/DX2                !
 ! D79   D(18,16,19,20)         66.9166         estimate D2E/DX2                !
 ! D80   D(18,16,19,83)        -77.877          estimate D2E/DX2                !
 ! D81   D(16,19,81,78)       -109.0569         estimate D2E/DX2                !
 ! D82   D(16,19,81,82)        128.7243         estimate D2E/DX2                !
 ! D83   D(16,19,81,84)         18.7906         estimate D2E/DX2                !
 ! D84   D(20,19,81,78)        111.3684         estimate D2E/DX2                !
 ! D85   D(20,19,81,82)        -10.8504         estimate D2E/DX2                !
 ! D86   D(20,19,81,84)       -120.7841         estimate D2E/DX2                !
 ! D87   D(29,24,25,26)        -55.18           estimate D2E/DX2                !
 ! D88   D(29,24,25,30)         67.1555         estimate D2E/DX2                !
 ! D89   D(29,24,25,37)       -179.5962         estimate D2E/DX2                !
 ! D90   D(25,24,29,28)         57.2235         estimate D2E/DX2                !
 ! D91   D(25,24,29,34)        -62.1302         estimate D2E/DX2                !
 ! D92   D(25,24,29,38)       -178.2108         estimate D2E/DX2                !
 ! D93   D(24,25,26,27)         51.5059         estimate D2E/DX2                !
 ! D94   D(24,25,26,31)        -66.8722         estimate D2E/DX2                !
 ! D95   D(24,25,26,36)        172.3517         estimate D2E/DX2                !
 ! D96   D(30,25,26,27)        -71.9799         estimate D2E/DX2                !
 ! D97   D(30,25,26,31)        169.6421         estimate D2E/DX2                !
 ! D98   D(30,25,26,36)         48.866          estimate D2E/DX2                !
 ! D99   D(37,25,26,27)        172.6683         estimate D2E/DX2                !
 ! D100  D(37,25,26,31)         54.2902         estimate D2E/DX2                !
 ! D101  D(37,25,26,36)        -66.4859         estimate D2E/DX2                !
 ! D102  D(24,25,37,49)         62.7166         estimate D2E/DX2                !
 ! D103  D(26,25,37,49)        -61.2642         estimate D2E/DX2                !
 ! D104  D(30,25,37,49)       -179.467          estimate D2E/DX2                !
 ! D105  D(25,26,27,15)       -179.0342         estimate D2E/DX2                !
 ! D106  D(25,26,27,28)        -52.1409         estimate D2E/DX2                !
 ! D107  D(25,26,27,32)         66.0571         estimate D2E/DX2                !
 ! D108  D(31,26,27,15)        -61.8028         estimate D2E/DX2                !
 ! D109  D(31,26,27,28)         65.0906         estimate D2E/DX2                !
 ! D110  D(31,26,27,32)       -176.7114         estimate D2E/DX2                !
 ! D111  D(36,26,27,15)         59.4713         estimate D2E/DX2                !
 ! D112  D(36,26,27,28)       -173.6354         estimate D2E/DX2                !
 ! D113  D(36,26,27,32)        -55.4374         estimate D2E/DX2                !
 ! D114  D(25,26,36,44)         75.8233         estimate D2E/DX2                !
 ! D115  D(27,26,36,44)       -162.8123         estimate D2E/DX2                !
 ! D116  D(31,26,36,44)        -42.6896         estimate D2E/DX2                !
 ! D117  D(15,27,28,29)       -176.6688         estimate D2E/DX2                !
 ! D118  D(15,27,28,33)        -58.5522         estimate D2E/DX2                !
 ! D119  D(15,27,28,35)         61.8603         estimate D2E/DX2                !
 ! D120  D(26,27,28,29)         54.0724         estimate D2E/DX2                !
 ! D121  D(26,27,28,33)        172.189          estimate D2E/DX2                !
 ! D122  D(26,27,28,35)        -67.3985         estimate D2E/DX2                !
 ! D123  D(32,27,28,29)        -64.3978         estimate D2E/DX2                !
 ! D124  D(32,27,28,33)         53.7188         estimate D2E/DX2                !
 ! D125  D(32,27,28,35)        174.1313         estimate D2E/DX2                !
 ! D126  D(27,28,29,24)        -55.0393         estimate D2E/DX2                !
 ! D127  D(27,28,29,34)         65.9568         estimate D2E/DX2                !
 ! D128  D(27,28,29,38)       -174.9477         estimate D2E/DX2                !
 ! D129  D(33,28,29,24)       -172.8285         estimate D2E/DX2                !
 ! D130  D(33,28,29,34)        -51.8324         estimate D2E/DX2                !
 ! D131  D(33,28,29,38)         67.2631         estimate D2E/DX2                !
 ! D132  D(35,28,29,24)         68.8933         estimate D2E/DX2                !
 ! D133  D(35,28,29,34)       -170.1106         estimate D2E/DX2                !
 ! D134  D(35,28,29,38)        -51.0151         estimate D2E/DX2                !
 ! D135  D(27,28,35,43)        -48.5362         estimate D2E/DX2                !
 ! D136  D(29,28,35,43)       -170.3999         estimate D2E/DX2                !
 ! D137  D(33,28,35,43)         71.4551         estimate D2E/DX2                !
 ! D138  D(24,29,38,39)         62.6147         estimate D2E/DX2                !
 ! D139  D(24,29,38,40)       -179.0987         estimate D2E/DX2                !
 ! D140  D(24,29,38,41)        -55.5153         estimate D2E/DX2                !
 ! D141  D(28,29,38,39)       -174.3995         estimate D2E/DX2                !
 ! D142  D(28,29,38,40)        -56.113          estimate D2E/DX2                !
 ! D143  D(28,29,38,41)         67.4705         estimate D2E/DX2                !
 ! D144  D(34,29,38,39)        -55.3209         estimate D2E/DX2                !
 ! D145  D(34,29,38,40)         62.9656         estimate D2E/DX2                !
 ! D146  D(34,29,38,41)       -173.4509         estimate D2E/DX2                !
 ! D147  D(28,35,43,1)          85.2828         estimate D2E/DX2                !
 ! D148  D(26,36,44,56)         23.9356         estimate D2E/DX2                !
 ! D149  D(25,37,49,48)        121.8514         estimate D2E/DX2                !
 ! D150  D(25,37,49,50)       -118.5257         estimate D2E/DX2                !
 ! D151  D(25,37,49,55)          0.7507         estimate D2E/DX2                !
 ! D152  D(29,38,41,42)        -54.5931         estimate D2E/DX2                !
 ! D153  D(39,38,41,42)       -174.4153         estimate D2E/DX2                !
 ! D154  D(40,38,41,42)         68.3916         estimate D2E/DX2                !
 ! D155  D(36,44,56,48)        -81.2748         estimate D2E/DX2                !
 ! D156  D(36,44,56,64)        138.8258         estimate D2E/DX2                !
 ! D157  D(50,45,46,47)        -53.3144         estimate D2E/DX2                !
 ! D158  D(50,45,46,51)         70.3547         estimate D2E/DX2                !
 ! D159  D(50,45,46,58)       -169.0133         estimate D2E/DX2                !
 ! D160  D(46,45,50,49)         55.8624         estimate D2E/DX2                !
 ! D161  D(46,45,50,54)        -64.2046         estimate D2E/DX2                !
 ! D162  D(46,45,50,59)        179.8073         estimate D2E/DX2                !
 ! D163  D(45,46,47,48)         50.0248         estimate D2E/DX2                !
 ! D164  D(45,46,47,52)        -68.3234         estimate D2E/DX2                !
 ! D165  D(45,46,47,57)        169.6445         estimate D2E/DX2                !
 ! D166  D(51,46,47,48)        -73.271          estimate D2E/DX2                !
 ! D167  D(51,46,47,52)        168.3807         estimate D2E/DX2                !
 ! D168  D(51,46,47,57)         46.3487         estimate D2E/DX2                !
 ! D169  D(58,46,47,48)        165.8036         estimate D2E/DX2                !
 ! D170  D(58,46,47,52)         47.4554         estimate D2E/DX2                !
 ! D171  D(58,46,47,57)        -74.5767         estimate D2E/DX2                !
 ! D172  D(45,46,58,66)        -73.7784         estimate D2E/DX2                !
 ! D173  D(45,46,58,84)         37.2205         estimate D2E/DX2                !
 ! D174  D(47,46,58,66)        167.5812         estimate D2E/DX2                !
 ! D175  D(47,46,58,84)        -81.4199         estimate D2E/DX2                !
 ! D176  D(51,46,58,66)         46.5461         estimate D2E/DX2                !
 ! D177  D(51,46,58,84)        157.545          estimate D2E/DX2                !
 ! D178  D(46,47,48,49)        -53.1934         estimate D2E/DX2                !
 ! D179  D(46,47,48,53)         66.4728         estimate D2E/DX2                !
 ! D180  D(46,47,48,56)       -173.7969         estimate D2E/DX2                !
 ! D181  D(52,47,48,49)         64.7466         estimate D2E/DX2                !
 ! D182  D(52,47,48,53)       -175.5872         estimate D2E/DX2                !
 ! D183  D(52,47,48,56)        -55.857          estimate D2E/DX2                !
 ! D184  D(57,47,48,49)       -176.3119         estimate D2E/DX2                !
 ! D185  D(57,47,48,53)        -56.6457         estimate D2E/DX2                !
 ! D186  D(57,47,48,56)         63.0846         estimate D2E/DX2                !
 ! D187  D(46,47,57,65)         65.6819         estimate D2E/DX2                !
 ! D188  D(48,47,57,65)       -171.748          estimate D2E/DX2                !
 ! D189  D(52,47,57,65)        -54.4945         estimate D2E/DX2                !
 ! D190  D(47,48,49,37)        174.5969         estimate D2E/DX2                !
 ! D191  D(47,48,49,50)         55.1504         estimate D2E/DX2                !
 ! D192  D(47,48,49,55)        -63.7394         estimate D2E/DX2                !
 ! D193  D(53,48,49,37)         54.428          estimate D2E/DX2                !
 ! D194  D(53,48,49,50)        -65.0186         estimate D2E/DX2                !
 ! D195  D(53,48,49,55)        176.0917         estimate D2E/DX2                !
 ! D196  D(56,48,49,37)        -64.8651         estimate D2E/DX2                !
 ! D197  D(56,48,49,50)        175.6884         estimate D2E/DX2                !
 ! D198  D(56,48,49,55)         56.7986         estimate D2E/DX2                !
 ! D199  D(47,48,56,44)        163.7715         estimate D2E/DX2                !
 ! D200  D(47,48,56,64)        -51.5428         estimate D2E/DX2                !
 ! D201  D(49,48,56,44)         42.2015         estimate D2E/DX2                !
 ! D202  D(49,48,56,64)       -173.1127         estimate D2E/DX2                !
 ! D203  D(53,48,56,44)        -76.5336         estimate D2E/DX2                !
 ! D204  D(53,48,56,64)         68.1522         estimate D2E/DX2                !
 ! D205  D(37,49,50,45)       -173.4349         estimate D2E/DX2                !
 ! D206  D(37,49,50,54)        -52.1779         estimate D2E/DX2                !
 ! D207  D(37,49,50,59)         69.179          estimate D2E/DX2                !
 ! D208  D(48,49,50,45)        -54.4807         estimate D2E/DX2                !
 ! D209  D(48,49,50,54)         66.7763         estimate D2E/DX2                !
 ! D210  D(48,49,50,59)       -171.8668         estimate D2E/DX2                !
 ! D211  D(55,49,50,45)         65.5686         estimate D2E/DX2                !
 ! D212  D(55,49,50,54)       -173.1744         estimate D2E/DX2                !
 ! D213  D(55,49,50,59)        -51.8175         estimate D2E/DX2                !
 ! D214  D(45,50,59,60)         64.2047         estimate D2E/DX2                !
 ! D215  D(45,50,59,61)       -177.4414         estimate D2E/DX2                !
 ! D216  D(45,50,59,62)        -54.5655         estimate D2E/DX2                !
 ! D217  D(49,50,59,60)       -175.219          estimate D2E/DX2                !
 ! D218  D(49,50,59,61)        -56.8651         estimate D2E/DX2                !
 ! D219  D(49,50,59,62)         66.0108         estimate D2E/DX2                !
 ! D220  D(54,50,59,60)        -53.5515         estimate D2E/DX2                !
 ! D221  D(54,50,59,61)         64.8024         estimate D2E/DX2                !
 ! D222  D(54,50,59,62)       -172.3216         estimate D2E/DX2                !
 ! D223  D(46,58,66,67)       -143.8479         estimate D2E/DX2                !
 ! D224  D(46,58,66,68)        -28.3028         estimate D2E/DX2                !
 ! D225  D(46,58,66,69)         94.9373         estimate D2E/DX2                !
 ! D226  D(84,58,66,67)        115.1991         estimate D2E/DX2                !
 ! D227  D(84,58,66,68)       -129.2558         estimate D2E/DX2                !
 ! D228  D(84,58,66,69)         -6.0157         estimate D2E/DX2                !
 ! D229  D(46,58,81,78)       -158.8236         estimate D2E/DX2                !
 ! D230  D(46,58,81,82)        -37.0084         estimate D2E/DX2                !
 ! D231  D(46,58,81,83)         73.3177         estimate D2E/DX2                !
 ! D232  D(66,58,81,78)        -42.407          estimate D2E/DX2                !
 ! D233  D(66,58,81,82)         79.4082         estimate D2E/DX2                !
 ! D234  D(66,58,81,83)       -170.2657         estimate D2E/DX2                !
 ! D235  D(50,59,62,63)       -119.9735         estimate D2E/DX2                !
 ! D236  D(50,59,62,82)         32.3793         estimate D2E/DX2                !
 ! D237  D(60,59,62,63)        121.6533         estimate D2E/DX2                !
 ! D238  D(60,59,62,82)        -85.9939         estimate D2E/DX2                !
 ! D239  D(61,59,62,63)          2.205          estimate D2E/DX2                !
 ! D240  D(61,59,62,82)        154.5578         estimate D2E/DX2                !
 ! D241  D(59,62,81,78)        133.1429         estimate D2E/DX2                !
 ! D242  D(59,62,81,83)       -105.236          estimate D2E/DX2                !
 ! D243  D(59,62,81,84)          6.3285         estimate D2E/DX2                !
 ! D244  D(63,62,81,78)        -81.8302         estimate D2E/DX2                !
 ! D245  D(63,62,81,83)         39.791          estimate D2E/DX2                !
 ! D246  D(63,62,81,84)        151.3555         estimate D2E/DX2                !
 ! D247  D(58,66,69,70)        -58.9504         estimate D2E/DX2                !
 ! D248  D(58,66,69,71)       -172.6207         estimate D2E/DX2                !
 ! D249  D(58,66,69,72)         65.5273         estimate D2E/DX2                !
 ! D250  D(67,66,69,70)       -176.4767         estimate D2E/DX2                !
 ! D251  D(67,66,69,71)         69.8531         estimate D2E/DX2                !
 ! D252  D(67,66,69,72)        -51.9989         estimate D2E/DX2                !
 ! D253  D(68,66,69,70)         62.9866         estimate D2E/DX2                !
 ! D254  D(68,66,69,71)        -50.6837         estimate D2E/DX2                !
 ! D255  D(68,66,69,72)       -172.5357         estimate D2E/DX2                !
 ! D256  D(66,69,72,73)        -11.5918         estimate D2E/DX2                !
 ! D257  D(66,69,72,74)        102.5863         estimate D2E/DX2                !
 ! D258  D(66,69,72,75)       -135.227          estimate D2E/DX2                !
 ! D259  D(70,69,72,73)        111.4632         estimate D2E/DX2                !
 ! D260  D(70,69,72,74)       -134.3586         estimate D2E/DX2                !
 ! D261  D(70,69,72,75)        -12.1719         estimate D2E/DX2                !
 ! D262  D(71,69,72,73)       -132.1743         estimate D2E/DX2                !
 ! D263  D(71,69,72,74)        -17.9961         estimate D2E/DX2                !
 ! D264  D(71,69,72,75)        104.1906         estimate D2E/DX2                !
 ! D265  D(69,72,75,76)       -141.2364         estimate D2E/DX2                !
 ! D266  D(69,72,75,77)        -24.9211         estimate D2E/DX2                !
 ! D267  D(69,72,75,78)         99.5888         estimate D2E/DX2                !
 ! D268  D(73,72,75,76)         94.724          estimate D2E/DX2                !
 ! D269  D(73,72,75,77)       -148.9607         estimate D2E/DX2                !
 ! D270  D(73,72,75,78)        -24.4507         estimate D2E/DX2                !
 ! D271  D(74,72,75,76)        -18.9987         estimate D2E/DX2                !
 ! D272  D(74,72,75,77)         97.3166         estimate D2E/DX2                !
 ! D273  D(74,72,75,78)       -138.1734         estimate D2E/DX2                !
 ! D274  D(72,75,78,79)       -178.4732         estimate D2E/DX2                !
 ! D275  D(72,75,78,80)         61.7408         estimate D2E/DX2                !
 ! D276  D(72,75,78,81)        -57.9969         estimate D2E/DX2                !
 ! D277  D(76,75,78,79)         60.0743         estimate D2E/DX2                !
 ! D278  D(76,75,78,80)        -59.7117         estimate D2E/DX2                !
 ! D279  D(76,75,78,81)       -179.4494         estimate D2E/DX2                !
 ! D280  D(77,75,78,79)        -53.7557         estimate D2E/DX2                !
 ! D281  D(77,75,78,80)       -173.5417         estimate D2E/DX2                !
 ! D282  D(77,75,78,81)         66.7206         estimate D2E/DX2                !
 ! D283  D(75,78,81,82)        -69.8505         estimate D2E/DX2                !
 ! D284  D(75,78,81,83)        170.4755         estimate D2E/DX2                !
 ! D285  D(75,78,81,84)         49.3345         estimate D2E/DX2                !
 ! D286  D(79,78,81,82)         53.0035         estimate D2E/DX2                !
 ! D287  D(79,78,81,83)        -66.6705         estimate D2E/DX2                !
 ! D288  D(79,78,81,84)        172.1885         estimate D2E/DX2                !
 ! D289  D(80,78,81,82)        168.5036         estimate D2E/DX2                !
 ! D290  D(80,78,81,83)         48.8296         estimate D2E/DX2                !
 ! D291  D(80,78,81,84)        -72.3114         estimate D2E/DX2                !
 --------------------------------------------------------------------------------
 Trust Radius=3.00D-01 FncErr=1.00D-07 GrdErr=1.00D-06
 Number of steps in this run=    504 maximum allowed number of steps=    504.
 GradGradGradGradGradGradGradGradGradGradGradGradGradGradGradGradGradGrad

 Leave Link  103 at Thu Apr  7 13:25:34 2016, MaxMem= 10737418240 cpu:         0.4
 (Enter /share/apps//g09/l202.exe)
 Stoichiometry    C23H44NO16(1+)
 Framework group  C1[X(C23H44NO16)]
 Deg. of freedom   246
 Full point group                 C1      NOp   1
 Largest Abelian subgroup         C1      NOp   1
 Largest concise Abelian subgroup C1      NOp   1
                         Standard orientation:                         
 ---------------------------------------------------------------------
 Center     Atomic      Atomic             Coordinates (Angstroms)
 Number     Number       Type             X           Y           Z
 ---------------------------------------------------------------------
      1          8           0        2.962383   -0.401461   -1.377673
      2          6           0        3.631930   -0.245871   -0.091548
      3          6           0        4.961664   -1.013969   -0.125481
      4          6           0        4.789890   -2.312617   -0.950651
      5          6           0        3.341124   -2.811902   -0.967266
      6          6           0        2.417847   -1.730932   -1.567348
      7          1           0        3.000028   -0.670216    0.702302
      8          1           0        5.208797   -1.282885    0.918405
      9          1           0        5.092760   -2.069305   -1.985341
     10          1           0        3.293249   -3.706335   -1.614209
     11          1           0        2.400543   -1.853509   -2.660864
     12          8           0        2.901336   -3.151890    0.355764
     13          8           0        5.561266   -3.397600   -0.432310
     14          8           0        6.023591   -0.291624   -0.734962
     15          8           0        3.884490    1.109488    0.109865
     16          6           0        0.982962   -1.798344   -1.033203
     17          1           0        0.536737   -2.766095   -1.302904
     18          1           0        0.968501   -1.714895    0.063972
     19          8           0        0.151540   -0.778989   -1.631623
     20          1           0        0.564109    0.098616   -1.457998
     21          1           0        3.601263   -3.722290    0.726697
     22          1           0        6.500908   -3.144632   -0.452494
     23          1           0        6.074738    0.578436   -0.298335
     24          8           0        0.116430    2.992013    0.680875
     25          6           0        0.635794    2.293625    1.810129
     26          6           0        1.741886    1.282087    1.414561
     27          6           0        2.803742    1.969993    0.559829
     28          6           0        2.167415    2.711613   -0.630232
     29          6           0        1.087595    3.672946   -0.117103
     30          1           0        1.041697    2.997040    2.560799
     31          1           0        1.258836    0.490253    0.817413
     32          1           0        3.319113    2.718020    1.185986
     33          1           0        2.957252    3.302425   -1.127462
     34          1           0        1.595889    4.457018    0.481237
     35          8           0        1.575291    1.819948   -1.597639
     36          8           0        2.350360    0.740499    2.569824
     37          8           0       -0.456370    1.685084    2.460335
     38          6           0        0.301554    4.376599   -1.226710
     39          1           0       -0.376225    5.115192   -0.778519
     40          1           0        1.001401    4.910891   -1.890991
     41          8           0       -0.523645    3.476463   -1.982888
     42          1           0        0.090675    2.776484   -2.296477
     43          1           0        2.246886    1.114913   -1.794551
     44          1           0        1.705544    0.089991    2.924578
     45          8           0       -3.421969    0.112104    0.921576
     46          6           0       -3.440927   -1.165190    1.560954
     47          6           0       -2.018914   -1.677205    1.805911
     48          6           0       -1.151345   -0.623050    2.486898
     49          6           0       -1.183086    0.695168    1.711289
     50          6           0       -2.644892    1.158287    1.534151
     51          1           0       -4.016247   -1.115766    2.508373
     52          1           0       -1.572992   -1.903952    0.817306
     53          1           0       -1.532676   -0.438626    3.509373
     54          1           0       -3.056942    1.419578    2.528472
     55          1           0       -0.743249    0.555892    0.711263
     56          8           0        0.200561   -1.098927    2.560401
     57          8           0       -1.990901   -2.827099    2.645648
     58          8           0       -4.038783   -2.060334    0.656739
     59          6           0       -2.836977    2.360429    0.609851
     60          1           0       -3.902265    2.638554    0.639635
     61          1           0       -2.238099    3.202695    0.976183
     62          8           0       -2.490586    2.043749   -0.745852
     63          1           0       -1.750979    2.628361   -1.072341
     64          1           0        0.160504   -1.988105    2.961467
     65          1           0       -2.426175   -3.561070    2.176644
     66          6           0       -5.485168   -1.919597    0.504708
     67          1           0       -5.859106   -2.945601    0.372249
     68          1           0       -5.901235   -1.521172    1.443507
     69          6           0       -5.862299   -1.034041   -0.679164
     70          1           0       -5.412427   -0.042382   -0.526710
     71          1           0       -6.951283   -0.876686   -0.636226
     72          6           0       -5.474855   -1.613101   -2.064306
     73          1           0       -4.803708   -2.479995   -1.935003
     74          1           0       -6.375110   -2.024699   -2.540306
     75          6           0       -4.818124   -0.603362   -3.034741
     76          1           0       -5.178926   -0.775649   -4.059265
     77          1           0       -5.121559    0.424557   -2.779361
     78          6           0       -3.294558   -0.693308   -3.105271
     79          1           0       -2.880471    0.061845   -3.786683
     80          1           0       -2.985039   -1.683058   -3.470954
     81          7           0       -2.640735   -0.492018   -1.772543
     82          1           0       -2.710683    0.505008   -1.410489
     83          1           0       -1.614027   -0.710139   -1.788982
     84          1           0       -3.078367   -1.085525   -1.047772
 ---------------------------------------------------------------------
 Rotational constants (GHZ):      0.1278839      0.0664034      0.0590958
 Leave Link  202 at Thu Apr  7 13:25:34 2016, MaxMem= 10737418240 cpu:         2.4
 (Enter /share/apps//g09/l301.exe)
 Standard basis: 6-311+G(d,p) (5D, 7F)
 Ernie: Thresh=  0.10000D-02 Tol=  0.10000D-05 Strict=F.
 There are  1184 symmetry adapted cartesian basis functions of A   symmetry.
 There are  1144 symmetry adapted basis functions of A   symmetry.
  1144 basis functions,  1792 primitive gaussians,  1184 cartesian basis functions
   158 alpha electrons      158 beta electrons
       nuclear repulsion energy      5967.9416473914 Hartrees.
 IExCor= 1009 DFT=T Ex+Corr=PBE1PBE ExCW=0 ScaHFX=  0.250000
 ScaDFX=  0.750000  0.750000  1.000000  1.000000 ScalE2=  1.000000  1.000000
 IRadAn=      0 IRanWt=     -1 IRanGd=            0 ICorTp=0 IEmpDi=131
 NAtoms=   84 NActive=   84 NUniq=   84 SFac= 1.00D+00 NAtFMM=   60 NAOKFM=T Big=T
 Integral buffers will be    131072 words long.
 Raffenetti 2 integral format.
 Two-electron integral symmetry is turned on.
 R6Disp:  Grimme-D3 Dispersion energy=       -0.0873336714 Hartrees.
 Nuclear repulsion after empirical dispersion term =     5967.8543137200 Hartrees.
 Leave Link  301 at Thu Apr  7 13:25:35 2016, MaxMem= 10737418240 cpu:         1.6
 (Enter /share/apps//g09/l302.exe)
 NPDir=0 NMtPBC=     1 NCelOv=     1 NCel=       1 NClECP=     1 NCelD=      1
         NCelK=      1 NCelE2=     1 NClLst=     1 CellRange=     0.0.
 One-electron integrals computed using PRISM.
 NBasis=  1144 RedAO= T EigKep=  1.31D-06  NBF=  1144
 NBsUse=  1144 1.00D-06 EigRej= -1.00D+00 NBFU=  1144
 Precomputing XC quadrature grid using
 IXCGrd= 4 IRadAn=           0 IRanWt=          -1 IRanGd=           0 AccXCQ= 0.00D+00.
 Generated NRdTot=       0 NPtTot=           0 NUsed=           0 NTot=          32
 NSgBfM=  1095  1120  1126  1130  1131 MxSgAt=    84 MxSgA2=    84.
 Leave Link  302 at Thu Apr  7 13:25:37 2016, MaxMem= 10737418240 cpu:        40.2
 (Enter /share/apps//g09/l303.exe)
 DipDrv:  MaxL=1.
 Leave Link  303 at Thu Apr  7 13:25:39 2016, MaxMem= 10737418240 cpu:        25.3
 (Enter /share/apps//g09/l401.exe)
 ExpMin= 4.38D-02 ExpMax= 8.59D+03 ExpMxC= 1.30D+03 IAcc=2 IRadAn=         4 AccDes= 0.00D+00
 Harris functional with IExCor= 1009 and IRadAn=       4 diagonalized for initial guess.
 HarFok:  IExCor= 1009 AccDes= 0.00D+00 IRadAn=         4 IDoV= 1 UseB2=F ITyADJ=14
 ICtDFT=  3500011 ScaDFX=  1.000000  1.000000  1.000000  1.000000
 FoFCou: FMM=F IPFlag=           0 FMFlag=      100000 FMFlg1=        2001
         NFxFlg=           0 DoJE=T BraDBF=F KetDBF=T FulRan=T
         wScrn=  0.000000 ICntrl=     500 IOpCl=  0 I1Cent=   200000004 NGrid=           0
         NMat0=    1 NMatS0=      1 NMatT0=    0 NMatD0=    1 NMtDS0=    0 NMtDT0=    0
 Petite list used in FoFCou.
 Harris En= -2159.70593395007    
 JPrj=0 DoOrth=F DoCkMO=F.
 Leave Link  401 at Thu Apr  7 13:25:45 2016, MaxMem= 10737418240 cpu:       120.9
 (Enter /share/apps//g09/l502.exe)
 Closed shell SCF:
 Using DIIS extrapolation, IDIIS=  1040.
 Integral symmetry usage will be decided dynamically.
 IVT=     4256630 IEndB=     4256630 NGot= 10737418240 MDV= 10734581291
 LenX= 10734581291 LenY= 10733178251
 Requested convergence on RMS density matrix=1.00D-08 within 128 cycles.
 Requested convergence on MAX density matrix=1.00D-06.
 Requested convergence on             energy=1.00D-06.
 No special actions if energy rises.
 Fock matrices will be formed incrementally for  20 cycles.

 Cycle   1  Pass 1  IDiag  1:
 FoFJK:  IHMeth= 1 ICntrl=       0 DoSepK=F KAlg= 0 I1Cent=   0 FoldK=F
 IRaf= 790000000 NMat=   1 IRICut=       1 DoRegI=T DoRafI=F ISym2E= 0.
 FoFCou: FMM=T IPFlag=           0 FMFlag=      100000 FMFlg1=        2001
         NFxFlg=           0 DoJE=F BraDBF=F KetDBF=F FulRan=T
         wScrn=  0.000000 ICntrl=       0 IOpCl=  0 I1Cent=           0 NGrid=           0
         NMat0=    1 NMatS0=      1 NMatT0=    0 NMatD0=    1 NMtDS0=    0 NMtDT0=    0
 Symmetry not used in FoFCou.
 FMM levels:  10  Number of levels for PrismC:   9
 E= -2158.71098593010    
 DIIS: error= 1.16D-02 at cycle   1 NSaved=   1.
 NSaved= 1 IEnMin= 1 EnMin= -2158.71098593010     IErMin= 1 ErrMin= 1.16D-02
 ErrMax= 1.16D-02  0.00D+00 EMaxC= 1.00D-01 BMatC= 1.01D+00 BMatP= 1.01D+00
 IDIUse=3 WtCom= 8.84D-01 WtEn= 1.16D-01
 Coeff-Com:  0.100D+01
 Coeff-En:   0.100D+01
 Coeff:      0.100D+01
 Gap=     0.272 Goal=   None    Shift=    0.000
 GapD=    0.272 DampG=1.000 DampE=0.500 DampFc=0.5000 IDamp=-1.
 Damping current iteration by 5.00D-01
 RMSDP=1.20D-02 MaxDP=2.57D+00              OVMax= 1.38D-01

 Cycle   2  Pass 1  IDiag  1:
 RMSU=  5.59D-03    CP:  1.04D+00
 E= -2158.98999303084     Delta-E=       -0.279007100738 Rises=F Damp=T
 DIIS: error= 2.72D-03 at cycle   2 NSaved=   2.
 NSaved= 2 IEnMin= 2 EnMin= -2158.98999303084     IErMin= 2 ErrMin= 2.72D-03
 ErrMax= 2.72D-03  0.00D+00 EMaxC= 1.00D-01 BMatC= 7.99D-02 BMatP= 1.01D+00
 IDIUse=3 WtCom= 9.73D-01 WtEn= 2.72D-02
 Coeff-Com:  0.566D-01 0.943D+00
 Coeff-En:   0.151D+00 0.849D+00
 Coeff:      0.591D-01 0.941D+00
 Gap=     0.288 Goal=   None    Shift=    0.000
 RMSDP=6.35D-03 MaxDP=2.07D+00 DE=-2.79D-01 OVMax= 8.55D-02

 Cycle   3  Pass 1  IDiag  1:
 RMSU=  3.26D-03    CP:  9.39D-01  8.90D-01
 E= -2159.34926808414     Delta-E=       -0.359275053298 Rises=F Damp=F
 DIIS: error= 2.79D-03 at cycle   3 NSaved=   3.
 NSaved= 3 IEnMin= 3 EnMin= -2159.34926808414     IErMin= 2 ErrMin= 2.72D-03
 ErrMax= 2.79D-03  0.00D+00 EMaxC= 1.00D-01 BMatC= 4.54D-02 BMatP= 7.99D-02
 IDIUse=3 WtCom= 9.72D-01 WtEn= 2.79D-02
 Coeff-Com: -0.693D-01 0.414D+00 0.655D+00
 Coeff-En:   0.000D+00 0.000D+00 0.100D+01
 Coeff:     -0.674D-01 0.402D+00 0.665D+00
 Gap=     0.275 Goal=   None    Shift=    0.000
 RMSDP=1.78D-03 MaxDP=4.56D-01 DE=-3.59D-01 OVMax= 1.73D-02

 Cycle   4  Pass 1  IDiag  1:
 RMSU=  1.53D-03    CP:  9.54D-01  9.52D-01  9.17D-01
 E= -2159.37793457184     Delta-E=       -0.028666487699 Rises=F Damp=F
 DIIS: error= 9.83D-04 at cycle   4 NSaved=   4.
 NSaved= 4 IEnMin= 4 EnMin= -2159.37793457184     IErMin= 4 ErrMin= 9.83D-04
 ErrMax= 9.83D-04  0.00D+00 EMaxC= 1.00D-01 BMatC= 5.49D-03 BMatP= 4.54D-02
 IDIUse=3 WtCom= 9.90D-01 WtEn= 9.83D-03
 Coeff-Com: -0.366D-01 0.123D+00 0.333D+00 0.581D+00
 Coeff-En:   0.000D+00 0.000D+00 0.585D-01 0.941D+00
 Coeff:     -0.362D-01 0.122D+00 0.330D+00 0.584D+00
 Gap=     0.269 Goal=   None    Shift=    0.000
 RMSDP=1.33D-03 MaxDP=3.79D-01 DE=-2.87D-02 OVMax= 5.95D-03

 Cycle   5  Pass 1  IDiag  1:
 RMSU=  3.93D-04    CP:  9.33D-01  9.33D-01  8.86D-01  6.03D-01
 E= -2159.38263659415     Delta-E=       -0.004702022316 Rises=F Damp=F
 DIIS: error= 3.20D-04 at cycle   5 NSaved=   5.
 NSaved= 5 IEnMin= 5 EnMin= -2159.38263659415     IErMin= 5 ErrMin= 3.20D-04
 ErrMax= 3.20D-04  0.00D+00 EMaxC= 1.00D-01 BMatC= 2.37D-04 BMatP= 5.49D-03
 IDIUse=3 WtCom= 9.97D-01 WtEn= 3.20D-03
 Coeff-Com: -0.115D-01 0.258D-01 0.982D-01 0.249D+00 0.638D+00
 Coeff-En:   0.000D+00 0.000D+00 0.000D+00 0.000D+00 0.100D+01
 Coeff:     -0.114D-01 0.257D-01 0.979D-01 0.248D+00 0.640D+00
 Gap=     0.269 Goal=   None    Shift=    0.000
 RMSDP=2.13D-04 MaxDP=4.40D-02 DE=-4.70D-03 OVMax= 1.56D-03

 Cycle   6  Pass 1  IDiag  1:
 RMSU=  9.48D-05    CP:  9.36D-01  9.40D-01  9.10D-01  6.09D-01  7.17D-01
 E= -2159.38281747580     Delta-E=       -0.000180881647 Rises=F Damp=F
 DIIS: error= 5.49D-05 at cycle   6 NSaved=   6.
 NSaved= 6 IEnMin= 6 EnMin= -2159.38281747580     IErMin= 6 ErrMin= 5.49D-05
 ErrMax= 5.49D-05  0.00D+00 EMaxC= 1.00D-01 BMatC= 2.06D-05 BMatP= 2.37D-04
 IDIUse=1 WtCom= 1.00D+00 WtEn= 0.00D+00
 Coeff-Com: -0.391D-02 0.701D-02 0.333D-01 0.976D-01 0.324D+00 0.542D+00
 Coeff:     -0.391D-02 0.701D-02 0.333D-01 0.976D-01 0.324D+00 0.542D+00
 Gap=     0.269 Goal=   None    Shift=    0.000
 RMSDP=5.15D-05 MaxDP=9.01D-03 DE=-1.81D-04 OVMax= 4.57D-04

 Cycle   7  Pass 1  IDiag  1:
[...]
 30,0.00005596,0.00011335,-0.00011875,-0.00016292,0.00005156,-0.0000879
 3,0.00007222,0.00012460,-0.00027128,0.00018113,-0.00009641,-0.00002324
 ,0.00004675,-0.00007789,-0.00306218,0.00039164,-0.00011487,-0.00020154
 ,0.00069665,-0.00104003,0.00044658,0.00032731,0.00025588,-0.00021188,0
 .00037618,-0.00006526,-0.00004939,-0.00001931,-0.00004052,0.00010959,-
 0.00000939,-0.00098534,0.00043326,0.00013840,0.00086540,0.00043842,0.0
 0013665,-0.00022481,0.00125274,0.00033780,0.00023770,-0.00006433,-0.00
 027253,-0.00065524,0.00084009,-0.00169473,0.00118436,-0.00009140,0.002
 08146,0.00018859,0.00018050,-0.00028151,0.00099770,0.00000876,-0.00008
 413,0.00057189,-0.00039299,-0.00043196,0.00089449,-0.00133882,0.000703
 91,-0.00011842,0.00002093,-0.00027719,0.00049086,-0.00016758,-0.000158
 02,-0.00012100,0.00002967,0.00012865,-0.00022588,0.00009481,-0.0001928
 5,0.00041229,0.00041599,-0.00027157,-0.00119705,-0.00012907,0.00058755
 ,-0.00073537,-0.00002808,0.00002186,-0.00058218,-0.00034624,-0.0020636
 6,-0.00040308,0.00044963,0.00159157,-0.00001615,-0.00008442,-0.0001975
 7,0.00019187,0.00012549,-0.00036132,-0.00043125,0.00356668,-0.00206901
 ,0.00121346,-0.00080847,-0.00090094,0.00015532,-0.00005558,-0.00023787
 ,0.00037279,0.00006141,-0.00000484,0.00005265,0.00034070,0.00035050,-0
 .00005690,-0.00005437,0.00001222,0.00001615,0.00001970,-0.00018697,-0.
 00009535,-0.00001373,0.00010487,-0.00018823,-0.00024467,0.00024235,0.0
 0013940,-0.00014439,-0.00014704,0.00009080,0.00007880,0.00016234,0.000
 02194,0.00037642,-0.00003184,0.00029600,-0.00006732,-0.00009591,0.0004
 7613,-0.00030253,0.00038054,0.00060352,-0.00029136,0.00025568,0.000055
 31,0.00001621,-0.00017980,-0.00794275,0.00195996,-0.00669634,0.0004265
 9,-0.00039275,0.00066683,0.00127364,-0.00043034,0.00137942,-0.34365116
 ,0.01480676,0.03459616,-0.00920178,-0.00592084,0.00444496,0.35287328,-
 0.00001469,-0.00013289,-0.00012412,0.00012850,-0.00004709,0.00010617,0
 .00004131,-0.00003481,-0.00000114,0.00007359,-0.00009968,-0.00006980,-
 0.00017600,0.00038288,0.00026390,-0.00075399,-0.00085071,-0.00058899,-
 0.00000256,-0.00000260,0.00001194,-0.00001513,-0.00000028,-0.00000281,
 0.00000528,-0.00000788,-0.00000416,-0.00003289,-0.00003108,0.00000578,
 0.00004822,0.00001588,0.00000751,-0.00003060,-0.00011518,-0.00008258,-
 0.00018548,-0.00002775,-0.00000639,-0.00007350,0.00002876,0.00001103,-
 0.00007171,-0.00000572,-0.00002794,-0.00071135,0.00350561,0.00138630,-
 0.00042723,-0.00049725,0.00003092,-0.00037099,-0.00021325,-0.00015119,
 -0.00312557,-0.01104733,-0.00195236,0.00400876,-0.00024706,0.00009261,
 -0.00000790,0.00003778,0.00003161,0.00000888,0.00000394,-0.00001273,0.
 00004215,-0.00000671,0.00000494,-0.00003050,0.00007049,-0.00021184,0.0
 0000665,0.00006805,0.00028150,0.00008218,-0.00005257,0.00015129,0.0000
 5132,0.00006060,-0.00001237,0.00005486,-0.00028435,0.00025575,-0.00002
 416,-0.00003623,0.00000652,-0.00000694,0.00000187,-0.00002925,0.000024
 23,0.00004375,0.00002063,-0.00001977,0.00000076,-0.00001253,-0.0000287
 1,0.00006673,-0.00004138,-0.00000785,0.00001864,-0.00002680,-0.0003053
 5,0.00037889,-0.00019000,-0.00006091,-0.00006540,-0.00018763,0.0001378
 5,-0.00012505,-0.00028129,0.00012270,-0.00021959,0.00014340,-0.0000057
 0,0.00003601,-0.00002748,-0.00003924,0.00003508,-0.00001165,-0.0000088
 6,0.00042084,-0.00015802,0.00010253,-0.00044097,-0.00010248,0.00015099
 ,0.00004983,-0.00001160,-0.00004857,0.00008740,0.00005568,0.00011695,-
 0.00048390,0.00021619,0.00010250,0.00034528,-0.00000544,0.00025145,-0.
 00003648,-0.00075225,-0.00022292,0.00025097,0.00005552,-0.00023271,0.0
 0007967,0.00053578,-0.00028963,0.00038761,-0.00010590,-0.00006794,-0.0
 0002956,0.00002710,-0.00029694,0.00000857,0.00000652,0.00003654,-0.000
 12460,-0.00000957,0.00007718,-0.00005898,-0.00000631,0.00025977,-0.000
 17429,0.00027853,0.00018904,-0.00015442,-0.00004578,0.00002978,0.00002
 997,0.00033804,-0.00017795,-0.00030947,-0.00005619,0.00003411,0.000018
 80,0.00051646,0.00007696,0.00005512,-0.00014809,-0.00000757,-0.0000139
 4,-0.00001622,0.00187407,-0.00086486,-0.00070725,-0.00043684,-0.000591
 32,0.00052883,-0.00006668,0.00006674,-0.00002102,0.00002580,-0.0000440
 0,-0.00011233,-0.00003058,0.00002911,0.00008952,0.00002437,0.00000497,
 0.00000146,-0.00003837,-0.00000199,0.00002266,-0.00007755,-0.00010817,
 0.00012977,0.00005474,0.00000939,-0.00005730,-0.00001336,0.00001303,0.
 00001125,-0.00001088,0.00031445,0.00016914,-0.00006549,0.00003570,-0.0
 0006400,-0.00000961,0.00002834,0.00007429,0.00059285,-0.00056875,0.001
 63804,0.00054424,0.00020442,-0.00004324,0.00015992,0.00006467,0.000098
 39,0.00986765,-0.00199807,-0.00079891,-0.00080186,0.00004548,-0.000527
 96,0.00053272,-0.00023393,-0.00000606,0.00925397,-0.06269335,-0.003086
 12,-0.03465462,0.00655428,0.00245065,-0.01135558,0.06974142,-0.0000523
 6,0.00003486,-0.00010764,0.00004073,-0.00005301,0.00011358,-0.00001566
 ,0.00000463,0.00000076,0.00001766,0.00001883,0.00002929,0.00007598,-0.
 00005895,0.00002373,0.00024949,0.00012041,0.00013449,-0.00001483,-0.00
 001105,0.00000022,-0.00000478,-0.00000268,-0.00000590,0.00000682,-0.00
 000211,-0.00000922,0.00000728,0.00001335,-0.00001501,0.00006566,0.0000
 1219,-0.00005010,-0.00002415,-0.00001879,-0.00008243,0.00000958,0.0000
 0235,-0.00002674,0.00001328,-0.00000592,-0.00002734,0.00005610,0.00004
 579,-0.00008767,-0.00055042,0.00067419,-0.00133858,0.00001450,-0.00000
 308,0.00028169,-0.00057674,-0.00019242,-0.00014328,0.00121338,-0.00159
 475,-0.00377379,-0.00023406,0.00022486,-0.00004866,-0.00000724,-0.0000
 0207,0.00001702,0.00000171,-0.00000128,0.00001126,-0.00000592,0.000001
 31,0.00001102,0.00003534,-0.00022851,-0.00024827,-0.00021624,0.0003474
 7,0.00028066,-0.00000315,0.00003589,-0.00006488,-0.00005694,0.00002844
 ,0.00009013,0.00003027,-0.00013358,0.00012487,-0.00011058,0.00014177,0
 .00014341,0.00002348,-0.00003893,-0.00002057,-0.00004740,-0.00001481,0
 .00005970,-0.00000087,-0.00000929,-0.00001834,-0.00000084,0.00001731,-
 0.00002874,0.00001735,-0.00001882,-0.00002355,-0.00005438,0.00015053,-
 0.00025942,0.00007962,-0.00007293,-0.00005383,0.00017848,-0.00047415,0
 .00023899,0.00009551,-0.00010126,0.00008285,-0.00000485,0.00002717,-0.
 00001128,-0.00001482,0.00000496,-0.00001553,-0.00004855,0.00013442,-0.
 00023793,0.00008678,-0.00020603,0.00015347,0.00005897,-0.00000576,0.00
 008926,-0.00009949,0.00007908,0.00000952,-0.00080694,0.00015839,-0.000
 17091,0.00064031,-0.00040004,0.00019654,0.00042911,-0.00013199,-0.0012
 9444,-0.00041596,-0.00000075,0.00000361,0.00029232,0.00025838,-0.00081
 276,0.00023369,0.00012943,-0.00027748,-0.00011658,0.00005346,-0.000005
 33,-0.00042841,-0.00032786,0.00020470,0.00007982,-0.00002547,0.0000972
 8,-0.00007662,0.00001294,0.00003297,-0.00035399,0.00033394,0.00005422,
 0.00026082,-0.00003209,0.00005369,-0.00008629,0.00041649,0.00062964,-0
 .00049610,-0.00008313,-0.00073696,0.00005429,0.00013120,0.00009008,-0.
 00003378,-0.00003527,-0.00000398,0.00000156,0.00000421,-0.00002061,-0.
 00054262,-0.00011152,-0.00034873,-0.00008516,0.00018190,0.00022538,-0.
 00008278,-0.00000806,-0.00002823,0.00009138,-0.00011153,-0.00003052,0.
 00010052,0.00002635,0.00028042,-0.00004699,-0.00000970,-0.00002356,-0.
 00001005,0.00000929,-0.00001170,0.00012740,0.00024445,0.00001254,-0.00
 004862,-0.00020976,0.00011547,0.00001766,-0.00012729,-0.00006665,0.000
 40657,-0.00010457,-0.00013685,0.00007250,0.00016729,0.00011343,0.00007
 825,-0.00001975,0.00004768,-0.00100709,0.00153021,-0.00685742,-0.00183
 835,0.00042278,0.00032865,0.00027913,-0.00018336,-0.00004650,-0.032246
 20,0.00125955,0.00704780,-0.00030130,-0.00083061,-0.00007530,0.0002645
 0,0.00061914,0.00105832,0.03410450,-0.00388634,-0.06735090,0.01027854,
 -0.00246604,-0.00110613,-0.03694150,0.00201527,0.07449494,0.00016250,-
 0.00017522,0.00004422,-0.00008217,0.00010009,-0.00009548,-0.00002503,0
 .00002874,0.00001610,-0.00005509,-0.00000255,0.00001019,-0.00004349,-0
 .00002880,0.00000434,-0.00018680,0.00002748,-0.00000067,0.00000392,0.0
 0000200,-0.00000360,0.00000780,0.00000025,-0.00000051,0.00000057,0.000
 00194,0.00000324,-0.00000716,-0.00000294,0.00000184,0.00001371,-0.0000
 0806,-0.00000399,0.00007128,-0.00000439,0.00001752,0.00007276,0.000013
 38,0.00000370,0.00004747,-0.00004076,-0.00001409,0.00000280,-0.0000843
 4,0.00001812,-0.00044630,0.00032684,-0.00010325,-0.00008256,-0.0001157
 7,0.00008247,-0.00009780,-0.00001168,-0.00003726,-0.00084500,-0.001283
 32,-0.00090573,0.00023927,0.00026826,-0.00001871,-0.00001864,-0.000003
 20,-0.00001478,-0.00001558,-0.00000290,0.00000207,-0.00001794,0.000010
 40,-0.00000076,-0.00002936,-0.00007025,-0.00002677,-0.00000728,0.00007
 409,0.00001612,-0.00002529,0.00005354,-0.00004748,0.00001635,0.0000174
 6,0.00000742,-0.00001289,0.00004735,-0.00003738,-0.00000210,0.00002567
 ,0.00000913,0.00000091,-0.00001347,0.00000047,-0.00000316,-0.00000660,
 0.00001688,0.00000431,-0.00000967,0.00000254,0.00000656,-0.00001243,0.
 00000086,0.00000392,-0.00000689,0.00000523,-0.00001444,-0.00013409,0.0
 0000339,0.00001827,-0.00005779,0.00002597,-0.00014919,-0.00013123,0.00
 011122,0.00001468,0.00003178,-0.00000748,-0.00000506,-0.00000348,0.000
 00422,0.00000421,-0.00000282,-0.00000186,-0.00001640,-0.00005838,0.000
 00464,0.00001992,0.00001867,0.00000285,0.00000710,0.00006936,0.0000220
 6,-0.00003445,0.00005900,-0.00001724,-0.00178540,0.00078344,0.00076696
 ,0.00258569,-0.00135234,0.00086789,0.00107179,-0.00016804,-0.00245286,
 -0.00039502,0.00014216,0.00024653,0.00027681,0.00028706,-0.00036544,0.
 00032363,-0.00052069,-0.00032750,-0.00025327,0.00017594,-0.00014101,-0
 .00138459,-0.00036644,0.00034641,0.00010437,-0.00015289,0.00014290,-0.
 00008417,0.00012403,-0.00002230,-0.00005782,0.00008659,0.00018342,-0.0
 0001333,-0.00007733,0.00009514,-0.00044272,0.00048414,0.00099204,-0.00
 290957,-0.00054188,-0.00308573,0.00021581,-0.00017875,-0.00031837,-0.0
 0008233,-0.00006818,0.00004188,-0.00001788,0.00002335,0.00012937,-0.00
 038165,-0.00064734,0.00100818,-0.00000983,-0.00000521,-0.00003630,-0.0
 0005687,0.00002021,-0.00008755,0.00034339,-0.00009968,-0.00014627,-0.0
 0076560,0.00100123,0.00202019,-0.00010057,-0.00009011,-0.00005693,-0.0
 0013740,0.00003937,-0.00016451,-0.00141994,0.00086053,0.00107438,-0.00
 101920,-0.00095881,0.00043801,0.00024720,-0.00052035,-0.00017731,-0.00
 051721,-0.00000522,-0.00027515,0.00027454,0.00109953,-0.00024514,0.000
 49775,0.00003040,0.00020961,0.00040464,-0.00111733,-0.00118658,0.00012
 726,0.00001923,0.00037329,-0.00026828,0.00001546,0.00001058,0.00431330
 ,-0.01439589,-0.01326201,-0.00173879,0.00159854,-0.00368904,0.00010677
 ,0.00023947,0.00079281,-0.07367421,0.04614565,0.04865890,0.00252841,-0
 .00680948,-0.01101407,-0.00210442,0.02624861,0.02791877,0.07770361,-0.
 00008295,-0.00006207,-0.00003927,0.00006093,0.00001719,0.00004440,0.00
 002249,-0.00000607,0.00000186,0.00003762,0.00000278,-0.00001142,-0.000
 01317,0.00009197,0.00006463,-0.00008174,-0.00007194,-0.00005519,0.0000
 0390,0.00000550,0.00000088,-0.00000794,-0.00000044,-0.00000271,0.00000
 443,-0.00000403,-0.00000406,-0.00000728,-0.00000695,0.00000159,0.00001
 897,0.00000446,-0.00000900,-0.00002189,-0.00007098,-0.00005553,-0.0000
 6351,-0.00002871,-0.00000688,-0.00003916,-0.00000013,0.00000234,-0.000
 07188,-0.00003881,0.00000807,0.00034977,0.00060063,0.00013592,-0.00004
 344,-0.00006583,0.00005297,-0.00007875,-0.00002511,-0.00002825,-0.0012
 2993,-0.00017503,-0.00012106,0.00004030,-0.00014794,-0.00006392,-0.000
 00618,0.00002466,0.00001253,0.00000773,0.00000454,-0.00000350,0.000024
 57,-0.00000071,0.00000173,-0.00009128,0.00005891,-0.00001214,0.0001086
 2,-0.00009164,0.00000696,0.00004837,0.00000906,0.00010651,0.00005353,0
 .00001283,-0.00002584,0.00002380,-0.00005899,0.00005629,0.00003335,-0.
 00004726,-0.00005149,-0.00001544,0.00002003,0.00000048,0.00000826,0.00
 002677,-0.00000600,-0.00000688,0.00000167,0.00000041,-0.00001057,0.000
 01479,-0.00000291,-0.00001267,0.00001493,-0.00000864,-0.00009178,0.000
 09674,-0.00002610,-0.00006387,-0.00006012,-0.00009584,-0.00020328,0.00
 008099,-0.00018122,0.00004706,-0.00010173,0.00005412,-0.00000012,-0.00
 000308,-0.00001120,-0.00001814,0.00001766,0.00000244,-0.00011376,0.000
 16248,0.00006319,0.00003086,-0.00002627,-0.00000804,0.00006459,0.00000
 978,-0.00000803,-0.00000876,0.00007396,0.00002883,0.00046968,-0.001050
 57,-0.00342657,-0.00191043,0.00788796,-0.00012162,0.00005294,-0.000244
 99,0.00008938,0.00005583,0.00035193,0.00018724,0.00016100,0.00011675,0
 .00043602,0.00037301,-0.00162663,0.00005208,0.00002056,-0.00111901,0.0
 0014170,-0.00026553,0.00030829,-0.00015488,0.00001271,-0.00006377,-0.0
 0003419,-0.00012313,0.00037188,-0.00031254,0.00014128,-0.00009466,-0.0
 0013570,0.00010140,-0.00026906,-0.00004235,0.00003328,-0.00046642,-0.0
 0013246,-0.00057449,-0.00109062,0.00499340,-0.00014333,-0.00063120,0.0
 0037634,0.00000898,-0.00001378,-0.00001766,-0.00001184,0.00002535,0.00
 002272,-0.00053363,0.00047123,0.00134946,0.00029846,-0.00003047,-0.000
 39529,-0.00007793,0.00007578,-0.00002599,-0.00025965,-0.00003864,-0.00
 022254,0.00294573,-0.00072351,0.00045215,-0.00019145,-0.00005592,-0.00
 013948,-0.00061563,0.00002746,0.00018446,0.00085280,0.00093088,-0.0007
 4154,-0.00062275,-0.00057565,0.00028883,-0.00011745,-0.00040005,-0.000
 00334,0.00117768,0.00262034,0.00010409,-0.00048064,-0.00224622,0.00023
 419,-0.00075000,-0.00054980,-0.00006473,-0.00010430,0.00037280,0.00006
 578,0.00009668,-0.00020971,-0.00014145,-0.00011938,-0.00022639,-0.0002
 3480,-0.00547051,0.01174927,0.00744120,0.00174380,-0.00042020,0.002977
 22,-0.00029559,-0.00000149,0.00063828,0.04611217,-0.20346747,-0.162334
 62,0.00860074,-0.02004510,-0.02514283,0.00105836,-0.00052026,0.0022608
 4,-0.05025426,0.21061319,-0.00023768,0.00016445,-0.00019403,0.00013567
 ,-0.00017327,0.00029355,-0.00000382,-0.00001620,-0.00000884,0.00006197
 ,-0.00004437,-0.00002193,-0.00000042,0.00014503,0.00019331,-0.00004927
 ,-0.00024054,-0.00013932,-0.00001839,-0.00001381,0.00000827,-0.0000233
 5,-0.00000165,-0.00000737,0.00001056,-0.00000714,-0.00001292,0.0000051
 8,0.00001002,-0.00001819,0.00005422,0.00000184,-0.00004230,-0.00005729
 ,-0.00005320,-0.00018387,-0.00008996,0.00000155,-0.00003448,-0.0000202
 4,0.00002583,-0.00002198,0.00006627,0.00011844,-0.00014532,0.00056882,
 0.00065593,0.00048544,0.00003703,0.00000374,0.00006185,-0.00020722,-0.
 00001330,-0.00003391,-0.00194272,-0.00000746,-0.00070625,0.00007013,-0
 .00035629,0.00012402,-0.00000508,0.00000982,0.00004166,0.00000454,-0.0
 0000501,0.00000666,0.00000537,-0.00000477,0.00001446,-0.00001339,-0.00
 023739,-0.00046423,-0.00027792,0.00051163,0.00067239,0.00009785,-0.000
 04495,0.00005272,-0.00007345,0.00002854,0.00011252,0.00009077,-0.00020
 252,0.00020507,-0.00012447,0.00013619,0.00015714,0.00003744,-0.0000531
 6,-0.00005824,-0.00003578,0.00001569,0.00005964,-0.00000346,0.00000079
 ,-0.00002023,-0.00001172,0.00003883,-0.00004776,0.00000923,-0.00001043
 ,-0.00003069,-0.00014252,0.00034249,-0.00021967,0.00007138,-0.00013632
 ,-0.00021982,0.00071452,-0.00080518,-0.00020892,0.00013507,-0.00021825
 ,0.00016773,0.00000208,0.00002755,-0.00001114,-0.00003702,0.00002816,-
 0.00002883,-0.00014843,0.00033320,-0.00016434,0.00010472,-0.00017636,0
 .00003489,0.00006283,-0.00006727,0.00001767,-0.00018921,0.00019021,0.0
 0006195,0.00093563,-0.00279118,-0.00229240,-0.00146586,0.00224799,-0.0
 0811875,-0.00045301,-0.00038602,-0.00056087,-0.00058002,0.00040202,-0.
 00007146,-0.00045763,0.00030091,0.00018513,-0.00123770,0.00251209,-0.0
 0017169,-0.00005367,-0.00041678,0.00056470,-0.00064803,-0.00016832,0.0
 0010303,0.00005464,-0.00008500,-0.00002941,0.00022665,-0.00052001,0.00
 020994,0.00010620,-0.00002926,0.00016176,0.00083114,-0.00026047,-0.000
 01759,0.00074326,0.00031868,0.00048126,-0.00281195,0.00320267,0.004295
 07,-0.00012383,0.00051388,0.00180244,0.00010262,0.00003815,-0.00015505
 ,0.00001876,-0.00008710,-0.00044207,0.00062316,0.00192867,-0.00304634,
 -0.00003198,-0.00019150,0.00002070,-0.00019834,0.00003773,-0.00002604,
 -0.00037787,-0.00030872,-0.00005493,0.00526451,-0.00116229,0.00084934,
 -0.00045088,0.00018058,-0.00004240,-0.00080367,0.00001241,-0.00006237,
 -0.00009659,-0.00031325,0.00039506,0.00043964,0.00018154,0.00010966,-0
 .00014853,0.00005659,-0.00044732,-0.00110920,-0.00027422,0.00101108,0.
 00028308,0.00052291,0.00035614,0.00051326,0.00014541,-0.00013948,0.000
 12275,-0.00092325,0.00165042,0.00089099,-0.00017231,-0.00010270,0.0000
 1951,0.00010685,-0.00004638,0.00202268,-0.01708942,-0.02452354,-0.0016
 6913,0.00263988,-0.00246458,0.00078533,0.00003844,0.00037379,0.0487191
 2,-0.16382934,-0.23515882,-0.00376443,0.00317108,0.01230086,0.00350952
 ,-0.00117246,-0.00087959,-0.04836298,0.17172132,0.25425705\\-0.0000013
 2,-0.00001162,0.00000388,-0.00002732,-0.00003056,-0.00001258,0.0000040
 7,-0.00000787,-0.00001303,-0.00000835,-0.00002353,-0.00001184,0.000004
 12,0.00001295,0.00000729,0.00001008,0.00000104,-0.00000648,0.00000369,
 0.00000659,0.00001394,0.00000315,-0.00000004,0.00000353,0.00000328,-0.
 00000176,-0.00000583,-0.00001212,0.00000362,-0.00001071,-0.00000711,0.
 00000018,-0.00000603,-0.00001128,-0.00000090,-0.00001323,0.00000249,0.
 00000323,-0.00001746,-0.00001138,-0.00001363,0.00000674,0.00000351,0.0
 0002146,0.00000302,0.00001233,0.00001371,0.00000798,0.00000411,0.00000
 063,-0.00000295,-0.00000589,0.00000572,-0.00000142,-0.00000579,0.00000
 516,-0.00000453,-0.00001690,-0.00000710,0.00000179,-0.00000018,-0.0000
 0859,-0.00000664,-0.00000146,-0.00000033,0.00000043,0.00000369,-0.0000
 0314,-0.00000839,0.00001927,-0.00001055,0.00001073,-0.00005406,0.00003
 830,0.00000820,0.00001469,0.00000965,0.00001300,0.00000458,-0.00001562
 ,0.00000018,-0.00000739,0.00001522,-0.00000715,-0.00003203,0.00000896,
 -0.00001876,0.00000710,-0.00000491,0.00001145,0.00000501,0.00000432,-0
 .00000768,0.00001429,0.00000487,0.00000828,-0.00000522,-0.00000706,-0.
 00000057,0.00000293,-0.00001263,0.00000818,-0.00001303,-0.00000168,0.0
 0003242,0.00000581,-0.00001075,0.00003020,0.00003115,-0.00002330,-0.00
 002183,0.00000177,0.00002563,-0.00001256,0.00000054,-0.00000193,0.0000
 2875,-0.00000803,-0.00000432,0.00000295,0.00003883,-0.00001896,0.00000
 003,-0.00002098,-0.00001196,0.00001866,0.00003186,-0.00000444,-0.00003
 453,-0.00002464,0.00002133,-0.00005356,-0.00000667,0.00004110,0.000000
 81,0.00000025,-0.00000991,-0.00004124,-0.00000224,-0.00001896,0.000011
 53,0.00000547,0.00002047,-0.00000653,-0.00002319,0.00001346,0.00000644
 ,0.00001826,-0.00003360,0.00000214,0.00000017,0.00000375,0.00001214,0.
 00001080,-0.00000066,-0.00000795,-0.00000058,-0.00000068,0.00000682,-0
 .00000085,0.00000864,0.00000914,0.00000656,0.00000079,-0.00000706,0.00
 002149,-0.00000626,0.00003455,0.00002113,0.00001846,-0.00001001,0.0000
 1323,0.00000778,-0.00000187,0.00000794,0.00001535,-0.00001558,-0.00000
 147,0.00000453,0.00000859,-0.00000201,-0.00000586,0.00000546,-0.000016
 13,-0.00007448,0.00004652,-0.00001350,0.00007012,-0.00001088,0.0000045
 2,0.00000553,-0.00001058,-0.00000769,0.00000177,0.00000318,-0.00002031
 ,-0.00000641,-0.00001365,0.00000378,0.00000478,0.00000124,0.00000069,-
 0.00000720,-0.00000044,0.00003272,0.00002286,0.00002775,-0.00000285,-0
 .00001205,-0.00000081,-0.00000398,0.00000653,0.00001553,-0.00001061,-0
 .00000119,-0.00000755,-0.00000092,-0.00000675,-0.00000362,-0.00000399,
 -0.00001084,-0.00000560,0.00002455,0.00001051,-0.00000762,-0.00000627,
 -0.00000102,0.00000043,-0.00000823,-0.00000748,0.00000272,0.00000479,-
 0.00001707,0.00000646,-0.00000642,-0.00000098,-0.00000582,-0.00000083,
 0.00000154,-0.00000504,0.00002039,0.00000795,-0.00002115,-0.00000333,-
 0.00000825,0.00000174,0.00000606,-0.00000843,-0.00000777,-0.00001865,0
 .00000677,0.00004372\\\@


 OPTIMIST - A PESSIMIST WHO LACKS EXPERIENCE
 Job cpu time:      24 days 12 hours 58 minutes 24.1 seconds.
 File lengths (MBytes):  RWF=  24128 Int=      0 D2E=      0 Chk=     98 Scr=      1
 Normal termination of Gaussian 09 at Sat Apr  9 19:57:15 2016.
