 Entering Gaussian System, Link 0=g16
 Input=input.com
 Output=input.log
 Initial command:
 /home/matma/Programs/gaussian/G16_x86_SSE4/tar/g16/l1.exe "/scratch-data/gaussian/Gau-9188.inp" -scrdir="/scratch-data/gaussian/"
 Entering Link 1 = /home/matma/Programs/gaussian/G16_x86_SSE4/tar/g16/l1.exe PID=      9190.
  
 Copyright (c) 1988-2017, Gaussian, Inc.  All Rights Reserved.
  
 This is part of the Gaussian(R) 16 program.  It is based on
 the Gaussian(R) 09 system (copyright 2009, Gaussian, Inc.),
 the Gaussian(R) 03 system (copyright 2003, Gaussian, Inc.),
 the Gaussian(R) 98 system (copyright 1998, Gaussian, Inc.),
 the Gaussian(R) 94 system (copyright 1995, Gaussian, Inc.),
 the Gaussian 92(TM) system (copyright 1992, Gaussian, Inc.),
 the Gaussian 90(TM) system (copyright 1990, Gaussian, Inc.),
 the Gaussian 88(TM) system (copyright 1988, Gaussian, Inc.),
 the Gaussian 86(TM) system (copyright 1986, Carnegie Mellon
 University), and the Gaussian 82(TM) system (copyright 1983,
 Carnegie Mellon University). Gaussian is a federally registered
 trademark of Gaussian, Inc.
  
 This software contains proprietary and confidential information,
 including trade secrets, belonging to Gaussian, Inc.
  
 This software is provided under written license and may be
 used, copied, transmitted, or stored only in accord with that
 written license.
  
 The following legend is applicable only to US Government
 contracts under FAR:
  
                    RESTRICTED RIGHTS LEGEND
  
 Use, reproduction and disclosure by the US Government is
 subject to restrictions as set forth in subparagraphs (a)
 and (c) of the Commercial Computer Software - Restricted
 Rights clause in FAR 52.227-19.
  
 Gaussian, Inc.
 340 Quinnipiac St., Bldg. 40, Wallingford CT 06492
  
  
 ---------------------------------------------------------------
 Warning -- This program may not be used in any manner that
 competes with the business of Gaussian, Inc. or will provide
 assistance to any competitor of Gaussian, Inc.  The licensee
 of this program is prohibited from giving any competitor of
 Gaussian, Inc. access to this program.  By using this program,
 the user acknowledges that Gaussian, Inc. is engaged in the
 business of creating and licensing software in the field of
 computational chemistry and represents and warrants to the
 licensee that it is not a competitor of Gaussian, Inc. and that
 it will not use this program in any manner prohibited above.
 ---------------------------------------------------------------
  

 Cite this work as:
 Gaussian 16, Revision B.01,
 M. J. Frisch, G. W. Trucks, H. B. Schlegel, G. E. Scuseria, 
 M. A. Robb, J. R. Cheeseman, G. Scalmani, V. Barone, 
 G. A. Petersson, H. Nakatsuji, X. Li, M. Caricato, A. V. Marenich, 
 J. Bloino, B. G. Janesko, R. Gomperts, B. Mennucci, H. P. Hratchian, 
 J. V. Ortiz, A. F. Izmaylov, J. L. Sonnenberg, D. Williams-Young, 
 F. Ding, F. Lipparini, F. Egidi, J. Goings, B. Peng, A. Petrone, 
 T. Henderson, D. Ranasinghe, V. G. Zakrzewski, J. Gao, N. Rega, 
 G. Zheng, W. Liang, M. Hada, M. Ehara, K. Toyota, R. Fukuda, 
 J. Hasegawa, M. Ishida, T. Nakajima, Y. Honda, O. Kitao, H. Nakai, 
 T. Vreven, K. Throssell, J. A. Montgomery, Jr., J. E. Peralta, 
 F. Ogliaro, M. J. Bearpark, J. J. Heyd, E. N. Brothers, K. N. Kudin, 
 V. N. Staroverov, T. A. Keith, R. Kobayashi, J. Normand, 
 K. Raghavachari, A. P. Rendell, J. C. Burant, S. S. Iyengar, 
 J. Tomasi, M. Cossi, J. M. Millam, M. Klene, C. Adamo, R. Cammi, 
 J. W. Ochterski, R. L. Martin, K. Morokuma, O. Farkas, 
 J. B. Foresman, and D. J. Fox, Gaussian, Inc., Wallingford CT, 2016.
 
 ******************************************
 Gaussian 16:  ES64L-G16RevB.01 20-Dec-2017
                22-Jun-2021 
 ******************************************
 %nproc=12
 Will use up to   12 processors via shared memory.
 %mem=16GB
 --------------------------------------
 #P pm6 opt=loose freq int=(grid=99590)
 --------------------------------------
 1/7=-1,18=20,19=15,26=1,38=1/1,3;
 2/9=110,12=2,17=6,18=5,40=1/2;
 3/5=2,25=1,41=3900000,71=1,75=99590/1,2,3;
 4/35=1/1;
 5/5=2,35=1,38=5/2;
 6/7=2,8=2,9=2,10=2,28=1/1;
 7//1,2,3,16;
 1/7=-1,18=20,19=15,26=1/3(2);
 2/9=110/2;
 99//99;
 2/9=110/2;
 3/5=2,25=1,41=3900000,71=1,75=99590,135=20/1,2,3;
 4/5=5,16=3,35=1/1;
 5/5=2,35=1,38=5/2;
 7//1,2,3,16;
 1/7=-1,18=20,19=15,26=1/3(-5);
 2/9=110/2;
 6/7=2,8=2,9=2,10=2,19=2,28=1/1;
 99/9=1/99;
 Leave Link    1 at Tue Jun 22 14:23:15 2021, MaxMem=  2147483648 cpu:               0.2 elap:               0.0
 (Enter /home/matma/Programs/gaussian/G16_x86_SSE4/tar/g16/l101.exe)
 ------------
 offspring-15
 ------------
 Symbolic Z-matrix:
 Charge =  0 Multiplicity = 1
 O                     0.653     0.351     1.153 
 C                     1.634     1.362     0.891 
 C                     2.85      1.146     1.822 
 O                     3.128    -0.254     1.692 
 C                     2.462     1.469     3.281 
 C                     2.061     2.953     3.385 
 O                     1.663     3.51      2.137 
 C                     0.948     2.719     1.162 
 C                    -0.515     2.585     1.608 
 O                    -0.949     3.831     2.183 
 O                    -2.689     3.534     7.089 
 C                    -1.723     2.564     6.648 
 C                    -1.074     3.072     5.341 
 C                     0.23      2.318     4.996 
 C                     1.088     1.905     6.222 
 O                     0.354     1.583     7.406 
 C                    -0.703     2.491     7.797 
 C                    -1.269     1.835     9.075 
 O                    -2.673     1.616     8.997 
 O                     1.721     0.661     5.929 
 O                     1.018     3.309     4.303 
 O                    -2.069     2.776     4.367 
 O                     3.661     1.28      4.036 
 H                     1.94      1.266    -0.176 
 H                     3.747     1.723     1.504 
 H                     3.791    -0.52      2.376 
 H                     1.665     0.773     3.64 
 H                     2.897     3.633     3.688 
 H                     1.037     3.4       0.278 
 H                    -1.201     2.416     0.758 
 H                    -0.661     1.782     2.359 
 H                    -0.184     4.23      2.709 
 H                    -2.239     1.588     6.482 
 H                    -0.885     4.171     5.375 
 H                     0.014     1.443     4.339 
 H                     1.897     2.63      6.452 
 H                    -0.254     3.487     8.003 
 H                    -0.854     0.812     9.208 
 H                    -1.044     2.447     9.966 
 H                    -3.144     2.465     8.775 
 H                    -1.924     3.326     3.519 
 H                    -3.386     3.631     6.391 
 H                     3.432     0.954     4.952 
 H                     1.285    -0.075     6.432 
 H                     1.1      -0.538     1.191 
 
 ITRead=  0  0  0  0  0  0  0  0  0  0  0  0  0  0  0  0  0  0  0  0
 ITRead=  0  0  0  0  0  0  0  0  0  0  0  0  0  0  0  0  0  0  0  0
 ITRead=  0  0  0  0  0
 MicOpt= -1 -1 -1 -1 -1 -1 -1 -1 -1 -1 -1 -1 -1 -1 -1 -1 -1 -1 -1 -1
 MicOpt= -1 -1 -1 -1 -1 -1 -1 -1 -1 -1 -1 -1 -1 -1 -1 -1 -1 -1 -1 -1
 MicOpt= -1 -1 -1 -1 -1
 NAtoms=     45 NQM=       45 NQMF=       0 NMMI=      0 NMMIF=      0
                NMic=       0 NMicF=      0.
                    Isotopes and Nuclear Properties:
 (Nuclear quadrupole moments (NQMom) in fm**2, nuclear magnetic moments (NMagM)
  in nuclear magnetons)

  Atom         1           2           3           4           5           6           7           8           9          10
 IAtWgt=          16          12          12          16          12          12          16          12          12          16
 AtmWgt=  15.9949146  12.0000000  12.0000000  15.9949146  12.0000000  12.0000000  15.9949146  12.0000000  12.0000000  15.9949146
 NucSpn=           0           0           0           0           0           0           0           0           0           0
 AtZEff=  -0.0000000  -0.0000000  -0.0000000  -0.0000000  -0.0000000  -0.0000000  -0.0000000  -0.0000000  -0.0000000  -0.0000000
 NQMom=    0.0000000   0.0000000   0.0000000   0.0000000   0.0000000   0.0000000   0.0000000   0.0000000   0.0000000   0.0000000
 NMagM=    0.0000000   0.0000000   0.0000000   0.0000000   0.0000000   0.0000000   0.0000000   0.0000000   0.0000000   0.0000000
 AtZNuc=   8.0000000   6.0000000   6.0000000   8.0000000   6.0000000   6.0000000   8.0000000   6.0000000   6.0000000   8.0000000

  Atom        11          12          13          14          15          16          17          18          19          20
 IAtWgt=          16          12          12          12          12          16          12          12          16          16
 AtmWgt=  15.9949146  12.0000000  12.0000000  12.0000000  12.0000000  15.9949146  12.0000000  12.0000000  15.9949146  15.9949146
 NucSpn=           0           0           0           0           0           0           0           0           0           0
 AtZEff=  -0.0000000  -0.0000000  -0.0000000  -0.0000000  -0.0000000  -0.0000000  -0.0000000  -0.0000000  -0.0000000  -0.0000000
 NQMom=    0.0000000   0.0000000   0.0000000   0.0000000   0.0000000   0.0000000   0.0000000   0.0000000   0.0000000   0.0000000
 NMagM=    0.0000000   0.0000000   0.0000000   0.0000000   0.0000000   0.0000000   0.0000000   0.0000000   0.0000000   0.0000000
 AtZNuc=   8.0000000   6.0000000   6.0000000   6.0000000   6.0000000   8.0000000   6.0000000   6.0000000   8.0000000   8.0000000

  Atom        21          22          23          24          25          26          27          28          29          30
 IAtWgt=          16          16          16           1           1           1           1           1           1           1
 AtmWgt=  15.9949146  15.9949146  15.9949146   1.0078250   1.0078250   1.0078250   1.0078250   1.0078250   1.0078250   1.0078250
 NucSpn=           0           0           0           1           1           1           1           1           1           1
 AtZEff=  -0.0000000  -0.0000000  -0.0000000  -0.0000000  -0.0000000  -0.0000000  -0.0000000  -0.0000000  -0.0000000  -0.0000000
 NQMom=    0.0000000   0.0000000   0.0000000   0.0000000   0.0000000   0.0000000   0.0000000   0.0000000   0.0000000   0.0000000
 NMagM=    0.0000000   0.0000000   0.0000000   2.7928460   2.7928460   2.7928460   2.7928460   2.7928460   2.7928460   2.7928460
 AtZNuc=   8.0000000   8.0000000   8.0000000   1.0000000   1.0000000   1.0000000   1.0000000   1.0000000   1.0000000   1.0000000

  Atom        31          32          33          34          35          36          37          38          39          40
 IAtWgt=           1           1           1           1           1           1           1           1           1           1
 AtmWgt=   1.0078250   1.0078250   1.0078250   1.0078250   1.0078250   1.0078250   1.0078250   1.0078250   1.0078250   1.0078250
 NucSpn=           1           1           1           1           1           1           1           1           1           1
 AtZEff=  -0.0000000  -0.0000000  -0.0000000  -0.0000000  -0.0000000  -0.0000000  -0.0000000  -0.0000000  -0.0000000  -0.0000000
 NQMom=    0.0000000   0.0000000   0.0000000   0.0000000   0.0000000   0.0000000   0.0000000   0.0000000   0.0000000   0.0000000
 NMagM=    2.7928460   2.7928460   2.7928460   2.7928460   2.7928460   2.7928460   2.7928460   2.7928460   2.7928460   2.7928460
 AtZNuc=   1.0000000   1.0000000   1.0000000   1.0000000   1.0000000   1.0000000   1.0000000   1.0000000   1.0000000   1.0000000

  Atom        41          42          43          44          45
 IAtWgt=           1           1           1           1           1
 AtmWgt=   1.0078250   1.0078250   1.0078250   1.0078250   1.0078250
 NucSpn=           1           1           1           1           1
 AtZEff=  -0.0000000  -0.0000000  -0.0000000  -0.0000000  -0.0000000
 NQMom=    0.0000000   0.0000000   0.0000000   0.0000000   0.0000000
 NMagM=    2.7928460   2.7928460   2.7928460   2.7928460   2.7928460
 AtZNuc=   1.0000000   1.0000000   1.0000000   1.0000000   1.0000000
 Leave Link  101 at Tue Jun 22 14:23:15 2021, MaxMem=  2147483648 cpu:               3.0 elap:               0.2
 (Enter /home/matma/Programs/gaussian/G16_x86_SSE4/tar/g16/l103.exe)

 GradGradGradGradGradGradGradGradGradGradGradGradGradGradGradGradGradGrad
 Berny optimization.
 Initialization pass.
                           ----------------------------
                           !    Initial Parameters    !
                           ! (Angstroms and Degrees)  !
 --------------------------                            --------------------------
 ! Name  Definition              Value          Derivative Info.                !
 --------------------------------------------------------------------------------
 ! R1    R(1,2)                  1.4329         estimate D2E/DX2                !
 ! R2    R(1,45)                 0.9958         estimate D2E/DX2                !
 ! R3    R(2,3)                  1.5466         estimate D2E/DX2                !
 ! R4    R(2,8)                  1.5445         estimate D2E/DX2                !
 ! R5    R(2,24)                 1.1142         estimate D2E/DX2                !
 ! R6    R(3,4)                  1.4332         estimate D2E/DX2                !
 ! R7    R(3,5)                  1.5439         estimate D2E/DX2                !
 ! R8    R(3,25)                 1.113          estimate D2E/DX2                !
 ! R9    R(4,26)                 0.989          estimate D2E/DX2                !
 ! R10   R(5,6)                  1.5407         estimate D2E/DX2                !
 ! R11   R(5,23)                 1.4295         estimate D2E/DX2                !
 ! R12   R(5,27)                 1.1174         estimate D2E/DX2                !
 ! R13   R(6,7)                  1.4234         estimate D2E/DX2                !
 ! R14   R(6,21)                 1.4343         estimate D2E/DX2                !
 ! R15   R(6,28)                 1.1194         estimate D2E/DX2                !
 ! R16   R(7,8)                  1.4448         estimate D2E/DX2                !
 ! R17   R(8,9)                  1.5353         estimate D2E/DX2                !
 ! R18   R(8,29)                 1.1194         estimate D2E/DX2                !
 ! R19   R(9,10)                 1.4393         estimate D2E/DX2                !
 ! R20   R(9,30)                 1.1053         estimate D2E/DX2                !
 ! R21   R(9,31)                 1.1091         estimate D2E/DX2                !
 ! R22   R(10,32)                1.0105         estimate D2E/DX2                !
 ! R23   R(11,12)                1.4382         estimate D2E/DX2                !
 ! R24   R(11,42)                0.9912         estimate D2E/DX2                !
 ! R25   R(12,13)                1.5452         estimate D2E/DX2                !
 ! R26   R(12,17)                1.5382         estimate D2E/DX2                !
 ! R27   R(12,33)                1.1164         estimate D2E/DX2                !
 ! R28   R(13,14)                1.5453         estimate D2E/DX2                !
 ! R29   R(13,22)                1.4235         estimate D2E/DX2                !
 ! R30   R(13,34)                1.1157         estimate D2E/DX2                !
 ! R31   R(14,15)                1.5524         estimate D2E/DX2                !
 ! R32   R(14,21)                1.4434         estimate D2E/DX2                !
 ! R33   R(14,35)                1.1153         estimate D2E/DX2                !
 ! R34   R(15,16)                1.4298         estimate D2E/DX2                !
 ! R35   R(15,20)                1.4262         estimate D2E/DX2                !
 ! R36   R(15,36)                1.1104         estimate D2E/DX2                !
 ! R37   R(16,17)                1.4473         estimate D2E/DX2                !
 ! R38   R(17,18)                1.544          estimate D2E/DX2                !
 ! R39   R(17,37)                1.1118         estimate D2E/DX2                !
 ! R40   R(18,19)                1.4231         estimate D2E/DX2                !
 ! R41   R(18,38)                1.112          estimate D2E/DX2                !
 ! R42   R(18,39)                1.1041         estimate D2E/DX2                !
 ! R43   R(19,40)                0.996          estimate D2E/DX2                !
 ! R44   R(20,44)                0.9924         estimate D2E/DX2                !
 ! R45   R(22,41)                1.0211         estimate D2E/DX2                !
 ! R46   R(23,43)                0.9989         estimate D2E/DX2                !
 ! A1    A(2,1,45)             109.2422         estimate D2E/DX2                !
 ! A2    A(1,2,3)              109.2489         estimate D2E/DX2                !
 ! A3    A(1,2,8)              106.4841         estimate D2E/DX2                !
 ! A4    A(1,2,24)             107.5988         estimate D2E/DX2                !
 ! A5    A(3,2,8)              111.487          estimate D2E/DX2                !
 ! A6    A(3,2,24)             110.3961         estimate D2E/DX2                !
 ! A7    A(8,2,24)             111.4522         estimate D2E/DX2                !
 ! A8    A(2,3,4)              103.5516         estimate D2E/DX2                !
 ! A9    A(2,3,5)              110.0019         estimate D2E/DX2                !
 ! A10   A(2,3,25)             112.9091         estimate D2E/DX2                !
 ! A11   A(4,3,5)              109.8053         estimate D2E/DX2                !
 ! A12   A(4,3,25)             108.9153         estimate D2E/DX2                !
 ! A13   A(5,3,25)             111.3525         estimate D2E/DX2                !
 ! A14   A(3,4,26)             109.2693         estimate D2E/DX2                !
 ! A15   A(3,5,6)              109.3117         estimate D2E/DX2                !
 ! A16   A(3,5,23)             105.1101         estimate D2E/DX2                !
 ! A17   A(3,5,27)             110.6446         estimate D2E/DX2                !
 ! A18   A(6,5,23)             108.0594         estimate D2E/DX2                !
 ! A19   A(6,5,27)             113.118          estimate D2E/DX2                !
 ! A20   A(23,5,27)            110.2571         estimate D2E/DX2                !
 ! A21   A(5,6,7)              112.9849         estimate D2E/DX2                !
 ! A22   A(5,6,21)             118.1328         estimate D2E/DX2                !
 ! A23   A(5,6,28)             114.1413         estimate D2E/DX2                !
 ! A24   A(7,6,21)             105.1114         estimate D2E/DX2                !
 ! A25   A(7,6,28)             102.0302         estimate D2E/DX2                !
 ! A26   A(21,6,28)            102.6533         estimate D2E/DX2                !
 ! A27   A(6,7,8)              121.0503         estimate D2E/DX2                !
 ! A28   A(2,8,7)              112.3097         estimate D2E/DX2                !
 ! A29   A(2,8,9)              113.4232         estimate D2E/DX2                !
 ! A30   A(2,8,29)             111.1382         estimate D2E/DX2                !
 ! A31   A(7,8,9)              108.863          estimate D2E/DX2                !
 ! A32   A(7,8,29)              99.236          estimate D2E/DX2                !
 ! A33   A(9,8,29)             110.9927         estimate D2E/DX2                !
 ! A34   A(8,9,10)             109.1372         estimate D2E/DX2                !
 ! A35   A(8,9,30)             112.4181         estimate D2E/DX2                !
 ! A36   A(8,9,31)             112.6637         estimate D2E/DX2                !
 ! A37   A(10,9,30)            104.6226         estimate D2E/DX2                !
 ! A38   A(10,9,31)            108.4558         estimate D2E/DX2                !
 ! A39   A(30,9,31)            109.1671         estimate D2E/DX2                !
 ! A40   A(9,10,32)            108.7542         estimate D2E/DX2                !
 ! A41   A(12,11,42)           108.8072         estimate D2E/DX2                !
 ! A42   A(11,12,13)           108.6472         estimate D2E/DX2                !
 ! A43   A(11,12,17)           104.3802         estimate D2E/DX2                !
 ! A44   A(11,12,33)           108.9514         estimate D2E/DX2                !
 ! A45   A(13,12,17)           111.65           estimate D2E/DX2                !
 ! A46   A(13,12,33)           110.8411         estimate D2E/DX2                !
 ! A47   A(17,12,33)           112.0908         estimate D2E/DX2                !
 ! A48   A(12,13,14)           112.5112         estimate D2E/DX2                !
 ! A49   A(12,13,22)           102.5222         estimate D2E/DX2                !
 ! A50   A(12,13,34)           111.6687         estimate D2E/DX2                !
 ! A51   A(14,13,22)           109.6102         estimate D2E/DX2                !
 ! A52   A(14,13,34)           110.1511         estimate D2E/DX2                !
 ! A53   A(22,13,34)           110.127          estimate D2E/DX2                !
 ! A54   A(13,14,15)           114.8278         estimate D2E/DX2                !
 ! A55   A(13,14,21)           103.4668         estimate D2E/DX2                !
 ! A56   A(13,14,35)           110.5415         estimate D2E/DX2                !
 ! A57   A(15,14,21)           105.0764         estimate D2E/DX2                !
 ! A58   A(15,14,35)           111.3182         estimate D2E/DX2                !
 ! A59   A(21,14,35)           111.1958         estimate D2E/DX2                !
 ! A60   A(14,15,16)           115.4789         estimate D2E/DX2                !
 ! A61   A(14,15,20)           108.368          estimate D2E/DX2                !
 ! A62   A(14,15,36)           113.114          estimate D2E/DX2                !
 ! A63   A(16,15,20)           101.6267         estimate D2E/DX2                !
 ! A64   A(16,15,36)           110.4588         estimate D2E/DX2                !
 ! A65   A(20,15,36)           106.7796         estimate D2E/DX2                !
 ! A66   A(15,16,17)           117.2167         estimate D2E/DX2                !
 ! A67   A(12,17,16)           108.1964         estimate D2E/DX2                !
 ! A68   A(12,17,18)           113.2894         estimate D2E/DX2                !
 ! A69   A(12,17,37)           111.3278         estimate D2E/DX2                !
 ! A70   A(16,17,18)           102.9904         estimate D2E/DX2                !
 ! A71   A(16,17,37)           108.4911         estimate D2E/DX2                !
 ! A72   A(18,17,37)           112.0429         estimate D2E/DX2                !
 ! A73   A(17,18,19)           112.4371         estimate D2E/DX2                !
 ! A74   A(17,18,38)           110.6751         estimate D2E/DX2                !
 ! A75   A(17,18,39)           110.9621         estimate D2E/DX2                !
 ! A76   A(19,18,38)           103.4845         estimate D2E/DX2                !
 ! A77   A(19,18,39)           109.3038         estimate D2E/DX2                !
 ! A78   A(38,18,39)           109.7169         estimate D2E/DX2                !
 ! A79   A(18,19,40)           110.3404         estimate D2E/DX2                !
 ! A80   A(15,20,44)           110.3513         estimate D2E/DX2                !
 ! A81   A(6,21,14)            122.2679         estimate D2E/DX2                !
 ! A82   A(13,22,41)           110.9149         estimate D2E/DX2                !
 ! A83   A(5,23,43)            109.5848         estimate D2E/DX2                !
 ! D1    D(45,1,2,3)           -46.8827         estimate D2E/DX2                !
 ! D2    D(45,1,2,8)          -167.4095         estimate D2E/DX2                !
 ! D3    D(45,1,2,24)           72.9873         estimate D2E/DX2                !
 ! D4    D(1,2,3,4)             47.7523         estimate D2E/DX2                !
 ! D5    D(1,2,3,5)            -69.5469         estimate D2E/DX2                !
 ! D6    D(1,2,3,25)           165.3894         estimate D2E/DX2                !
 ! D7    D(8,2,3,4)            165.1692         estimate D2E/DX2                !
 ! D8    D(8,2,3,5)             47.87           estimate D2E/DX2                !
 ! D9    D(8,2,3,25)           -77.1938         estimate D2E/DX2                !
 ! D10   D(24,2,3,4)           -70.3801         estimate D2E/DX2                !
 ! D11   D(24,2,3,5)           172.3207         estimate D2E/DX2                !
 ! D12   D(24,2,3,25)           47.2569         estimate D2E/DX2                !
 ! D13   D(1,2,8,7)            123.8373         estimate D2E/DX2                !
 ! D14   D(1,2,8,9)             -0.1226         estimate D2E/DX2                !
 ! D15   D(1,2,8,29)          -126.0023         estimate D2E/DX2                !
 ! D16   D(3,2,8,7)              4.7614         estimate D2E/DX2                !
 ! D17   D(3,2,8,9)           -119.1985         estimate D2E/DX2                !
 ! D18   D(3,2,8,29)           114.9218         estimate D2E/DX2                !
 ! D19   D(24,2,8,7)          -119.0941         estimate D2E/DX2                !
 ! D20   D(24,2,8,9)           116.946          estimate D2E/DX2                !
 ! D21   D(24,2,8,29)           -8.9337         estimate D2E/DX2                !
 ! D22   D(2,3,4,26)          -169.9386         estimate D2E/DX2                !
 ! D23   D(5,3,4,26)           -52.5019         estimate D2E/DX2                !
 ! D24   D(25,3,4,26)           69.6722         estimate D2E/DX2                !
 ! D25   D(2,3,5,6)            -62.3436         estimate D2E/DX2                !
 ! D26   D(2,3,5,23)          -178.1204         estimate D2E/DX2                !
 ! D27   D(2,3,5,27)            62.8689         estimate D2E/DX2                !
 ! D28   D(4,3,5,6)           -175.6799         estimate D2E/DX2                !
 ! D29   D(4,3,5,23)            68.5433         estimate D2E/DX2                !
 ! D30   D(4,3,5,27)           -50.4674         estimate D2E/DX2                !
 ! D31   D(25,3,5,6)            63.6075         estimate D2E/DX2                !
 ! D32   D(25,3,5,23)          -52.1693         estimate D2E/DX2                !
 ! D33   D(25,3,5,27)         -171.1801         estimate D2E/DX2                !
 ! D34   D(3,5,6,7)             21.9982         estimate D2E/DX2                !
 ! D35   D(3,5,6,21)           145.2221         estimate D2E/DX2                !
 ! D36   D(3,5,6,28)           -93.9912         estimate D2E/DX2                !
 ! D37   D(23,5,6,7)           135.8763         estimate D2E/DX2                !
 ! D38   D(23,5,6,21)         -100.8999         estimate D2E/DX2                !
 ! D39   D(23,5,6,28)           19.8869         estimate D2E/DX2                !
 ! D40   D(27,5,6,7)          -101.7682         estimate D2E/DX2                !
 ! D41   D(27,5,6,21)           21.4557         estimate D2E/DX2                !
 ! D42   D(27,5,6,28)          142.2424         estimate D2E/DX2                !
 ! D43   D(3,5,23,43)         -147.669          estimate D2E/DX2                !
 ! D44   D(6,5,23,43)           95.6937         estimate D2E/DX2                !
 ! D45   D(27,5,23,43)         -28.3991         estimate D2E/DX2                !
 ! D46   D(5,6,7,8)             35.0747         estimate D2E/DX2                !
 ! D47   D(21,6,7,8)           -95.0957         estimate D2E/DX2                !
 ! D48   D(28,6,7,8)           158.0739         estimate D2E/DX2                !
 ! D49   D(5,6,21,14)           -7.925          estimate D2E/DX2                !
 ! D50   D(7,6,21,14)          119.1634         estimate D2E/DX2                !
 ! D51   D(28,6,21,14)        -134.4635         estimate D2E/DX2                !
 ! D52   D(6,7,8,2)            -49.9535         estimate D2E/DX2                !
 ! D53   D(6,7,8,9)             76.5064         estimate D2E/DX2                !
 ! D54   D(6,7,8,29)          -167.4465         estimate D2E/DX2                !
 ! D55   D(2,8,9,10)           164.2482         estimate D2E/DX2                !
 ! D56   D(2,8,9,30)           -80.1433         estimate D2E/DX2                !
 ! D57   D(2,8,9,31)            43.7154         estimate D2E/DX2                !
 ! D58   D(7,8,9,10)            38.4313         estimate D2E/DX2                !
 ! D59   D(7,8,9,30)           154.0398         estimate D2E/DX2                !
 ! D60   D(7,8,9,31)           -82.1014         estimate D2E/DX2                !
 ! D61   D(29,8,9,10)          -69.7948         estimate D2E/DX2                !
 ! D62   D(29,8,9,30)           45.8137         estimate D2E/DX2                !
 ! D63   D(29,8,9,31)          169.6724         estimate D2E/DX2                !
 ! D64   D(8,9,10,32)          -37.4659         estimate D2E/DX2                !
 ! D65   D(30,9,10,32)        -157.9778         estimate D2E/DX2                !
 ! D66   D(31,9,10,32)          85.6126         estimate D2E/DX2                !
 ! D67   D(42,11,12,13)         60.9465         estimate D2E/DX2                !
 ! D68   D(42,11,12,17)       -179.8122         estimate D2E/DX2                !
 ! D69   D(42,11,12,33)        -59.9095         estimate D2E/DX2                !
 ! D70   D(11,12,13,14)        164.1165         estimate D2E/DX2                !
 ! D71   D(11,12,13,22)        -78.2249         estimate D2E/DX2                !
 ! D72   D(11,12,13,34)         39.6495         estimate D2E/DX2                !
 ! D73   D(17,12,13,14)         49.5369         estimate D2E/DX2                !
 ! D74   D(17,12,13,22)        167.1955         estimate D2E/DX2                !
 ! D75   D(17,12,13,34)        -74.9301         estimate D2E/DX2                !
 ! D76   D(33,12,13,14)        -76.1993         estimate D2E/DX2                !
 ! D77   D(33,12,13,22)         41.4593         estimate D2E/DX2                !
 ! D78   D(33,12,13,34)        159.3337         estimate D2E/DX2                !
 ! D79   D(11,12,17,16)       -176.9822         estimate D2E/DX2                !
 ! D80   D(11,12,17,18)         69.4956         estimate D2E/DX2                !
 ! D81   D(11,12,17,37)        -57.8556         estimate D2E/DX2                !
 ! D82   D(13,12,17,16)        -59.7947         estimate D2E/DX2                !
 ! D83   D(13,12,17,18)       -173.3169         estimate D2E/DX2                !
 ! D84   D(13,12,17,37)         59.332          estimate D2E/DX2                !
 ! D85   D(33,12,17,16)         65.2498         estimate D2E/DX2                !
 ! D86   D(33,12,17,18)        -48.2725         estimate D2E/DX2                !
 ! D87   D(33,12,17,37)       -175.6236         estimate D2E/DX2                !
 ! D88   D(12,13,14,15)        -35.3174         estimate D2E/DX2                !
 ! D89   D(12,13,14,21)       -149.2391         estimate D2E/DX2                !
 ! D90   D(12,13,14,35)         91.6336         estimate D2E/DX2                !
 ! D91   D(22,13,14,15)       -148.6964         estimate D2E/DX2                !
 ! D92   D(22,13,14,21)         97.3818         estimate D2E/DX2                !
 ! D93   D(22,13,14,35)        -21.7455         estimate D2E/DX2                !
 ! D94   D(34,13,14,15)         89.9813         estimate D2E/DX2                !
 ! D95   D(34,13,14,21)        -23.9404         estimate D2E/DX2                !
 ! D96   D(34,13,14,35)       -143.0677         estimate D2E/DX2                !
 ! D97   D(12,13,22,41)        160.9234         estimate D2E/DX2                !
 ! D98   D(14,13,22,41)        -79.3756         estimate D2E/DX2                !
 ! D99   D(34,13,22,41)         41.9612         estimate D2E/DX2                !
 ! D100  D(13,14,15,16)         32.782          estimate D2E/DX2                !
 ! D101  D(13,14,15,20)        145.9516         estimate D2E/DX2                !
 ! D102  D(13,14,15,36)        -95.8543         estimate D2E/DX2                !
 ! D103  D(21,14,15,16)        145.7598         estimate D2E/DX2                !
 ! D104  D(21,14,15,20)       -101.0706         estimate D2E/DX2                !
 ! D105  D(21,14,15,36)         17.1235         estimate D2E/DX2                !
 ! D106  D(35,14,15,16)        -93.7711         estimate D2E/DX2                !
 ! D107  D(35,14,15,20)         19.3985         estimate D2E/DX2                !
 ! D108  D(35,14,15,36)        137.5925         estimate D2E/DX2                !
 ! D109  D(13,14,21,6)        -156.3557         estimate D2E/DX2                !
 ! D110  D(15,14,21,6)          82.8697         estimate D2E/DX2                !
 ! D111  D(35,14,21,6)         -37.6802         estimate D2E/DX2                !
 ! D112  D(14,15,16,17)        -46.3669         estimate D2E/DX2                !
 ! D113  D(20,15,16,17)       -163.3951         estimate D2E/DX2                !
 ! D114  D(36,15,16,17)         83.5669         estimate D2E/DX2                !
 ! D115  D(14,15,20,44)       -105.9956         estimate D2E/DX2                !
 ! D116  D(16,15,20,44)         16.0832         estimate D2E/DX2                !
 ! D117  D(36,15,20,44)        131.8537         estimate D2E/DX2                !
 ! D118  D(15,16,17,12)         59.272          estimate D2E/DX2                !
 ! D119  D(15,16,17,18)        179.4674         estimate D2E/DX2                !
 ! D120  D(15,16,17,37)        -61.6332         estimate D2E/DX2                !
 ! D121  D(12,17,18,19)         -8.9005         estimate D2E/DX2                !
 ! D122  D(12,17,18,38)        106.28           estimate D2E/DX2                !
 ! D123  D(12,17,18,39)       -131.6655         estimate D2E/DX2                !
 ! D124  D(16,17,18,19)       -125.5292         estimate D2E/DX2                !
 ! D125  D(16,17,18,38)        -10.3486         estimate D2E/DX2                !
 ! D126  D(16,17,18,39)        111.7059         estimate D2E/DX2                !
 ! D127  D(37,17,18,19)        118.0755         estimate D2E/DX2                !
 ! D128  D(37,17,18,38)       -126.744          estimate D2E/DX2                !
 ! D129  D(37,17,18,39)         -4.6895         estimate D2E/DX2                !
 ! D130  D(17,18,19,40)        -54.2797         estimate D2E/DX2                !
 ! D131  D(38,18,19,40)       -173.7406         estimate D2E/DX2                !
 ! D132  D(39,18,19,40)         69.4132         estimate D2E/DX2                !
 --------------------------------------------------------------------------------
 Trust Radius=3.00D-01 FncErr=1.00D-07 GrdErr=1.00D-07 EigMax=2.50D+02 EigMin=1.00D-04
 Number of steps in this run=    270 maximum allowed number of steps=    270.
 GradGradGradGradGradGradGradGradGradGradGradGradGradGradGradGradGradGrad

 Leave Link  103 at Tue Jun 22 14:23:15 2021, MaxMem=  2147483648 cpu:               0.0 elap:               0.0
 (Enter /home/matma/Programs/gaussian/G16_x86_SSE4/tar/g16/l202.exe)
                          Input orientation:                          
 ---------------------------------------------------------------------
 Center     Atomic      Atomic             Coordinates (Angstroms)
 Number     Number       Type             X           Y           Z
 ---------------------------------------------------------------------
      1          8           0        0.653000    0.351000    1.153000
      2          6           0        1.634000    1.362000    0.891000
      3          6           0        2.850000    1.146000    1.822000
      4          8           0        3.128000   -0.254000    1.692000
      5          6           0        2.462000    1.469000    3.281000
      6          6           0        2.061000    2.953000    3.385000
      7          8           0        1.663000    3.510000    2.137000
      8          6           0        0.948000    2.719000    1.162000
      9          6           0       -0.515000    2.585000    1.608000
     10          8           0       -0.949000    3.831000    2.183000
     11          8           0       -2.689000    3.534000    7.089000
     12          6           0       -1.723000    2.564000    6.648000
     13          6           0       -1.074000    3.072000    5.341000
     14          6           0        0.230000    2.318000    4.996000
     15          6           0        1.088000    1.905000    6.222000
     16          8           0        0.354000    1.583000    7.406000
     17          6           0       -0.703000    2.491000    7.797000
     18          6           0       -1.269000    1.835000    9.075000
     19          8           0       -2.673000    1.616000    8.997000
     20          8           0        1.721000    0.661000    5.929000
     21          8           0        1.018000    3.309000    4.303000
     22          8           0       -2.069000    2.776000    4.367000
     23          8           0        3.661000    1.280000    4.036000
     24          1           0        1.940000    1.266000   -0.176000
     25          1           0        3.747000    1.723000    1.504000
     26          1           0        3.791000   -0.520000    2.376000
     27          1           0        1.665000    0.773000    3.640000
     28          1           0        2.897000    3.633000    3.688000
     29          1           0        1.037000    3.400000    0.278000
     30          1           0       -1.201000    2.416000    0.758000
     31          1           0       -0.661000    1.782000    2.359000
     32          1           0       -0.184000    4.230000    2.709000
     33          1           0       -2.239000    1.588000    6.482000
     34          1           0       -0.885000    4.171000    5.375000
     35          1           0        0.014000    1.443000    4.339000
     36          1           0        1.897000    2.630000    6.452000
     37          1           0       -0.254000    3.487000    8.003000
     38          1           0       -0.854000    0.812000    9.208000
     39          1           0       -1.044000    2.447000    9.966000
     40          1           0       -3.144000    2.465000    8.775000
     41          1           0       -1.924000    3.326000    3.519000
     42          1           0       -3.386000    3.631000    6.391000
     43          1           0        3.432000    0.954000    4.952000
     44          1           0        1.285000   -0.075000    6.432000
     45          1           0        1.100000   -0.538000    1.191000
 ---------------------------------------------------------------------
                    Distance matrix (angstroms):
                    1          2          3          4          5
     1  O    0.000000
     2  C    1.432873   0.000000
     3  C    2.430308   1.546633   0.000000
     4  O    2.604260   2.342028   1.433242   0.000000
     5  C    3.008453   2.531627   1.543876   2.436638   0.000000
     6  C    3.706035   2.988921   2.516096   3.780157   1.540738
     7  O    3.459427   2.483397   2.663961   4.063489   2.472411
     8  C    2.386321   1.544502   2.554904   3.724517   2.888747
     9  C    2.561641   2.574494   3.666025   4.619353   3.592619
    10  O    3.967078   3.799620   4.666042   5.792256   4.291803
    11  O    7.519079   7.862641   8.007768   8.792840   6.730371
    12  C    6.382615   6.771802   6.798039   7.485670   5.481782
    13  C    5.284479   5.482688   5.611650   6.483385   4.395055
    14  C    4.337818   4.442542   4.279283   5.092151   2.940043
    15  C    5.319671   5.386328   4.800076   5.416990   3.275279
    16  O    6.380222   6.643227   6.132050   6.612068   4.633820
    17  C    7.110631   7.377604   7.080498   7.712497   5.608562
    18  C    8.285797   8.696493   8.369402   8.843428   6.901069
    19  O    8.613410   9.182701   9.066700   9.513755   7.685212
    20  O    4.903764   5.087280   4.286877   4.557307   2.865981
    21  O    4.336530   3.976432   3.766982   4.895344   2.552493
    22  O    4.860011   5.272019   5.773256   6.583717   4.839174
    23  O    4.268816   3.742523   2.361667   2.851593   1.429457
    24  H    2.063937   1.114155   2.198751   2.685362   3.502077
    25  H    3.402708   2.229542   1.112952   2.080152   2.207594
    26  H    3.478709   3.224872   1.991972   0.989030   2.557614
    27  H    2.717977   2.811562   2.201926   2.643823   1.117366
    28  H    4.715218   3.817829   3.109555   4.375631   2.244498
    29  H    3.195228   2.210344   3.278936   4.441103   3.844138
    30  H    2.803135   3.027512   4.376711   5.171218   4.547517
    31  H    2.286655   2.756528   3.608322   4.352781   3.271266
    32  H    4.262434   3.851710   4.416218   5.666559   3.866733
    33  H    6.188059   6.805181   6.914397   7.425749   5.688582
    34  H    5.897722   5.860213   5.977011   7.017783   4.784146
    35  H    3.428029   3.810468   3.803471   4.425315   2.666973
    36  H    5.900913   5.709791   4.954530   5.700037   3.423797
    37  H    7.588125   7.659028   7.302045   8.078473   5.809153
    38  H    8.207716   8.698571   8.269472   8.572219   6.823257
    39  H    9.216398   9.523893   9.120338   9.651946   7.611685
    40  H    8.773887   9.284576   9.274266   9.843771   7.912224
    41  H    4.592332   4.839736   5.515731   6.455775   4.768867
    42  H    7.382992   7.784521   8.120264   8.922221   6.967456
    43  H    4.745403   4.459932   3.189434   3.489883   1.999591
    44  H    5.333736   5.734933   5.019180   5.088840   3.701090
    45  H    0.995778   1.996286   2.509286   2.108184   3.201748
                    6          7          8          9         10
     6  C    0.000000
     7  O    1.423431   0.000000
     8  C    2.497049   1.444829   0.000000
     9  C    3.151020   2.424696   1.535331   0.000000
    10  O    3.357944   2.632053   2.424375   1.439270   0.000000
    11  O    6.051419   6.592631   7.001523   5.972289   5.213890
    12  C    5.011701   5.719181   6.103643   5.182789   4.705379
    13  C    3.697069   4.236582   4.655871   3.805908   3.250334
    14  C    2.520140   3.412951   3.921209   3.479204   3.404729
    15  C    3.177043   4.426497   5.126968   4.931633   4.916540
    16  O    4.578121   5.761004   6.374235   5.947770   5.833613
    17  C    5.226747   6.218675   6.841126   6.192568   5.776947
    18  C    6.686922   7.716093   8.265114   7.542354   7.182345
    19  O    7.462766   8.333531   8.701464   7.758431   7.369464
    20  O    3.441046   4.743356   5.249493   5.231875   5.586619
    21  O    1.434332   2.268916   3.196698   3.183911   2.938703
    22  O    4.248830   4.409023   4.401995   3.172299   2.671569
    23  O    2.404731   3.545575   4.206063   5.003717   5.585097
    24  H    3.942249   3.234538   2.210321   3.308994   4.526635
    25  H    2.809565   2.817288   2.990549   4.349541   5.192025
    26  H    4.009078   4.563596   4.477451   5.363999   6.437084
    27  H    2.230301   3.122528   3.231329   3.487803   4.278692
    28  H    1.119422   1.985821   3.318836   4.131156   4.134724
    29  H    3.301793   1.964652   1.119436   2.200416   2.785495
    30  H    4.222575   3.361692   2.207538   1.105286   2.023945
    31  H    3.135794   2.904521   2.213517   1.109110   2.076613
    32  H    2.669781   2.063248   2.440851   2.006935   1.010496
    33  H    5.472169   6.148066   6.303850   5.265174   5.017624
    34  H    3.757997   4.172993   4.818461   4.103972   3.210695
    35  H    2.716694   3.441002   3.548783   3.007053   3.358310
    36  H    3.088319   4.410032   5.375186   5.411479   5.269391
    37  H    5.193294   6.171335   6.988126   6.463571   5.871436
    38  H    6.854811   7.975809   8.462976   7.811431   7.646830
    39  H    7.294287   8.351710   9.030640   8.375861   7.905667
    40  H    7.508813   8.262101   8.646777   7.634915   7.080851
    41  H    4.004661   3.848422   3.764609   2.487224   1.729320
    42  H    6.258237   6.603299   6.852572   5.675724   4.866850
    43  H    2.886370   4.193653   4.863083   5.424141   5.927702
    44  H    4.365223   5.607329   5.974354   5.795393   6.188828
    45  H    4.233703   4.195020   3.260674   3.540515   4.926523
                   11         12         13         14         15
    11  O    0.000000
    12  C    1.438241   0.000000
    13  C    2.424288   1.545158   0.000000
    14  C    3.792079   2.569792   1.545302   0.000000
    15  C    4.203696   2.918472   2.610037   1.552356   0.000000
    16  O    3.628600   2.418854   2.918995   2.522638   1.429789
    17  C    2.352299   1.538158   2.550909   2.957367   2.455952
    18  C    2.974424   2.574468   3.938394   4.372474   3.701345
    19  O    2.705447   2.705366   4.247714   4.992816   4.682870
    20  O    5.389604   3.999938   3.737739   2.416448   1.426210
    21  O    4.642658   3.683359   2.347355   1.443355   2.378797
    22  O    2.892792   2.316813   1.423488   2.427098   3.763817
    23  O    7.397555   6.120348   5.228242   3.710904   3.433591
    24  H    8.907957   7.852983   6.540881   5.548008   6.486033
    25  H    8.711719   7.555721   6.307488   4.991731   5.418757
    26  H    8.979849   7.626614   6.735125   5.253510   5.289475
    27  H    6.202906   4.871785   3.959915   2.506987   2.877686
    28  H    6.540642   5.590059   4.337738   3.248535   3.560846
    29  H    7.764712   6.992381   5.495259   4.907290   6.129336
    30  H    6.598911   5.914938   4.631453   4.474149   5.946086
    31  H    5.436468   4.487192   3.275209   2.834598   4.242275
    32  H    5.093510   4.545305   3.010064   3.009570   4.400543
    33  H    2.087550   1.116417   2.204850   2.972719   3.352166
    34  H    2.568654   2.214774   1.115651   2.195558   3.121681
    35  H    4.386455   3.099240   2.200316   1.115316   2.216441
    36  H    4.717455   3.625903   3.202581   2.235211   1.110408
    37  H    2.601313   2.201344   2.816180   3.262341   2.734163
    38  H    3.907259   3.221531   4.484383   4.602612   3.725884
    39  H    3.487796   3.388784   4.667135   5.132311   4.342433
    40  H    2.047531   2.559916   4.055330   5.068168   4.974056
    41  H    3.656964   3.226714   2.026499   2.799519   4.289242
    42  H    0.991172   1.992513   2.600062   4.092120   4.798366
    43  H    6.977808   5.660613   4.994125   3.480695   2.830484
    44  H    5.408254   4.007373   4.081516   2.983550   2.000827
    45  H    8.107041   6.882629   5.914463   4.836493   5.592795
                   16         17         18         19         20
    16  O    0.000000
    17  C    1.447271   0.000000
    18  C    2.341622   1.544013   0.000000
    19  O    3.419810   2.467088   1.423117   0.000000
    20  O    2.213663   3.565684   4.496186   5.443518   0.000000
    21  O    3.612282   3.979824   5.493180   6.206719   3.185905
    22  O    4.065673   3.702983   4.867314   4.811166   4.612718
    23  O    4.731274   5.886946   7.071382   8.052576   2.780326
    24  H    7.752587   8.488510   9.808284  10.273568   6.138812
    25  H    6.809233   7.745591   9.082557   9.867771   4.981279
    26  H    6.444880   7.658289   8.719302   9.496496   4.278255
    27  H    4.069100   5.083266   6.267011   6.944519   2.292423
    28  H    4.949027   5.581043   7.043304   7.954789   3.903568
    29  H    7.387582   7.771052   9.227896   9.641977   6.316944
    30  H    6.878068   7.056993   8.337546   8.407610   6.193331
    31  H    5.151896   5.484185   6.743673   6.938209   4.435703
    32  H    5.418290   5.401965   6.887613   7.250315   5.170608
    33  H    2.752717   2.214482   2.779489   2.552325   4.104478
    34  H    3.515370   2.953237   4.392534   4.779524   4.406615
    35  H    3.088962   3.683769   4.922342   5.380229   2.460381
    36  H    2.094558   2.930588   4.187566   5.328238   2.044863
    37  H    2.085974   1.111779   2.215516   3.215624   4.023478
    38  H    2.302370   2.198355   1.111955   1.999924   4.171962
    39  H    3.042121   2.196082   1.104106   2.069580   5.208876
    40  H    3.858509   2.629761   2.000631   0.995955   5.917969
    41  H    4.830745   4.526516   5.789753   5.787364   5.118237
    42  H    4.383164   3.236499   3.861497   3.370435   5.925858
    43  H    3.986457   5.249249   6.314641   7.353319   1.991959
    44  H    2.136446   3.521324   4.142036   5.010436   0.992371
    45  H    6.609189   7.487649   8.567424   8.933582   4.926651
                   21         22         23         24         25
    21  O    0.000000
    22  O    3.133330   0.000000
    23  O    3.342690   5.931313   0.000000
    24  H    5.008530   6.244280   4.550053   0.000000
    25  H    4.218677   6.567453   2.571900   2.509282   0.000000
    26  H    5.105301   7.011940   2.452040   3.623355   2.406942
    27  H    2.699903   4.299220   2.097113   3.857529   3.130450
    28  H    2.003458   5.084943   2.498281   4.631310   3.023319
    29  H    4.026073   5.172672   5.049984   2.361246   3.414602
    30  H    4.276498   3.729330   5.972841   3.472857   5.051680
    31  H    2.988295   2.646236   4.663048   3.668471   4.490542
    32  H    2.198609   2.901087   5.024684   4.649720   4.815583
    33  H    4.279945   2.431763   6.394355   7.867445   7.786585
    34  H    2.348113   2.089006   5.551299   6.872645   6.514044
    35  H    2.119261   2.473168   3.663194   4.911826   4.695840
    36  H    2.419067   4.483046   3.281959   6.767033   5.359837
    37  H    3.916589   4.125560   5.994594   8.754571   7.833052
    38  H    5.813641   5.363656   6.881412   9.801633   9.019464
    39  H    6.088059   5.701550   7.659231  10.637630   9.751067
    40  H    6.167120   4.547836   8.376776  10.363641  10.045093
    41  H    3.044718   1.021092   5.970396   5.729496   6.228168
    42  H    4.884531   2.561658   7.793166   8.779806   8.854542
    43  H    3.434330   5.824338   0.998886   5.349747   3.546729
    44  H    4.006917   4.862277   3.636237   6.774435   5.794776
    45  H    4.948806   5.577825   4.237673   2.414271   3.495239
                   26         27         28         29         30
    26  H    0.000000
    27  H    2.790953   0.000000
    28  H    4.446121   3.114439   0.000000
    29  H    5.229964   4.312604   3.891271   0.000000
    30  H    6.013159   4.383986   5.182624   2.491445   0.000000
    31  H    5.011965   2.840655   4.225140   3.135552   1.804649
    32  H    6.202742   4.029443   3.287463   2.844205   2.851541
    33  H    7.593668   4.897183   6.194107   7.246043   5.875985
    34  H    7.270795   4.589023   4.175995   5.501630   4.949401
    35  H    4.687480   1.913975   3.678531   4.622564   3.904679
    36  H    5.488489   3.377812   3.105754   6.280985   6.485756
    37  H    8.005074   5.484900   5.345030   7.832616   7.384705
    38  H    8.368182   6.111424   7.245581   9.487809   8.607887
    39  H    9.475675   7.082318   7.506754   9.954703   9.209391
    40  H    9.897053   7.235853   7.983450   9.515986   8.249239
    41  H    6.982792   4.406061   4.833720   4.390567   2.995655
    42  H    9.211968   6.422520   6.839759   7.548845   6.162884
    43  H    2.989537   2.208256   3.010143   5.793550   6.418081
    44  H    4.788444   2.942578   4.886445   7.071693   6.676792
    45  H    2.940413   2.834704   5.182804   4.042942   3.769377
                   31         32         33         34         35
    31  H    0.000000
    32  H    2.518478   0.000000
    33  H    4.418919   5.043681   0.000000
    34  H    3.854057   2.757252   3.119400   0.000000
    35  H    2.119185   3.234729   3.112793   3.053438   0.000000
    36  H    4.900522   4.571718   4.265344   3.357698   3.069109
    37  H    5.909942   5.346343   3.140043   2.787903   4.204124
    38  H    6.920040   7.373508   3.154596   5.096639   4.985855
    39  H    7.645611   7.522150   3.782084   4.906601   5.812960
    40  H    6.913525   6.976617   2.616487   4.424197   5.540356
    41  H    2.307532   2.121536   3.449527   2.288729   2.823815
    42  H    5.205905   4.916170   2.344726   2.752972   4.534098
    43  H    4.915474   5.370166   5.907884   5.400417   3.506795
    44  H    4.881055   5.878071   3.897005   4.884124   2.881044
    45  H    3.138112   5.165927   6.607835   6.604602   3.874747
                   36         37         38         39         40
    36  H    0.000000
    37  H    2.786907   0.000000
    38  H    4.297518   2.994603   0.000000
    39  H    4.585975   2.357768   1.812150   0.000000
    40  H    5.552948   3.161102   2.857271   2.414292   0.000000
    41  H    4.866924   4.787596   6.311087   6.565885   5.463996
    42  H    5.377342   3.525437   4.721575   4.434799   2.664878
    43  H    2.723087   5.413990   6.041812   6.885043   7.755142
    44  H    2.773440   4.186216   3.615006   4.926853   5.617588
    45  H    6.192702   8.027284   8.361394   9.513547   9.194923
                   41         42         43         44         45
    41  H    0.000000
    42  H    3.237106   0.000000
    43  H    6.030473   7.464729   0.000000
    44  H    5.509088   5.962748   2.803364   0.000000
    45  H    5.430898   8.033975   4.670054   5.264663   0.000000
 Stoichiometry    C12H22O11
 Framework group  C1[X(C12H22O11)]
 Deg. of freedom   129
 Full point group                 C1      NOp   1
 Largest Abelian subgroup         C1      NOp   1
 Largest concise Abelian subgroup C1      NOp   1
                         Standard orientation:                         
 ---------------------------------------------------------------------
 Center     Atomic      Atomic             Coordinates (Angstroms)
 Number     Number       Type             X           Y           Z
 ---------------------------------------------------------------------
      1          8           0       -3.129957    0.528397    1.936863
      2          6           0       -3.733661    0.460398    0.639156
      3          6           0       -3.567749   -0.969653    0.073914
      4          8           0       -3.974469   -1.809914    1.161445
      5          6           0       -2.085164   -1.234552   -0.265682
      6          6           0       -1.629794   -0.251348   -1.361045
      7          8           0       -2.439570    0.917233   -1.430600
      8          6           0       -3.006334    1.503243   -0.237746
      9          6           0       -1.905608    2.268625    0.510476
     10          8           0       -1.055948    2.928116   -0.445896
     11          8           0        3.993411    1.653911   -0.190903
     12          6           0        3.023006    0.687183    0.247605
     13          6           0        1.632674    1.109383   -0.277977
     14          6           0        0.599407   -0.037360   -0.205199
     15          6           0        1.175912   -1.452535   -0.478567
     16          8           0        2.523962   -1.660845   -0.050007
     17          6           0        3.490131   -0.635909   -0.382596
     18          6           0        4.797518   -1.177978    0.234557
     19          8           0        5.409474   -0.244290    1.117165
     20          8           0        0.468832   -2.389950    0.330979
     21          8           0       -0.279775    0.231249   -1.317927
     22          8           0        1.262142    2.144432    0.626290
     23          8           0       -2.058791   -2.553762   -0.815535
     24          1           0       -4.813440    0.708682    0.756517
     25          1           0       -4.225765   -1.168594   -0.801357
     26          1           0       -3.749117   -2.749423    0.949972
     27          1           0       -1.455300   -1.186923    0.656005
     28          1           0       -1.712780   -0.655004   -2.401853
     29          1           0       -3.733828    2.209220   -0.712600
     30          1           0       -2.310353    3.086155    1.134561
     31          1           0       -1.277301    1.606451    1.140461
     32          1           0       -0.943256    2.326249   -1.249736
     33          1           0        3.030327    0.646476    1.363256
     34          1           0        1.689553    1.510070   -1.317637
     35          1           0        0.046272   -0.004894    0.762746
     36          1           0        1.048805   -1.778927   -1.532283
     37          1           0        3.552931   -0.556473   -1.489754
     38          1           0        4.589883   -2.054006    0.887171
     39          1           0        5.517703   -1.462249   -0.552573
     40          1           0        5.549397    0.627408    0.656200
     41          1           0        0.522909    2.727012    0.230355
     42          1           0        3.754256    2.539581    0.184349
     43          1           0       -1.194175   -2.996399   -0.582544
     44          1           0        1.037007   -2.690735    1.086960
     45          1           0       -3.420240   -0.257263    2.475425
 ---------------------------------------------------------------------
 Rotational constants (GHZ):           0.4646580           0.1650653           0.1388582
 Leave Link  202 at Tue Jun 22 14:23:15 2021, MaxMem=  2147483648 cpu:               0.0 elap:               0.0
 (Enter /home/matma/Programs/gaussian/G16_x86_SSE4/tar/g16/l301.exe)
 Standard basis: VSTO-6G (5D, 7F)
 Ernie: Thresh=  0.10000D-02 Tol=  0.10000D-05 Strict=F.
  NNHCO=     0 NNPyr=     0 NCTC=     0               EPep=         0.000000000
    EC=      1207.547076597  ECS=         9.022392213   EG=         0.733655470
   EHC=         0.002708332  EAt=      -175.965002454  AtH=         6.138669069
 EPDDG=         0.000000000  ECC=      1217.305832612 EAtT=       182.103671523
 There are   114 symmetry adapted cartesian basis functions of A   symmetry.
 There are   114 symmetry adapted basis functions of A   symmetry.
   114 basis functions,   684 primitive gaussians,   114 cartesian basis functions
    68 alpha electrons       68 beta electrons
       nuclear repulsion energy      1399.4095041351 Hartrees.
 IExCor=    0 DFT=F Ex=HF Corr=None ExCW=0 ScaHFX=  1.000000
 ScaDFX=  1.000000  1.000000  1.000000  1.000000 ScalE2=  1.000000  1.000000
 IRadAn=  99590 IRanWt=     -1 IRanGd=            0 ICorTp=0 IEmpDi=  4
 Integral buffers will be    131072 words long.
 Regular integral format.
 Two-electron integral symmetry is turned off.
 Leave Link  301 at Tue Jun 22 14:23:15 2021, MaxMem=  2147483648 cpu:               0.2 elap:               0.0
 (Enter /home/matma/Programs/gaussian/G16_x86_SSE4/tar/g16/l302.exe)
 Do NDO integrals.
 NPDir=0 NMtPBC=     1 NCelOv=     1 NCel=       1 NClECP=     1 NCelD=      1
         NCelK=      1 NCelE2=     1 NClLst=     1 CellRange=     0.0.
 One-electron integrals computed using PRISM.
 NBasis=   114 RedAO= F EigKep=  0.00D+00  NBF=   114
 NBsUse=   114 1.00D-04 EigRej=  0.00D+00 NBFU=   114
 Leave Link  302 at Tue Jun 22 14:23:15 2021, MaxMem=  2147483648 cpu:               0.6 elap:               0.0
 (Enter /home/matma/Programs/gaussian/G16_x86_SSE4/tar/g16/l303.exe)
 DipDrv:  MaxL=1.
 Leave Link  303 at Tue Jun 22 14:23:15 2021, MaxMem=  2147483648 cpu:               0.1 elap:               0.0
 (Enter /home/matma/Programs/gaussian/G16_x86_SSE4/tar/g16/l401.exe)
 Simple Huckel Guess.
 JPrj=0 DoOrth=F DoCkMO=F.
 Leave Link  401 at Tue Jun 22 14:23:15 2021, MaxMem=  2147483648 cpu:               0.2 elap:               0.0
 (Enter /home/matma/Programs/gaussian/G16_x86_SSE4/tar/g16/l502.exe)
 Keep J ints in memory in canonical form, NReq=892272.
 FoFCou: FMM=F IPFlag=           0 FMFlag=           0 FMFlg1=           0
         NFxFlg=           0 DoJE=F BraDBF=F KetDBF=F FulRan=T
         wScrn=  0.000000 ICntrl=       600 IOpCl=  2 I1Cent=           0 NGrid=           0
         NMat0=    1 NMatS0=    252 NMatT0=    0 NMatD0=    1 NMtDS0=    0 NMtDT0=    0
 Symmetry not used in FoFCou.
 Two-electron integral symmetry not used.
 Closed shell SCF:
 Using DIIS extrapolation, IDIIS=  1040.
 Overlap will be assumed to be unity.
 NGot=  2147483648 LenX=  2147363403 LenY=  2147349966
 Requested convergence on RMS density matrix=1.00D-08 within 128 cycles.
 Requested convergence on MAX density matrix=1.00D-06.
 Requested convergence on             energy=1.00D-06.
 No special actions if energy rises.

 Cycle   1  Pass 1  IDiag  1:
 E= 0.460071339972501    
 DIIS: error= 5.65D-02 at cycle   1 NSaved=   1.
 NSaved= 1 IEnMin= 1 EnMin= 0.460071339972501     IErMin= 1 ErrMin= 5.65D-02
 ErrMax= 5.65D-02  0.00D+00 EMaxC= 1.00D-01 BMatC= 3.24D-01 BMatP= 3.24D-01
 IDIUse=3 WtCom= 4.35D-01 WtEn= 5.65D-01
 Coeff-Com:  0.100D+01
 Coeff-En:   0.100D+01
 Coeff:      0.100D+01
 GapD=    2.000 DampG=2.000 DampE=0.500 DampFc=1.0000 IDamp=-1.
 RMSDP=8.28D-03 MaxDP=1.26D-01              OVMax= 0.00D+00

 Cycle   2  Pass 1  IDiag  1:
 E=-0.557644700468700     Delta-E=       -1.017716040441 Rises=F Damp=F
 DIIS: error= 1.68D-02 at cycle   2 NSaved=   2.
 NSaved= 2 IEnMin= 2 EnMin=-0.557644700468700     IErMin= 2 ErrMin= 1.68D-02
 ErrMax= 1.68D-02  0.00D+00 EMaxC= 1.00D-01 BMatC= 4.60D-02 BMatP= 3.24D-01
 IDIUse=3 WtCom= 8.32D-01 WtEn= 1.68D-01
 Coeff-Com: -0.435D+00 0.144D+01
 Coeff-En:   0.000D+00 0.100D+01
 Coeff:     -0.362D+00 0.136D+01
 RMSDP=4.77D-03 MaxDP=5.66D-02 DE=-1.02D+00 OVMax= 0.00D+00

 Cycle   3  Pass 1  IDiag  3:
 E=-0.763258680159879     Delta-E=       -0.205613979691 Rises=F Damp=F
 DIIS: error= 5.42D-03 at cycle   3 NSaved=   3.
 NSaved= 3 IEnMin= 3 EnMin=-0.763258680159879     IErMin= 3 ErrMin= 5.42D-03
 ErrMax= 5.42D-03  0.00D+00 EMaxC= 1.00D-01 BMatC= 4.59D-03 BMatP= 4.60D-02
 IDIUse=3 WtCom= 9.46D-01 WtEn= 5.42D-02
 Coeff-Com:  0.270D+00-0.107D+01 0.180D+01
 Coeff-En:   0.000D+00 0.000D+00 0.100D+01
 Coeff:      0.255D+00-0.102D+01 0.176D+01
 Gap=     0.405 Goal=   None    Shift=    0.000
 RMSDP=2.40D-03 MaxDP=3.93D-02 DE=-2.06D-01 OVMax= 2.55D-02

 Cycle   4  Pass 1  IDiag  3:
 E=-0.793678960337275     Delta-E=       -0.030420280177 Rises=F Damp=F
 DIIS: error= 1.05D-03 at cycle   4 NSaved=   4.
 NSaved= 4 IEnMin= 4 EnMin=-0.793678960337275     IErMin= 4 ErrMin= 1.05D-03
 ErrMax= 1.05D-03  0.00D+00 EMaxC= 1.00D-01 BMatC= 2.01D-04 BMatP= 4.59D-03
 IDIUse=3 WtCom= 9.90D-01 WtEn= 1.05D-02
 Coeff-Com: -0.573D-01 0.249D+00-0.613D+00 0.142D+01
 Coeff-En:   0.000D+00 0.000D+00 0.000D+00 0.100D+01
 Coeff:     -0.567D-01 0.246D+00-0.607D+00 0.142D+01
 Gap=     0.403 Goal=   None    Shift=    0.000
 RMSDP=5.70D-04 MaxDP=1.02D-02 DE=-3.04D-02 OVMax= 6.77D-03

 Cycle   5  Pass 1  IDiag  3:
 E=-0.795092803639591     Delta-E=       -0.001413843302 Rises=F Damp=F
 DIIS: error= 2.13D-04 at cycle   5 NSaved=   5.
 NSaved= 5 IEnMin= 5 EnMin=-0.795092803639591     IErMin= 5 ErrMin= 2.13D-04
 ErrMax= 2.13D-04  0.00D+00 EMaxC= 1.00D-01 BMatC= 9.25D-06 BMatP= 2.01D-04
 IDIUse=3 WtCom= 9.98D-01 WtEn= 2.13D-03
 Coeff-Com:  0.932D-03-0.438D-02 0.587D-01-0.370D+00 0.131D+01
 Coeff-En:   0.000D+00 0.000D+00 0.000D+00 0.000D+00 0.100D+01
 Coeff:      0.930D-03-0.437D-02 0.585D-01-0.369D+00 0.131D+01
 Gap=     0.404 Goal=   None    Shift=    0.000
 RMSDP=9.75D-05 MaxDP=1.31D-03 DE=-1.41D-03 OVMax= 1.59D-03

 Cycle   6  Pass 1  IDiag  3:
 E=-0.795147589667067     Delta-E=       -0.000054786027 Rises=F Damp=F
 DIIS: error= 1.08D-04 at cycle   6 NSaved=   6.
 NSaved= 6 IEnMin= 6 EnMin=-0.795147589667067     IErMin= 6 ErrMin= 1.08D-04
 ErrMax= 1.08D-04  0.00D+00 EMaxC= 1.00D-01 BMatC= 6.94D-07 BMatP= 9.25D-06
 IDIUse=3 WtCom= 9.99D-01 WtEn= 1.08D-03
 Coeff-Com:  0.283D-02-0.122D-01 0.778D-02 0.839D-01-0.587D+00 0.150D+01
 Coeff-En:   0.000D+00 0.000D+00 0.000D+00 0.000D+00 0.000D+00 0.100D+01
 Coeff:      0.283D-02-0.122D-01 0.777D-02 0.838D-01-0.587D+00 0.150D+01
 Gap=     0.404 Goal=   None    Shift=    0.000
 RMSDP=3.05D-05 MaxDP=5.85D-04 DE=-5.48D-05 OVMax= 5.19D-04

 Cycle   7  Pass 1  IDiag  3:
 E=-0.795152138450476     Delta-E=       -0.000004548783 Rises=F Damp=F
 DIIS: error= 3.08D-05 at cycle   7 NSaved=   7.
 NSaved= 7 IEnMin= 7 EnMin=-0.795152138450476     IErMin= 7 ErrMin= 3.08D-05
 ErrMax= 3.08D-05  0.00D+00 EMaxC= 1.00D-01 BMatC= 4.23D-08 BMatP= 6.94D-07
 IDIUse=1 WtCom= 1.00D+00 WtEn= 0.00D+00
 Coeff-Com: -0.116D-02 0.525D-02-0.430D-02-0.298D-01 0.239D+00-0.776D+00
 Coeff-Com:  0.157D+01
 Coeff:     -0.116D-02 0.525D-02-0.430D-02-0.298D-01 0.239D+00-0.776D+00
 Coeff:      0.157D+01
 Gap=     0.404 Goal=   None    Shift=    0.000
 RMSDP=7.69D-06 MaxDP=2.06D-04 DE=-4.55D-06 OVMax= 1.19D-04

 Cycle   8  Pass 1  IDiag  3:
 E=-0.795152428855317     Delta-E=       -0.000000290405 Rises=F Damp=F
 DIIS: error= 6.07D-06 at cycle   8 NSaved=   8.
 NSaved= 8 IEnMin= 8 EnMin=-0.795152428855317     IErMin= 8 ErrMin= 6.07D-06
 ErrMax= 6.07D-06  0.00D+00 EMaxC= 1.00D-01 BMatC= 3.11D-09 BMatP= 4.23D-08
 IDIUse=1 WtCom= 1.00D+00 WtEn= 0.00D+00
 Coeff-Com:  0.294D-03-0.149D-02 0.112D-02 0.924D-02-0.760D-01 0.269D+00
 Coeff-Com: -0.753D+00 0.155D+01
 Coeff:      0.294D-03-0.149D-02 0.112D-02 0.924D-02-0.760D-01 0.269D+00
 Coeff:     -0.753D+00 0.155D+01
 Gap=     0.404 Goal=   None    Shift=    0.000
 RMSDP=2.21D-06 MaxDP=5.57D-05 DE=-2.90D-07 OVMax= 2.75D-05

 Cycle   9  Pass 1  IDiag  3:
 E=-0.795152451209788     Delta-E=       -0.000000022354 Rises=F Damp=F
 DIIS: error= 2.16D-06 at cycle   9 NSaved=   9.
 NSaved= 9 IEnMin= 9 EnMin=-0.795152451209788     IErMin= 9 ErrMin= 2.16D-06
 ErrMax= 2.16D-06  0.00D+00 EMaxC= 1.00D-01 BMatC= 2.55D-10 BMatP= 3.11D-09
 IDIUse=1 WtCom= 1.00D+00 WtEn= 0.00D+00
 Coeff-Com: -0.668D-04 0.408D-03-0.340D-03-0.206D-02 0.200D-01-0.778D-01
 Coeff-Com:  0.255D+00-0.749D+00 0.155D+01
 Coeff:     -0.668D-04 0.408D-03-0.340D-03-0.206D-02 0.200D-01-0.778D-01
 Coeff:      0.255D+00-0.749D+00 0.155D+01
 Gap=     0.404 Goal=   None    Shift=    0.000
 RMSDP=6.46D-07 MaxDP=1.86D-05 DE=-2.24D-08 OVMax= 7.55D-06

 Cycle  10  Pass 1  IDiag  3:
 E=-0.795152453081983     Delta-E=       -0.000000001872 Rises=F Damp=F
 DIIS: error= 7.31D-07 at cycle  10 NSaved=  10.
 NSaved=10 IEnMin=10 EnMin=-0.795152453081983     IErMin=10 ErrMin= 7.31D-07
 ErrMax= 7.31D-07  0.00D+00 EMaxC= 1.00D-01 BMatC= 2.57D-11 BMatP= 2.55D-10
 IDIUse=1 WtCom= 1.00D+00 WtEn= 0.00D+00
 Coeff-Com:  0.210D-04-0.134D-03 0.171D-03 0.280D-04-0.308D-02 0.143D-01
 Coeff-Com: -0.533D-01 0.201D+00-0.694D+00 0.153D+01
 Coeff:      0.210D-04-0.134D-03 0.171D-03 0.280D-04-0.308D-02 0.143D-01
 Coeff:     -0.533D-01 0.201D+00-0.694D+00 0.153D+01
 Gap=     0.404 Goal=   None    Shift=    0.000
 RMSDP=2.08D-07 MaxDP=5.68D-06 DE=-1.87D-09 OVMax= 2.43D-06

 Cycle  11  Pass 1  IDiag  3:
 E=-0.795152453261608     Delta-E=       -0.000000000180 Rises=F Damp=F
 DIIS: error= 2.03D-07 at cycle  11 NSaved=  11.
 NSaved=11 IEnMin=11 EnMin=-0.795152453261608     IErMin=11 ErrMin= 2.03D-07
 ErrMax= 2.03D-07  0.00D+00 EMaxC= 1.00D-01 BMatC= 2.34D-12 BMatP= 2.57D-11
 IDIUse=1 WtCom= 1.00D+00 WtEn= 0.00D+00
 Coeff-Com: -0.669D-05 0.406D-04-0.740D-04 0.227D-03-0.415D-03 0.181D-03
 Coeff-Com:  0.302D-02-0.289D-01 0.174D+00-0.661D+00 0.151D+01
 Coeff:     -0.669D-05 0.406D-04-0.740D-04 0.227D-03-0.415D-03 0.181D-03
 Coeff:      0.302D-02-0.289D-01 0.174D+00-0.661D+00 0.151D+01
 Gap=     0.404 Goal=   None    Shift=    0.000
 RMSDP=6.16D-08 MaxDP=1.56D-06 DE=-1.80D-10 OVMax= 6.88D-07

 Cycle  12  Pass 1  IDiag  3:
 E=-0.795152453255696     Delta-E=        0.000000000006 Rises=F Damp=F
 DIIS: error= 4.70D-08 at cycle  12 NSaved=  12.
 NSaved=12 IEnMin=11 EnMin=-0.795152453261608     IErMin=12 ErrMin= 4.70D-08
 ErrMax= 4.70D-08  0.00D+00 EMaxC= 1.00D-01 BMatC= 2.10D-13 BMatP= 2.34D-12
 IDIUse=1 WtCom= 1.00D+00 WtEn= 0.00D+00
 Coeff-Com:  0.176D-05-0.107D-04 0.251D-04-0.123D-03 0.476D-03-0.125D-02
 Coeff-Com:  0.264D-02-0.158D-02-0.262D-01 0.181D+00-0.727D+00 0.157D+01
 Coeff:      0.176D-05-0.107D-04 0.251D-04-0.123D-03 0.476D-03-0.125D-02
 Coeff:      0.264D-02-0.158D-02-0.262D-01 0.181D+00-0.727D+00 0.157D+01
 Gap=     0.404 Goal=   None    Shift=    0.000
 RMSDP=1.89D-08 MaxDP=4.27D-07 DE= 5.91D-12 OVMax= 1.85D-07

 Cycle  13  Pass 1  IDiag  3:
 E=-0.795152453265246     Delta-E=       -0.000000000010 Rises=F Damp=F
 DIIS: error= 1.35D-08 at cycle  13 NSaved=  13.
 NSaved=13 IEnMin=13 EnMin=-0.795152453265246     IErMin=13 ErrMin= 1.35D-08
 ErrMax= 1.35D-08  0.00D+00 EMaxC= 1.00D-01 BMatC= 1.59D-14 BMatP= 2.10D-13
 IDIUse=1 WtCom= 1.00D+00 WtEn= 0.00D+00
 Coeff-Com: -0.371D-06 0.248D-05-0.826D-05 0.561D-04-0.265D-03 0.785D-03
 Coeff-Com: -0.196D-02 0.365D-02 0.283D-03-0.488D-01 0.283D+00-0.851D+00
 Coeff-Com:  0.161D+01
 Coeff:     -0.371D-06 0.248D-05-0.826D-05 0.561D-04-0.265D-03 0.785D-03
 Coeff:     -0.196D-02 0.365D-02 0.283D-03-0.488D-01 0.283D+00-0.851D+00
 Coeff:      0.161D+01
 Gap=     0.404 Goal=   None    Shift=    0.000
 RMSDP=5.06D-09 MaxDP=1.12D-07 DE=-9.55D-12 OVMax= 6.08D-08

 Cycle  14  Pass 2  IDiag  1:
 SCF Done:  E(RPM6) = -0.795152453265     A.U. after   14 cycles
            NFock= 13  Conv=0.51D-08     -V/T= 0.9974
 KE=-3.045678719531D+02 PE=-2.400833197422D+03 EE= 1.305196412787D+03
 Leave Link  502 at Tue Jun 22 14:23:15 2021, MaxMem=  2147483648 cpu:               0.5 elap:               0.0
 (Enter /home/matma/Programs/gaussian/G16_x86_SSE4/tar/g16/l601.exe)
 Copying SCF densities to generalized density rwf, IOpCl= 0 IROHF=0.

 **********************************************************************

            Population analysis using the SCF Density.

 **********************************************************************

 Orbital symmetries:
       Occupied  (A) (A) (A) (A) (A) (A) (A) (A) (A) (A) (A) (A)
                 (A) (A) (A) (A) (A) (A) (A) (A) (A) (A) (A) (A)
                 (A) (A) (A) (A) (A) (A) (A) (A) (A) (A) (A) (A)
                 (A) (A) (A) (A) (A) (A) (A) (A) (A) (A) (A) (A)
                 (A) (A) (A) (A) (A) (A) (A) (A) (A) (A) (A) (A)
                 (A) (A) (A) (A) (A) (A) (A) (A)
       Virtual   (A) (A) (A) (A) (A) (A) (A) (A) (A) (A) (A) (A)
                 (A) (A) (A) (A) (A) (A) (A) (A) (A) (A) (A) (A)
                 (A) (A) (A) (A) (A) (A) (A) (A) (A) (A) (A) (A)
                 (A) (A) (A) (A) (A) (A) (A) (A) (A) (A)
 The electronic state is 1-A.
 Alpha  occ. eigenvalues --   -1.17707  -1.16435  -1.14654  -1.14108  -1.12754
 Alpha  occ. eigenvalues --   -1.11656  -1.10728  -1.10334  -1.09326  -1.09142
 Alpha  occ. eigenvalues --   -1.07238  -1.02935  -1.00704  -0.99559  -0.98622
 Alpha  occ. eigenvalues --   -0.92578  -0.91695  -0.88567  -0.85338  -0.83603
 Alpha  occ. eigenvalues --   -0.82390  -0.77273  -0.75525  -0.74061  -0.72177
 Alpha  occ. eigenvalues --   -0.70979  -0.70007  -0.68713  -0.68206  -0.66603
 Alpha  occ. eigenvalues --   -0.64971  -0.64835  -0.64300  -0.63172  -0.62291
 Alpha  occ. eigenvalues --   -0.61609  -0.60852  -0.60245  -0.59580  -0.58677
 Alpha  occ. eigenvalues --   -0.56628  -0.56295  -0.55499  -0.55131  -0.54114
 Alpha  occ. eigenvalues --   -0.53104  -0.51893  -0.51375  -0.50268  -0.50155
 Alpha  occ. eigenvalues --   -0.49529  -0.49028  -0.48739  -0.48288  -0.47219
 Alpha  occ. eigenvalues --   -0.47014  -0.45871  -0.45264  -0.43379  -0.42803
 Alpha  occ. eigenvalues --   -0.42473  -0.41620  -0.41485  -0.40749  -0.40446
 Alpha  occ. eigenvalues --   -0.39556  -0.39346  -0.38989
 Alpha virt. eigenvalues --    0.00914   0.02272   0.02972   0.04285   0.05153
 Alpha virt. eigenvalues --    0.05487   0.06114   0.07059   0.07250   0.07275
 Alpha virt. eigenvalues --    0.08059   0.08318   0.08589   0.08879   0.09503
 Alpha virt. eigenvalues --    0.09666   0.09909   0.10300   0.10761   0.11091
 Alpha virt. eigenvalues --    0.11423   0.11902   0.12685   0.13606   0.14479
 Alpha virt. eigenvalues --    0.15521   0.16175   0.16308   0.16534   0.16647
 Alpha virt. eigenvalues --    0.16853   0.17229   0.17382   0.17668   0.17777
 Alpha virt. eigenvalues --    0.17938   0.18142   0.18564   0.18967   0.19035
 Alpha virt. eigenvalues --    0.19116   0.19288   0.19463   0.20206   0.21145
 Alpha virt. eigenvalues --    0.21362
          Condensed to atoms (all electrons):
               1          2          3          4          5          6
     1  O    6.559766   0.000000   0.000000   0.000000   0.000000   0.000000
     2  C    0.000000   3.927279   0.000000   0.000000   0.000000   0.000000
     3  C    0.000000   0.000000   3.916244   0.000000   0.000000   0.000000
     4  O    0.000000   0.000000   0.000000   6.559511   0.000000   0.000000
     5  C    0.000000   0.000000   0.000000   0.000000   4.013021   0.000000
     6  C    0.000000   0.000000   0.000000   0.000000   0.000000   3.681112
     7  O    0.000000   0.000000   0.000000   0.000000   0.000000   0.000000
     8  C    0.000000   0.000000   0.000000   0.000000   0.000000   0.000000
     9  C    0.000000   0.000000   0.000000   0.000000   0.000000   0.000000
    10  O    0.000000   0.000000   0.000000   0.000000   0.000000   0.000000
    11  O    0.000000   0.000000   0.000000   0.000000   0.000000   0.000000
    12  C    0.000000   0.000000   0.000000   0.000000   0.000000   0.000000
    13  C    0.000000   0.000000   0.000000   0.000000   0.000000   0.000000
    14  C    0.000000   0.000000   0.000000   0.000000   0.000000   0.000000
    15  C    0.000000   0.000000   0.000000   0.000000   0.000000   0.000000
    16  O    0.000000   0.000000   0.000000   0.000000   0.000000   0.000000
    17  C    0.000000   0.000000   0.000000   0.000000   0.000000   0.000000
    18  C    0.000000   0.000000   0.000000   0.000000   0.000000   0.000000
    19  O    0.000000   0.000000   0.000000   0.000000   0.000000   0.000000
    20  O    0.000000   0.000000   0.000000   0.000000   0.000000   0.000000
    21  O    0.000000   0.000000   0.000000   0.000000   0.000000   0.000000
    22  O    0.000000   0.000000   0.000000   0.000000   0.000000   0.000000
    23  O    0.000000   0.000000   0.000000   0.000000   0.000000   0.000000
    24  H    0.000000   0.000000   0.000000   0.000000   0.000000   0.000000
    25  H    0.000000   0.000000   0.000000   0.000000   0.000000   0.000000
    26  H    0.000000   0.000000   0.000000   0.000000   0.000000   0.000000
    27  H    0.000000   0.000000   0.000000   0.000000   0.000000   0.000000
    28  H    0.000000   0.000000   0.000000   0.000000   0.000000   0.000000
    29  H    0.000000   0.000000   0.000000   0.000000   0.000000   0.000000
    30  H    0.000000   0.000000   0.000000   0.000000   0.000000   0.000000
    31  H    0.000000   0.000000   0.000000   0.000000   0.000000   0.000000
    32  H    0.000000   0.000000   0.000000   0.000000   0.000000   0.000000
    33  H    0.000000   0.000000   0.000000   0.000000   0.000000   0.000000
    34  H    0.000000   0.000000   0.000000   0.000000   0.000000   0.000000
    35  H    0.000000   0.000000   0.000000   0.000000   0.000000   0.000000
    36  H    0.000000   0.000000   0.000000   0.000000   0.000000   0.000000
    37  H    0.000000   0.000000   0.000000   0.000000   0.000000   0.000000
    38  H    0.000000   0.000000   0.000000   0.000000   0.000000   0.000000
    39  H    0.000000   0.000000   0.000000   0.000000   0.000000   0.000000
    40  H    0.000000   0.000000   0.000000   0.000000   0.000000   0.000000
    41  H    0.000000   0.000000   0.000000   0.000000   0.000000   0.000000
    42  H    0.000000   0.000000   0.000000   0.000000   0.000000   0.000000
    43  H    0.000000   0.000000   0.000000   0.000000   0.000000   0.000000
    44  H    0.000000   0.000000   0.000000   0.000000   0.000000   0.000000
    45  H    0.000000   0.000000   0.000000   0.000000   0.000000   0.000000
               7          8          9         10         11         12
     1  O    0.000000   0.000000   0.000000   0.000000   0.000000   0.000000
     2  C    0.000000   0.000000   0.000000   0.000000   0.000000   0.000000
     3  C    0.000000   0.000000   0.000000   0.000000   0.000000   0.000000
     4  O    0.000000   0.000000   0.000000   0.000000   0.000000   0.000000
     5  C    0.000000   0.000000   0.000000   0.000000   0.000000   0.000000
     6  C    0.000000   0.000000   0.000000   0.000000   0.000000   0.000000
     7  O    6.469543   0.000000   0.000000   0.000000   0.000000   0.000000
     8  C    0.000000   3.933337   0.000000   0.000000   0.000000   0.000000
     9  C    0.000000   0.000000   4.044345   0.000000   0.000000   0.000000
    10  O    0.000000   0.000000   0.000000   6.558013   0.000000   0.000000
    11  O    0.000000   0.000000   0.000000   0.000000   6.561277   0.000000
    12  C    0.000000   0.000000   0.000000   0.000000   0.000000   3.924160
    13  C    0.000000   0.000000   0.000000   0.000000   0.000000   0.000000
    14  C    0.000000   0.000000   0.000000   0.000000   0.000000   0.000000
    15  C    0.000000   0.000000   0.000000   0.000000   0.000000   0.000000
    16  O    0.000000   0.000000   0.000000   0.000000   0.000000   0.000000
    17  C    0.000000   0.000000   0.000000   0.000000   0.000000   0.000000
    18  C    0.000000   0.000000   0.000000   0.000000   0.000000   0.000000
    19  O    0.000000   0.000000   0.000000   0.000000   0.000000   0.000000
    20  O    0.000000   0.000000   0.000000   0.000000   0.000000   0.000000
    21  O    0.000000   0.000000   0.000000   0.000000   0.000000   0.000000
    22  O    0.000000   0.000000   0.000000   0.000000   0.000000   0.000000
    23  O    0.000000   0.000000   0.000000   0.000000   0.000000   0.000000
    24  H    0.000000   0.000000   0.000000   0.000000   0.000000   0.000000
    25  H    0.000000   0.000000   0.000000   0.000000   0.000000   0.000000
    26  H    0.000000   0.000000   0.000000   0.000000   0.000000   0.000000
    27  H    0.000000   0.000000   0.000000   0.000000   0.000000   0.000000
    28  H    0.000000   0.000000   0.000000   0.000000   0.000000   0.000000
    29  H    0.000000   0.000000   0.000000   0.000000   0.000000   0.000000
    30  H    0.000000   0.000000   0.000000   0.000000   0.000000   0.000000
    31  H    0.000000   0.000000   0.000000   0.000000   0.000000   0.000000
    32  H    0.000000   0.000000   0.000000   0.000000   0.000000   0.000000
    33  H    0.000000   0.000000   0.000000   0.000000   0.000000   0.000000
    34  H    0.000000   0.000000   0.000000   0.000000   0.000000   0.000000
    35  H    0.000000   0.000000   0.000000   0.000000   0.000000   0.000000
    36  H    0.000000   0.000000   0.000000   0.000000   0.000000   0.000000
    37  H    0.000000   0.000000   0.000000   0.000000   0.000000   0.000000
    38  H    0.000000   0.000000   0.000000   0.000000   0.000000   0.000000
    39  H    0.000000   0.000000   0.000000   0.000000   0.000000   0.000000
    40  H    0.000000   0.000000   0.000000   0.000000   0.000000   0.000000
    41  H    0.000000   0.000000   0.000000   0.000000   0.000000   0.000000
    42  H    0.000000   0.000000   0.000000   0.000000   0.000000   0.000000
    43  H    0.000000   0.000000   0.000000   0.000000   0.000000   0.000000
    44  H    0.000000   0.000000   0.000000   0.000000   0.000000   0.000000
    45  H    0.000000   0.000000   0.000000   0.000000   0.000000   0.000000
              13         14         15         16         17         18
     1  O    0.000000   0.000000   0.000000   0.000000   0.000000   0.000000
     2  C    0.000000   0.000000   0.000000   0.000000   0.000000   0.000000
     3  C    0.000000   0.000000   0.000000   0.000000   0.000000   0.000000
     4  O    0.000000   0.000000   0.000000   0.000000   0.000000   0.000000
     5  C    0.000000   0.000000   0.000000   0.000000   0.000000   0.000000
     6  C    0.000000   0.000000   0.000000   0.000000   0.000000   0.000000
     7  O    0.000000   0.000000   0.000000   0.000000   0.000000   0.000000
     8  C    0.000000   0.000000   0.000000   0.000000   0.000000   0.000000
     9  C    0.000000   0.000000   0.000000   0.000000   0.000000   0.000000
    10  O    0.000000   0.000000   0.000000   0.000000   0.000000   0.000000
    11  O    0.000000   0.000000   0.000000   0.000000   0.000000   0.000000
    12  C    0.000000   0.000000   0.000000   0.000000   0.000000   0.000000
    13  C    3.912732   0.000000   0.000000   0.000000   0.000000   0.000000
[...]
 ,0.02917024,-0.07733416,-0.03923422,0.01384860,-0.01848751,-0.00273820
 ,0.00094371,0.00262635,0.00003114,-0.00033559,-0.00021470,-0.00050052,
 0.00050551,-0.00026145,-0.00005793,-0.00005991,-0.00047029,-0.00298630
 ,0.00305527,0.00092271,0.00076835,-0.00008123,-0.00025493,-0.00078379,
 -0.00028481,0.00048273,0.00027394,-0.00059577,0.00001886,0.00073411,-0
 .00005324,-0.00072359,-0.00092485,-0.00001192,-0.00144784,0.00012519,-
 0.00006242,-0.00001245,-0.00001393,-0.00000333,0.00003868,-0.00002781,
 -0.00001897,-0.00000045,-0.00005996,0.00003438,0.00001441,-0.00003614,
 0.00002106,0.00006073,0.00000543,-0.00006312,-0.00010156,-0.00000963,-
 0.00005647,0.00002926,0.00006884,0.00001621,0.00005747,0.00002974,0.00
 001055,0.00008033,0.00003452,-0.00005724,0.00024287,0.00228338,0.00067
 956,-0.00049470,-0.00072174,-0.00041514,0.00031071,0.00012224,0.000119
 75,0.00013170,-0.00005513,-0.00008054,0.00002922,0.00009895,-0.0001280
 2,0.00009777,-0.00008458,0.00009383,-0.00002224,-0.00011858,-0.0000358
 2,-0.00006764,0.00108640,0.00067066,-0.00098483,0.00006881,-0.00042032
 ,0.00089216,0.14867919,-0.00002186,-0.00005933,0.00002921,0.00002306,0
 .00003321,-0.00000559,-0.00001030,0.00000484,-0.00000413,-0.00000498,-
 0.00002353,0.00001697,-0.00000924,-0.00000844,-0.00000025,-0.00003394,
 -0.00002891,-0.00006646,0.00001993,-0.00005158,0.00001898,0.00000605,-
 0.00000858,0.00002453,-0.00001982,0.00006803,0.00006823,-0.00007253,-0
 .00025674,0.00000283,0.01294661,-0.01875632,-0.01093663,0.02979715,-0.
 01079172,0.01985418,0.00031546,0.00095439,-0.00017757,-0.00005179,-0.0
 0032698,0.00012926,-0.00002138,0.00006594,0.00002218,0.00094397,-0.000
 34867,0.00072350,0.00234783,-0.00307033,-0.00228748,0.00036853,0.00015
 149,-0.00006782,-0.00070067,-0.00018152,-0.00049256,-0.00007666,-0.000
 06292,0.00005591,-0.00012480,-0.00003362,0.00011802,-0.00019078,-0.001
 23110,0.00039139,-0.00000115,-0.00002598,0.00001954,-0.00000071,-0.000
 00284,-0.00000213,0.00000360,0.00000503,-0.00000164,0.00000597,0.00000
 631,-0.00001059,0.00001881,0.00001512,-0.00001099,-0.00000273,0.000021
 67,0.00001438,-0.00000577,0.00001402,-0.00000535,0.00000695,0.00000767
 ,-0.00001019,0.00002875,0.00002211,-0.00003891,-0.00002249,0.00011085,
 0.00005588,0.00173874,-0.00149941,-0.00008823,-0.00031541,0.00030068,0
 .00014753,0.00006598,0.00001870,-0.00000514,-0.00000837,0.00002094,0.0
 0000339,-0.00013757,0.00009051,-0.00023738,0.00001250,-0.00006348,0.00
 004167,-0.00000349,-0.00003279,0.00008657,0.00042764,0.00033622,0.0008
 8494,-0.00027460,0.00050669,-0.00018225,-0.04704723,0.03403195,-0.0000
 6473,0.00004001,-0.00004800,0.00001336,-0.00001345,0.00001097,0.000001
 93,0.00000972,0.00003100,-0.00002343,0.00001665,-0.00006167,0.00006533
 ,-0.00000545,0.00003169,-0.00001110,0.00002684,0.00044305,-0.00021570,
 0.00005935,-0.00024262,0.00008131,0.00009621,0.00006328,0.00005294,-0.
 00025421,-0.00015888,-0.00050087,0.00014285,0.00047645,-0.10327284,0.0
 0842963,-0.11889086,0.00403054,0.00258286,0.00927453,0.00496128,-0.001
 99896,0.00148564,-0.00067559,0.00015844,-0.00021583,-0.00080481,-0.000
 03499,0.00126712,0.00226607,-0.00057263,-0.00028339,0.00016097,-0.0015
 1361,-0.00170774,0.00003701,-0.00000960,-0.00024223,0.00016825,-0.0001
 4284,0.00060513,0.00023077,-0.00017686,-0.00036099,0.00032444,0.000194
 23,-0.00059672,-0.00331985,0.00187756,0.00030084,-0.00002800,0.0000441
 9,-0.00016333,-0.00000400,0.00000294,-0.00000074,-0.00000013,-0.000003
 21,-0.00000568,0.00000132,-0.00000429,0.00003950,-0.00001900,-0.000015
 43,0.00005268,0.00002339,-0.00001024,-0.00003168,-0.00000493,-0.000020
 72,-0.00001066,0.00002796,0.00000737,-0.00001200,0.00003816,-0.0000206
 6,0.00003495,0.00025139,-0.00001671,0.00000553,0.00124426,-0.00008513,
 0.00035785,0.00027942,-0.00015454,-0.00016792,-0.00000505,0.00002283,0
 .00010061,-0.00006378,-0.00004160,-0.00007375,-0.00006096,-0.00028350,
 -0.00013625,-0.00002834,0.00011253,-0.00003652,-0.00005510,-0.00005855
 ,-0.00004168,-0.00061261,-0.00003620,-0.00109310,0.00056948,-0.0003649
 6,-0.00078784,0.09507119,-0.00802663,0.11054492,-0.00027506,-0.0003559
 0,0.00010593,0.00065754,-0.00008268,-0.00097544,-0.00485584,0.00076681
 ,-0.00282437,0.00002619,0.00023892,0.00036986,0.00157652,0.01388433,-0
 .03881027,-0.00114835,-0.00010326,-0.00347810,-0.00021786,0.00055595,0
 .00053891,0.00013415,-0.00018444,-0.00004896,0.00010096,-0.00015100,-0
 .00005913,-0.00017020,0.00007890,0.00032923,0.00027811,-0.00015379,0.0
 0005359,-0.00018722,0.00010411,0.00003642,-0.00047010,-0.00005673,-0.0
 0008025,0.00062268,0.00042959,-0.00064395,-0.00277717,0.00340817,0.001
 38438,0.00144569,-0.00070875,-0.00092031,-0.00065667,0.00046836,-0.000
 12279,-0.00010932,-0.00013227,0.00001821,0.00026474,-0.00004760,-0.000
 11700,-0.00433221,-0.00130640,0.00155866,-0.00091162,-0.00051249,0.001
 41628,0.00032102,-0.00013658,0.00050891,-0.04789467,-0.02142243,0.0549
 7925,-0.00027258,0.00006641,-0.00007231,-0.00025705,-0.00000999,0.0002
 9434,0.00016312,-0.00009131,0.00012793,-0.00013208,0.00021950,-0.00178
 128,-0.00007336,-0.00004426,0.00001276,0.00001176,-0.00002244,0.000034
 53,0.00001570,-0.00000111,-0.00000312,0.00002780,0.00004548,-0.0000785
 9,0.00002775,0.00001936,-0.00014344,-0.00004457,-0.00003279,-0.0000026
 8,0.00007054,0.00005807,-0.00003052,-0.00012547,-0.00005111,-0.0001756
 5,0.00042358,0.00020122,0.00035807,0.00008499,0.00003674,0.00001901,0.
 00001012,-0.00002629,0.00005590,0.00002930,0.00003835,0.00002763,-0.00
 007233,0.00006962,0.00004233,0.00010044,0.00016893,-0.00035361,-0.0000
 9433,0.00001496,-0.00008211,0.05736553,-0.00019587,-0.00063883,0.00013
 410,0.00064708,0.00014440,-0.00048495,-0.00165117,0.00200393,-0.001513
 62,0.00051282,-0.00133239,0.00086375,0.00272059,-0.00564560,0.00986084
 ,0.00282409,-0.00185974,0.00185468,-0.00052657,-0.00039017,-0.00038539
 ,0.00024773,0.00026605,0.00001795,-0.00000682,-0.00009267,-0.00007674,
 -0.00017167,-0.00000242,0.00007851,-0.00005311,-0.00003120,0.00008907,
 0.00000071,0.00000387,-0.00010148,0.00002186,-0.00005722,0.00010275,0.
 00047800,0.00005369,-0.00030267,0.00060661,0.00242288,-0.00087275,0.00
 020730,-0.00063713,0.00012832,-0.00015808,-0.00002425,-0.00005845,0.00
 004993,-0.00003392,-0.00001001,-0.00000280,-0.00004014,0.00001896,0.00
 114153,-0.00370490,-0.00033552,-0.00091084,-0.00027343,0.00008741,-0.0
 0007254,-0.00007042,0.00007503,-0.01119320,-0.02289506,0.06095309,-0.0
 0016564,0.00002633,0.00000953,-0.00015279,-0.00011441,-0.00001639,-0.0
 0010444,0.00061062,-0.00106162,-0.00059009,0.00173277,-0.00155793,0.00
 014009,-0.00027246,0.00031919,-0.00004430,-0.00010335,-0.00000882,0.00
 003159,0.00002169,0.00003506,0.00002631,0.00006037,-0.00001897,0.00014
 650,-0.00000577,0.00000765,0.00000233,0.00004049,0.00000958,0.00001233
 ,0.00001104,-0.00000869,0.00003980,0.00009601,-0.00002168,0.00062924,-
 0.00016758,-0.00023896,0.00006234,0.00001200,-0.00001292,-0.00001645,0
 .00004768,0.00000786,-0.00000310,0.00000618,0.00000421,-0.00000545,0.0
 0002579,-0.00002680,0.00008905,0.00004665,-0.00011297,0.00003005,0.000
 01560,-0.00002736,0.00566219,0.02998800,0.00051593,0.00044007,0.000335
 21,-0.00035313,-0.00028521,-0.00022839,-0.00165645,-0.00072431,-0.0026
 8659,-0.00028565,0.00092853,0.00076807,-0.00949557,0.01254550,-0.03741
 047,-0.00183356,0.00238438,0.00221048,0.00077545,-0.00118957,0.0003073
 4,-0.00034007,-0.00004778,-0.00007812,-0.00008387,0.00031055,0.0002442
 4,0.00041121,-0.00022102,-0.00045278,-0.00013875,0.00009890,-0.0002417
 2,0.00006279,-0.00008136,0.00014315,0.00032798,0.00007562,-0.00007234,
 -0.00112587,-0.00096419,0.00083019,0.00295787,-0.00378805,0.00011238,-
 0.00177465,0.00072919,0.00035052,0.00086181,-0.00047731,0.00007528,0.0
 0011576,0.00013818,-0.00001690,-0.00032221,0.00008712,-0.00000218,-0.0
 0309484,0.00102667,0.00014816,0.00207668,-0.00012856,-0.00263519,-0.00
 014903,0.00013845,-0.00067488,0.02468078,0.05747680,-0.16475727,0.0001
 0057,0.00000048,-0.00013646,0.00017346,0.00023980,0.00008983,0.0004845
 1,-0.00063206,-0.00060902,-0.00043339,-0.00158504,0.00203382,0.0004814
 1,0.00015465,0.00012282,0.00002558,0.00012830,-0.00009232,-0.00007246,
 -0.00002396,-0.00006336,-0.00009469,-0.00004731,0.00004118,-0.00024487
 ,0.00008399,0.00012901,0.00003281,0.00002847,0.00000155,-0.00002381,-0
 .00003125,0.00005871,-0.00013517,0.00029625,0.00018790,0.00000491,-0.0
 0008511,-0.00016839,-0.00007955,-0.00000165,0.00001475,0.00004467,-0.0
 0001015,-0.00003244,0.00000105,-0.00003451,-0.00001552,0.00007754,-0.0
 0010295,0.00004101,-0.00027843,-0.00017964,0.00051780,0.00004014,-0.00
 001767,0.00012313,-0.01134363,-0.06724965,0.20154344,-0.00009511,-0.00
 019156,0.00009863,0.00009933,0.00012095,-0.00001190,-0.00001127,-0.000
 01213,-0.00000820,-0.00008971,-0.00001215,-0.00004196,0.00000057,-0.00
 005042,-0.00001875,-0.00026624,0.00002164,0.00053515,-0.00011078,-0.00
 003929,-0.00027110,0.00007429,0.00010243,0.00007219,-0.00004396,0.0000
 0527,0.00001481,-0.00007255,-0.00008985,-0.00005086,-0.00004855,-0.000
 23870,0.00016107,0.00004908,0.00011084,-0.00025117,0.00039079,0.000006
 51,-0.00035016,-0.00262189,0.00309011,0.00101453,0.01192673,0.01268743
 ,-0.01210658,-0.00157159,-0.00220341,-0.00003250,-0.00030042,-0.000091
 57,0.00050823,0.00011030,-0.00006357,-0.00003392,-0.00001800,-0.000188
 54,-0.00011834,-0.05700219,-0.06000715,0.05839962,0.00009727,-0.000085
 68,-0.00058623,-0.00047681,-0.00018861,-0.00025630,-0.00024728,-0.0000
 5019,0.00026482,-0.00001029,-0.00001039,0.00000327,0.00000433,0.000007
 34,-0.00000284,0.00005895,-0.00002105,0.00008417,0.00015936,0.00012389
 ,0.00000287,0.00001263,0.00000329,-0.00001082,-0.00001232,-0.00001691,
 -0.00000897,0.00001161,0.00001538,0.00000197,0.00002617,0.00007128,-0.
 00003046,0.00007600,0.00001108,0.00007109,-0.00005552,0.00032223,0.000
 02660,-0.00004748,-0.00001936,0.00009340,0.00016498,0.00067002,-0.0000
 1312,-0.00121946,0.00118499,0.00019537,0.00010554,-0.00003935,-0.00007
 398,-0.00004813,0.00022630,0.00022082,0.00002333,-0.00001739,0.0000591
 1,-0.00004221,0.00009135,-0.00000059,0.00000121,0.00001936,0.00002898,
 0.00004308,0.00006043,-0.00007133,0.00129517,-0.00018491,-0.00069810,0
 .04963654,-0.00007854,-0.00045454,0.00000993,0.00021104,0.00016778,-0.
 00004274,-0.00014787,0.00048177,0.00013498,0.00017897,-0.00059636,0.00
 011635,0.00005119,0.00003328,-0.00011434,-0.00050997,-0.00001299,0.001
 44400,-0.00020076,-0.00002827,-0.00077513,0.00013636,0.00031068,0.0001
 5325,-0.00012027,0.00002745,-0.00003708,-0.00003429,-0.00003634,-0.000
 28322,-0.00053284,0.00012112,-0.00002226,0.00027772,-0.00018460,-0.000
 05869,0.00065428,-0.00014796,0.00001345,-0.00042685,-0.00146856,0.0012
 2561,-0.00780296,-0.05528294,0.01631412,0.00007438,-0.00152646,-0.0028
 0456,0.00122707,-0.00129282,0.00043247,0.00027258,0.00021309,-0.000045
 45,-0.00051251,-0.00012506,0.00021765,-0.03798066,-0.11955822,0.054901
 34,0.00083719,0.00059590,-0.00105766,-0.00065159,0.00009262,-0.0005526
 5,0.00021587,-0.00036563,-0.00047516,-0.00003438,-0.00000784,0.0000399
 0,-0.00002826,-0.00003688,-0.00003739,-0.00005977,0.00021740,-0.000148
 38,-0.00003751,0.00023400,0.00046172,-0.00002991,-0.00007918,-0.000066
 39,-0.00002548,-0.00007285,0.00000994,0.00003975,0.00003539,0.00004896
 ,0.00004294,0.00004790,0.00007381,0.00011095,-0.00007210,0.00018115,0.
 00010396,0.00027081,0.00002660,-0.00007319,-0.00009735,0.00000696,0.00
 020401,0.00035329,0.00028599,0.00105009,-0.00395148,-0.00096966,-0.000
 21648,-0.00003597,0.00002577,-0.00012081,0.00037625,-0.00002099,-0.000
 06088,-0.00006318,0.00000081,0.00008849,-0.00003525,-0.00011503,0.0000
 1513,-0.00016700,0.00027252,0.00017654,0.00004319,0.00009337,-0.001067
 30,0.00043294,0.00086749,0.04481170,0.18139319,0.00002392,-0.00006208,
 0.00027992,0.00000912,0.00007158,-0.00001988,0.00004347,-0.00012278,-0
 .00016534,-0.00022489,0.00008059,0.00021769,0.00020012,-0.00012902,0.0
 0008486,0.00007860,0.00002242,-0.00064312,0.00010708,-0.00009644,0.000
 34022,-0.00004855,-0.00011944,-0.00000970,0.00001184,0.00005801,0.0001
 0537,0.00007212,-0.00011909,0.00001978,0.00017915,-0.00001295,-0.00040
 158,-0.00034112,0.00013993,0.00045501,-0.00062766,0.00007530,-0.000228
 09,-0.00051710,0.00070144,-0.00087879,-0.00692821,-0.00521892,0.006248
 84,-0.00063386,0.00118101,-0.00073518,0.00088963,0.00029655,-0.0011221
 9,0.00010125,0.00009314,-0.00001158,-0.00019881,0.00024316,-0.00017847
 ,0.05221700,0.07597909,-0.05587891,-0.00033096,-0.00040085,0.00061664,
 0.00040676,-0.00007147,0.00010518,-0.00040666,-0.00000812,-0.00039311,
 0.00001869,-0.00001014,-0.00004649,0.00004946,0.00004864,0.00000045,0.
 00020352,-0.00002690,-0.00009281,0.00036504,0.00045082,-0.00044486,0.0
 0006640,0.00005787,0.00004624,0.00001093,0.00005422,-0.00003380,-0.000
 03700,-0.00000882,-0.00004304,-0.00002991,0.00005865,-0.00008121,-0.00
 006456,0.00006760,-0.00005201,-0.00001629,-0.00003028,0.00005760,0.000
 07720,0.00002498,-0.00003106,-0.00038371,0.00049036,-0.00027174,0.0025
 2318,-0.00368609,-0.00090173,-0.00022997,0.00007399,0.00013838,0.00029
 358,-0.00033212,-0.00014378,0.00003406,-0.00001507,-0.00007182,0.00005
 425,-0.00015192,0.00013554,-0.00008949,0.00007718,-0.00004143,-0.00008
 094,-0.00001795,0.00008248,-0.00008942,-0.00001987,0.00019415,-0.04674
 602,-0.06966144,0.05399141,-0.07358736,0.08622437,0.00044320,0.0114011
 8,-0.02948588,0.00162682,-0.00140991,-0.00686422,-0.00099923,-0.002068
 03,0.00131031,0.00076419,-0.00000822,0.00010953,0.00022164,0.00021741,
 -0.00062385,0.00107111,-0.00025906,-0.00068748,-0.00126345,-0.00350630
 ,-0.00301877,0.00201034,-0.00054808,0.00020345,0.00003579,0.00011103,-
 0.00008230,-0.00018253,-0.00000954,-0.00000622,-0.00003457,-0.00001867
 ,0.00000613,0.00000640,0.00011381,0.00000832,0.00009589,-0.00006381,-0
 .00005924,-0.00001363,0.00018656,-0.00022566,-0.00002496,-0.00012630,0
 .00004018,0.00001742,0.00006820,-0.00003754,0.00000567,0.00000336,0.00
 000874,0.00000105,-0.00002530,0.00000690,-0.00002526,-0.00019049,0.000
 22129,0.00011186,-0.00004349,0.00024679,-0.00015523,-0.00005111,-0.000
 03044,-0.00022519,-0.00021185,0.00048755,0.00010395,-0.00090066,-0.001
 69214,0.00017169,-0.00009334,0.00040009,0.00007812,0.00073307,0.001144
 12,-0.00059597,0.00023561,-0.00006340,-0.00015659,-0.00001714,0.000122
 67,-0.00008800,0.00033227,-0.00032439,-0.00024907,0.00000730,-0.000005
 94,-0.00000069,0.00006715,0.00008164,-0.00000065,-0.00000243,0.0000582
 7,0.00010812,0.00000937,0.00001342,0.00001114,-0.00000991,0.00000341,0
 .00000626,0.00006774,0.00003487,0.00005961,-0.00000745,0.00002057,-0.0
 0001573,-0.00000409,0.00000504,0.00000148,0.00000667,-0.00000544,0.000
 00280,0.00000249,-0.00000083,0.00000310,0.00000541,-0.00000694,0.00001
 964,-0.00006027,-0.00001055,0.00015745,0.00000511,0.00000539,0.0000233
 0,0.00002483,-0.00012037,-0.00019568,0.00004512,-0.00002634,-0.0000120
 8,0.06958002,0.05303912,-0.16151603,0.01171841,0.00146157,-0.04877302,
 0.00352740,-0.00290731,0.00105923,-0.00185151,-0.00334770,-0.00330475,
 -0.00068872,-0.00037703,-0.00027692,-0.00076710,0.00045918,-0.00007877
 ,-0.00119292,0.00036639,0.00013959,0.00105327,-0.00218631,-0.00355091,
 -0.00005871,0.00029954,-0.00061778,-0.00050625,-0.00046079,0.00057545,
 0.00067756,-0.00014527,0.00001277,0.00009875,0.00008706,-0.00004077,-0
 .00009848,-0.00000383,-0.00007627,-0.00000505,0.00017447,0.00031082,-0
 .00019327,-0.00004197,0.00032362,-0.00030932,-0.00008229,-0.00008597,0
 .00022537,-0.00000888,-0.00004997,-0.00000410,0.00009260,0.00000109,-0
 .00001950,-0.00007720,-0.00002767,0.00005449,-0.00003033,-0.00050948,0
 .00018915,-0.00054211,-0.00007713,0.00074499,-0.00013676,-0.00008077,0
 .00031616,0.00039885,-0.00049337,0.00090519,0.00032906,0.00061756,0.00
 160653,0.00026639,-0.00070135,0.00049103,-0.00034521,0.00041468,-0.000
 32266,0.00002576,0.00021007,-0.00041169,-0.00011620,-0.00011519,0.0000
 7694,0.00012898,-0.00034337,0.00020113,0.00020334,0.00000074,0.0001016
 7,0.00025497,-0.00007764,-0.00016395,-0.00002425,-0.00012346,-0.000194
 86,0.00002214,0.00006091,0.00001437,-0.00000285,-0.00001326,-0.0000262
 6,0.00004219,0.00002095,-0.00012605,0.00002128,-0.00003204,0.00000820,
 0.00000395,-0.00000384,-0.00001128,-0.00000906,0.00003702,-0.00000546,
 -0.00001227,-0.00000715,-0.00000565,0.00001910,0.00001011,-0.00004810,
 0.00025638,0.00009453,-0.00039806,0.00006635,0.00001965,-0.00002440,0.
 00016485,0.00032430,-0.00027039,0.00005807,0.00025177,-0.00002461,-0.0
 4738516,0.21649278,0.00354412,0.00575243,-0.00261003,-0.00220327,0.009
 87144,-0.00367737,-0.00131274,-0.00258030,0.00123184,0.00137305,0.0005
 6370,-0.00128330,-0.00014195,0.00011739,-0.00044196,0.00038203,-0.0006
 8407,0.00073103,-0.00055538,0.00000207,-0.00096816,0.00090948,-0.00007
 805,0.00049570,-0.00012559,-0.00003506,-0.00001841,0.00003218,-0.00022
 154,-0.00037092,-0.00014423,0.00008994,0.00000019,0.00008245,-0.000043
 93,-0.00005600,0.00024459,-0.00001223,0.00011399,-0.00011022,0.0000273
 4,0.00014189,0.00023596,-0.00031046,-0.00031267,-0.00020484,0.00011070
 ,0.00023150,0.00012634,-0.00010318,-0.00002193,0.00004709,0.00003447,-
 0.00000951,-0.00008919,0.00002809,0.00004611,-0.00000721,0.00044079,0.
 00039239,-0.00000301,0.00035114,-0.00011934,-0.00019662,0.00014165,-0.
 00026514,0.00030609,0.00034450,0.00027370,0.00173757,0.00189533,-0.000
 06131,-0.00018104,-0.00004915,0.00000154,-0.00052224,0.00002504,-0.000
 20607,-0.00028202,-0.00066137,-0.00051901,-0.00010136,0.00007737,-0.00
 007350,0.00002105,-0.00003181,0.00000058,-0.00002066,0.00009497,0.0001
 0225,-0.00001491,-0.00012550,0.00024258,0.00014743,-0.00003758,0.00017
 141,0.00001440,-0.00001239,-0.00000540,-0.00002782,-0.00003029,0.00000
 449,0.00005915,-0.00024872,-0.00014063,-0.00003875,-0.00000974,-0.0000
 1141,-0.00001210,-0.00001261,-0.00000646,0.00000115,-0.00000568,-0.000
 01785,-0.00000729,-0.00001186,-0.00001068,0.00003210,-0.00002808,-0.00
 002011,-0.00003133,-0.00013382,0.00025653,0.00005377,-0.00001577,0.000
 03872,-0.00003520,-0.00013350,-0.00024966,-0.00006219,-0.00006966,-0.0
 0019771,-0.00291861,-0.01428241,0.00719763\\0.00003317,-0.00003210,0.0
 0001045,-0.00004213,0.00001903,0.00001053,0.00001901,0.00003089,0.0000
 8021,0.00007359,0.00003941,0.00008627,-0.00000684,-0.00001050,-0.00003
 802,0.00003237,-0.00003233,-0.00001447,0.00001333,0.00003035,0.0000180
 0,-0.00002172,-0.00003695,-0.00001841,0.00002484,0.00000942,-0.0000367
 8,-0.00000681,0.00000185,-0.00012836,0.00007514,-0.00003195,0.00003930
 ,-0.00005513,-0.00001560,0.00001141,-0.00000635,0.00001597,0.00001457,
 -0.00000943,-0.00000534,-0.00000535,0.00004698,-0.00000271,0.00002620,
 -0.00005271,-0.00001457,0.00005153,0.00002811,-0.00002956,0.00003063,0
 .00004026,0.00004157,-0.00001070,-0.00000516,-0.00003683,-0.00001910,-
 0.00000626,0.00000590,-0.00002016,0.00004487,0.00003927,-0.00003709,0.
 00000775,-0.00004752,0.00010906,0.00002616,0.00004500,-0.00010626,0.00
 002271,0.00000800,-0.00000605,-0.00002499,-0.00004095,0.00000279,-0.00
 007753,0.00001559,-0.00008849,0.00002413,0.00000886,0.00000311,-0.0000
 3194,-0.00002006,0.00000314,-0.00000132,-0.00000960,0.00001597,0.00000
 168,-0.00001418,-0.00001400,0.00000114,-0.00000660,-0.00000857,0.00004
 001,0.00004895,0.00005906,0.00000579,0.00001878,0.00000416,-0.00002829
 ,0.00002667,-0.00000443,-0.00000549,-0.00004625,-0.00003526,0.00002256
 ,0.00000353,0.00000905,-0.00002062,-0.00001688,0.00000047,0.00001575,-
 0.00000398,-0.00001772,0.00000832,0.00000540,-0.00001459,-0.00003076,0
 .00004095,-0.00000488,-0.00003419,0.00003387,0.00001492,-0.00005577,0.
 00000943,-0.00005429,-0.00005484,-0.00003488,0.00007721,0.00000642,-0.
 00000246,0.00000875,-0.00003585,-0.00000687,-0.00000382\\\@


 MUD THROWN IS GROUND LOST -- FROM A TEA BAG
 Job cpu time:       0 days  0 hours  0 minutes 11.4 seconds.
 Elapsed time:       0 days  0 hours  0 minutes  1.0 seconds.
 File lengths (MBytes):  RWF=    217 Int=      0 D2E=      0 Chk=      4 Scr=      1
 Normal termination of Gaussian 16 at Tue Jun 22 14:23:18 2021.
