 Entering Gaussian System, Link 0=g09
 Initial command:
 /share/apps//g09/l1.exe "/scratch/Gau-12032.inp" -scrdir="/scratch/"
 Entering Link 1 = /share/apps//g09/l1.exe PID=     12033.
  
 Copyright (c) 1988,1990,1992,1993,1995,1998,2003,2009,2013,
            Gaussian, Inc.  All Rights Reserved.
  
 This is part of the Gaussian(R) 09 program.  It is based on
 the Gaussian(R) 03 system (copyright 2003, Gaussian, Inc.),
 the Gaussian(R) 98 system (copyright 1998, Gaussian, Inc.),
 the Gaussian(R) 94 system (copyright 1995, Gaussian, Inc.),
 the Gaussian 92(TM) system (copyright 1992, Gaussian, Inc.),
 the Gaussian 90(TM) system (copyright 1990, Gaussian, Inc.),
 the Gaussian 88(TM) system (copyright 1988, Gaussian, Inc.),
 the Gaussian 86(TM) system (copyright 1986, Carnegie Mellon
 University), and the Gaussian 82(TM) system (copyright 1983,
 Carnegie Mellon University). Gaussian is a federally registered
 trademark of Gaussian, Inc.
  
 This software contains proprietary and confidential information,
 including trade secrets, belonging to Gaussian, Inc.
  
 This software is provided under written license and may be
 used, copied, transmitted, or stored only in accord with that
 written license.
  
 The following legend is applicable only to US Government
 contracts under FAR:
  
                    RESTRICTED RIGHTS LEGEND
  
 Use, reproduction and disclosure by the US Government is
 subject to restrictions as set forth in subparagraphs (a)
 and (c) of the Commercial Computer Software - Restricted
 Rights clause in FAR 52.227-19.
  
 Gaussian, Inc.
 340 Quinnipiac St., Bldg. 40, Wallingford CT 06492
  
  
 ---------------------------------------------------------------
 Warning -- This program may not be used in any manner that
 competes with the business of Gaussian, Inc. or will provide
 assistance to any competitor of Gaussian, Inc.  The licensee
 of this program is prohibited from giving any competitor of
 Gaussian, Inc. access to this program.  By using this program,
 the user acknowledges that Gaussian, Inc. is engaged in the
 business of creating and licensing software in the field of
 computational chemistry and represents and warrants to the
 licensee that it is not a competitor of Gaussian, Inc. and that
 it will not use this program in any manner prohibited above.
 ---------------------------------------------------------------
  

 Cite this work as:
 Gaussian 09, Revision D.01,
 M. J. Frisch, G. W. Trucks, H. B. Schlegel, G. E. Scuseria, 
 M. A. Robb, J. R. Cheeseman, G. Scalmani, V. Barone, B. Mennucci, 
 G. A. Petersson, H. Nakatsuji, M. Caricato, X. Li, H. P. Hratchian, 
 A. F. Izmaylov, J. Bloino, G. Zheng, J. L. Sonnenberg, M. Hada, 
 M. Ehara, K. Toyota, R. Fukuda, J. Hasegawa, M. Ishida, T. Nakajima, 
 Y. Honda, O. Kitao, H. Nakai, T. Vreven, J. A. Montgomery, Jr., 
 J. E. Peralta, F. Ogliaro, M. Bearpark, J. J. Heyd, E. Brothers, 
 K. N. Kudin, V. N. Staroverov, T. Keith, R. Kobayashi, J. Normand, 
 K. Raghavachari, A. Rendell, J. C. Burant, S. S. Iyengar, J. Tomasi, 
 M. Cossi, N. Rega, J. M. Millam, M. Klene, J. E. Knox, J. B. Cross, 
 V. Bakken, C. Adamo, J. Jaramillo, R. Gomperts, R. E. Stratmann, 
 O. Yazyev, A. J. Austin, R. Cammi, C. Pomelli, J. W. Ochterski, 
 R. L. Martin, K. Morokuma, V. G. Zakrzewski, G. A. Voth, 
 P. Salvador, J. J. Dannenberg, S. Dapprich, A. D. Daniels, 
 O. Farkas, J. B. Foresman, J. V. Ortiz, J. Cioslowski, 
 and D. J. Fox, Gaussian, Inc., Wallingford CT, 2013.
 
 ******************************************
 Gaussian 09:  EM64L-G09RevD.01 24-Apr-2013
                30-Apr-2016 
 ******************************************
 %nproc=20
 Will use up to   20 processors via shared memory.
 %mem=80GB
 %chk=Tri_A131_of.chk
 ----------------------------------------------------------------------
 #P PBE1PBE/6-311+G(d,p) opt=ModRedundant freq optcyc=999 EmpiricalDisp
 ersion=GD3
 ----------------------------------------------------------------------
 1/6=999,14=-1,18=120,19=15,26=3,38=1/1,3;
 2/9=110,12=2,17=6,18=5,40=1/2;
 3/5=4,6=6,7=111,11=2,16=1,25=1,30=1,71=1,74=-13,124=31/1,2,3;
 4//1;
 5/5=2,38=5/2;
 6/7=2,8=2,9=2,10=2,28=1/1;
 7//1,2,3,16;
 1/6=999,14=-1,18=20,19=15,26=3/3(2);
 2/9=110/2;
 99//99;
 2/9=110/2;
 3/5=4,6=6,7=111,11=2,16=1,25=1,30=1,71=1,74=-13,124=31/1,2,3;
 4/5=5,16=3,69=1/1;
 5/5=2,38=5/2;
 7//1,2,3,16;
 1/6=999,14=-1,18=20,19=15,26=3/3(-5);
 2/9=110/2;
 6/7=2,8=2,9=2,10=2,19=2,28=1/1;
 99/9=1/99;
 Leave Link    1 at Sat Apr 30 07:11:49 2016, MaxMem= 10737418240 cpu:         3.8
 (Enter /share/apps//g09/l101.exe)
 -----
 trich
 -----
 Symbolic Z-matrix:
 Charge =  1 Multiplicity = 1
 O                     0.41784  -6.57382   9.43205 
 C                    -0.1837   -5.33957   9.1218 
 C                    -0.14633  -4.39156   10.3237 
 C                     1.27815  -4.20336   10.85475 
 C                     1.87294  -5.57409   11.1895 
 C                     1.769    -6.48313   9.94839 
 H                    -1.22222  -5.58862   8.85079 
 H                    -0.75373  -4.8653    11.11227 
 H                     1.896    -3.70014   10.09345 
 H                     2.95026  -5.45283   11.42274 
 H                     2.4262   -6.0437    9.17195 
 O                     1.15891  -6.03088   12.33369 
 O                     1.24421  -3.32757   11.98045 
 O                    -0.71805  -3.11305   9.9827 
 O                     0.44916  -4.65469   8.03575 
 C                     2.2654   -7.90503   10.17108 
 H                     2.07898  -8.49242   9.25611 
 H                     3.35409  -7.86312   10.34837 
 O                     1.582    -8.48446   11.29344 
 H                     1.94982  -9.3664    11.46859 
 H                     1.23249  -7.00981   12.35487 
 H                     1.02881  -3.88937   12.75391 
 H                    -0.48507  -2.53677   10.74015 
 O                    -0.05988  -5.33785   3.92307 
 C                     1.13918  -4.70923   4.36897 
 C                     1.00184  -4.24767   5.81947 
 C                     0.46556  -5.3174    6.75356 
 C                    -0.9026   -5.76513   6.22665 
 C                    -0.71359  -6.28072   4.78279 
 H                     2.01396  -5.37409   4.24839 
 H                     0.24574  -3.4515    5.80181 
 H                     1.13111  -6.19883   6.80085 
 H                    -1.27562  -6.61694   6.82494 
 H                    -0.13212  -7.22348   4.83584 
 O                    -1.84339  -4.68      6.30616 
 O                     2.25381  -3.7016    6.24671 
 O                     1.39536  -3.62747   3.50565 
 C                    -2.05347  -6.56977   4.09373 
 H                    -1.86374  -6.94611   3.0769 
 H                    -2.59894  -7.34547   4.65125 
 O                    -2.88584  -5.4025    4.05167 
 H                    -2.56852  -4.82023   3.29917 
 H                    -2.43159  -4.78259   5.49001 
 H                     2.21972  -3.69475   7.22281 
 O                    -0.52286  -1.30639   1.41388 
 C                    -1.07324  -0.48681   2.39197 
 C                    -0.07094  -0.10813   3.50565 
 C                     0.81988  -1.29187   3.91938 
 C                     0.33954  -2.64029   3.36432 
 C                     0.03871  -2.57588   1.8519 
 H                    -1.40626   0.41875   1.8553 
 H                    -0.64759   0.20225   4.39629 
 H                     1.8214   -1.08979   3.50553 
 H                     1.00066  -2.66629   1.32186 
 H                    -0.56124  -2.97194   3.90203 
 O                     0.89815  -1.29467   5.36343 
 O                     0.81421   0.92659   3.08461 
 O                    -2.22279  -1.149     2.97779 
 C                    -0.8749   -3.70295   1.36657 
 H                    -1.04428  -3.56034   0.28709 
 H                    -0.38101  -4.66952   1.52548 
 O                    -2.13686  -3.75607   2.05237 
 H                    -2.42438  -2.82578   2.21047 
 H                     1.6706   -1.85108   5.61178 
 H                     0.31508   1.75576   2.98297 
 C                    -3.32326  -0.2876    3.32987 
 H                    -2.94653   0.59753   3.87324 
 H                    -3.82311   0.07      2.41296 
 C                    -4.28804  -1.08838   4.19562 
 H                    -4.7373   -1.88732   3.58547 
 H                    -5.11533  -0.42145   4.48811 
 C                    -3.63852  -1.71845   5.43725 
 H                    -4.38876  -2.34055   5.95121 
 H                    -2.84774  -2.40267   5.0925 
 C                    -3.05952  -0.69748   6.4244 
 H                    -2.29625  -0.07065   5.93415 
 H                    -3.85186  -0.0049    6.75188 
 C                    -2.44846  -1.30012   7.68389 
 H                    -3.16807  -1.92617   8.2294 
 H                    -2.10624  -0.50969   8.36492 
 N                    -1.26319  -2.17441   7.39205 
 H                    -1.53979  -3.07739   6.9202 
 H                    -0.81665  -2.47338   8.29236 
 H                    -0.56437  -1.70422   6.78039 
 
 The following ModRedundant input section has been read:
 B      45      84 B                                                           
 B      58      84 B                                                           
 B      56      84 B                                                           
 B      41      82 B                                                           
 B      62      82 B                                                           
 B      35      82 B                                                           
 B      13      83 B                                                           
 B      19      83 B                                                           
 B      14      83 B                                                           
 
 NAtoms=     84 NQM=       84 NQMF=       0 NMMI=      0 NMMIF=      0
                NMic=       0 NMicF=      0.
                    Isotopes and Nuclear Properties:
 (Nuclear quadrupole moments (NQMom) in fm**2, nuclear magnetic moments (NMagM)
  in nuclear magnetons)

  Atom         1           2           3           4           5           6           7           8           9          10
 IAtWgt=          16          12          12          12          12          12           1           1           1           1
 AtmWgt=  15.9949146  12.0000000  12.0000000  12.0000000  12.0000000  12.0000000   1.0078250   1.0078250   1.0078250   1.0078250
 NucSpn=           0           0           0           0           0           0           1           1           1           1
 AtZEff=   0.0000000   0.0000000   0.0000000   0.0000000   0.0000000   0.0000000   0.0000000   0.0000000   0.0000000   0.0000000
 NQMom=    0.0000000   0.0000000   0.0000000   0.0000000   0.0000000   0.0000000   0.0000000   0.0000000   0.0000000   0.0000000
 NMagM=    0.0000000   0.0000000   0.0000000   0.0000000   0.0000000   0.0000000   2.7928460   2.7928460   2.7928460   2.7928460
 AtZNuc=   8.0000000   6.0000000   6.0000000   6.0000000   6.0000000   6.0000000   1.0000000   1.0000000   1.0000000   1.0000000

  Atom        11          12          13          14          15          16          17          18          19          20
 IAtWgt=           1          16          16          16          16          12           1           1          16           1
 AtmWgt=   1.0078250  15.9949146  15.9949146  15.9949146  15.9949146  12.0000000   1.0078250   1.0078250  15.9949146   1.0078250
 NucSpn=           1           0           0           0           0           0           1           1           0           1
 AtZEff=   0.0000000   0.0000000   0.0000000   0.0000000   0.0000000   0.0000000   0.0000000   0.0000000   0.0000000   0.0000000
 NQMom=    0.0000000   0.0000000   0.0000000   0.0000000   0.0000000   0.0000000   0.0000000   0.0000000   0.0000000   0.0000000
 NMagM=    2.7928460   0.0000000   0.0000000   0.0000000   0.0000000   0.0000000   2.7928460   2.7928460   0.0000000   2.7928460
 AtZNuc=   1.0000000   8.0000000   8.0000000   8.0000000   8.0000000   6.0000000   1.0000000   1.0000000   8.0000000   1.0000000

  Atom        21          22          23          24          25          26          27          28          29          30
 IAtWgt=           1           1           1          16          12          12          12          12          12           1
 AtmWgt=   1.0078250   1.0078250   1.0078250  15.9949146  12.0000000  12.0000000  12.0000000  12.0000000  12.0000000   1.0078250
 NucSpn=           1           1           1           0           0           0           0           0           0           1
 AtZEff=   0.0000000   0.0000000   0.0000000   0.0000000   0.0000000   0.0000000   0.0000000   0.0000000   0.0000000   0.0000000
 NQMom=    0.0000000   0.0000000   0.0000000   0.0000000   0.0000000   0.0000000   0.0000000   0.0000000   0.0000000   0.0000000
 NMagM=    2.7928460   2.7928460   2.7928460   0.0000000   0.0000000   0.0000000   0.0000000   0.0000000   0.0000000   2.7928460
 AtZNuc=   1.0000000   1.0000000   1.0000000   8.0000000   6.0000000   6.0000000   6.0000000   6.0000000   6.0000000   1.0000000

  Atom        31          32          33          34          35          36          37          38          39          40
 IAtWgt=           1           1           1           1          16          16          16          12           1           1
 AtmWgt=   1.0078250   1.0078250   1.0078250   1.0078250  15.9949146  15.9949146  15.9949146  12.0000000   1.0078250   1.0078250
 NucSpn=           1           1           1           1           0           0           0           0           1           1
 AtZEff=   0.0000000   0.0000000   0.0000000   0.0000000   0.0000000   0.0000000   0.0000000   0.0000000   0.0000000   0.0000000
 NQMom=    0.0000000   0.0000000   0.0000000   0.0000000   0.0000000   0.0000000   0.0000000   0.0000000   0.0000000   0.0000000
 NMagM=    2.7928460   2.7928460   2.7928460   2.7928460   0.0000000   0.0000000   0.0000000   0.0000000   2.7928460   2.7928460
 AtZNuc=   1.0000000   1.0000000   1.0000000   1.0000000   8.0000000   8.0000000   8.0000000   6.0000000   1.0000000   1.0000000

  Atom        41          42          43          44          45          46          47          48          49          50
 IAtWgt=          16           1           1           1          16          12          12          12          12          12
 AtmWgt=  15.9949146   1.0078250   1.0078250   1.0078250  15.9949146  12.0000000  12.0000000  12.0000000  12.0000000  12.0000000
 NucSpn=           0           1           1           1           0           0           0           0           0           0
 AtZEff=   0.0000000   0.0000000   0.0000000   0.0000000   0.0000000   0.0000000   0.0000000   0.0000000   0.0000000   0.0000000
 NQMom=    0.0000000   0.0000000   0.0000000   0.0000000   0.0000000   0.0000000   0.0000000   0.0000000   0.0000000   0.0000000
 NMagM=    0.0000000   2.7928460   2.7928460   2.7928460   0.0000000   0.0000000   0.0000000   0.0000000   0.0000000   0.0000000
 AtZNuc=   8.0000000   1.0000000   1.0000000   1.0000000   8.0000000   6.0000000   6.0000000   6.0000000   6.0000000   6.0000000

  Atom        51          52          53          54          55          56          57          58          59          60
 IAtWgt=           1           1           1           1           1          16          16          16          12           1
 AtmWgt=   1.0078250   1.0078250   1.0078250   1.0078250   1.0078250  15.9949146  15.9949146  15.9949146  12.0000000   1.0078250
 NucSpn=           1           1           1           1           1           0           0           0           0           1
 AtZEff=   0.0000000   0.0000000   0.0000000   0.0000000   0.0000000   0.0000000   0.0000000   0.0000000   0.0000000   0.0000000
 NQMom=    0.0000000   0.0000000   0.0000000   0.0000000   0.0000000   0.0000000   0.0000000   0.0000000   0.0000000   0.0000000
 NMagM=    2.7928460   2.7928460   2.7928460   2.7928460   2.7928460   0.0000000   0.0000000   0.0000000   0.0000000   2.7928460
 AtZNuc=   1.0000000   1.0000000   1.0000000   1.0000000   1.0000000   8.0000000   8.0000000   8.0000000   6.0000000   1.0000000

  Atom        61          62          63          64          65          66          67          68          69          70
 IAtWgt=           1          16           1           1           1          12           1           1          12           1
 AtmWgt=   1.0078250  15.9949146   1.0078250   1.0078250   1.0078250  12.0000000   1.0078250   1.0078250  12.0000000   1.0078250
 NucSpn=           1           0           1           1           1           0           1           1           0           1
 AtZEff=   0.0000000   0.0000000   0.0000000   0.0000000   0.0000000   0.0000000   0.0000000   0.0000000   0.0000000   0.0000000
 NQMom=    0.0000000   0.0000000   0.0000000   0.0000000   0.0000000   0.0000000   0.0000000   0.0000000   0.0000000   0.0000000
 NMagM=    2.7928460   0.0000000   2.7928460   2.7928460   2.7928460   0.0000000   2.7928460   2.7928460   0.0000000   2.7928460
 AtZNuc=   1.0000000   8.0000000   1.0000000   1.0000000   1.0000000   6.0000000   1.0000000   1.0000000   6.0000000   1.0000000

  Atom        71          72          73          74          75          76          77          78          79          80
 IAtWgt=           1          12           1           1          12           1           1          12           1           1
 AtmWgt=   1.0078250  12.0000000   1.0078250   1.0078250  12.0000000   1.0078250   1.0078250  12.0000000   1.0078250   1.0078250
 NucSpn=           1           0           1           1           0           1           1           0           1           1
 AtZEff=   0.0000000   0.0000000   0.0000000   0.0000000   0.0000000   0.0000000   0.0000000   0.0000000   0.0000000   0.0000000
 NQMom=    0.0000000   0.0000000   0.0000000   0.0000000   0.0000000   0.0000000   0.0000000   0.0000000   0.0000000   0.0000000
 NMagM=    2.7928460   0.0000000   2.7928460   2.7928460   0.0000000   2.7928460   2.7928460   0.0000000   2.7928460   2.7928460
 AtZNuc=   1.0000000   6.0000000   1.0000000   1.0000000   6.0000000   1.0000000   1.0000000   6.0000000   1.0000000   1.0000000

  Atom        81          82          83          84
 IAtWgt=          14           1           1           1
 AtmWgt=  14.0030740   1.0078250   1.0078250   1.0078250
 NucSpn=           2           1           1           1
 AtZEff=   0.0000000   0.0000000   0.0000000   0.0000000
 NQMom=    2.0440000   0.0000000   0.0000000   0.0000000
 NMagM=    0.4037610   2.7928460   2.7928460   2.7928460
 AtZNuc=   7.0000000   1.0000000   1.0000000   1.0000000
 Leave Link  101 at Sat Apr 30 07:11:50 2016, MaxMem= 10737418240 cpu:         4.5
 (Enter /share/apps//g09/l103.exe)

 GradGradGradGradGradGradGradGradGradGradGradGradGradGradGradGradGradGrad
 Berny optimization.
 Initialization pass.
                           ----------------------------
                           !    Initial Parameters    !
                           ! (Angstroms and Degrees)  !
 --------------------------                            --------------------------
 ! Name  Definition              Value          Derivative Info.                !
 --------------------------------------------------------------------------------
 ! R1    R(1,2)                  1.4076         estimate D2E/DX2                !
 ! R2    R(1,6)                  1.4493         estimate D2E/DX2                !
 ! R3    R(2,3)                  1.5312         estimate D2E/DX2                !
 ! R4    R(2,7)                  1.1018         estimate D2E/DX2                !
 ! R5    R(2,15)                 1.4315         estimate D2E/DX2                !
 ! R6    R(3,4)                  1.5319         estimate D2E/DX2                !
 ! R7    R(3,8)                  1.1024         estimate D2E/DX2                !
 ! R8    R(3,14)                 1.4414         estimate D2E/DX2                !
 ! R9    R(4,5)                  1.5313         estimate D2E/DX2                !
 ! R10   R(4,9)                  1.1021         estimate D2E/DX2                !
 ! R11   R(4,13)                 1.4267         estimate D2E/DX2                !
 ! R12   R(5,6)                  1.5419         estimate D2E/DX2                !
 ! R13   R(5,10)                 1.1089         estimate D2E/DX2                !
 ! R14   R(5,12)                 1.424          estimate D2E/DX2                !
 ! R15   R(6,11)                 1.1081         estimate D2E/DX2                !
 ! R16   R(6,16)                 1.5224         estimate D2E/DX2                !
 ! R17   R(12,21)                0.9819         estimate D2E/DX2                !
 ! R18   R(13,22)                0.9799         estimate D2E/DX2                !
 ! R19   R(13,83)                4.3103         estimate D2E/DX2                !
 ! R20   R(14,23)                0.9799         estimate D2E/DX2                !
 ! R21   R(14,83)                1.81           estimate D2E/DX2                !
 ! R22   R(15,27)                1.4434         estimate D2E/DX2                !
 ! R23   R(16,17)                1.1032         estimate D2E/DX2                !
 ! R24   R(16,18)                1.1038         estimate D2E/DX2                !
 ! R25   R(16,19)                1.4361         estimate D2E/DX2                !
 ! R26   R(19,20)                0.9715         estimate D2E/DX2                !
 ! R27   R(19,83)                7.1339         estimate D2E/DX2                !
 ! R28   R(24,25)                1.4254         estimate D2E/DX2                !
 ! R29   R(24,29)                1.4337         estimate D2E/DX2                !
 ! R30   R(25,26)                1.5283         estimate D2E/DX2                !
 ! R31   R(25,30)                1.1054         estimate D2E/DX2                !
 ! R32   R(25,37)                1.4075         estimate D2E/DX2                !
 ! R33   R(26,27)                1.518          estimate D2E/DX2                !
 ! R34   R(26,31)                1.0981         estimate D2E/DX2                !
 ! R35   R(26,36)                1.4311         estimate D2E/DX2                !
 ! R36   R(27,28)                1.533          estimate D2E/DX2                !
 ! R37   R(27,32)                1.1055         estimate D2E/DX2                !
 ! R38   R(28,29)                1.5448         estimate D2E/DX2                !
 ! R39   R(28,33)                1.1057         estimate D2E/DX2                !
 ! R40   R(28,35)                1.4384         estimate D2E/DX2                !
 ! R41   R(29,34)                1.1089         estimate D2E/DX2                !
 ! R42   R(29,38)                1.5342         estimate D2E/DX2                !
 ! R43   R(35,43)                1.0112         estimate D2E/DX2                !
 ! R44   R(35,82)                1.7429         estimate D2E/DX2                !
 ! R45   R(36,44)                0.9767         estimate D2E/DX2                !
 ! R46   R(37,49)                1.4523         estimate D2E/DX2                !
 ! R47   R(38,39)                1.1007         estimate D2E/DX2                !
 ! R48   R(38,40)                1.1            estimate D2E/DX2                !
 ! R49   R(38,41)                1.4343         estimate D2E/DX2                !
 ! R50   R(41,42)                1.003          estimate D2E/DX2                !
 ! R51   R(41,82)                3.9302         estimate D2E/DX2                !
 ! R52   R(45,46)                1.3897         estimate D2E/DX2                !
 ! R53   R(45,50)                1.4556         estimate D2E/DX2                !
 ! R54   R(45,84)                5.3814         estimate D2E/DX2                !
 ! R55   R(46,47)                1.5454         estimate D2E/DX2                !
 ! R56   R(46,51)                1.1041         estimate D2E/DX2                !
 ! R57   R(46,58)                1.4502         estimate D2E/DX2                !
 ! R58   R(47,48)                1.5382         estimate D2E/DX2                !
 ! R59   R(47,52)                1.1055         estimate D2E/DX2                !
 ! R60   R(47,57)                1.4253         estimate D2E/DX2                !
 ! R61   R(48,49)                1.5353         estimate D2E/DX2                !
 ! R62   R(48,53)                1.1023         estimate D2E/DX2                !
 ! R63   R(48,56)                1.4462         estimate D2E/DX2                !
 ! R64   R(49,50)                1.5434         estimate D2E/DX2                !
 ! R65   R(49,55)                1.1002         estimate D2E/DX2                !
 ! R66   R(50,54)                1.102          estimate D2E/DX2                !
 ! R67   R(50,59)                1.5299         estimate D2E/DX2                !
 ! R68   R(56,64)                0.9838         estimate D2E/DX2                !
 ! R69   R(56,84)                2.0771         estimate D2E/DX2                !
 ! R70   R(57,65)                0.9731         estimate D2E/DX2                !
 ! R71   R(58,66)                1.4412         estimate D2E/DX2                !
 ! R72   R(58,84)                4.1855         estimate D2E/DX2                !
 ! R73   R(59,60)                1.102          estimate D2E/DX2                !
 ! R74   R(59,61)                1.097          estimate D2E/DX2                !
 ! R75   R(59,62)                1.4372         estimate D2E/DX2                !
 ! R76   R(62,63)                0.9865         estimate D2E/DX2                !
 ! R77   R(62,82)                4.951          estimate D2E/DX2                !
 ! R78   R(66,67)                1.1048         estimate D2E/DX2                !
 ! R79   R(66,68)                1.1038         estimate D2E/DX2                !
 ! R80   R(66,69)                1.5237         estimate D2E/DX2                !
 ! R81   R(69,70)                1.1011         estimate D2E/DX2                !
 ! R82   R(69,71)                1.1022         estimate D2E/DX2                !
 ! R83   R(69,72)                1.5364         estimate D2E/DX2                !
 ! R84   R(72,73)                1.1018         estimate D2E/DX2                !
 ! R85   R(72,74)                1.1011         estimate D2E/DX2                !
 ! R86   R(72,75)                1.5337         estimate D2E/DX2                !
 ! R87   R(75,76)                1.1027         estimate D2E/DX2                !
 ! R88   R(75,77)                1.1021         estimate D2E/DX2                !
 ! R89   R(75,78)                1.5241         estimate D2E/DX2                !
 ! R90   R(78,79)                1.0988         estimate D2E/DX2                !
 ! R91   R(78,80)                1.098          estimate D2E/DX2                !
 ! R92   R(78,81)                1.5015         estimate D2E/DX2                !
 ! R93   R(81,82)                1.0557         estimate D2E/DX2                !
 ! R94   R(81,83)                1.0485         estimate D2E/DX2                !
 ! R95   R(81,84)                1.0409         estimate D2E/DX2                !
 ! A1    A(2,1,6)              114.9644         estimate D2E/DX2                !
 ! A2    A(1,2,3)              111.0647         estimate D2E/DX2                !
 ! A3    A(1,2,7)              104.9993         estimate D2E/DX2                !
 ! A4    A(1,2,15)             113.4409         estimate D2E/DX2                !
 ! A5    A(3,2,7)              110.8554         estimate D2E/DX2                !
 ! A6    A(3,2,15)             106.7692         estimate D2E/DX2                !
 ! A7    A(7,2,15)             109.7698         estimate D2E/DX2                !
 ! A8    A(2,3,4)              111.7691         estimate D2E/DX2                !
 ! A9    A(2,3,8)              106.3783         estimate D2E/DX2                !
 ! A10   A(2,3,14)             110.7179         estimate D2E/DX2                !
 ! A11   A(4,3,8)              108.4927         estimate D2E/DX2                !
 ! A12   A(4,3,14)             109.991          estimate D2E/DX2                !
 ! A13   A(8,3,14)             109.3817         estimate D2E/DX2                !
 ! A14   A(3,4,5)              109.0877         estimate D2E/DX2                !
 ! A15   A(3,4,9)              109.7522         estimate D2E/DX2                !
 ! A16   A(3,4,13)             109.0769         estimate D2E/DX2                !
 ! A17   A(5,4,9)              109.9986         estimate D2E/DX2                !
 ! A18   A(5,4,13)             112.7224         estimate D2E/DX2                !
 ! A19   A(9,4,13)             106.1469         estimate D2E/DX2                !
 ! A20   A(4,5,6)              109.002          estimate D2E/DX2                !
 ! A21   A(4,5,10)             108.9932         estimate D2E/DX2                !
 ! A22   A(4,5,12)             105.5479         estimate D2E/DX2                !
 ! A23   A(6,5,10)             107.4126         estimate D2E/DX2                !
 ! A24   A(6,5,12)             115.0776         estimate D2E/DX2                !
 ! A25   A(10,5,12)            110.6843         estimate D2E/DX2                !
 ! A26   A(1,6,5)              112.737          estimate D2E/DX2                !
 ! A27   A(1,6,11)             109.154          estimate D2E/DX2                !
 ! A28   A(1,6,16)             107.3164         estimate D2E/DX2                !
 ! A29   A(5,6,11)             106.8716         estimate D2E/DX2                !
 ! A30   A(5,6,16)             114.2617         estimate D2E/DX2                !
 ! A31   A(11,6,16)            106.2297         estimate D2E/DX2                !
 ! A32   A(5,12,21)            107.4317         estimate D2E/DX2                !
 ! A33   A(4,13,22)            106.0268         estimate D2E/DX2                !
 ! A34   A(4,13,83)             57.1724         estimate D2E/DX2                !
 ! A35   A(22,13,83)           133.1476         estimate D2E/DX2                !
 ! A36   A(3,14,23)            104.1506         estimate D2E/DX2                !
 ! A37   A(3,14,83)            123.7793         estimate D2E/DX2                !
 ! A38   A(23,14,83)           121.8042         estimate D2E/DX2                !
 ! A39   A(2,15,27)            117.3425         estimate D2E/DX2                !
 ! A40   A(6,16,17)            108.7163         estimate D2E/DX2                !
 ! A41   A(6,16,18)            108.0362         estimate D2E/DX2                !
 ! A42   A(6,16,19)            109.6321         estimate D2E/DX2                !
 ! A43   A(17,16,18)           108.6691         estimate D2E/DX2                !
 ! A44   A(17,16,19)           110.6681         estimate D2E/DX2                !
 ! A45   A(18,16,19)           111.047          estimate D2E/DX2                !
 ! A46   A(16,19,20)           109.0873         estimate D2E/DX2                !
 ! A47   A(16,19,83)            59.4208         estimate D2E/DX2                !
 ! A48   A(25,24,29)           119.0788         estimate D2E/DX2                !
 ! A49   A(24,25,26)           110.7619         estimate D2E/DX2                !
 ! A50   A(24,25,30)           111.4904         estimate D2E/DX2                !
 ! A51   A(24,25,37)           107.4681         estimate D2E/DX2                !
 ! A52   A(26,25,30)           110.8729         estimate D2E/DX2                !
 ! A53   A(26,25,37)           111.4918         estimate D2E/DX2                !
 ! A54   A(30,25,37)           104.5559         estimate D2E/DX2                !
 ! A55   A(25,26,27)           113.7607         estimate D2E/DX2                !
 ! A56   A(25,26,31)           105.4006         estimate D2E/DX2                !
 ! A57   A(25,26,36)           108.6596         estimate D2E/DX2                !
 ! A58   A(27,26,31)           106.1149         estimate D2E/DX2                !
 ! A59   A(27,26,36)           113.2179         estimate D2E/DX2                !
 ! A60   A(31,26,36)           109.2987         estimate D2E/DX2                !
 ! A61   A(15,27,26)           103.1248         estimate D2E/DX2                !
 ! A62   A(15,27,28)           115.4221         estimate D2E/DX2                !
 ! A63   A(15,27,32)           109.5671         estimate D2E/DX2                !
 ! A64   A(26,27,28)           108.0356         estimate D2E/DX2                !
 ! A65   A(26,27,32)           112.0548         estimate D2E/DX2                !
 ! A66   A(28,27,32)           108.6115         estimate D2E/DX2                !
 ! A67   A(27,28,29)           108.0322         estimate D2E/DX2                !
 ! A68   A(27,28,33)           109.8828         estimate D2E/DX2                !
 ! A69   A(27,28,35)           110.1458         estimate D2E/DX2                !
 ! A70   A(29,28,33)           106.8514         estimate D2E/DX2                !
 ! A71   A(29,28,35)           112.5503         estimate D2E/DX2                !
 ! A72   A(33,28,35)           109.3056         estimate D2E/DX2                !
 ! A73   A(24,29,28)           113.3767         estimate D2E/DX2                !
 ! A74   A(24,29,34)           110.4083         estimate D2E/DX2                !
 ! A75   A(24,29,38)           104.6432         estimate D2E/DX2                !
 ! A76   A(28,29,34)           107.6497         estimate D2E/DX2                !
 ! A77   A(28,29,38)           112.0758         estimate D2E/DX2                !
 ! A78   A(34,29,38)           108.6183         estimate D2E/DX2                !
 ! A79   A(28,35,43)           105.0283         estimate D2E/DX2                !
 ! A80   A(28,35,82)           126.8158         estimate D2E/DX2                !
 ! A81   A(43,35,82)           118.6173         estimate D2E/DX2                !
 ! A82   A(26,36,44)           105.6932         estimate D2E/DX2                !
 ! A83   A(25,37,49)           116.7291         estimate D2E/DX2                !
 ! A84   A(29,38,39)           109.1956         estimate D2E/DX2                !
 ! A85   A(29,38,40)           109.7731         estimate D2E/DX2                !
 ! A86   A(29,38,41)           111.5115         estimate D2E/DX2                !
 ! A87   A(39,38,40)           108.2142         estimate D2E/DX2                !
 ! A88   A(39,38,41)           110.5608         estimate D2E/DX2                !
 ! A89   A(40,38,41)           107.5164         estimate D2E/DX2                !
 ! A90   A(38,41,42)           108.111          estimate D2E/DX2                !
 ! A91   A(38,41,82)           105.1475         estimate D2E/DX2                !
 ! A92   A(42,41,82)            95.4968         estimate D2E/DX2                !
 ! A93   A(46,45,50)           117.0869         estimate D2E/DX2                !
 ! A94   A(46,45,84)            48.5994         estimate D2E/DX2                !
 ! A95   A(50,45,84)            68.8026         estimate D2E/DX2                !
 ! A96   A(45,46,47)           113.2562         estimate D2E/DX2                !
 ! A97   A(45,46,51)           105.1331         estimate D2E/DX2                !
 ! A98   A(45,46,58)           109.2049         estimate D2E/DX2                !
 ! A99   A(47,46,51)           110.1782         estimate D2E/DX2                !
 ! A100  A(47,46,58)           109.5654         estimate D2E/DX2                !
 ! A101  A(51,46,58)           109.3767         estimate D2E/DX2                !
 ! A102  A(46,47,48)           112.3877         estimate D2E/DX2                !
 ! A103  A(46,47,52)           108.1239         estimate D2E/DX2                !
 ! A104  A(46,47,57)           111.5795         estimate D2E/DX2                !
 ! A105  A(48,47,52)           107.5455         estimate D2E/DX2                !
 ! A106  A(48,47,57)           106.1698         estimate D2E/DX2                !
 ! A107  A(52,47,57)           110.9847         estimate D2E/DX2                !
 ! A108  A(47,48,49)           113.4203         estimate D2E/DX2                !
 ! A109  A(47,48,53)           106.506          estimate D2E/DX2                !
 ! A110  A(47,48,56)           107.5426         estimate D2E/DX2                !
 ! A111  A(49,48,53)           108.031          estimate D2E/DX2                !
 ! A112  A(49,48,56)           112.101          estimate D2E/DX2                !
 ! A113  A(53,48,56)           109.0299         estimate D2E/DX2                !
 ! A114  A(37,49,48)           109.5338         estimate D2E/DX2                !
 ! A115  A(37,49,50)           105.3923         estimate D2E/DX2                !
 ! A116  A(37,49,55)           110.044          estimate D2E/DX2                !
 ! A117  A(48,49,50)           112.2478         estimate D2E/DX2                !
 ! A118  A(48,49,55)           110.1334         estimate D2E/DX2                !
 ! A119  A(50,49,55)           109.385          estimate D2E/DX2                !
 ! A120  A(45,50,49)           113.9834         estimate D2E/DX2                !
 ! A121  A(45,50,54)           105.2823         estimate D2E/DX2                !
 ! A122  A(45,50,59)           108.4608         estimate D2E/DX2                !
 ! A123  A(49,50,54)           107.3227         estimate D2E/DX2                !
 ! A124  A(49,50,59)           113.361          estimate D2E/DX2                !
 ! A125  A(54,50,59)           107.954          estimate D2E/DX2                !
 ! A126  A(48,56,64)           107.1963         estimate D2E/DX2                !
 ! A127  A(48,56,84)           130.0492         estimate D2E/DX2                !
 ! A128  A(64,56,84)           105.6113         estimate D2E/DX2                !
 ! A129  A(47,57,65)           109.3233         estimate D2E/DX2                !
 ! A130  A(46,58,66)           115.5336         estimate D2E/DX2                !
 ! A131  A(46,58,84)            96.5164         estimate D2E/DX2                !
 ! A132  A(66,58,84)            99.2007         estimate D2E/DX2                !
 ! A133  A(50,59,60)           107.8915         estimate D2E/DX2                !
 ! A134  A(50,59,61)           109.5297         estimate D2E/DX2                !
 ! A135  A(50,59,62)           113.5908         estimate D2E/DX2                !
 ! A136  A(60,59,61)           108.9735         estimate D2E/DX2                !
 ! A137  A(60,59,62)           109.7095         estimate D2E/DX2                !
 ! A138  A(61,59,62)           107.0748         estimate D2E/DX2                !
 ! A139  A(59,62,63)           107.3098         estimate D2E/DX2                !
 ! A140  A(59,62,82)           110.989          estimate D2E/DX2                !
 ! A141  A(63,62,82)            75.4219         estimate D2E/DX2                !
 ! A142  A(58,66,67)           109.7933         estimate D2E/DX2                !
 ! A143  A(58,66,68)           109.6625         estimate D2E/DX2                !
 ! A144  A(58,66,69)           107.9497         estimate D2E/DX2                !
 ! A145  A(67,66,68)           107.6619         estimate D2E/DX2                !
 ! A146  A(67,66,69)           110.9476         estimate D2E/DX2                !
 ! A147  A(68,66,69)           110.8248         estimate D2E/DX2                !
 ! A148  A(66,69,70)           108.9554         estimate D2E/DX2                !
 ! A149  A(66,69,71)           107.9416         estimate D2E/DX2                !
 ! A150  A(66,69,72)           114.0185         estimate D2E/DX2                !
 ! A151  A(70,69,71)           106.2517         estimate D2E/DX2                !
 ! A152  A(70,69,72)           108.829          estimate D2E/DX2                !
 ! A153  A(71,69,72)           110.5493         estimate D2E/DX2                !
 ! A154  A(69,72,73)           108.7026         estimate D2E/DX2                !
 ! A155  A(69,72,74)           107.7839         estimate D2E/DX2                !
 ! A156  A(69,72,75)           114.002          estimate D2E/DX2                !
 ! A157  A(73,72,74)           106.5122         estimate D2E/DX2                !
 ! A158  A(73,72,75)           109.4319         estimate D2E/DX2                !
 ! A159  A(74,72,75)           110.1255         estimate D2E/DX2                !
 ! A160  A(72,75,76)           110.7073         estimate D2E/DX2                !
 ! A161  A(72,75,77)           109.7655         estimate D2E/DX2                !
 ! A162  A(72,75,78)           114.8375         estimate D2E/DX2                !
 ! A163  A(76,75,77)           105.8142         estimate D2E/DX2                !
 ! A164  A(76,75,78)           108.3407         estimate D2E/DX2                !
 ! A165  A(77,75,78)           106.9275         estimate D2E/DX2                !
 ! A166  A(75,78,79)           111.8995         estimate D2E/DX2                !
 ! A167  A(75,78,80)           110.6624         estimate D2E/DX2                !
 ! A168  A(75,78,81)           112.713          estimate D2E/DX2                !
 ! A169  A(79,78,80)           107.8387         estimate D2E/DX2                !
 ! A170  A(79,78,81)           106.3628         estimate D2E/DX2                !
 ! A171  A(80,78,81)           107.0788         estimate D2E/DX2                !
 ! A172  A(78,81,82)           112.2157         estimate D2E/DX2                !
 ! A173  A(78,81,83)           109.5928         estimate D2E/DX2                !
 ! A174  A(78,81,84)           112.4049         estimate D2E/DX2                !
 ! A175  A(82,81,83)           104.5649         estimate D2E/DX2                !
 ! A176  A(82,81,84)           107.4344         estimate D2E/DX2                !
 ! A177  A(83,81,84)           110.331          estimate D2E/DX2                !
 ! A178  A(35,82,41)            30.5937         estimate D2E/DX2                !
 ! A179  A(35,82,62)            60.4325         estimate D2E/DX2                !
 ! A180  A(41,82,62)            32.8599         estimate D2E/DX2                !
 ! A181  A(41,82,81)           157.2148         estimate D2E/DX2                !
 ! A182  A(62,82,81)           126.0351         estimate D2E/DX2                !
 ! A183  A(13,83,14)            26.4721         estimate D2E/DX2                !
 ! A184  A(13,83,19)            46.5524         estimate D2E/DX2                !
 ! A185  A(14,83,19)            44.8497         estimate D2E/DX2                !
 ! A186  A(14,83,81)           157.7996         estimate D2E/DX2                !
 ! A187  A(19,83,81)           138.1317         estimate D2E/DX2                !
 ! A188  A(45,84,56)            45.5495         estimate D2E/DX2                !
 ! A189  A(45,84,58)            24.1111         estimate D2E/DX2                !
 ! A190  A(45,84,81)           128.6491         estimate D2E/DX2                !
 ! A191  A(56,84,58)            68.4734         estimate D2E/DX2                !
 ! A192  A(56,84,81)           164.2805         estimate D2E/DX2                !
 ! A193  A(58,84,81)           109.1331         estimate D2E/DX2                !
 ! A194  L(20,19,83,16,-1)     168.5081         estimate D2E/DX2                !
 ! A195  L(35,82,81,41,-1)     187.8085         estimate D2E/DX2                !
 ! A196  L(13,83,81,14,-1)     184.2717         estimate D2E/DX2                !
 ! A197  L(20,19,83,16,-2)     170.2005         estimate D2E/DX2                !
 ! A198  L(35,82,81,41,-2)     186.1144         estimate D2E/DX2                !
 ! A199  L(13,83,81,14,-2)     170.3714         estimate D2E/DX2                !
 ! D1    D(6,1,2,3)            -54.3698         estimate D2E/DX2                !
 ! D2    D(6,1,2,7)           -174.248          estimate D2E/DX2                !
 ! D3    D(6,1,2,15)            65.8945         estimate D2E/DX2                !
 ! D4    D(2,1,6,5)             55.4785         estimate D2E/DX2                !
 ! D5    D(2,1,6,11)           -63.1208         estimate D2E/DX2                !
 ! D6    D(2,1,6,16)          -177.8422         estimate D2E/DX2                !
 ! D7    D(1,2,3,4)             54.8152         estimate D2E/DX2                !
 ! D8    D(1,2,3,8)            -63.4372         estimate D2E/DX2                !
 ! D9    D(1,2,3,14)           177.8138         estimate D2E/DX2                !
 ! D10   D(7,2,3,4)            171.1438         estimate D2E/DX2                !
 ! D11   D(7,2,3,8)             52.8915         estimate D2E/DX2                !
 ! D12   D(7,2,3,14)           -65.8575         estimate D2E/DX2                !
 ! D13   D(15,2,3,4)           -69.3293         estimate D2E/DX2                !
 ! D14   D(15,2,3,8)           172.4183         estimate D2E/DX2                !
 ! D15   D(15,2,3,14)           53.6693         estimate D2E/DX2                !
 ! D16   D(1,2,15,27)           61.0603         estimate D2E/DX2                !
 ! D17   D(3,2,15,27)         -176.2694         estimate D2E/DX2                !
 ! D18   D(7,2,15,27)          -56.0431         estimate D2E/DX2                !
 ! D19   D(2,3,4,5)            -55.7116         estimate D2E/DX2                !
 ! D20   D(2,3,4,9)             64.8706         estimate D2E/DX2                !
 ! D21   D(2,3,4,13)          -179.2271         estimate D2E/DX2                !
 ! D22   D(8,3,4,5)             61.2714         estimate D2E/DX2                !
 ! D23   D(8,3,4,9)           -178.1464         estimate D2E/DX2                !
 ! D24   D(8,3,4,13)           -62.2441         estimate D2E/DX2                !
 ! D25   D(14,3,4,5)          -179.1223         estimate D2E/DX2                !
 ! D26   D(14,3,4,9)           -58.5401         estimate D2E/DX2                !
 ! D27   D(14,3,4,13)           57.3622         estimate D2E/DX2                !
 ! D28   D(2,3,14,23)         -168.9709         estimate D2E/DX2                !
 ! D29   D(2,3,14,83)          -23.6302         estimate D2E/DX2                !
 ! D30   D(4,3,14,23)          -44.9478         estimate D2E/DX2                !
 ! D31   D(4,3,14,83)          100.3929         estimate D2E/DX2                !
 ! D32   D(8,3,14,23)           74.1157         estimate D2E/DX2                !
 ! D33   D(8,3,14,83)         -140.5436         estimate D2E/DX2                !
 ! D34   D(3,4,5,6)             54.3612         estimate D2E/DX2                !
 ! D35   D(3,4,5,10)           171.3136         estimate D2E/DX2                !
 ! D36   D(3,4,5,12)           -69.7715         estimate D2E/DX2                !
 ! D37   D(9,4,5,6)            -66.0698         estimate D2E/DX2                !
 ! D38   D(9,4,5,10)            50.8826         estimate D2E/DX2                !
 ! D39   D(9,4,5,12)           169.7975         estimate D2E/DX2                !
 ! D40   D(13,4,5,6)           175.6843         estimate D2E/DX2                !
 ! D41   D(13,4,5,10)          -67.3632         estimate D2E/DX2                !
 ! D42   D(13,4,5,12)           51.5516         estimate D2E/DX2                !
 ! D43   D(3,4,13,22)           84.2221         estimate D2E/DX2                !
 ! D44   D(3,4,13,83)          -47.1878         estimate D2E/DX2                !
 ! D45   D(5,4,13,22)          -37.1072         estimate D2E/DX2                !
 ! D46   D(5,4,13,83)         -168.5171         estimate D2E/DX2                !
 ! D47   D(9,4,13,22)         -157.5876         estimate D2E/DX2                !
 ! D48   D(9,4,13,83)           71.0026         estimate D2E/DX2                !
 ! D49   D(4,5,6,1)            -54.2207         estimate D2E/DX2                !
 ! D50   D(4,5,6,11)            65.7033         estimate D2E/DX2                !
 ! D51   D(4,5,6,16)          -177.1            estimate D2E/DX2                !
 ! D52   D(10,5,6,1)          -172.1736         estimate D2E/DX2                !
 ! D53   D(10,5,6,11)          -52.2496         estimate D2E/DX2                !
 ! D54   D(10,5,6,16)           64.947          estimate D2E/DX2                !
 ! D55   D(12,5,6,1)            64.0831         estimate D2E/DX2                !
 ! D56   D(12,5,6,11)         -175.9929         estimate D2E/DX2                !
 ! D57   D(12,5,6,16)          -58.7962         estimate D2E/DX2                !
 ! D58   D(4,5,12,21)          156.9802         estimate D2E/DX2                !
 ! D59   D(6,5,12,21)           36.7589         estimate D2E/DX2                !
 ! D60   D(10,5,12,21)         -85.2358         estimate D2E/DX2                !
 ! D61   D(1,6,16,17)           49.945          estimate D2E/DX2                !
 ! D62   D(1,6,16,18)          167.7044         estimate D2E/DX2                !
 ! D63   D(1,6,16,19)          -71.1539         estimate D2E/DX2                !
 ! D64   D(5,6,16,17)          175.7193         estimate D2E/DX2                !
 ! D65   D(5,6,16,18)          -66.5212         estimate D2E/DX2                !
 ! D66   D(5,6,16,19)           54.6205         estimate D2E/DX2                !
 ! D67   D(11,6,16,17)         -66.7157         estimate D2E/DX2                !
 ! D68   D(11,6,16,18)          51.0438         estimate D2E/DX2                !
 ! D69   D(11,6,16,19)         172.1855         estimate D2E/DX2                !
 ! D70   D(4,13,83,14)          95.1094         estimate D2E/DX2                !
 ! D71   D(4,13,83,19)          21.8788         estimate D2E/DX2                !
 ! D72   D(22,13,83,14)         13.9908         estimate D2E/DX2                !
 ! D73   D(22,13,83,19)        -59.2398         estimate D2E/DX2                !
 ! D74   D(3,14,83,13)         -79.0889         estimate D2E/DX2                !
 ! D75   D(3,14,83,19)           1.1934         estimate D2E/DX2                !
 ! D76   D(3,14,83,81)         110.5397         estimate D2E/DX2                !
 ! D77   D(23,14,83,13)         60.4551         estimate D2E/DX2                !
 ! D78   D(23,14,83,19)        140.7374         estimate D2E/DX2                !
 ! D79   D(23,14,83,81)       -109.9163         estimate D2E/DX2                !
 ! D80   D(2,15,27,26)         171.644          estimate D2E/DX2                !
 ! D81   D(2,15,27,28)          54.0747         estimate D2E/DX2                !
 ! D82   D(2,15,27,32)         -68.8793         estimate D2E/DX2                !
 ! D83   D(6,16,19,20)        -175.9195         estimate D2E/DX2                !
 ! D84   D(6,16,19,83)          13.8799         estimate D2E/DX2                !
 ! D85   D(17,16,19,20)         64.1673         estimate D2E/DX2                !
 ! D86   D(17,16,19,83)       -106.0333         estimate D2E/DX2                !
 ! D87   D(18,16,19,20)        -56.6124         estimate D2E/DX2                !
 ! D88   D(18,16,19,83)        133.1871         estimate D2E/DX2                !
 ! D89   D(16,19,83,13)       -105.9051         estimate D2E/DX2                !
 ! D90   D(16,19,83,14)       -143.1471         estimate D2E/DX2                !
 ! D91   D(16,19,83,81)         69.14           estimate D2E/DX2                !
 ! D92   D(29,24,25,26)        -44.4107         estimate D2E/DX2                !
 ! D93   D(29,24,25,30)         79.56           estimate D2E/DX2                !
 ! D94   D(29,24,25,37)       -166.4198         estimate D2E/DX2                !
 ! D95   D(25,24,29,28)         48.6965         estimate D2E/DX2                !
 ! D96   D(25,24,29,34)        -72.1845         estimate D2E/DX2                !
 ! D97   D(25,24,29,38)        171.117          estimate D2E/DX2                !
 ! D98   D(24,25,26,27)         49.2803         estimate D2E/DX2                !
 ! D99   D(24,25,26,31)        -66.558          estimate D2E/DX2                !
 ! D100  D(24,25,26,36)        176.3872         estimate D2E/DX2                !
 ! D101  D(30,25,26,27)        -75.0433         estimate D2E/DX2                !
 ! D102  D(30,25,26,31)        169.1184         estimate D2E/DX2                !
 ! D103  D(30,25,26,36)         52.0636         estimate D2E/DX2                !
 ! D104  D(37,25,26,27)        168.9026         estimate D2E/DX2                !
 ! D105  D(37,25,26,31)         53.0644         estimate D2E/DX2                !
 ! D106  D(37,25,26,36)        -63.9905         estimate D2E/DX2                !
 ! D107  D(24,25,37,49)         55.9329         estimate D2E/DX2                !
 ! D108  D(26,25,37,49)        -65.621          estimate D2E/DX2                !
 ! D109  D(30,25,37,49)        174.5206         estimate D2E/DX2                !
 ! D110  D(25,26,27,15)        179.1795         estimate D2E/DX2                !
 ! D111  D(25,26,27,28)        -58.1712         estimate D2E/DX2                !
 ! D112  D(25,26,27,32)         61.4364         estimate D2E/DX2                !
 ! D113  D(31,26,27,15)        -65.4024         estimate D2E/DX2                !
 ! D114  D(31,26,27,28)         57.2469         estimate D2E/DX2                !
 ! D115  D(31,26,27,32)        176.8545         estimate D2E/DX2                !
 ! D116  D(36,26,27,15)         54.4829         estimate D2E/DX2                !
 ! D117  D(36,26,27,28)        177.1322         estimate D2E/DX2                !
 ! D118  D(36,26,27,32)        -63.2602         estimate D2E/DX2                !
 ! D119  D(25,26,36,44)       -161.9388         estimate D2E/DX2                !
 ! D120  D(27,26,36,44)        -34.5219         estimate D2E/DX2                !
 ! D121  D(31,26,36,44)         83.5267         estimate D2E/DX2                !
 ! D122  D(15,27,28,29)        172.7922         estimate D2E/DX2                !
 ! D123  D(15,27,28,33)        -70.9811         estimate D2E/DX2                !
 ! D124  D(15,27,28,35)         49.493          estimate D2E/DX2                !
 ! D125  D(26,27,28,29)         58.0099         estimate D2E/DX2                !
 ! D126  D(26,27,28,33)        174.2365         estimate D2E/DX2                !
 ! D127  D(26,27,28,35)        -65.2894         estimate D2E/DX2                !
 ! D128  D(32,27,28,29)        -63.7486         estimate D2E/DX2                !
 ! D129  D(32,27,28,33)         52.4781         estimate D2E/DX2                !
 ! D130  D(32,27,28,35)        172.9522         estimate D2E/DX2                !
 ! D131  D(27,28,29,24)        -53.7808         estimate D2E/DX2                !
 ! D132  D(27,28,29,34)         68.6438         estimate D2E/DX2                !
 ! D133  D(27,28,29,38)       -171.9776         estimate D2E/DX2                !
 ! D134  D(33,28,29,24)       -171.9657         estimate D2E/DX2                !
 ! D135  D(33,28,29,34)        -49.5411         estimate D2E/DX2                !
 ! D136  D(33,28,29,38)         69.8375         estimate D2E/DX2                !
 ! D137  D(35,28,29,24)         68.0467         estimate D2E/DX2                !
 ! D138  D(35,28,29,34)       -169.5287         estimate D2E/DX2                !
 ! D139  D(35,28,29,38)        -50.1501         estimate D2E/DX2                !
 ! D140  D(27,28,35,43)        144.359          estimate D2E/DX2                !
 ! D141  D(27,28,35,82)         -0.7681         estimate D2E/DX2                !
 ! D142  D(29,28,35,43)         23.7382         estimate D2E/DX2                !
 ! D143  D(29,28,35,82)       -121.3889         estimate D2E/DX2                !
 ! D144  D(33,28,35,43)        -94.8201         estimate D2E/DX2                !
 ! D145  D(33,28,35,82)        120.0528         estimate D2E/DX2                !
 ! D146  D(24,29,38,39)         57.5097         estimate D2E/DX2                !
 ! D147  D(24,29,38,40)        175.9905         estimate D2E/DX2                !
 ! D148  D(24,29,38,41)        -64.9659         estimate D2E/DX2                !
 ! D149  D(28,29,38,39)       -179.2257         estimate D2E/DX2                !
 ! D150  D(28,29,38,40)        -60.7448         estimate D2E/DX2                !
 ! D151  D(28,29,38,41)         58.2987         estimate D2E/DX2                !
 ! D152  D(34,29,38,39)        -60.4172         estimate D2E/DX2                !
 ! D153  D(34,29,38,40)         58.0637         estimate D2E/DX2                !
 ! D154  D(34,29,38,41)        177.1072         estimate D2E/DX2                !
 ! D155  D(28,35,82,41)        128.4174         estimate D2E/DX2                !
 ! D156  D(28,35,82,62)        108.1418         estimate D2E/DX2                !
 ! D157  D(43,35,82,41)        -12.6028         estimate D2E/DX2                !
 ! D158  D(43,35,82,62)        -32.8783         estimate D2E/DX2                !
 ! D159  D(25,37,49,48)        115.3071         estimate D2E/DX2                !
 ! D160  D(25,37,49,50)       -123.7386         estimate D2E/DX2                !
 ! D161  D(25,37,49,55)         -5.9055         estimate D2E/DX2                !
 ! D162  D(29,38,41,42)         79.3971         estimate D2E/DX2                !
 ! D163  D(29,38,41,82)        -21.7279         estimate D2E/DX2                !
 ! D164  D(39,38,41,42)        -42.291          estimate D2E/DX2                !
 ! D165  D(39,38,41,82)       -143.416          estimate D2E/DX2                !
 ! D166  D(40,38,41,42)       -160.2249         estimate D2E/DX2                !
 ! D167  D(40,38,41,82)         98.6501         estimate D2E/DX2                !
 ! D168  D(38,41,82,35)        -33.0032         estimate D2E/DX2                !
 ! D169  D(38,41,82,62)        113.2516         estimate D2E/DX2                !
 ! D170  D(38,41,82,81)        140.8824         estimate D2E/DX2                !
 ! D171  D(42,41,82,35)       -143.4653         estimate D2E/DX2                !
 ! D172  D(42,41,82,62)          2.7895         estimate D2E/DX2                !
 ! D173  D(42,41,82,81)         30.4203         estimate D2E/DX2                !
 ! D174  D(50,45,46,47)         58.0257         estimate D2E/DX2                !
 ! D175  D(50,45,46,51)        178.3676         estimate D2E/DX2                !
 ! D176  D(50,45,46,58)        -64.3643         estimate D2E/DX2                !
 ! D177  D(84,45,46,47)         50.9241         estimate D2E/DX2                !
 ! D178  D(84,45,46,51)        171.266          estimate D2E/DX2                !
 ! D179  D(84,45,46,58)        -71.4659         estimate D2E/DX2                !
 ! D180  D(46,45,50,49)        -18.1532         estimate D2E/DX2                !
 ! D181  D(46,45,50,54)       -135.5011         estimate D2E/DX2                !
 ! D182  D(46,45,50,59)        109.1515         estimate D2E/DX2                !
 ! D183  D(84,45,50,49)        -12.4449         estimate D2E/DX2                !
 ! D184  D(84,45,50,54)       -129.7928         estimate D2E/DX2                !
 ! D185  D(84,45,50,59)        114.8598         estimate D2E/DX2                !
 ! D186  D(46,45,84,56)       -109.5945         estimate D2E/DX2                !
 ! D187  D(46,45,84,58)         49.4143         estimate D2E/DX2                !
 ! D188  D(46,45,84,81)         89.9979         estimate D2E/DX2                !
 ! D189  D(50,45,84,56)         77.1855         estimate D2E/DX2                !
 ! D190  D(50,45,84,58)       -123.8057         estimate D2E/DX2                !
 ! D191  D(50,45,84,81)        -83.2222         estimate D2E/DX2                !
 ! D192  D(45,46,47,48)        -40.6728         estimate D2E/DX2                !
 ! D193  D(45,46,47,52)       -159.2201         estimate D2E/DX2                !
 ! D194  D(45,46,47,57)         78.4581         estimate D2E/DX2                !
 ! D195  D(51,46,47,48)       -158.1029         estimate D2E/DX2                !
 ! D196  D(51,46,47,52)         83.3498         estimate D2E/DX2                !
 ! D197  D(51,46,47,57)        -38.9719         estimate D2E/DX2                !
 ! D198  D(58,46,47,48)         81.5165         estimate D2E/DX2                !
 ! D199  D(58,46,47,52)        -37.0308         estimate D2E/DX2                !
 ! D200  D(58,46,47,57)       -159.3526         estimate D2E/DX2                !
 ! D201  D(45,46,58,66)       -143.5089         estimate D2E/DX2                !
 ! D202  D(45,46,58,84)        113.0222         estimate D2E/DX2                !
 ! D203  D(47,46,58,66)         91.9128         estimate D2E/DX2                !
 ! D204  D(47,46,58,84)        -11.5561         estimate D2E/DX2                !
 ! D205  D(51,46,58,66)        -28.9547         estimate D2E/DX2                !
 ! D206  D(51,46,58,84)       -132.4236         estimate D2E/DX2                !
 ! D207  D(46,47,48,49)        -11.9527         estimate D2E/DX2                !
 ! D208  D(46,47,48,53)        106.7443         estimate D2E/DX2                !
 ! D209  D(46,47,48,56)       -136.4904         estimate D2E/DX2                !
 ! D210  D(52,47,48,49)        106.9343         estimate D2E/DX2                !
 ! D211  D(52,47,48,53)       -134.3687         estimate D2E/DX2                !
 ! D212  D(52,47,48,56)        -17.6034         estimate D2E/DX2                !
 ! D213  D(57,47,48,49)       -134.2013         estimate D2E/DX2                !
 ! D214  D(57,47,48,53)        -15.5043         estimate D2E/DX2                !
 ! D215  D(57,47,48,56)        101.261          estimate D2E/DX2                !
 ! D216  D(46,47,57,65)         68.5542         estimate D2E/DX2                !
 ! D217  D(48,47,57,65)       -168.685          estimate D2E/DX2                !
 ! D218  D(52,47,57,65)        -52.1086         estimate D2E/DX2                !
 ! D219  D(47,48,49,37)        165.5387         estimate D2E/DX2                !
 ! D220  D(47,48,49,50)         48.8323         estimate D2E/DX2                !
 ! D221  D(47,48,49,55)        -73.3027         estimate D2E/DX2                !
 ! D222  D(53,48,49,37)         47.7238         estimate D2E/DX2                !
 ! D223  D(53,48,49,50)        -68.9826         estimate D2E/DX2                !
 ! D224  D(53,48,49,55)        168.8824         estimate D2E/DX2                !
 ! D225  D(56,48,49,37)        -72.4272         estimate D2E/DX2                !
 ! D226  D(56,48,49,50)        170.8664         estimate D2E/DX2                !
 ! D227  D(56,48,49,55)         48.7314         estimate D2E/DX2                !
 ! D228  D(47,48,56,64)       -162.5018         estimate D2E/DX2                !
 ! D229  D(47,48,56,84)         68.5852         estimate D2E/DX2                !
 ! D230  D(49,48,56,64)         72.168          estimate D2E/DX2                !
 ! D231  D(49,48,56,84)        -56.745          estimate D2E/DX2                !
 ! D232  D(53,48,56,64)        -47.3999         estimate D2E/DX2                !
 ! D233  D(53,48,56,84)       -176.3128         estimate D2E/DX2                !
 ! D234  D(37,49,50,45)       -154.438          estimate D2E/DX2                !
 ! D235  D(37,49,50,54)        -38.2737         estimate D2E/DX2                !
 ! D236  D(37,49,50,59)         80.8339         estimate D2E/DX2                !
 ! D237  D(48,49,50,45)        -35.2738         estimate D2E/DX2                !
 ! D238  D(48,49,50,54)         80.8904         estimate D2E/DX2                !
 ! D239  D(48,49,50,59)       -160.002          estimate D2E/DX2                !
 ! D240  D(55,49,50,45)         87.2857         estimate D2E/DX2                !
 ! D241  D(55,49,50,54)       -156.55           estimate D2E/DX2                !
 ! D242  D(55,49,50,59)        -37.4424         estimate D2E/DX2                !
 ! D243  D(45,50,59,60)         51.313          estimate D2E/DX2                !
 ! D244  D(45,50,59,61)        169.8037         estimate D2E/DX2                !
 ! D245  D(45,50,59,62)        -70.5362         estimate D2E/DX2                !
 ! D246  D(49,50,59,60)        178.9734         estimate D2E/DX2                !
 ! D247  D(49,50,59,61)        -62.5358         estimate D2E/DX2                !
 ! D248  D(49,50,59,62)         57.1242         estimate D2E/DX2                !
 ! D249  D(54,50,59,60)        -62.2822         estimate D2E/DX2                !
 ! D250  D(54,50,59,61)         56.2086         estimate D2E/DX2                !
 ! D251  D(54,50,59,62)        175.8686         estimate D2E/DX2                !
 ! D252  D(48,56,84,45)         -4.3235         estimate D2E/DX2                !
 ! D253  D(48,56,84,58)        -13.3743         estimate D2E/DX2                !
 ! D254  D(48,56,84,81)         70.8312         estimate D2E/DX2                !
 ! D255  D(64,56,84,45)       -133.8086         estimate D2E/DX2                !
 ! D256  D(64,56,84,58)       -142.8594         estimate D2E/DX2                !
 ! D257  D(64,56,84,81)        -58.6539         estimate D2E/DX2                !
 ! D258  D(46,58,66,67)        -46.5957         estimate D2E/DX2                !
 ! D259  D(46,58,66,68)         71.5041         estimate D2E/DX2                !
 ! D260  D(46,58,66,69)       -167.6593         estimate D2E/DX2                !
 ! D261  D(84,58,66,67)         55.2214         estimate D2E/DX2                !
 ! D262  D(84,58,66,68)        173.3212         estimate D2E/DX2                !
 ! D263  D(84,58,66,69)        -65.8422         estimate D2E/DX2                !
 ! D264  D(46,58,84,45)        -33.3282         estimate D2E/DX2                !
 ! D265  D(46,58,84,56)        -17.3725         estimate D2E/DX2                !
 ! D266  D(46,58,84,81)        179.2045         estimate D2E/DX2                !
 ! D267  D(66,58,84,45)       -150.5864         estimate D2E/DX2                !
 ! D268  D(66,58,84,56)       -134.6306         estimate D2E/DX2                !
 ! D269  D(66,58,84,81)         61.9464         estimate D2E/DX2                !
 ! D270  D(50,59,62,63)         37.8751         estimate D2E/DX2                !
 ! D271  D(50,59,62,82)        -42.7547         estimate D2E/DX2                !
 ! D272  D(60,59,62,63)        -82.9578         estimate D2E/DX2                !
 ! D273  D(60,59,62,82)       -163.5876         estimate D2E/DX2                !
 ! D274  D(61,59,62,63)        158.9219         estimate D2E/DX2                !
 ! D275  D(61,59,62,82)         78.292          estimate D2E/DX2                !
 ! D276  D(59,62,82,35)       -103.9357         estimate D2E/DX2                !
 ! D277  D(59,62,82,41)       -122.9043         estimate D2E/DX2                !
 ! D278  D(59,62,82,81)         69.9286         estimate D2E/DX2                !
 ! D279  D(63,62,82,35)        152.7961         estimate D2E/DX2                !
 ! D280  D(63,62,82,41)        133.8275         estimate D2E/DX2                !
 ! D281  D(63,62,82,81)        -33.3396         estimate D2E/DX2                !
 ! D282  D(58,66,69,70)        -66.5803         estimate D2E/DX2                !
 ! D283  D(58,66,69,71)        178.4437         estimate D2E/DX2                !
 ! D284  D(58,66,69,72)         55.1989         estimate D2E/DX2                !
 ! D285  D(67,66,69,70)        173.0779         estimate D2E/DX2                !
 ! D286  D(67,66,69,71)         58.102          estimate D2E/DX2                !
 ! D287  D(67,66,69,72)        -65.1428         estimate D2E/DX2                !
 ! D288  D(68,66,69,70)         53.5278         estimate D2E/DX2                !
 ! D289  D(68,66,69,71)        -61.4481         estimate D2E/DX2                !
 ! D290  D(68,66,69,72)        175.3071         estimate D2E/DX2                !
 ! D291  D(66,69,72,73)       -175.4099         estimate D2E/DX2                !
 ! D292  D(66,69,72,74)        -60.3411         estimate D2E/DX2                !
 ! D293  D(66,69,72,75)         62.2316         estimate D2E/DX2                !
 ! D294  D(70,69,72,73)        -53.5609         estimate D2E/DX2                !
 ! D295  D(70,69,72,74)         61.5079         estimate D2E/DX2                !
 ! D296  D(70,69,72,75)       -175.9194         estimate D2E/DX2                !
 ! D297  D(71,69,72,73)         62.7728         estimate D2E/DX2                !
 ! D298  D(71,69,72,74)        177.8417         estimate D2E/DX2                !
 ! D299  D(71,69,72,75)        -59.5857         estimate D2E/DX2                !
 ! D300  D(69,72,75,76)        -58.7239         estimate D2E/DX2                !
 ! D301  D(69,72,75,77)         57.726          estimate D2E/DX2                !
 ! D302  D(69,72,75,78)        178.2068         estimate D2E/DX2                !
 ! D303  D(73,72,75,76)        179.3185         estimate D2E/DX2                !
 ! D304  D(73,72,75,77)        -64.2316         estimate D2E/DX2                !
 ! D305  D(73,72,75,78)         56.2492         estimate D2E/DX2                !
 ! D306  D(74,72,75,76)         62.5579         estimate D2E/DX2                !
 ! D307  D(74,72,75,77)        179.0079         estimate D2E/DX2                !
 ! D308  D(74,72,75,78)        -60.5114         estimate D2E/DX2                !
 ! D309  D(72,75,78,79)        -56.5882         estimate D2E/DX2                !
 ! D310  D(72,75,78,80)       -176.8835         estimate D2E/DX2                !
 ! D311  D(72,75,78,81)         63.2411         estimate D2E/DX2                !
 ! D312  D(76,75,78,79)        179.084          estimate D2E/DX2                !
 ! D313  D(76,75,78,80)         58.7887         estimate D2E/DX2                !
 ! D314  D(76,75,78,81)        -61.0867         estimate D2E/DX2                !
 ! D315  D(77,75,78,79)         65.4434         estimate D2E/DX2                !
 ! D316  D(77,75,78,80)        -54.852          estimate D2E/DX2                !
 ! D317  D(77,75,78,81)       -174.7274         estimate D2E/DX2                !
 ! D318  D(75,78,81,82)        -70.7049         estimate D2E/DX2                !
 ! D319  D(75,78,81,83)        173.5921         estimate D2E/DX2                !
 ! D320  D(75,78,81,84)         50.5228         estimate D2E/DX2                !
 ! D321  D(79,78,81,82)         52.2722         estimate D2E/DX2                !
 ! D322  D(79,78,81,83)        -63.4309         estimate D2E/DX2                !
 ! D323  D(79,78,81,84)        173.4998         estimate D2E/DX2                !
 ! D324  D(80,78,81,82)        167.3725         estimate D2E/DX2                !
 ! D325  D(80,78,81,83)         51.6695         estimate D2E/DX2                !
 ! D326  D(80,78,81,84)        -71.3998         estimate D2E/DX2                !
 ! D327  D(78,81,82,41)         68.293          estimate D2E/DX2                !
 ! D328  D(78,81,82,62)         86.4233         estimate D2E/DX2                !
 ! D329  D(83,81,82,41)       -172.9977         estimate D2E/DX2                !
 ! D330  D(83,81,82,62)       -154.8674         estimate D2E/DX2                !
 ! D331  D(84,81,82,41)        -55.7486         estimate D2E/DX2                !
 ! D332  D(84,81,82,62)        -37.6183         estimate D2E/DX2                !
 ! D333  D(78,81,83,14)         46.9042         estimate D2E/DX2                !
 ! D334  D(78,81,83,19)        132.4731         estimate D2E/DX2                !
 ! D335  D(82,81,83,14)        -73.5694         estimate D2E/DX2                !
 ! D336  D(82,81,83,19)         11.9994         estimate D2E/DX2                !
 ! D337  D(84,81,83,14)        171.1913         estimate D2E/DX2                !
 ! D338  D(84,81,83,19)       -103.2399         estimate D2E/DX2                !
 ! D339  D(78,81,84,45)        -83.545          estimate D2E/DX2                !
 ! D340  D(78,81,84,56)       -145.6169         estimate D2E/DX2                !
 ! D341  D(78,81,84,58)        -67.2075         estimate D2E/DX2                !
 ! D342  D(82,81,84,45)         40.3814         estimate D2E/DX2                !
 ! D343  D(82,81,84,56)        -21.6904         estimate D2E/DX2                !
 ! D344  D(82,81,84,58)         56.719          estimate D2E/DX2                !
 ! D345  D(83,81,84,45)        153.8007         estimate D2E/DX2                !
 ! D346  D(83,81,84,56)         91.7289         estimate D2E/DX2                !
 ! D347  D(83,81,84,58)        170.1383         estimate D2E/DX2                !
 --------------------------------------------------------------------------------
 Trust Radius=3.00D-01 FncErr=1.00D-07 GrdErr=1.00D-06
 Number of steps in this run=    504 maximum allowed number of steps=    504.
 GradGradGradGradGradGradGradGradGradGradGradGradGradGradGradGradGradGrad

 Leave Link  103 at Sat Apr 30 07:11:50 2016, MaxMem= 10737418240 cpu:         0.5
 (Enter /share/apps//g09/l202.exe)
 Stoichiometry    C23H44NO16(1+)
 Framework group  C1[X(C23H44NO16)]
 Deg. of freedom   246
 Full point group                 C1      NOp   1
 Largest Abelian subgroup         C1      NOp   1
 Largest concise Abelian subgroup C1      NOp   1
                         Standard orientation:                         
 ---------------------------------------------------------------------
 Center     Atomic      Atomic             Coordinates (Angstroms)
 Number     Number       Type             X           Y           Z
 ---------------------------------------------------------------------
      1          8           0        4.300903   -0.836956    0.623785
      2          6           0        3.294644    0.140172    0.742710
      3          6           0        3.865265    1.545895    0.535298
      4          6           0        4.608790    1.666103   -0.798605
      5          6           0        5.698188    0.591967   -0.863219
      6          6           0        5.058202   -0.787993   -0.610948
      7          1           0        2.902785    0.022911    1.765790
      8          1           0        4.585226    1.712920    1.353202
      9          1           0        3.900622    1.535356   -1.632841
     10          1           0        6.129237    0.576096   -1.884820
     11          1           0        4.378140   -0.987655   -1.462723
     12          8           0        6.679424    0.985648    0.090647
     13          8           0        5.130224    2.988097   -0.924300
     14          8           0        2.820425    2.536223    0.608061
     15          8           0        2.232445   -0.018172   -0.203723
     16          6           0        6.051046   -1.941719   -0.579651
     17          1           0        5.510334   -2.867048   -0.318217
     18          1           0        6.475718   -2.054720   -1.592232
     19          8           0        7.080188   -1.666671    0.383511
     20          1           0        7.743336   -2.375878    0.351147
     21          1           0        7.179290    0.180567    0.347831
     22          1           0        5.985579    2.988147   -0.446153
     23          1           0        3.246925    3.358360    0.288221
     24          8           0       -1.032499   -2.650973    0.016439
     25          6           0       -0.629532   -2.166111   -1.261943
     26          6           0        0.331749   -0.986948   -1.115781
     27          6           0        1.474417   -1.245370   -0.150394
     28          6           0        0.872179   -1.587971    1.217045
     29          6           0       -0.043991   -2.819222    1.041136
     30          1           0       -0.179147   -2.967682   -1.875503
     31          1           0       -0.264315   -0.177923   -0.672982
     32          1           0        2.110979   -2.088223   -0.476737
     33          1           0        1.674706   -1.883126    1.918121
     34          1           0        0.603511   -3.690478    0.814481
     35          8           0        0.171024   -0.450136    1.748675
     36          8           0        0.772410   -0.591213   -2.418612
     37          8           0       -1.794622   -1.798070   -1.960703
     38          6           0       -0.849442   -3.124660    2.310619
     39          1           0       -1.473017   -4.015143    2.138088
     40          1           0       -0.163885   -3.341039    3.143247
     41          8           0       -1.661872   -2.008413    2.699306
     42          1           0       -2.481623   -2.003199    2.121406
     43          1           0       -0.624819   -0.837564    2.237692
     44          1           0        1.578532   -0.058887   -2.274467
     45          8           0       -5.165730   -0.588157   -1.176978
     46          6           0       -4.881861    0.723972   -0.817778
     47          6           0       -3.854321    1.403404   -1.750956
     48          6           0       -2.706531    0.458411   -2.145342
     49          6           0       -2.665999   -0.832223   -1.314874
     50          6           0       -4.046540   -1.517259   -1.231838
     51          1           0       -5.849897    1.252477   -0.868213
     52          1           0       -3.410556    2.258710   -1.209084
     53          1           0       -2.876917    0.181235   -3.198571
     54          1           0       -4.187046   -2.086489   -2.164951
     55          1           0       -2.303204   -0.617410   -0.298624
     56          8           0       -1.472878    1.206812   -2.048343
     57          8           0       -4.455407    1.828690   -2.971299
     58          8           0       -4.390267    0.749437    0.546346
     59          6           0       -4.169727   -2.493779   -0.060621
     60          1           0       -5.188381   -2.913801   -0.075756
     61          1           0       -3.445998   -3.308758   -0.184974
     62          8           0       -3.912341   -1.892440    1.219156
     63          1           0       -4.297014   -0.984287    1.199425
     64          1           0       -0.792082    0.712800   -2.558654
     65          1           0       -5.067668    2.563003   -2.789902
     66          6           0       -4.800595    1.884832    1.333438
     67          1           0       -4.660378    2.813616    0.751777
     68          1           0       -5.874177    1.800296    1.575775
     69          6           0       -3.958615    1.904929    2.603178
     70          1           0       -4.215229    1.027156    3.216437
     71          1           0       -4.252901    2.789090    3.191744
     72          6           0       -2.443419    1.906295    2.348836
     73          1           0       -1.922534    1.837708    3.317339
     74          1           0       -2.194719    0.988308    1.794047
     75          6           0       -1.940195    3.137251    1.584901
     76          1           0       -2.439888    3.219424    0.605413
     77          1           0       -2.207749    4.053231    2.136362
     78          6           0       -0.433418    3.179066    1.359603
     79          1           0        0.124113    3.117236    2.304429
     80          1           0       -0.142423    4.111333    0.857710
     81          7           0        0.056554    2.046363    0.504425
     82          1           0        0.011947    1.118815    1.006608
     83          1           0        1.074054    2.181812    0.290683
     84          1           0       -0.488527    1.950247   -0.377167
 ---------------------------------------------------------------------
 Rotational constants (GHZ):      0.1563855      0.0550867      0.0512653
 Leave Link  202 at Sat Apr 30 07:11:50 2016, MaxMem= 10737418240 cpu:         2.9
 (Enter /share/apps//g09/l301.exe)
 Standard basis: 6-311+G(d,p) (5D, 7F)
 Ernie: Thresh=  0.10000D-02 Tol=  0.10000D-05 Strict=F.
 There are  1184 symmetry adapted cartesian basis functions of A   symmetry.
 There are  1144 symmetry adapted basis functions of A   symmetry.
  1144 basis functions,  1792 primitive gaussians,  1184 cartesian basis functions
   158 alpha electrons      158 beta electrons
       nuclear repulsion energy      5889.2442417098 Hartrees.
 IExCor= 1009 DFT=T Ex+Corr=PBE1PBE ExCW=0 ScaHFX=  0.250000
 ScaDFX=  0.750000  0.750000  1.000000  1.000000 ScalE2=  1.000000  1.000000
 IRadAn=      0 IRanWt=     -1 IRanGd=            0 ICorTp=0 IEmpDi=131
 NAtoms=   84 NActive=   84 NUniq=   84 SFac= 1.00D+00 NAtFMM=   60 NAOKFM=T Big=T
 Integral buffers will be    131072 words long.
 Raffenetti 2 integral format.
[...]
 0011205,-0.00002018,-0.00018488,-0.00029557,-0.00005675,0.00011897,-0.
 00000105,-0.00003601,0.00005285,0.00007791,-0.00028448,0.00121558,0.00
 060507,-0.00034986,-0.00020906,-0.00057122,-0.00020382,0.00030456,-0.0
 0024951,0.00018728,-0.00018702,-0.00003351,-0.00004342,0.00001278,-0.0
 0000809,-0.00000127,0.00000927,-0.00000940,-0.00006496,0.00023570,0.00
 014141,0.00000871,-0.00003507,-0.00000272,-0.00017468,0.00003445,-0.00
 021035,-0.00058999,0.00041156,0.00037804,-0.00008029,0.00013656,0.0000
 9139,0.00012016,-0.00000639,-0.00020694,0.00018949,0.00005178,-0.00017
 553,-0.00013315,0.00000020,-0.00029952,0.00031918,-0.00015918,-0.00000
 808,0.00000537,-0.00004764,0.00000211,-0.00000409,-0.00000715,0.000010
 81,-0.00005062,0.00008333,0.00004136,0.00000047,0.00000032,0.00012876,
 -0.00001041,0.00000091,0.00002126,-0.00006250,-0.00005998,-0.00001724,
 -0.00146694,0.00003583,0.00038078,-0.00012619,-0.00010622,0.00010010,-
 0.00009118,-0.00001686,0.00020405,0.00005287,-0.00002504,-0.00002781,-
 0.00000260,0.00000390,0.00001011,-0.00000271,0.00001129,0.00000968,-0.
 00005373,0.00007223,0.00006017,0.00001390,-0.00006970,-0.00006351,0.00
 004513,-0.00033549,0.00062401,0.00001665,0.00003039,-0.00002205,0.0000
 3672,-0.00001451,-0.00004379,-0.00000875,0.00003321,-0.00001390,-0.000
 01041,-0.00000332,0.00004260,-0.00004572,0.00006541,-0.00007950,0.0000
 3125,-0.00001563,0.00003992,0.00003850,-0.00004848,0.00001466,0.000204
 50,0.00008528,0.00046720,-0.00000938,-0.00004448,-0.00003541,0.0000389
 4,-0.00014040,-0.00009123,-0.00329539,0.00218151,0.00261002,0.00016353
 ,0.00012889,0.00010081,-0.00015853,0.00045692,-0.00105386,-0.01343988,
 0.00802779,-0.02213243,-0.00045525,-0.00061190,-0.00029528,0.00167139,
 -0.00043768,-0.00002882,-0.12111132,0.03330344,-0.11195781,-0.00524948
 ,0.00131721,-0.01031101,0.13049441,-0.00087332,0.00126470,-0.00037484,
 0.00015802,-0.00316883,0.00191939,0.00059241,-0.00299113,0.00245890,0.
 00049876,0.00037177,0.00017964,-0.00014763,-0.00020918,0.00005508,0.00
 062678,0.00004030,0.00018207,-0.00010084,-0.00024359,-0.00015688,-0.00
 000920,0.00010657,-0.00015709,0.00009370,0.00002750,0.00009293,-0.0000
 8315,0.00008390,-0.00007824,-0.00002191,-0.00005605,0.00000259,-0.0000
 8384,0.00023741,-0.00023980,-0.00056620,-0.00004426,-0.00054886,-0.000
 27061,-0.00788675,-0.00303956,-0.00089742,0.00113661,0.00172366,-0.000
 04276,-0.00017336,0.00004618,0.00002799,0.00000738,0.00000309,-0.00002
 779,0.00004289,-0.00004083,-0.00000439,0.00021648,-0.00009041,-0.00000
 157,-0.00005231,0.00002592,0.00001932,-0.00013590,0.00005784,0.0000442
 7,-0.00002637,0.00016397,0.00043872,0.00368864,-0.00257204,-0.00008763
 ,-0.00021925,0.00022029,-0.00001139,0.00019379,-0.00049065,-0.00003442
 ,0.00050529,0.00003529,0.00015421,-0.00056497,-0.00287366,-0.00108406,
 0.00025261,0.00003162,0.00044596,0.00003178,-0.00019519,0.00002651,-0.
 00003568,0.00001188,-0.00021680,0.00023084,0.00015388,-0.00004202,0.00
 035375,0.00052479,0.00008402,-0.00024721,-0.00003605,0.00003887,-0.000
 06620,-0.00005068,0.00115770,-0.00282693,0.00073038,0.00007857,-0.0005
 7258,0.00030752,0.00017546,-0.00051038,0.00039672,-0.00024933,0.000179
 72,0.00003450,0.00006330,-0.00000827,0.00003381,-0.00001355,-0.0000265
 8,0.00000287,0.00016010,-0.00027841,0.00016729,0.00001562,0.00018013,-
 0.00009271,-0.00014170,0.00040437,-0.00008482,0.00033312,0.00042991,-0
 .00032897,0.00011822,-0.00022570,-0.00011785,-0.00016927,0.00006534,0.
 00026811,-0.00013027,-0.00003733,0.00009170,0.00015885,-0.00000872,0.0
 0041326,-0.00032180,0.00028025,-0.00005882,-0.00003271,0.00007482,-0.0
 0001232,0.00000554,0.00000062,-0.00001406,0.00005384,-0.00005077,-0.00
 003116,0.00000173,0.00000667,-0.00010040,0.00001281,-0.00000282,-0.000
 01924,0.00002889,0.00006732,0.00003740,0.00012223,-0.00018948,-0.00074
 102,0.00008458,0.00005318,-0.00011979,0.00017753,-0.00002446,-0.000254
 16,-0.00003169,0.00003925,0.00000663,-0.00000275,-0.00000991,-0.000006
 46,0.00000720,-0.00001448,-0.00002084,0.00003089,-0.00016455,-0.000021
 72,-0.00002732,0.00012570,0.00010110,-0.00021022,0.00037677,0.00002583
 ,-0.00001165,-0.00002087,0.00005535,-0.00010584,0.00002522,0.00008925,
 0.00000784,-0.00004254,0.00000934,0.00002530,0.00000102,-0.00005570,-0
 .00011004,0.00000957,0.00023797,-0.00003861,0.00001434,-0.00006893,-0.
 00005161,0.00007819,-0.00010736,0.00012235,-0.00001804,-0.00069449,-0.
 00003938,0.00003020,0.00005800,-0.00026803,0.00033837,0.00035928,0.002
 65462,-0.00202985,-0.00190533,-0.00009713,0.00016154,-0.00028484,0.000
 42797,-0.00010702,0.00073981,0.01145306,-0.00774148,0.01634880,-0.0009
 5273,0.00075900,-0.00020355,-0.00047167,-0.00023330,0.00041522,0.03247
 466,-0.07967683,0.06896475,-0.01397600,0.01424152,-0.02722298,-0.03926
 582,0.08916958,0.00058791,-0.00069390,-0.00186436,-0.00088205,0.000761
 24,0.00514373,-0.00497977,0.01012652,0.00186867,-0.00087271,-0.0013516
 1,-0.00001609,0.00041161,0.00081417,0.00037311,-0.00040284,0.00013403,
 0.00060035,0.00011621,0.00008136,-0.00013901,0.00092107,-0.00233943,0.
 00037756,-0.00005007,0.00020945,-0.00006875,0.00024243,-0.00036583,0.0
 0010521,0.00014097,0.00003419,-0.00000817,0.00040887,-0.00092638,0.000
 23259,0.00129388,-0.00060570,0.00066162,0.00283450,-0.00631284,0.00231
 931,-0.00029630,0.00212206,-0.00466465,-0.00005442,0.00014171,-0.00003
 064,-0.00002409,-0.00013549,-0.00004099,0.00001056,0.00000235,0.000039
 67,0.00003118,-0.00034560,-0.00012455,0.00002916,0.00008888,-0.0000328
 3,-0.00001829,0.00047228,0.00004309,-0.00018745,0.00011269,-0.00045738
 ,-0.00049029,-0.00377077,-0.00073136,0.00012188,0.00033636,-0.00010026
 ,-0.00022372,-0.00002427,-0.00012397,0.00107333,-0.00097259,0.00036199
 ,0.00033418,-0.00035058,0.00102439,0.00115750,-0.00128612,0.00016250,-
 0.00036899,-0.00002791,0.00008617,-0.00003810,0.00009854,0.00015734,-0
 .00021638,0.00019331,-0.00048371,-0.00011101,0.00005379,-0.00013762,-0
 .00001809,0.00037903,0.00003270,-0.00007829,0.00010210,0.00010613,-0.0
 0004014,0.00275676,0.00081136,-0.00071936,0.00055299,-0.00041975,-0.00
 016094,0.00036233,-0.00013566,0.00019908,-0.00035972,-0.00002795,-0.00
 005548,0.00002495,0.00000892,0.00001882,0.00003181,-0.00002524,-0.0000
 1696,0.00049489,0.00027030,-0.00002328,-0.00012207,-0.00001789,-0.0003
 2492,-0.00000268,-0.00044863,0.00034048,-0.00042966,0.00055741,-0.0001
 3926,0.00024044,0.00025391,0.00025520,-0.00002423,-0.00045864,0.000306
 51,0.00020165,-0.00024683,-0.00028197,-0.00001377,-0.00076955,0.000304
 33,-0.00021236,0.00000775,0.00001456,-0.00005006,-0.00005919,0.0000110
 2,-0.00002028,0.00002797,-0.00007474,0.00011295,0.00006744,-0.00000268
 ,0.00001130,0.00021901,-0.00001826,0.00000491,0.00002978,-0.00008082,-
 0.00009293,-0.00004821,-0.00062011,-0.00016120,0.00143218,-0.00023889,
 -0.00029748,0.00023511,-0.00028208,-0.00001746,0.00044207,0.00007210,-
 0.00005651,-0.00006335,0.00001261,0.00000278,0.00003727,-0.00001312,0.
 00001297,-0.00001136,-0.00005133,0.00017843,0.00016883,0.00001316,-0.0
 0016171,-0.00016879,0.00047253,-0.00013768,0.00002348,0.00004503,0.000
 07915,-0.00006407,0.00014078,-0.00006218,-0.00018087,0.00001265,0.0001
 1247,-0.00005480,-0.00002701,0.00000674,0.00012112,-0.00001576,0.00017
 778,-0.00009664,0.00003848,0.00000132,0.00018482,-0.00003012,-0.000065
 94,0.00000771,-0.00027006,-0.00040880,-0.00016324,0.00004561,0.0000421
 2,0.00000890,-0.00001767,-0.00002511,-0.00019850,0.00369869,-0.0023460
 6,-0.00183985,-0.00023785,0.00020544,-0.00020459,0.00088763,-0.0007124
 9,0.00119374,-0.00012986,0.00018345,0.01537018,0.00114096,-0.00013576,
 0.00012897,0.00069087,-0.00116669,0.00039328,-0.11113143,0.07025243,-0
 .27459203,-0.00710629,-0.00048083,-0.01512144,0.11881005,-0.06719570,0
 .28175103,-0.00031722,0.00015820,0.00012593,0.00047536,-0.00031770,-0.
 00027111,0.00042509,-0.00107484,-0.00005392,0.00022193,0.00021300,-0.0
 0011050,-0.00006605,-0.00006802,-0.00005572,0.00020719,0.00002652,-0.0
 0004676,-0.00010018,-0.00013314,0.00003893,-0.00007112,0.00018836,-0.0
 0001118,-0.00003934,-0.00001501,0.00001672,-0.00004444,0.00004522,-0.0
 0002610,-0.00003672,-0.00000859,0.00001215,-0.00008394,0.00005581,0.00
 000608,-0.00023643,0.00005251,-0.00005023,-0.00102786,0.00106109,-0.00
 245357,-0.00082439,0.00015144,0.00068490,0.00000416,-0.00000289,-0.000
 01834,0.00001023,0.00001308,0.00000522,-0.00001354,0.00000887,-0.00001
 182,-0.00002891,0.00001771,0.00002945,0.00000493,-0.00000605,0.0000041
 5,0.00001561,-0.00004426,0.00000274,0.00003633,-0.00001551,0.00004890,
 0.00008490,0.00034799,-0.00016435,-0.00065503,-0.00056951,0.00009764,0
 .00057717,0.00071681,-0.00005312,0.00048819,0.00076834,0.00042792,0.00
 032234,-0.00016202,-0.00054911,0.00085031,-0.00055613,0.00017160,0.000
 15177,0.00040343,-0.00040044,-0.00002763,-0.00005357,-0.00001978,0.000
 72868,0.00132301,0.00029883,-0.00008802,-0.00001788,0.00008654,-0.0001
 8520,0.00010989,-0.00000203,-0.00003742,-0.00001897,0.00010189,-0.0003
 6803,0.00152349,0.00062737,-0.00030060,-0.00157520,-0.00008231,-0.0002
 5767,-0.00066558,0.00012670,0.00012559,-0.00019765,0.00005093,-0.00001
 064,0.00004032,0.00002092,-0.00003839,-0.00001274,-0.00001264,-0.00012
 274,0.00017084,0.00033669,0.00014038,0.00014049,-0.00021332,-0.0001588
 7,-0.00013114,-0.00040633,-0.00020988,0.00060661,-0.00036644,-0.000412
 00,0.00006334,0.00005529,0.00110876,0.00058644,-0.00033612,0.00048861,
 -0.00068377,-0.00035635,0.00363496,0.00028624,0.00419735,0.00027852,0.
 00081023,-0.00055516,0.00006646,-0.00055193,0.00024341,-0.00015359,-0.
 00005652,-0.00009771,0.00006226,0.00013282,0.00022576,-0.00026382,-0.0
 0007470,-0.00147079,-0.00003169,0.00001944,0.00003476,-0.00000715,-0.0
 0009568,0.00006559,-0.00273043,0.00045369,-0.00774566,-0.00037932,0.00
 024162,-0.00015311,-0.00106548,-0.00008609,0.00069333,0.00033296,0.000
 17125,-0.00031523,-0.00010808,-0.00007753,-0.00001352,0.00000238,0.000
 02627,0.00002526,-0.00044881,-0.00005867,0.00019412,0.00015297,-0.0000
 7826,-0.00009607,-0.00211552,0.00071295,0.00042117,0.00001506,0.000021
 94,0.00002058,0.00050555,-0.00024970,-0.00031491,0.00000546,0.00010462
 ,-0.00006491,-0.00006886,0.00003756,0.00010624,0.00009419,0.00010825,-
 0.00023980,0.00005359,-0.00002729,0.00014986,-0.00001504,-0.00007558,0
 .00010339,-0.00035778,-0.00016698,-0.00008720,0.00021409,0.00004252,0.
 00011786,-0.00003394,-0.00014571,-0.00034035,0.00073168,-0.00130713,-0
 .00053123,-0.00017388,0.00089460,-0.00081103,0.00082889,-0.00006047,0.
 00037977,-0.01976083,-0.01065249,0.01509189,-0.00206879,0.00355518,0.0
 0057014,0.00123758,-0.00029866,-0.00017741,-0.19784797,-0.10002966,0.1
 2216820,-0.00675255,-0.00564109,0.00447640,0.01752978,0.00812457,-0.00
 582314,0.20793191,-0.00009911,0.00027063,-0.00027246,-0.00036571,-0.00
 028333,0.00059453,-0.00001739,0.00000064,-0.00000190,0.00003602,0.0000
 5940,0.00012847,-0.00000182,-0.00001913,0.00003938,0.00013599,-0.00001
 867,0.00010432,0.00005117,0.00007476,-0.00005580,-0.00000401,-0.000005
 65,-0.00003342,0.00003315,0.00002602,0.00001476,-0.00001183,0.00000546
 ,-0.00001540,0.00001131,-0.00000850,0.00000392,-0.00001093,0.00002243,
 -0.00007684,-0.00004272,-0.00006800,-0.00012879,0.00001291,0.00023421,
 -0.00008052,0.00032045,0.00046054,-0.00057511,0.00000005,-0.00004653,0
 .00003791,0.00000614,-0.00001202,-0.00000469,-0.00000692,0.00000774,-0
 .00001026,-0.00000046,0.00005621,-0.00005622,0.00000519,-0.00001403,0.
 00001126,0.00000811,-0.00001593,0.00002410,0.00001368,0.00000281,0.000
 02442,0.00009029,0.00004555,0.00003868,0.00006758,0.00004291,0.0002779
 5,-0.00045207,0.00081935,-0.00123456,0.00208309,-0.00112781,0.00113670
 ,-0.00025210,-0.00027955,0.00009772,-0.00019188,-0.00014235,-0.0002269
 8,0.00006968,-0.00019877,-0.00003207,-0.00001009,0.00003850,0.00033892
 ,0.00023337,-0.00108492,-0.00168700,0.00001781,0.00017806,-0.00012068,
 0.00003360,0.00004706,0.00001136,0.00000225,-0.00000654,-0.00002318,0.
 00048015,-0.00035075,-0.00059897,-0.00093508,-0.00038659,-0.00009096,0
 .00012867,-0.00071537,0.00048513,-0.00010125,0.00003865,-0.00002193,0.
 00001533,0.00000247,0.00001955,0.00000396,-0.00001092,-0.00000167,0.00
 008403,-0.00008156,0.00016651,0.00000066,0.00013017,-0.00015506,-0.000
 08184,-0.00013335,-0.00024534,0.00031345,-0.00011441,0.00013455,0.0000
 0724,-0.00041305,-0.00016785,0.00041007,0.00034404,0.00023133,-0.00049
 422,0.00002806,0.00053570,0.00119750,-0.00034529,0.00123575,0.00017324
 ,0.00070585,-0.00053991,-0.00023134,0.00001009,-0.00002518,-0.00003699
 ,-0.00003724,-0.00002786,0.00027365,-0.00019860,0.00006494,-0.00009825
 ,-0.00007820,-0.00045745,0.00001922,-0.00000737,0.00004455,-0.00017120
 ,-0.00004909,-0.00009690,-0.00040646,-0.00333017,-0.00064168,0.0001193
 1,0.00004472,-0.00035211,-0.00024389,-0.00021342,-0.00003084,0.0000670
 3,0.00004878,-0.00011370,-0.00001987,-0.00002562,0.00000880,-0.0000044
 5,-0.00002135,-0.00002761,-0.00004835,-0.00014702,0.00009878,-0.000009
 53,0.00012749,0.00001092,0.00074687,0.00129712,-0.00166395,0.00001257,
 -0.00003271,0.00013142,0.00015161,0.00009970,0.00003516,-0.00001018,-0
 .00007649,-0.00002651,-0.00002923,-0.00003020,-0.00000680,0.00009853,-
 0.00003525,-0.00005475,-0.00001103,-0.00001660,0.00001176,0.00001951,-
 0.00002742,0.00005118,-0.00031532,0.00004255,0.00055241,-0.00008149,-0
 .00021048,-0.00016984,0.00006324,-0.00012459,-0.00022233,0.00031260,0.
 00212076,-0.00124746,-0.00043893,-0.00083627,0.00091197,-0.00037262,-0
 .00025076,0.00008692,0.01483009,0.01525754,-0.01466707,0.00423450,-0.0
 0302615,-0.00099445,-0.00003340,0.00014203,-0.00065930,-0.09968704,-0.
 13447583,0.09087355,-0.01818806,-0.01081067,0.02122796,-0.00500554,-0.
 00496249,0.00195426,0.10152775,0.14207469,0.00025522,-0.00032549,0.000
 02390,-0.00013260,0.00028496,-0.00019979,-0.00029031,0.00052167,-0.000
 23369,0.00001422,0.00002645,-0.00011396,-0.00001374,0.00010294,0.00001
 169,-0.00017759,-0.00001175,0.00001688,0.00001670,0.00007773,0.0000039
 9,0.00001734,-0.00008446,0.00001623,-0.00007312,0.00002703,0.00001505,
 0.00002709,-0.00001909,0.00001949,0.00002033,0.00002559,0.00000571,0.0
 0004219,-0.00014969,0.00004756,0.00010087,-0.00008691,0.00011345,-0.00
 036064,-0.00063959,-0.00032599,0.00042354,-0.00069931,-0.00041608,-0.0
 0000760,0.00004111,0.00000613,-0.00001213,-0.00001850,-0.00000751,0.00
 001021,-0.00000803,0.00001388,0.00001791,-0.00006873,-0.00001288,-0.00
 000083,0.00001774,-0.00000455,-0.00001456,0.00007180,0.00000309,-0.000
 03151,0.00002569,-0.00005227,-0.00001455,0.00021754,-0.00039884,0.0005
 5125,0.00070660,-0.00030728,-0.00045197,-0.00109209,0.00055989,0.00077
 048,-0.00038197,-0.00009597,-0.00056600,0.00047089,0.00101098,-0.00078
 454,0.00037819,-0.00043835,-0.00020572,-0.00054786,0.00053374,-0.00000
 448,0.00010571,-0.00001970,0.00010649,-0.00162201,0.00029300,0.0001026
 9,0.00000589,-0.00018154,0.00014350,-0.00007848,0.00000252,0.00003285,
 0.00003745,-0.00013810,0.00042478,-0.00214027,-0.00156978,-0.00039431,
 0.00066449,-0.00077074,-0.00019140,0.00109864,-0.00035111,0.00002387,0
 .00008234,-0.00001619,-0.00002177,-0.00003489,-0.00002980,0.00004188,0
 .00003216,0.00000486,0.00000526,0.00003554,-0.00052360,-0.00016454,-0.
 00031434,0.00029433,0.00025963,-0.00016280,0.00060155,-0.00031190,0.00
 021786,0.00033164,0.00024851,0.00018202,0.00020247,-0.00076305,-0.0004
 2791,-0.00019709,0.00021438,0.00063502,-0.00033447,-0.00183972,-0.0001
 1673,-0.00426628,0.00068065,-0.00076565,0.00016648,-0.00018643,0.00030
 359,-0.00024553,0.00012275,0.00001419,0.00011780,-0.00017301,0.0003506
 3,-0.00010235,0.00015145,0.00003981,0.00121972,0.00001839,-0.00000611,
 0.00005828,-0.00033600,-0.00027755,-0.00012329,-0.00365863,0.00036991,
 0.00231943,-0.00007391,-0.00052875,0.00042488,0.00097313,-0.00003026,-
 0.00003943,-0.00025444,-0.00019554,0.00020361,0.00009740,0.00006949,0.
 00002868,-0.00000929,-0.00000859,-0.00000855,0.00039325,0.00026033,-0.
 00009227,-0.00014245,-0.00009813,-0.00006575,0.00050144,-0.00147720,0.
 00252636,0.00001241,0.00008107,-0.00003401,-0.00066681,0.00032337,0.00
 016322,0.00000156,-0.00001319,0.00002318,0.00010032,-0.00003507,-0.000
 02691,0.00008244,-0.00017922,-0.00004425,-0.00003657,0.00003435,-0.000
 09401,0.00006751,0.00000038,0.00000749,-0.00013867,0.00050597,-0.00002
 274,0.00028879,-0.00000012,-0.00002188,-0.00001882,-0.00029961,0.00006
 479,-0.00188267,-0.00081109,0.00190481,0.00048723,0.00045989,0.0000832
 8,-0.00005625,0.00022388,-0.00058301,0.00435219,-0.00157662,-0.0021887
 8,-0.00112039,-0.00008579,0.00054221,0.00009174,0.00014419,-0.00068680
 ,0.12191469,0.09069808,-0.17290015,-0.01290217,-0.00366269,0.01469690,
 0.02203031,0.01292410,-0.01300730,-0.12775372,-0.09381416,0.17260937\\
 -0.00000534,0.00001398,0.00000019,0.00000845,-0.00000595,0.00000393,0.
 00001469,-0.00000512,-0.00000106,-0.00000351,0.00000871,-0.00001275,0.
 00000236,-0.00000548,-0.00000636,0.00001529,-0.00000110,0.00000967,0.0
 0000202,0.00000592,0.00000338,0.00000650,0.00000814,-0.00000023,0.0000
 0586,0.00000151,-0.00000203,0.00000294,0.00000375,-0.00000021,-0.00000
 026,-0.00000071,-0.00000274,0.00001592,-0.00000429,0.00000002,0.000013
 89,0.00000114,0.00000247,0.00000866,0.00001875,0.00000356,-0.00000263,
 0.00000263,0.00000358,0.00000063,0.00000752,-0.00000424,-0.00000374,0.
 00000098,0.00000450,-0.00000021,-0.00000110,-0.00000180,-0.00000033,-0
 .00000878,-0.00000608,0.00000261,0.00000877,0.00000741,0.00000513,0.00
 001299,0.00000182,0.00000833,0.00000821,-0.00000659,0.00000917,0.00000
 198,-0.00000248,0.00000721,0.00000523,-0.00000770,-0.00001007,-0.00000
 147,0.00000886,-0.00000045,-0.00000190,-0.00001106,-0.00000023,-0.0000
 0707,-0.00001132,-0.00001084,0.00001595,0.00000791,-0.00001487,-0.0000
 1026,0.00001277,-0.00000419,-0.00000385,-0.00000349,-0.00000020,-0.000
 00049,0.00000218,-0.00000262,0.00000132,0.00000121,-0.00000165,-0.0000
 0096,0.00000397,-0.00000521,0.00000096,0.00000245,-0.00000319,-0.00001
 023,-0.00000762,-0.00000189,-0.00000854,0.00000122,-0.00001253,-0.0000
 0871,-0.00000487,-0.00000282,-0.00000088,0.00000366,-0.00000987,-0.000
 00142,0.00000842,-0.00000712,0.00000363,0.00000805,0.00000130,0.000010
 70,-0.00000387,-0.00001503,-0.00000683,0.00001493,0.00000350,-0.000000
 96,0.00000583,0.00000121,-0.00000013,-0.00001177,-0.00001669,0.0000052
 4,-0.00000264,0.00000428,-0.00000560,-0.00000381,-0.00000812,-0.000013
 31,-0.00000596,-0.00000269,-0.00000268,-0.00001867,-0.00000120,0.00000
 273,0.00000059,0.00000308,-0.00002130,0.00000705,-0.00000434,-0.000003
 42,-0.00000112,0.00000471,0.00000010,-0.00000548,-0.00000232,-0.000007
 67,-0.00000506,-0.00000717,-0.00000500,-0.00000289,-0.00000281,-0.0000
 0465,0.00000023,0.00000145,-0.00001882,0.00001264,-0.00000018,0.000001
 15,-0.00000679,0.00000829,-0.00000062,0.00000018,-0.00000012,-0.000002
 96,-0.00000500,-0.00001062,-0.00000533,0.00000315,-0.00001155,-0.00000
 460,0.00000216,-0.00001446,0.00000324,0.00000117,-0.00000338,-0.000010
 71,0.00000891,-0.00000011,0.00000870,-0.00001771,0.00000397,-0.0000098
 9,-0.00000805,-0.00000727,0.00000719,0.00000389,0.00000248,-0.00000315
 ,-0.00000233,-0.00000132,-0.00000272,0.00000284,0.00000490,0.00000115,
 0.00000234,-0.00000223,0.00000417,0.00000492,0.00000133,0.00000338,0.0
 0000484,-0.00000006,0.00000526,0.00000044,0.00000209,0.00000405,0.0000
 0478,-0.00000035,0.00000137,0.00000449,0.00000261,0.00000239,0.0000026
 3,0.00000322,0.00000153,-0.00000130,0.00000708,0.00000557,0.00000046,0
 .00001032,0.00000257,0.00000049,0.00000536,0.00000686,0.00000172,0.000
 00789,0.00000232,-0.00000104,0.00000883,0.00001409,0.00000051,0.000009
 51,0.00000577,0.00001110,-0.00000526,-0.00000309,0.00000365,-0.0000060
 9,-0.00000982,-0.00001105\\\@


 ERWIN WITH HIS PSI CAN DO
 CALCULATIONS QUITE A FEW.
 BUT ONE THING HAS NOT BEEN SEEN
 JUST WHAT DOES PSI REALLY MEAN.
 -- WALTER HUCKEL, TRANS. BY FELIX BLOCH
 Job cpu time:      17 days  9 hours 35 minutes 53.0 seconds.
 File lengths (MBytes):  RWF=  17374 Int=      0 D2E=      0 Chk=     99 Scr=      1
 Normal termination of Gaussian 09 at Mon May  2 00:13:03 2016.
