 Entering Gaussian System, Link 0=g16
 Input=input.com
 Output=input.log
 Initial command:
 /home/matma/Programs/gaussian/G16_x86_SSE4/tar/g16/l1.exe "/scratch-data/gaussian/Gau-31885.inp" -scrdir="/scratch-data/gaussian/"
 Entering Link 1 = /home/matma/Programs/gaussian/G16_x86_SSE4/tar/g16/l1.exe PID=     31887.
  
 Copyright (c) 1988-2017, Gaussian, Inc.  All Rights Reserved.
  
 This is part of the Gaussian(R) 16 program.  It is based on
 the Gaussian(R) 09 system (copyright 2009, Gaussian, Inc.),
 the Gaussian(R) 03 system (copyright 2003, Gaussian, Inc.),
 the Gaussian(R) 98 system (copyright 1998, Gaussian, Inc.),
 the Gaussian(R) 94 system (copyright 1995, Gaussian, Inc.),
 the Gaussian 92(TM) system (copyright 1992, Gaussian, Inc.),
 the Gaussian 90(TM) system (copyright 1990, Gaussian, Inc.),
 the Gaussian 88(TM) system (copyright 1988, Gaussian, Inc.),
 the Gaussian 86(TM) system (copyright 1986, Carnegie Mellon
 University), and the Gaussian 82(TM) system (copyright 1983,
 Carnegie Mellon University). Gaussian is a federally registered
 trademark of Gaussian, Inc.
  
 This software contains proprietary and confidential information,
 including trade secrets, belonging to Gaussian, Inc.
  
 This software is provided under written license and may be
 used, copied, transmitted, or stored only in accord with that
 written license.
  
 The following legend is applicable only to US Government
 contracts under FAR:
  
                    RESTRICTED RIGHTS LEGEND
  
 Use, reproduction and disclosure by the US Government is
 subject to restrictions as set forth in subparagraphs (a)
 and (c) of the Commercial Computer Software - Restricted
 Rights clause in FAR 52.227-19.
  
 Gaussian, Inc.
 340 Quinnipiac St., Bldg. 40, Wallingford CT 06492
  
  
 ---------------------------------------------------------------
 Warning -- This program may not be used in any manner that
 competes with the business of Gaussian, Inc. or will provide
 assistance to any competitor of Gaussian, Inc.  The licensee
 of this program is prohibited from giving any competitor of
 Gaussian, Inc. access to this program.  By using this program,
 the user acknowledges that Gaussian, Inc. is engaged in the
 business of creating and licensing software in the field of
 computational chemistry and represents and warrants to the
 licensee that it is not a competitor of Gaussian, Inc. and that
 it will not use this program in any manner prohibited above.
 ---------------------------------------------------------------
  

 Cite this work as:
 Gaussian 16, Revision B.01,
 M. J. Frisch, G. W. Trucks, H. B. Schlegel, G. E. Scuseria, 
 M. A. Robb, J. R. Cheeseman, G. Scalmani, V. Barone, 
 G. A. Petersson, H. Nakatsuji, X. Li, M. Caricato, A. V. Marenich, 
 J. Bloino, B. G. Janesko, R. Gomperts, B. Mennucci, H. P. Hratchian, 
 J. V. Ortiz, A. F. Izmaylov, J. L. Sonnenberg, D. Williams-Young, 
 F. Ding, F. Lipparini, F. Egidi, J. Goings, B. Peng, A. Petrone, 
 T. Henderson, D. Ranasinghe, V. G. Zakrzewski, J. Gao, N. Rega, 
 G. Zheng, W. Liang, M. Hada, M. Ehara, K. Toyota, R. Fukuda, 
 J. Hasegawa, M. Ishida, T. Nakajima, Y. Honda, O. Kitao, H. Nakai, 
 T. Vreven, K. Throssell, J. A. Montgomery, Jr., J. E. Peralta, 
 F. Ogliaro, M. J. Bearpark, J. J. Heyd, E. N. Brothers, K. N. Kudin, 
 V. N. Staroverov, T. A. Keith, R. Kobayashi, J. Normand, 
 K. Raghavachari, A. P. Rendell, J. C. Burant, S. S. Iyengar, 
 J. Tomasi, M. Cossi, J. M. Millam, M. Klene, C. Adamo, R. Cammi, 
 J. W. Ochterski, R. L. Martin, K. Morokuma, O. Farkas, 
 J. B. Foresman, and D. J. Fox, Gaussian, Inc., Wallingford CT, 2016.
 
 ******************************************
 Gaussian 16:  ES64L-G16RevB.01 20-Dec-2017
                22-Jun-2021 
 ******************************************
 %nproc=12
 Will use up to   12 processors via shared memory.
 %mem=16GB
 --------------------------------------
 #P pm6 opt=loose freq int=(grid=99590)
 --------------------------------------
 1/7=-1,18=20,19=15,26=1,38=1/1,3;
 2/9=110,12=2,17=6,18=5,40=1/2;
 3/5=2,25=1,41=3900000,71=1,75=99590/1,2,3;
 4/35=1/1;
 5/5=2,35=1,38=5/2;
 6/7=2,8=2,9=2,10=2,28=1/1;
 7//1,2,3,16;
 1/7=-1,18=20,19=15,26=1/3(2);
 2/9=110/2;
 99//99;
 2/9=110/2;
 3/5=2,25=1,41=3900000,71=1,75=99590,135=20/1,2,3;
 4/5=5,16=3,35=1/1;
 5/5=2,35=1,38=5/2;
 7//1,2,3,16;
 1/7=-1,18=20,19=15,26=1/3(-5);
 2/9=110/2;
 6/7=2,8=2,9=2,10=2,19=2,28=1/1;
 99/9=1/99;
 Leave Link    1 at Tue Jun 22 14:21:24 2021, MaxMem=  2147483648 cpu:               0.3 elap:               0.0
 (Enter /home/matma/Programs/gaussian/G16_x86_SSE4/tar/g16/l101.exe)
 ------------
 offspring-03
 ------------
 Symbolic Z-matrix:
 Charge =  0 Multiplicity = 1
 O                     1.964     0.956     0.206 
 C                     2.445     2.126     0.881 
 C                     3.127     1.707     2.203 
 O                     3.988     0.63      1.811 
 C                     2.07      1.193     3.204 
 C                     1.086     2.332     3.534 
 O                     1.056     3.347     2.536 
 C                     1.213     3.022     1.138 
 C                    -0.098     2.419     0.616 
 O                    -1.207     3.117     1.212 
 O                    -4.368     0.646     5.525 
 C                    -2.966     0.394     5.725 
 C                    -2.202     0.819     4.451 
 C                    -0.681     0.96      4.692 
 C                    -0.293     1.505     6.094 
 O                    -1.166     1.133     7.163 
 C                    -2.589     1.268     6.932 
 C                    -3.203     0.774     8.259 
 O                    -4.156    -0.264     8.063 
 O                     0.929     0.887     6.492 
 O                    -0.288     1.994     3.765 
 O                    -2.446    -0.269     3.567 
 O                     2.802     0.88      4.391 
 H                     3.178     2.625     0.206 
 H                     3.745     2.518     2.648 
 H                     4.348     0.189     2.621 
 H                     1.565     0.279     2.809 
 H                     1.352     2.916     4.452 
 H                     1.373     4.052     0.73 
 H                    -0.227     2.567    -0.472 
 H                    -0.195     1.34      0.851 
 H                    -0.975     3.338     2.17 
 H                    -2.819    -0.694     5.932 
 H                    -2.612     1.764     4.02 
 H                    -0.16      0.        4.471 
 H                    -0.115     2.601     6.101 
 H                    -2.814     2.34      6.741 
 H                    -2.427     0.299     8.898 
 H                    -3.678     1.607     8.809 
 H                    -4.853     0.023     7.413 
 H                    -2.27      0.001     2.598 
 H                    -4.683     0.107     4.756 
 H                     2.369     0.113     4.859 
 H                     0.758     0.202     7.189 
 H                     2.678     0.262     0.202 
 
 ITRead=  0  0  0  0  0  0  0  0  0  0  0  0  0  0  0  0  0  0  0  0
 ITRead=  0  0  0  0  0  0  0  0  0  0  0  0  0  0  0  0  0  0  0  0
 ITRead=  0  0  0  0  0
 MicOpt= -1 -1 -1 -1 -1 -1 -1 -1 -1 -1 -1 -1 -1 -1 -1 -1 -1 -1 -1 -1
 MicOpt= -1 -1 -1 -1 -1 -1 -1 -1 -1 -1 -1 -1 -1 -1 -1 -1 -1 -1 -1 -1
 MicOpt= -1 -1 -1 -1 -1
 NAtoms=     45 NQM=       45 NQMF=       0 NMMI=      0 NMMIF=      0
                NMic=       0 NMicF=      0.
                    Isotopes and Nuclear Properties:
 (Nuclear quadrupole moments (NQMom) in fm**2, nuclear magnetic moments (NMagM)
  in nuclear magnetons)

  Atom         1           2           3           4           5           6           7           8           9          10
 IAtWgt=          16          12          12          16          12          12          16          12          12          16
 AtmWgt=  15.9949146  12.0000000  12.0000000  15.9949146  12.0000000  12.0000000  15.9949146  12.0000000  12.0000000  15.9949146
 NucSpn=           0           0           0           0           0           0           0           0           0           0
 AtZEff=  -0.0000000  -0.0000000  -0.0000000  -0.0000000  -0.0000000  -0.0000000  -0.0000000  -0.0000000  -0.0000000  -0.0000000
 NQMom=    0.0000000   0.0000000   0.0000000   0.0000000   0.0000000   0.0000000   0.0000000   0.0000000   0.0000000   0.0000000
 NMagM=    0.0000000   0.0000000   0.0000000   0.0000000   0.0000000   0.0000000   0.0000000   0.0000000   0.0000000   0.0000000
 AtZNuc=   8.0000000   6.0000000   6.0000000   8.0000000   6.0000000   6.0000000   8.0000000   6.0000000   6.0000000   8.0000000

  Atom        11          12          13          14          15          16          17          18          19          20
 IAtWgt=          16          12          12          12          12          16          12          12          16          16
 AtmWgt=  15.9949146  12.0000000  12.0000000  12.0000000  12.0000000  15.9949146  12.0000000  12.0000000  15.9949146  15.9949146
 NucSpn=           0           0           0           0           0           0           0           0           0           0
 AtZEff=  -0.0000000  -0.0000000  -0.0000000  -0.0000000  -0.0000000  -0.0000000  -0.0000000  -0.0000000  -0.0000000  -0.0000000
 NQMom=    0.0000000   0.0000000   0.0000000   0.0000000   0.0000000   0.0000000   0.0000000   0.0000000   0.0000000   0.0000000
 NMagM=    0.0000000   0.0000000   0.0000000   0.0000000   0.0000000   0.0000000   0.0000000   0.0000000   0.0000000   0.0000000
 AtZNuc=   8.0000000   6.0000000   6.0000000   6.0000000   6.0000000   8.0000000   6.0000000   6.0000000   8.0000000   8.0000000

  Atom        21          22          23          24          25          26          27          28          29          30
 IAtWgt=          16          16          16           1           1           1           1           1           1           1
 AtmWgt=  15.9949146  15.9949146  15.9949146   1.0078250   1.0078250   1.0078250   1.0078250   1.0078250   1.0078250   1.0078250
 NucSpn=           0           0           0           1           1           1           1           1           1           1
 AtZEff=  -0.0000000  -0.0000000  -0.0000000  -0.0000000  -0.0000000  -0.0000000  -0.0000000  -0.0000000  -0.0000000  -0.0000000
 NQMom=    0.0000000   0.0000000   0.0000000   0.0000000   0.0000000   0.0000000   0.0000000   0.0000000   0.0000000   0.0000000
 NMagM=    0.0000000   0.0000000   0.0000000   2.7928460   2.7928460   2.7928460   2.7928460   2.7928460   2.7928460   2.7928460
 AtZNuc=   8.0000000   8.0000000   8.0000000   1.0000000   1.0000000   1.0000000   1.0000000   1.0000000   1.0000000   1.0000000

  Atom        31          32          33          34          35          36          37          38          39          40
 IAtWgt=           1           1           1           1           1           1           1           1           1           1
 AtmWgt=   1.0078250   1.0078250   1.0078250   1.0078250   1.0078250   1.0078250   1.0078250   1.0078250   1.0078250   1.0078250
 NucSpn=           1           1           1           1           1           1           1           1           1           1
 AtZEff=  -0.0000000  -0.0000000  -0.0000000  -0.0000000  -0.0000000  -0.0000000  -0.0000000  -0.0000000  -0.0000000  -0.0000000
 NQMom=    0.0000000   0.0000000   0.0000000   0.0000000   0.0000000   0.0000000   0.0000000   0.0000000   0.0000000   0.0000000
 NMagM=    2.7928460   2.7928460   2.7928460   2.7928460   2.7928460   2.7928460   2.7928460   2.7928460   2.7928460   2.7928460
 AtZNuc=   1.0000000   1.0000000   1.0000000   1.0000000   1.0000000   1.0000000   1.0000000   1.0000000   1.0000000   1.0000000

  Atom        41          42          43          44          45
 IAtWgt=           1           1           1           1           1
 AtmWgt=   1.0078250   1.0078250   1.0078250   1.0078250   1.0078250
 NucSpn=           1           1           1           1           1
 AtZEff=  -0.0000000  -0.0000000  -0.0000000  -0.0000000  -0.0000000
 NQMom=    0.0000000   0.0000000   0.0000000   0.0000000   0.0000000
 NMagM=    2.7928460   2.7928460   2.7928460   2.7928460   2.7928460
 AtZNuc=   1.0000000   1.0000000   1.0000000   1.0000000   1.0000000
 Leave Link  101 at Tue Jun 22 14:21:24 2021, MaxMem=  2147483648 cpu:               3.0 elap:               0.3
 (Enter /home/matma/Programs/gaussian/G16_x86_SSE4/tar/g16/l103.exe)

 GradGradGradGradGradGradGradGradGradGradGradGradGradGradGradGradGradGrad
 Berny optimization.
 Initialization pass.
                           ----------------------------
                           !    Initial Parameters    !
                           ! (Angstroms and Degrees)  !
 --------------------------                            --------------------------
 ! Name  Definition              Value          Derivative Info.                !
 --------------------------------------------------------------------------------
 ! R1    R(1,2)                  1.4338         estimate D2E/DX2                !
 ! R2    R(1,45)                 0.9957         estimate D2E/DX2                !
 ! R3    R(2,3)                  1.5454         estimate D2E/DX2                !
 ! R4    R(2,8)                  1.5449         estimate D2E/DX2                !
 ! R5    R(2,24)                 1.1144         estimate D2E/DX2                !
 ! R6    R(3,4)                  1.4335         estimate D2E/DX2                !
 ! R7    R(3,5)                  1.5438         estimate D2E/DX2                !
 ! R8    R(3,25)                 1.1125         estimate D2E/DX2                !
 ! R9    R(4,26)                 0.99           estimate D2E/DX2                !
 ! R10   R(5,6)                  1.5409         estimate D2E/DX2                !
 ! R11   R(5,23)                 1.4293         estimate D2E/DX2                !
 ! R12   R(5,27)                 1.1164         estimate D2E/DX2                !
 ! R13   R(6,7)                  1.4238         estimate D2E/DX2                !
 ! R14   R(6,21)                 1.4337         estimate D2E/DX2                !
 ! R15   R(6,28)                 1.1201         estimate D2E/DX2                !
 ! R16   R(7,8)                  1.4438         estimate D2E/DX2                !
 ! R17   R(8,9)                  1.5345         estimate D2E/DX2                !
 ! R18   R(8,29)                 1.1194         estimate D2E/DX2                !
 ! R19   R(9,10)                 1.4395         estimate D2E/DX2                !
 ! R20   R(9,30)                 1.1056         estimate D2E/DX2                !
 ! R21   R(9,31)                 1.1085         estimate D2E/DX2                !
 ! R22   R(10,32)                1.0102         estimate D2E/DX2                !
 ! R23   R(11,12)                1.4384         estimate D2E/DX2                !
 ! R24   R(11,42)                0.9905         estimate D2E/DX2                !
 ! R25   R(12,13)                1.5451         estimate D2E/DX2                !
 ! R26   R(12,17)                1.5372         estimate D2E/DX2                !
 ! R27   R(12,33)                1.1172         estimate D2E/DX2                !
 ! R28   R(13,14)                1.5464         estimate D2E/DX2                !
 ! R29   R(13,22)                1.4229         estimate D2E/DX2                !
 ! R30   R(13,34)                1.1166         estimate D2E/DX2                !
 ! R31   R(14,15)                1.5534         estimate D2E/DX2                !
 ! R32   R(14,21)                1.4432         estimate D2E/DX2                !
 ! R33   R(14,35)                1.1144         estimate D2E/DX2                !
 ! R34   R(15,16)                1.4294         estimate D2E/DX2                !
 ! R35   R(15,20)                1.426          estimate D2E/DX2                !
 ! R36   R(15,36)                1.1104         estimate D2E/DX2                !
 ! R37   R(16,17)                1.4479         estimate D2E/DX2                !
 ! R38   R(17,18)                1.5434         estimate D2E/DX2                !
 ! R39   R(17,37)                1.1119         estimate D2E/DX2                !
 ! R40   R(18,19)                1.4227         estimate D2E/DX2                !
 ! R41   R(18,38)                1.1118         estimate D2E/DX2                !
 ! R42   R(18,39)                1.1054         estimate D2E/DX2                !
 ! R43   R(19,40)                0.9953         estimate D2E/DX2                !
 ! R44   R(20,44)                0.9921         estimate D2E/DX2                !
 ! R45   R(22,41)                1.0212         estimate D2E/DX2                !
 ! R46   R(23,43)                0.9974         estimate D2E/DX2                !
 ! A1    A(2,1,45)             109.2734         estimate D2E/DX2                !
 ! A2    A(1,2,3)              109.2391         estimate D2E/DX2                !
 ! A3    A(1,2,8)              106.502          estimate D2E/DX2                !
 ! A4    A(1,2,24)             107.5107         estimate D2E/DX2                !
 ! A5    A(3,2,8)              111.5222         estimate D2E/DX2                !
 ! A6    A(3,2,24)             110.4425         estimate D2E/DX2                !
 ! A7    A(8,2,24)             111.4443         estimate D2E/DX2                !
 ! A8    A(2,3,4)              103.5817         estimate D2E/DX2                !
 ! A9    A(2,3,5)              110.0456         estimate D2E/DX2                !
 ! A10   A(2,3,25)             112.9338         estimate D2E/DX2                !
 ! A11   A(4,3,5)              109.7789         estimate D2E/DX2                !
 ! A12   A(4,3,25)             108.8701         estimate D2E/DX2                !
 ! A13   A(5,3,25)             111.3265         estimate D2E/DX2                !
 ! A14   A(3,4,26)             109.2283         estimate D2E/DX2                !
 ! A15   A(3,5,6)              109.2666         estimate D2E/DX2                !
 ! A16   A(3,5,23)             105.1143         estimate D2E/DX2                !
 ! A17   A(3,5,27)             110.6621         estimate D2E/DX2                !
 ! A18   A(6,5,23)             108.1234         estimate D2E/DX2                !
 ! A19   A(6,5,27)             113.0824         estimate D2E/DX2                !
 ! A20   A(23,5,27)            110.2558         estimate D2E/DX2                !
 ! A21   A(5,6,7)              112.9723         estimate D2E/DX2                !
 ! A22   A(5,6,21)             118.1791         estimate D2E/DX2                !
 ! A23   A(5,6,28)             114.1589         estimate D2E/DX2                !
 ! A24   A(7,6,21)             105.1184         estimate D2E/DX2                !
 ! A25   A(7,6,28)             101.9936         estimate D2E/DX2                !
 ! A26   A(21,6,28)            102.6189         estimate D2E/DX2                !
 ! A27   A(6,7,8)              121.0603         estimate D2E/DX2                !
 ! A28   A(2,8,7)              112.2307         estimate D2E/DX2                !
 ! A29   A(2,8,9)              113.3787         estimate D2E/DX2                !
 ! A30   A(2,8,29)             111.042          estimate D2E/DX2                !
 ! A31   A(7,8,9)              108.9607         estimate D2E/DX2                !
 ! A32   A(7,8,29)              99.2847         estimate D2E/DX2                !
 ! A33   A(9,8,29)             111.0824         estimate D2E/DX2                !
 ! A34   A(8,9,10)             109.074          estimate D2E/DX2                !
 ! A35   A(8,9,30)             112.4478         estimate D2E/DX2                !
 ! A36   A(8,9,31)             112.6513         estimate D2E/DX2                !
 ! A37   A(10,9,30)            104.6338         estimate D2E/DX2                !
 ! A38   A(10,9,31)            108.4679         estimate D2E/DX2                !
 ! A39   A(30,9,31)            109.1905         estimate D2E/DX2                !
 ! A40   A(9,10,32)            108.7711         estimate D2E/DX2                !
 ! A41   A(12,11,42)           108.8188         estimate D2E/DX2                !
 ! A42   A(11,12,13)           108.6087         estimate D2E/DX2                !
 ! A43   A(11,12,17)           104.3953         estimate D2E/DX2                !
 ! A44   A(11,12,33)           108.9419         estimate D2E/DX2                !
 ! A45   A(13,12,17)           111.7015         estimate D2E/DX2                !
 ! A46   A(13,12,33)           110.8286         estimate D2E/DX2                !
 ! A47   A(17,12,33)           112.0832         estimate D2E/DX2                !
 ! A48   A(12,13,14)           112.5143         estimate D2E/DX2                !
 ! A49   A(12,13,22)           102.541          estimate D2E/DX2                !
 ! A50   A(12,13,34)           111.6835         estimate D2E/DX2                !
 ! A51   A(14,13,22)           109.5843         estimate D2E/DX2                !
 ! A52   A(14,13,34)           110.1285         estimate D2E/DX2                !
 ! A53   A(22,13,34)           110.1412         estimate D2E/DX2                !
 ! A54   A(13,14,15)           114.7275         estimate D2E/DX2                !
 ! A55   A(13,14,21)           103.4769         estimate D2E/DX2                !
 ! A56   A(13,14,35)           110.5106         estimate D2E/DX2                !
 ! A57   A(15,14,21)           105.0892         estimate D2E/DX2                !
 ! A58   A(15,14,35)           111.3729         estimate D2E/DX2                !
 ! A59   A(21,14,35)           111.2537         estimate D2E/DX2                !
 ! A60   A(14,15,16)           115.5374         estimate D2E/DX2                !
 ! A61   A(14,15,20)           108.293          estimate D2E/DX2                !
 ! A62   A(14,15,36)           113.0802         estimate D2E/DX2                !
 ! A63   A(16,15,20)           101.6449         estimate D2E/DX2                !
 ! A64   A(16,15,36)           110.4911         estimate D2E/DX2                !
 ! A65   A(20,15,36)           106.7757         estimate D2E/DX2                !
 ! A66   A(15,16,17)           117.1706         estimate D2E/DX2                !
 ! A67   A(12,17,16)           108.2578         estimate D2E/DX2                !
 ! A68   A(12,17,18)           113.3018         estimate D2E/DX2                !
 ! A69   A(12,17,37)           111.3258         estimate D2E/DX2                !
 ! A70   A(16,17,18)           102.9421         estimate D2E/DX2                !
 ! A71   A(16,17,37)           108.4315         estimate D2E/DX2                !
 ! A72   A(18,17,37)           112.0733         estimate D2E/DX2                !
 ! A73   A(17,18,19)           112.4308         estimate D2E/DX2                !
 ! A74   A(17,18,38)           110.6858         estimate D2E/DX2                !
 ! A75   A(17,18,39)           110.9491         estimate D2E/DX2                !
 ! A76   A(19,18,38)           103.5918         estimate D2E/DX2                !
 ! A77   A(19,18,39)           109.299          estimate D2E/DX2                !
 ! A78   A(38,18,39)           109.6267         estimate D2E/DX2                !
 ! A79   A(18,19,40)           110.406          estimate D2E/DX2                !
 ! A80   A(15,20,44)           110.3403         estimate D2E/DX2                !
 ! A81   A(6,21,14)            122.2328         estimate D2E/DX2                !
 ! A82   A(13,22,41)           110.9642         estimate D2E/DX2                !
 ! A83   A(5,23,43)            109.6185         estimate D2E/DX2                !
 ! D1    D(45,1,2,3)           -46.7431         estimate D2E/DX2                !
 ! D2    D(45,1,2,8)          -167.3168         estimate D2E/DX2                !
 ! D3    D(45,1,2,24)           73.1255         estimate D2E/DX2                !
 ! D4    D(1,2,3,4)             47.6974         estimate D2E/DX2                !
 ! D5    D(1,2,3,5)            -69.6074         estimate D2E/DX2                !
 ! D6    D(1,2,3,25)           165.3109         estimate D2E/DX2                !
 ! D7    D(8,2,3,4)            165.1511         estimate D2E/DX2                !
 ! D8    D(8,2,3,5)             47.8463         estimate D2E/DX2                !
 ! D9    D(8,2,3,25)           -77.2354         estimate D2E/DX2                !
 ! D10   D(24,2,3,4)           -70.349          estimate D2E/DX2                !
 ! D11   D(24,2,3,5)           172.3462         estimate D2E/DX2                !
 ! D12   D(24,2,3,25)           47.2645         estimate D2E/DX2                !
 ! D13   D(1,2,8,7)            123.9412         estimate D2E/DX2                !
 ! D14   D(1,2,8,9)             -0.052          estimate D2E/DX2                !
 ! D15   D(1,2,8,29)          -125.939          estimate D2E/DX2                !
 ! D16   D(3,2,8,7)              4.8465         estimate D2E/DX2                !
 ! D17   D(3,2,8,9)           -119.1467         estimate D2E/DX2                !
 ! D18   D(3,2,8,29)           114.9663         estimate D2E/DX2                !
 ! D19   D(24,2,8,7)          -119.0895         estimate D2E/DX2                !
 ! D20   D(24,2,8,9)           116.9173         estimate D2E/DX2                !
 ! D21   D(24,2,8,29)           -8.9697         estimate D2E/DX2                !
 ! D22   D(2,3,4,26)          -169.961          estimate D2E/DX2                !
 ! D23   D(5,3,4,26)           -52.4698         estimate D2E/DX2                !
 ! D24   D(25,3,4,26)           69.6266         estimate D2E/DX2                !
 ! D25   D(2,3,5,6)            -62.3082         estimate D2E/DX2                !
 ! D26   D(2,3,5,23)          -178.1403         estimate D2E/DX2                !
 ! D27   D(2,3,5,27)            62.8392         estimate D2E/DX2                !
 ! D28   D(4,3,5,6)           -175.69           estimate D2E/DX2                !
 ! D29   D(4,3,5,23)            68.4779         estimate D2E/DX2                !
 ! D30   D(4,3,5,27)           -50.5427         estimate D2E/DX2                !
 ! D31   D(25,3,5,6)            63.6886         estimate D2E/DX2                !
 ! D32   D(25,3,5,23)          -52.1435         estimate D2E/DX2                !
 ! D33   D(25,3,5,27)         -171.1641         estimate D2E/DX2                !
 ! D34   D(3,5,6,7)             21.9387         estimate D2E/DX2                !
 ! D35   D(3,5,6,21)           145.2007         estimate D2E/DX2                !
 ! D36   D(3,5,6,28)           -94.0065         estimate D2E/DX2                !
 ! D37   D(23,5,6,7)           135.8324         estimate D2E/DX2                !
 ! D38   D(23,5,6,21)         -100.9057         estimate D2E/DX2                !
 ! D39   D(23,5,6,28)           19.8871         estimate D2E/DX2                !
 ! D40   D(27,5,6,7)          -101.7916         estimate D2E/DX2                !
 ! D41   D(27,5,6,21)           21.4704         estimate D2E/DX2                !
 ! D42   D(27,5,6,28)          142.2632         estimate D2E/DX2                !
 ! D43   D(3,5,23,43)         -147.8529         estimate D2E/DX2                !
 ! D44   D(6,5,23,43)           95.5297         estimate D2E/DX2                !
 ! D45   D(27,5,23,43)         -28.5607         estimate D2E/DX2                !
 ! D46   D(5,6,7,8)             35.1917         estimate D2E/DX2                !
 ! D47   D(21,6,7,8)           -95.0355         estimate D2E/DX2                !
 ! D48   D(28,6,7,8)           158.1819         estimate D2E/DX2                !
 ! D49   D(5,6,21,14)           50.925          estimate D2E/DX2                !
 ! D50   D(7,6,21,14)          178.0368         estimate D2E/DX2                !
 ! D51   D(28,6,21,14)         -75.6395         estimate D2E/DX2                !
 ! D52   D(6,7,8,2)            -50.0793         estimate D2E/DX2                !
 ! D53   D(6,7,8,9)             76.3396         estimate D2E/DX2                !
 ! D54   D(6,7,8,29)          -167.4568         estimate D2E/DX2                !
 ! D55   D(2,8,9,10)           164.2096         estimate D2E/DX2                !
 ! D56   D(2,8,9,30)           -80.1903         estimate D2E/DX2                !
 ! D57   D(2,8,9,31)            43.7131         estimate D2E/DX2                !
 ! D58   D(7,8,9,10)            38.4529         estimate D2E/DX2                !
 ! D59   D(7,8,9,30)           154.053          estimate D2E/DX2                !
 ! D60   D(7,8,9,31)           -82.0435         estimate D2E/DX2                !
 ! D61   D(29,8,9,10)          -69.9249         estimate D2E/DX2                !
 ! D62   D(29,8,9,30)           45.6752         estimate D2E/DX2                !
 ! D63   D(29,8,9,31)          169.5786         estimate D2E/DX2                !
 ! D64   D(8,9,10,32)          -37.4977         estimate D2E/DX2                !
 ! D65   D(30,9,10,32)        -158.0187         estimate D2E/DX2                !
 ! D66   D(31,9,10,32)          85.5336         estimate D2E/DX2                !
 ! D67   D(42,11,12,13)         60.9088         estimate D2E/DX2                !
 ! D68   D(42,11,12,17)       -179.8007         estimate D2E/DX2                !
 ! D69   D(42,11,12,33)        -59.9033         estimate D2E/DX2                !
 ! D70   D(11,12,13,14)        164.1384         estimate D2E/DX2                !
 ! D71   D(11,12,13,22)        -78.2211         estimate D2E/DX2                !
 ! D72   D(11,12,13,34)         39.6875         estimate D2E/DX2                !
 ! D73   D(17,12,13,14)         49.5347         estimate D2E/DX2                !
 ! D74   D(17,12,13,22)        167.1753         estimate D2E/DX2                !
 ! D75   D(17,12,13,34)        -74.9162         estimate D2E/DX2                !
 ! D76   D(33,12,13,14)        -76.2208         estimate D2E/DX2                !
 ! D77   D(33,12,13,22)         41.4197         estimate D2E/DX2                !
 ! D78   D(33,12,13,34)        159.3283         estimate D2E/DX2                !
 ! D79   D(11,12,17,16)       -176.9188         estimate D2E/DX2                !
 ! D80   D(11,12,17,18)         69.5734         estimate D2E/DX2                !
 ! D81   D(11,12,17,37)        -57.8277         estimate D2E/DX2                !
 ! D82   D(13,12,17,16)        -59.7426         estimate D2E/DX2                !
 ! D83   D(13,12,17,18)       -173.2505         estimate D2E/DX2                !
 ! D84   D(13,12,17,37)         59.3485         estimate D2E/DX2                !
 ! D85   D(33,12,17,16)         65.3193         estimate D2E/DX2                !
 ! D86   D(33,12,17,18)        -48.1885         estimate D2E/DX2                !
 ! D87   D(33,12,17,37)       -175.5896         estimate D2E/DX2                !
 ! D88   D(12,13,14,15)        -35.3567         estimate D2E/DX2                !
 ! D89   D(12,13,14,21)       -149.2532         estimate D2E/DX2                !
 ! D90   D(12,13,14,35)         91.5609         estimate D2E/DX2                !
 ! D91   D(22,13,14,15)       -148.7448         estimate D2E/DX2                !
 ! D92   D(22,13,14,21)         97.3587         estimate D2E/DX2                !
 ! D93   D(22,13,14,35)        -21.8272         estimate D2E/DX2                !
 ! D94   D(34,13,14,15)         89.9464         estimate D2E/DX2                !
 ! D95   D(34,13,14,21)        -23.95           estimate D2E/DX2                !
 ! D96   D(34,13,14,35)       -143.136          estimate D2E/DX2                !
 ! D97   D(12,13,22,41)        161.1513         estimate D2E/DX2                !
 ! D98   D(14,13,22,41)        -79.146          estimate D2E/DX2                !
 ! D99   D(34,13,22,41)         42.1551         estimate D2E/DX2                !
 ! D100  D(13,14,15,16)         32.8898         estimate D2E/DX2                !
 ! D101  D(13,14,15,20)        146.0654         estimate D2E/DX2                !
 ! D102  D(13,14,15,36)        -95.8155         estimate D2E/DX2                !
 ! D103  D(21,14,15,16)        145.8387         estimate D2E/DX2                !
 ! D104  D(21,14,15,20)       -100.9857         estimate D2E/DX2                !
 ! D105  D(21,14,15,36)         17.1335         estimate D2E/DX2                !
 ! D106  D(35,14,15,16)        -93.585          estimate D2E/DX2                !
 ! D107  D(35,14,15,20)         19.5906         estimate D2E/DX2                !
 ! D108  D(35,14,15,36)        137.7097         estimate D2E/DX2                !
 ! D109  D(13,14,21,6)        -172.0533         estimate D2E/DX2                !
 ! D110  D(15,14,21,6)          67.2747         estimate D2E/DX2                !
 ! D111  D(35,14,21,6)         -53.3802         estimate D2E/DX2                !
 ! D112  D(14,15,16,17)        -46.3983         estimate D2E/DX2                !
 ! D113  D(20,15,16,17)       -163.3754         estimate D2E/DX2                !
 ! D114  D(36,15,16,17)         83.5698         estimate D2E/DX2                !
 ! D115  D(14,15,20,44)       -105.6176         estimate D2E/DX2                !
 ! D116  D(16,15,20,44)         16.5039         estimate D2E/DX2                !
 ! D117  D(36,15,20,44)        132.3167         estimate D2E/DX2                !
 ! D118  D(15,16,17,12)         59.2061         estimate D2E/DX2                !
 ! D119  D(15,16,17,18)        179.419          estimate D2E/DX2                !
 ! D120  D(15,16,17,37)        -61.698          estimate D2E/DX2                !
 ! D121  D(12,17,18,19)         -9.1095         estimate D2E/DX2                !
 ! D122  D(12,17,18,38)        106.2075         estimate D2E/DX2                !
 ! D123  D(12,17,18,39)       -131.8541         estimate D2E/DX2                !
 ! D124  D(16,17,18,19)       -125.7882         estimate D2E/DX2                !
 ! D125  D(16,17,18,38)        -10.4711         estimate D2E/DX2                !
 ! D126  D(16,17,18,39)        111.4672         estimate D2E/DX2                !
 ! D127  D(37,17,18,19)        117.8997         estimate D2E/DX2                !
 ! D128  D(37,17,18,38)       -126.7832         estimate D2E/DX2                !
 ! D129  D(37,17,18,39)         -4.8449         estimate D2E/DX2                !
 ! D130  D(17,18,19,40)        -54.0795         estimate D2E/DX2                !
 ! D131  D(38,18,19,40)       -173.6156         estimate D2E/DX2                !
 ! D132  D(39,18,19,40)         69.5889         estimate D2E/DX2                !
 --------------------------------------------------------------------------------
 Trust Radius=3.00D-01 FncErr=1.00D-07 GrdErr=1.00D-07 EigMax=2.50D+02 EigMin=1.00D-04
 Number of steps in this run=    270 maximum allowed number of steps=    270.
 GradGradGradGradGradGradGradGradGradGradGradGradGradGradGradGradGradGrad

 Leave Link  103 at Tue Jun 22 14:21:24 2021, MaxMem=  2147483648 cpu:               0.0 elap:               0.0
 (Enter /home/matma/Programs/gaussian/G16_x86_SSE4/tar/g16/l202.exe)
                          Input orientation:                          
 ---------------------------------------------------------------------
 Center     Atomic      Atomic             Coordinates (Angstroms)
 Number     Number       Type             X           Y           Z
 ---------------------------------------------------------------------
      1          8           0        1.964000    0.956000    0.206000
      2          6           0        2.445000    2.126000    0.881000
      3          6           0        3.127000    1.707000    2.203000
      4          8           0        3.988000    0.630000    1.811000
      5          6           0        2.070000    1.193000    3.204000
      6          6           0        1.086000    2.332000    3.534000
      7          8           0        1.056000    3.347000    2.536000
      8          6           0        1.213000    3.022000    1.138000
      9          6           0       -0.098000    2.419000    0.616000
     10          8           0       -1.207000    3.117000    1.212000
     11          8           0       -4.368000    0.646000    5.525000
     12          6           0       -2.966000    0.394000    5.725000
     13          6           0       -2.202000    0.819000    4.451000
     14          6           0       -0.681000    0.960000    4.692000
     15          6           0       -0.293000    1.505000    6.094000
     16          8           0       -1.166000    1.133000    7.163000
     17          6           0       -2.589000    1.268000    6.932000
     18          6           0       -3.203000    0.774000    8.259000
     19          8           0       -4.156000   -0.264000    8.063000
     20          8           0        0.929000    0.887000    6.492000
     21          8           0       -0.288000    1.994000    3.765000
     22          8           0       -2.446000   -0.269000    3.567000
     23          8           0        2.802000    0.880000    4.391000
     24          1           0        3.178000    2.625000    0.206000
     25          1           0        3.745000    2.518000    2.648000
     26          1           0        4.348000    0.189000    2.621000
     27          1           0        1.565000    0.279000    2.809000
     28          1           0        1.352000    2.916000    4.452000
     29          1           0        1.373000    4.052000    0.730000
     30          1           0       -0.227000    2.567000   -0.472000
     31          1           0       -0.195000    1.340000    0.851000
     32          1           0       -0.975000    3.338000    2.170000
     33          1           0       -2.819000   -0.694000    5.932000
     34          1           0       -2.612000    1.764000    4.020000
     35          1           0       -0.160000    0.000000    4.471000
     36          1           0       -0.115000    2.601000    6.101000
     37          1           0       -2.814000    2.340000    6.741000
     38          1           0       -2.427000    0.299000    8.898000
     39          1           0       -3.678000    1.607000    8.809000
     40          1           0       -4.853000    0.023000    7.413000
     41          1           0       -2.270000    0.001000    2.598000
     42          1           0       -4.683000    0.107000    4.756000
     43          1           0        2.369000    0.113000    4.859000
     44          1           0        0.758000    0.202000    7.189000
     45          1           0        2.678000    0.262000    0.202000
 ---------------------------------------------------------------------
                    Distance matrix (angstroms):
                    1          2          3          4          5
     1  O    0.000000
     2  C    1.433836   0.000000
     3  C    2.429934   1.545435   0.000000
     4  O    2.603628   2.341744   1.433497   0.000000
     5  C    3.009221   2.531293   1.543841   2.436420   0.000000
     6  C    3.706730   2.987930   2.515525   3.779833   1.540934
     7  O    3.459804   2.481771   2.662617   4.062553   2.472678
     8  C    2.387673   1.544891   2.554769   3.724945   2.889299
     9  C    2.561311   2.573504   3.664169   4.617785   3.591802
    10  O    3.967014   3.798519   4.664090   5.790682   4.290521
    11  O    8.275390   8.376999   8.266585   9.144222   6.865427
    12  C    7.421597   7.466129   7.159127   7.983308   5.688158
    13  C    5.949315   6.003979   5.851520   6.732119   4.465968
    14  C    5.207709   5.065092   4.610205   5.496237   3.136309
    15  C    6.329612   5.920950   5.184311   6.118552   3.746093
    16  O    7.630732   7.313610   6.584901   7.447189   5.113607
    17  C    8.128113   7.917823   7.431609   8.359941   5.967402
    18  C    9.569839   9.389499   8.809911   9.659603   7.316633
    19  O   10.033706  10.043228   9.553352  10.305895   8.030928
    20  O    6.371011   5.942785   4.888673   5.597793   3.493775
    21  O    4.337676   3.975446   3.766223   4.895180   2.552741
    22  O    5.678472   6.072273   6.068229   6.729643   4.760616
    23  O    4.268752   3.741666   2.361546   2.850526   1.429252
    24  H    2.063821   1.114412   2.198484   2.685545   3.502327
    25  H    3.402230   2.228442   1.112506   2.079462   2.206895
    26  H    3.479076   3.225055   1.992458   0.990041   2.556793
    27  H    2.719033   2.811226   2.201423   2.643886   1.116443
    28  H    4.716424   3.817170   3.109712   4.375977   2.245386
    29  H    3.195164   2.209403   3.277998   4.440368   3.844524
    30  H    2.802764   3.027321   4.375448   5.170134   4.547204
    31  H    2.285774   2.754686   3.605312   4.350079   3.269318
    32  H    4.262504   3.850567   4.414482   5.665114   3.865515
    33  H    7.641117   7.821426   7.417894   8.066651   5.908052
    34  H    6.011592   5.963021   6.020038   7.051641   4.786755
    35  H    4.859582   4.918740   4.343045   4.967736   2.828681
    36  H    6.463690   5.833320   5.148223   6.254882   3.892210
    37  H    8.212854   7.876705   7.502640   8.572993   6.138358
    38  H    9.760297   9.557542   8.812060   9.564902   7.310532
    39  H   10.308616  10.030637   9.484580  10.425646   8.039087
    40  H    9.964077  10.017507   9.677828  10.483994   8.186117
    41  H    4.955850   5.449306   5.673982   6.338578   4.541332
    42  H    8.099748   8.360644   8.371016   9.172393   7.013637
    43  H    4.746060   4.458972   3.189002   3.489807   1.998706
    44  H    7.126376   6.807247   5.721659   6.288002   4.310876
    45  H    0.995715   1.997455   2.508710   2.107227   3.201317
                    6          7          8          9         10
     6  C    0.000000
     7  O    1.423773   0.000000
     8  C    2.496607   1.443841   0.000000
     9  C    3.150262   2.424727   1.534540   0.000000
    10  O    3.356450   2.631928   2.422994   1.439549   0.000000
    11  O    6.045891   6.756426   7.485900   6.743494   5.890648
    12  C    4.997502   5.921690   6.738768   6.199027   5.556616
    13  C    3.733765   4.546710   5.243224   4.657686   4.094136
    14  C    2.519055   3.655581   4.524378   4.368334   4.127920
    15  C    3.023106   4.227544   5.397338   5.557149   5.221864
    16  O    4.436073   5.590010   6.747487   6.757043   6.273144
    17  C    5.117043   6.077259   7.148577   6.886344   6.168235
    18  C    6.568753   7.583676   8.675437   8.412045   7.689855
    19  O    7.397947   8.411420   9.358396   8.895148   8.189259
    20  O    3.295821   4.660222   5.770979   6.158663   6.116682
    21  O    1.433695   2.268785   3.195452   3.183226   2.936579
    22  O    4.386492   5.138329   5.488078   4.631074   4.306523
    23  O    2.405703   3.546213   4.206554   5.002914   5.584111
    24  H    3.941814   3.233120   2.210760   3.307977   4.525740
    25  H    2.808892   2.816115   2.990843   4.348273   5.190684
    26  H    4.008324   4.562615   4.478103   5.362820   6.435564
    27  H    2.229322   3.121896   3.231129   3.486319   4.276522
    28  H    1.120061   1.986060   3.318607   4.130908   4.133580
    29  H    3.301997   1.964472   1.119359   2.200801   2.786207
    30  H    4.222230   3.361927   2.207425   1.105572   2.024538
    31  H    3.134249   2.903838   2.212229   1.108546   2.076582
    32  H    2.668380   2.063734   2.439718   2.007139   1.010163
    33  H    5.491457   6.548139   7.283414   6.734572   6.276995
    34  H    3.772801   4.261733   4.951678   4.282107   3.418991
    35  H    2.805122   4.052813   4.703882   4.551531   4.629577
    36  H    2.846797   3.825831   5.154822   5.488045   5.035975
    37  H    5.049249   5.802842   6.933647   6.700636   5.809993
    38  H    6.726571   7.867442   8.993438   8.860596   8.276722
    39  H    7.144715   8.049154   9.206973   8.977806   8.130212
    40  H    7.459882   8.351670   9.228542   8.634237   7.830616
    41  H    4.191944   4.718245   4.836252   3.806919   3.572173
    42  H    6.302799   6.954288   7.506661   6.595996   5.805395
    43  H    2.885425   4.192738   4.862557   5.422801   5.925572
    44  H    4.243054   5.624077   6.691340   6.989432   6.934189
    45  H    4.233390   4.194719   3.261889   3.539805   4.925886
                   11         12         13         14         15
    11  O    0.000000
    12  C    1.438439   0.000000
    13  C    2.423832   1.545120   0.000000
    14  C    3.792948   2.570733   1.546416   0.000000
    15  C    4.203245   2.918118   2.610426   1.553439   0.000000
    16  O    3.629465   2.419497   2.920075   2.524083   1.429431
    17  C    2.351887   1.537158   2.550829   2.958535   2.455612
    18  C    2.974620   2.573271   3.937625   4.372479   3.699958
    19  O    2.704531   2.704683   4.247064   4.993740   4.682851
    20  O    5.389933   4.000295   3.738110   2.416077   1.426048
    21  O    4.643394   3.684194   2.348322   1.443237   2.379787
    22  O    2.892244   2.316664   1.422932   2.427198   3.764069
    23  O    7.262893   5.940166   5.004731   3.496897   3.587459
    24  H    9.441945   8.554850   7.087035   6.147219   6.926094
    25  H    8.809216   7.682241   6.442377   5.118083   5.404307
    26  H    9.198409   7.948046   6.829956   5.493116   5.944112
    27  H    6.535429   5.389457   4.144641   3.008981   3.968182
    28  H    6.246810   5.160052   4.126539   2.831365   2.719027
    29  H    8.218999   7.560285   6.089233   5.429256   6.167273
    30  H    7.536719   7.115255   5.584985   5.427289   6.651658
    31  H    6.304113   5.685880   4.154454   3.890228   5.246511
    32  H    5.478626   5.026852   3.613011   3.478765   4.384380
    33  H    2.088217   1.117230   2.205271   2.973947   3.352987
    34  H    2.568752   2.215681   1.116640   2.196989   3.121909
    35  H    4.385829   3.098611   2.200210   1.114398   2.217396
    36  H    4.716122   3.624973   3.202123   2.235737   1.110382
    37  H    2.600617   2.200517   2.816396   3.263815   2.733363
    38  H    3.907047   3.219856   4.482949   4.601725   3.724353
    39  H    3.490598   3.389597   4.668156   5.133255   4.340490
    40  H    2.046435   2.558858   4.053993   5.068273   4.972895
    41  H    3.658546   3.227537   2.026662   2.798113   4.288655
    42  H    0.990508   1.992340   2.599102   4.092396   4.797577
    43  H    6.790789   5.412129   4.643161   3.169826   3.247943
    44  H    5.407579   4.006037   4.079085   2.979982   2.000359
    45  H    8.838999   7.897828   6.494509   5.650680   6.714727
                   16         17         18         19         20
    16  O    0.000000
    17  C    1.447935   0.000000
    18  C    2.340826   1.543360   0.000000
    19  O    3.420776   2.466105   1.422698   0.000000
    20  O    2.213545   3.565822   4.495385   5.445188   0.000000
    21  O    3.613670   3.981403   5.493784   6.207479   3.184818
    22  O    4.066352   3.702167   4.865775   4.810212   4.613305
    23  O    4.846960   5.972446   7.143716   7.950225   2.814672
    24  H    8.336441   8.963192  10.440027  11.129525   6.898727
    25  H    6.813323   7.748207   9.099426   9.974345   5.036502
    26  H    7.205907   8.238382   9.441762  10.106364   5.211661
    27  H    5.210086   5.935736   7.258192   7.786476   3.786641
    28  H    4.107181   4.939411   6.311057   7.313671   2.908156
    29  H    7.506702   7.868475   9.400580  10.147442   6.589006
    30  H    7.825043   7.879445   9.396903   9.813146   7.256448
    31  H    6.389604   6.535670   8.015415   8.383035   5.769702
    32  H    5.461552   5.437512   6.972374   7.603987   5.320930
    33  H    2.754215   2.214124   2.778022   2.552181   4.106174
    34  H    3.516749   2.954029   4.393006   4.779390   4.406653
    35  H    3.089108   3.682986   4.920149   5.379607   2.461124
    36  H    2.094629   2.930550   4.186960   5.327978   2.044655
    37  H    2.085866   1.111886   2.215401   3.213948   4.022842
    38  H    2.301283   2.197808   1.111810   2.000909   4.171009
    39  H    3.040417   2.196354   1.105447   2.070179   5.206855
    40  H    3.858571   2.628133   2.000554   0.995328   5.918299
    41  H    4.831094   4.526655   5.789209   5.787352   5.116819
    42  H    4.383562   3.235388   3.860868   3.369216   5.925929
    43  H    4.341088   5.496646   6.560801   7.278968   2.310707
    44  H    2.137572   3.522047   4.142657   5.012826   0.992106
    45  H    7.999406   8.605012   9.988171  10.429552   6.558485
                   21         22         23         24         25
    21  O    0.000000
    22  O    3.133263   0.000000
    23  O    3.343796   5.435134   0.000000
    24  H    5.007774   7.162467   4.549794   0.000000
    25  H    4.217506   6.851307   2.571059   2.509243   0.000000
    26  H    5.104827   6.874818   2.449591   3.624255   2.405947
    27  H    2.699772   4.118615   2.096209   3.857602   3.129128
    28  H    2.002911   5.035102   2.500303   4.631142   3.023122
    29  H    4.025607   6.426848   5.050401   2.359858   3.414420
    30  H    4.276005   5.411135   5.972401   3.472330   5.051097
    31  H    2.987936   3.877182   4.661031   3.666658   4.487816
    32  H    2.195980   4.138345   5.023976   4.648986   4.814487
    33  H    4.281027   2.431662   6.037201   8.931229   8.011722
    34  H    2.349234   2.089463   5.498226   6.986560   6.546934
    35  H    2.119164   2.472928   3.090994   6.018562   4.991260
    36  H    2.419767   4.482367   3.794052   6.752440   5.179739
    37  H    3.918797   4.125116   6.260476   8.870824   7.733357
    38  H    5.813436   5.361208   6.927702  10.600810   9.059804
    39  H    6.089647   5.702260   7.876398  11.047745   9.689622
    40  H    6.167007   4.546496   8.274416  11.099920  10.141788
    41  H    3.043396   1.021194   5.450933   6.502903   6.520584
    42  H    4.884555   2.561106   7.533656   9.425399   9.015973
    43  H    3.434333   4.999941   0.997398   5.349302   3.544844
    44  H    4.003643   4.858636   3.530782   7.777507   5.908190
    45  H    4.948934   6.153094   4.236156   2.415323   3.494416
                   26         27         28         29         30
    26  H    0.000000
    27  H    2.790794   0.000000
    28  H    4.445796   3.114255   0.000000
    29  H    5.229653   4.312150   3.891558   0.000000
    30  H    6.012666   4.383055   5.182742   2.491993   0.000000
    31  H    5.009646   2.838500   4.224238   3.134997   1.804683
    32  H    6.201123   4.027084   3.286417   2.845435   2.852036
    33  H    7.944073   5.469855   5.711369   8.195010   7.639620
    34  H    7.271824   4.595549   4.150545   5.651484   5.148893
    35  H    4.876503   2.411578   3.284747   5.723974   5.570209
    36  H    6.151952   4.364785   2.229465   5.759096   6.574042
    37  H    8.537883   6.235703   4.788199   7.522901   7.666255
    38  H    9.236528   7.280960   6.395033   9.759161   9.888414
    39  H   10.233218   8.077910   6.782170   9.836710   9.948264
    40  H   10.375414   7.902726   7.459155   9.982906   9.489206
    41  H    6.620710   3.850848   5.005340   5.759468   4.492561
    42  H    9.280297   6.546594   6.663642   8.273260   7.296542
    43  H    2.988455   2.208274   3.009443   5.792787   6.417234
    44  H    5.809896   4.454389   3.899974   7.544495   8.078018
    45  H    2.940372   2.834697   5.183097   4.043007   3.769128
                   31         32         33         34         35
    31  H    0.000000
    32  H    2.517968   0.000000
    33  H    6.069522   5.814637   0.000000
    34  H    4.008020   2.929120   3.120955   0.000000
    35  H    3.860210   4.135344   3.112304   3.054079   0.000000
    36  H    5.399909   4.090908   4.265818   3.356507   3.069874
    37  H    6.523133   5.027123   3.140010   2.788623   4.203833
    38  H    8.415445   7.523949   3.152280   5.096600   4.982672
    39  H    8.690934   7.374204   3.782805   4.908719   5.811800
    40  H    8.154220   7.315542   2.616220   4.423303   5.538966
    41  H    3.024988   3.604966   3.449635   2.290680   2.821388
    42  H    6.075480   5.556620   2.345010   2.752524   4.533233
    43  H    4.913623   5.367838   5.358911   5.314140   2.561085
    44  H    6.509493   6.166697   3.895869   4.882551   2.875944
    45  H    3.136465   5.165192   7.997740   6.694567   5.132957
                   36         37         38         39         40
    36  H    0.000000
    37  H    2.786094   0.000000
    38  H    4.297413   2.994678   0.000000
    39  H    4.584350   2.358052   1.812122   0.000000
    40  H    5.551223   3.158733   2.857775   2.416298   0.000000
    41  H    4.865700   4.788664   6.308998   6.567969   5.464119
    42  H    5.375471   3.524156   4.720441   4.436985   2.663758
    43  H    3.728668   5.946843   6.272937   7.375686   7.660829
    44  H    2.775081   4.186996   3.615842   4.927121   5.618322
    45  H    6.933251   8.788553  10.083789  10.783701  10.429363
                   41         42         43         44         45
    41  H    0.000000
    42  H    3.238946   0.000000
    43  H    5.161878   7.052755   0.000000
    44  H    5.503314   5.960956   2.834103   0.000000
    45  H    5.503784   8.657209   4.669618   7.246252   0.000000
 Stoichiometry    C12H22O11
 Framework group  C1[X(C12H22O11)]
 Deg. of freedom   129
 Full point group                 C1      NOp   1
 Largest Abelian subgroup         C1      NOp   1
 Largest concise Abelian subgroup C1      NOp   1
                         Standard orientation:                         
 ---------------------------------------------------------------------
 Center     Atomic      Atomic             Coordinates (Angstroms)
 Number     Number       Type             X           Y           Z
 ---------------------------------------------------------------------
      1          8           0       -4.139511    0.843609    1.300948
      2          6           0       -4.192821    0.272387   -0.013111
      3          6           0       -3.653153   -1.174841    0.038452
      4          8           0       -4.335661   -1.748834    1.160784
      5          6           0       -2.132034   -1.163315    0.302099
      6          6           0       -1.419717   -0.447131   -0.861585
      7          8           0       -2.279593    0.426042   -1.586367
      8          6           0       -3.320365    1.170712   -0.917832
      9          6           0       -2.687232    2.353408   -0.172722
     10          8           0       -1.625255    2.901080   -0.975568
     11          8           0        4.017629    1.887919    0.377609
     12          6           0        3.241249    0.687828    0.539234
     13          6           0        1.743169    1.052362    0.437906
     14          6           0        0.846673   -0.186269    0.206621
     15          6           0        1.478830   -1.288136   -0.687493
     16          8           0        2.897507   -1.428178   -0.582518
     17          6           0        3.686460   -0.214730   -0.622675
     18          6           0        5.131056   -0.736511   -0.471517
     19          8           0        5.824131   -0.112176    0.602691
     20          8           0        1.028822   -2.557594   -0.218899
     21          8           0       -0.256238    0.335954   -0.563966
     22          8           0        1.472054    1.604474    1.721028
     23          8           0       -1.740364   -2.537744    0.284684
     24          1           0       -5.258615    0.278997   -0.338619
     25          1           0       -3.901401   -1.762802   -0.872781
     26          1           0       -3.933662   -2.628651    1.371733
     27          1           0       -1.908184   -0.710195    1.297598
     28          1           0       -1.053018   -1.133917   -1.666814
     29          1           0       -3.895694    1.519806   -1.812311
     30          1           0       -3.393912    3.192312   -0.034401
     31          1           0       -2.269059    2.063083    0.812020
     32          1           0       -1.144569    2.143349   -1.439478
     33          1           0        3.473882    0.236677    1.534496
     34          1           0        1.556952    1.815147   -0.356052
     35          1           0        0.498125   -0.603158    1.179554
     36          1           0        1.173402   -1.212933   -1.752391
     37          1           0        3.521371    0.279582   -1.604861
     38          1           0        5.132729   -1.812881   -0.193047
     39          1           0        5.702638   -0.594094   -1.406945
     40          1           0        5.792824    0.878047    0.506995
     41          1           0        0.619493    2.166344    1.704299
     42          1           0        3.782198    2.520797    1.102278
     43          1           0       -0.980624   -2.677475    0.915614
     44          1           0        1.756851   -3.023177    0.268420
     45          1           0       -4.512576    0.194127    1.957031
 ---------------------------------------------------------------------
 Rotational constants (GHZ):           0.4952033           0.1409396           0.1228376
 Leave Link  202 at Tue Jun 22 14:21:24 2021, MaxMem=  2147483648 cpu:               0.0 elap:               0.0
 (Enter /home/matma/Programs/gaussian/G16_x86_SSE4/tar/g16/l301.exe)
 Standard basis: VSTO-6G (5D, 7F)
 Ernie: Thresh=  0.10000D-02 Tol=  0.10000D-05 Strict=F.
  NNHCO=     0 NNPyr=     0 NCTC=     0               EPep=         0.000000000
    EC=      1175.984575508  ECS=         8.996440704   EG=         0.732842538
   EHC=         0.002713473  EAt=      -175.965002454  AtH=         6.138669069
 EPDDG=         0.000000000  ECC=      1185.716572222 EAtT=       182.103671523
 There are   114 symmetry adapted cartesian basis functions of A   symmetry.
 There are   114 symmetry adapted basis functions of A   symmetry.
   114 basis functions,   684 primitive gaussians,   114 cartesian basis functions
    68 alpha electrons       68 beta electrons
       nuclear repulsion energy      1367.8202437454 Hartrees.
 IExCor=    0 DFT=F Ex=HF Corr=None ExCW=0 ScaHFX=  1.000000
 ScaDFX=  1.000000  1.000000  1.000000  1.000000 ScalE2=  1.000000  1.000000
 IRadAn=  99590 IRanWt=     -1 IRanGd=            0 ICorTp=0 IEmpDi=  4
 Integral buffers will be    131072 words long.
 Regular integral format.
 Two-electron integral symmetry is turned off.
 Leave Link  301 at Tue Jun 22 14:21:24 2021, MaxMem=  2147483648 cpu:               0.2 elap:               0.0
 (Enter /home/matma/Programs/gaussian/G16_x86_SSE4/tar/g16/l302.exe)
 Do NDO integrals.
 NPDir=0 NMtPBC=     1 NCelOv=     1 NCel=       1 NClECP=     1 NCelD=      1
         NCelK=      1 NCelE2=     1 NClLst=     1 CellRange=     0.0.
 One-electron integrals computed using PRISM.
 NBasis=   114 RedAO= F EigKep=  0.00D+00  NBF=   114
 NBsUse=   114 1.00D-04 EigRej=  0.00D+00 NBFU=   114
 Leave Link  302 at Tue Jun 22 14:21:24 2021, MaxMem=  2147483648 cpu:               0.6 elap:               0.1
 (Enter /home/matma/Programs/gaussian/G16_x86_SSE4/tar/g16/l303.exe)
 DipDrv:  MaxL=1.
 Leave Link  303 at Tue Jun 22 14:21:25 2021, MaxMem=  2147483648 cpu:               0.1 elap:               0.0
 (Enter /home/matma/Programs/gaussian/G16_x86_SSE4/tar/g16/l401.exe)
 Simple Huckel Guess.
 JPrj=0 DoOrth=F DoCkMO=F.
 Leave Link  401 at Tue Jun 22 14:21:25 2021, MaxMem=  2147483648 cpu:               0.2 elap:               0.0
 (Enter /home/matma/Programs/gaussian/G16_x86_SSE4/tar/g16/l502.exe)
 Keep J ints in memory in canonical form, NReq=892272.
 FoFCou: FMM=F IPFlag=           0 FMFlag=           0 FMFlg1=           0
         NFxFlg=           0 DoJE=F BraDBF=F KetDBF=F FulRan=T
         wScrn=  0.000000 ICntrl=       600 IOpCl=  2 I1Cent=           0 NGrid=           0
         NMat0=    1 NMatS0=    252 NMatT0=    0 NMatD0=    1 NMtDS0=    0 NMtDT0=    0
 Symmetry not used in FoFCou.
 Two-electron integral symmetry not used.
 Closed shell SCF:
 Using DIIS extrapolation, IDIIS=  1040.
 Overlap will be assumed to be unity.
 NGot=  2147483648 LenX=  2147363403 LenY=  2147349966
 Requested convergence on RMS density matrix=1.00D-08 within 128 cycles.
 Requested convergence on MAX density matrix=1.00D-06.
 Requested convergence on             energy=1.00D-06.
 No special actions if energy rises.

 Cycle   1  Pass 1  IDiag  1:
 E= 0.465774456132749    
 DIIS: error= 5.61D-02 at cycle   1 NSaved=   1.
 NSaved= 1 IEnMin= 1 EnMin= 0.465774456132749     IErMin= 1 ErrMin= 5.61D-02
 ErrMax= 5.61D-02  0.00D+00 EMaxC= 1.00D-01 BMatC= 3.19D-01 BMatP= 3.19D-01
 IDIUse=3 WtCom= 4.39D-01 WtEn= 5.61D-01
 Coeff-Com:  0.100D+01
 Coeff-En:   0.100D+01
 Coeff:      0.100D+01
 GapD=    2.000 DampG=2.000 DampE=0.500 DampFc=1.0000 IDamp=-1.
 RMSDP=8.22D-03 MaxDP=1.23D-01              OVMax= 0.00D+00

 Cycle   2  Pass 1  IDiag  1:
 E=-0.536903633353404     Delta-E=       -1.002678089486 Rises=F Damp=F
 DIIS: error= 1.69D-02 at cycle   2 NSaved=   2.
 NSaved= 2 IEnMin= 2 EnMin=-0.536903633353404     IErMin= 2 ErrMin= 1.69D-02
 ErrMax= 1.69D-02  0.00D+00 EMaxC= 1.00D-01 BMatC= 4.58D-02 BMatP= 3.19D-01
 IDIUse=3 WtCom= 8.31D-01 WtEn= 1.69D-01
 Coeff-Com: -0.435D+00 0.144D+01
 Coeff-En:   0.000D+00 0.100D+01
 Coeff:     -0.362D+00 0.136D+01
 RMSDP=4.79D-03 MaxDP=6.52D-02 DE=-1.00D+00 OVMax= 0.00D+00

 Cycle   3  Pass 1  IDiag  3:
 E=-0.743834671279274     Delta-E=       -0.206931037926 Rises=F Damp=F
 DIIS: error= 5.69D-03 at cycle   3 NSaved=   3.
 NSaved= 3 IEnMin= 3 EnMin=-0.743834671279274     IErMin= 3 ErrMin= 5.69D-03
 ErrMax= 5.69D-03  0.00D+00 EMaxC= 1.00D-01 BMatC= 4.72D-03 BMatP= 4.58D-02
 IDIUse=3 WtCom= 9.43D-01 WtEn= 5.69D-02
 Coeff-Com:  0.267D+00-0.107D+01 0.181D+01
 Coeff-En:   0.000D+00 0.000D+00 0.100D+01
 Coeff:      0.252D+00-0.101D+01 0.176D+01
 Gap=     0.385 Goal=   None    Shift=    0.000
 RMSDP=2.45D-03 MaxDP=4.75D-02 DE=-2.07D-01 OVMax= 2.78D-02

 Cycle   4  Pass 1  IDiag  3:
 E=-0.775246039323747     Delta-E=       -0.031411368044 Rises=F Damp=F
 DIIS: error= 1.09D-03 at cycle   4 NSaved=   4.
 NSaved= 4 IEnMin= 4 EnMin=-0.775246039323747     IErMin= 4 ErrMin= 1.09D-03
 ErrMax= 1.09D-03  0.00D+00 EMaxC= 1.00D-01 BMatC= 2.05D-04 BMatP= 4.72D-03
 IDIUse=3 WtCom= 9.89D-01 WtEn= 1.09D-02
 Coeff-Com: -0.559D-01 0.249D+00-0.615D+00 0.142D+01
 Coeff-En:   0.000D+00 0.000D+00 0.000D+00 0.100D+01
 Coeff:     -0.553D-01 0.247D+00-0.608D+00 0.142D+01
 Gap=     0.384 Goal=   None    Shift=    0.000
 RMSDP=5.74D-04 MaxDP=1.23D-02 DE=-3.14D-02 OVMax= 6.99D-03

 Cycle   5  Pass 1  IDiag  3:
 E=-0.776694919047714     Delta-E=       -0.001448879724 Rises=F Damp=F
 DIIS: error= 1.98D-04 at cycle   5 NSaved=   5.
 NSaved= 5 IEnMin= 5 EnMin=-0.776694919047714     IErMin= 5 ErrMin= 1.98D-04
 ErrMax= 1.98D-04  0.00D+00 EMaxC= 1.00D-01 BMatC= 1.00D-05 BMatP= 2.05D-04
 IDIUse=3 WtCom= 9.98D-01 WtEn= 1.98D-03
 Coeff-Com:  0.280D-02-0.140D-01 0.802D-01-0.415D+00 0.135D+01
 Coeff-En:   0.000D+00 0.000D+00 0.000D+00 0.000D+00 0.100D+01
 Coeff:      0.279D-02-0.140D-01 0.800D-01-0.414D+00 0.135D+01
 Gap=     0.384 Goal=   None    Shift=    0.000
 RMSDP=1.06D-04 MaxDP=1.73D-03 DE=-1.45D-03 OVMax= 2.14D-03

 Cycle   6  Pass 1  IDiag  3:
 E=-0.776757548608430     Delta-E=       -0.000062629561 Rises=F Damp=F
 DIIS: error= 9.75D-05 at cycle   6 NSaved=   6.
 NSaved= 6 IEnMin= 6 EnMin=-0.776757548608430     IErMin= 6 ErrMin= 9.75D-05
 ErrMax= 9.75D-05  0.00D+00 EMaxC= 1.00D-01 BMatC= 8.23D-07 BMatP= 1.00D-05
 IDIUse=1 WtCom= 1.00D+00 WtEn= 0.00D+00
 Coeff-Com:  0.237D-02-0.955D-02 0.274D-03 0.107D+00-0.636D+00 0.154D+01
 Coeff:      0.237D-02-0.955D-02 0.274D-03 0.107D+00-0.636D+00 0.154D+01
 Gap=     0.384 Goal=   None    Shift=    0.000
 RMSDP=3.50D-05 MaxDP=7.39D-04 DE=-6.26D-05 OVMax= 8.06D-04

 Cycle   7  Pass 1  IDiag  3:
 E=-0.776763255783635     Delta-E=       -0.000005707175 Rises=F Damp=F
 DIIS: error= 2.75D-05 at cycle   7 NSaved=   7.
 NSaved= 7 IEnMin= 7 EnMin=-0.776763255783635     IErMin= 7 ErrMin= 2.75D-05
 ErrMax= 2.75D-05  0.00D+00 EMaxC= 1.00D-01 BMatC= 5.36D-08 BMatP= 8.23D-07
 IDIUse=1 WtCom= 1.00D+00 WtEn= 0.00D+00
 Coeff-Com: -0.996D-03 0.431D-02-0.201D-02-0.342D-01 0.240D+00-0.754D+00
 Coeff-Com:  0.155D+01
 Coeff:     -0.996D-03 0.431D-02-0.201D-02-0.342D-01 0.240D+00-0.754D+00
 Coeff:      0.155D+01
 Gap=     0.384 Goal=   None    Shift=    0.000
 RMSDP=8.92D-06 MaxDP=2.33D-04 DE=-5.71D-06 OVMax= 1.98D-04

 Cycle   8  Pass 1  IDiag  3:
 E=-0.776763635953103     Delta-E=       -0.000000380169 Rises=F Damp=F
 DIIS: error= 6.51D-06 at cycle   8 NSaved=   8.
 NSaved= 8 IEnMin= 8 EnMin=-0.776763635953103     IErMin= 8 ErrMin= 6.51D-06
 ErrMax= 6.51D-06  0.00D+00 EMaxC= 1.00D-01 BMatC= 4.12D-09 BMatP= 5.36D-08
 IDIUse=1 WtCom= 1.00D+00 WtEn= 0.00D+00
 Coeff-Com:  0.183D-03-0.917D-03 0.271D-03 0.817D-02-0.588D-01 0.207D+00
 Coeff-Com: -0.645D+00 0.149D+01
 Coeff:      0.183D-03-0.917D-03 0.271D-03 0.817D-02-0.588D-01 0.207D+00
 Coeff:     -0.645D+00 0.149D+01
 Gap=     0.384 Goal=   None    Shift=    0.000
 RMSDP=2.55D-06 MaxDP=6.65D-05 DE=-3.80D-07 OVMax= 4.79D-05

 Cycle   9  Pass 1  IDiag  3:
 E=-0.776763665574208     Delta-E=       -0.000000029621 Rises=F Damp=F
 DIIS: error= 2.63D-06 at cycle   9 NSaved=   9.
 NSaved= 9 IEnMin= 9 EnMin=-0.776763665574208     IErMin= 9 ErrMin= 2.63D-06
 ErrMax= 2.63D-06  0.00D+00 EMaxC= 1.00D-01 BMatC= 3.57D-10 BMatP= 4.12D-09
 IDIUse=1 WtCom= 1.00D+00 WtEn= 0.00D+00
 Coeff-Com: -0.350D-04 0.233D-03-0.859D-04-0.164D-02 0.139D-01-0.543D-01
 Coeff-Com:  0.207D+00-0.708D+00 0.154D+01
 Coeff:     -0.350D-04 0.233D-03-0.859D-04-0.164D-02 0.139D-01-0.543D-01
 Coeff:      0.207D+00-0.708D+00 0.154D+01
 Gap=     0.384 Goal=   None    Shift=    0.000
 RMSDP=7.40D-07 MaxDP=2.17D-05 DE=-2.96D-08 OVMax= 1.17D-05

 Cycle  10  Pass 1  IDiag  3:
 E=-0.776763668145122     Delta-E=       -0.000000002571 Rises=F Damp=F
 DIIS: error= 9.85D-07 at cycle  10 NSaved=  10.
 NSaved=10 IEnMin=10 EnMin=-0.776763668145122     IErMin=10 ErrMin= 9.85D-07
 ErrMax= 9.85D-07  0.00D+00 EMaxC= 1.00D-01 BMatC= 3.55D-11 BMatP= 3.57D-10
 IDIUse=1 WtCom= 1.00D+00 WtEn= 0.00D+00
 Coeff-Com:  0.194D-04-0.118D-03 0.120D-03 0.158D-03-0.318D-02 0.135D-01
 Coeff-Com: -0.531D-01 0.216D+00-0.737D+00 0.156D+01
 Coeff:      0.194D-04-0.118D-03 0.120D-03 0.158D-03-0.318D-02 0.135D-01
 Coeff:     -0.531D-01 0.216D+00-0.737D+00 0.156D+01
 Gap=     0.384 Goal=   None    Shift=    0.000
 RMSDP=2.42D-07 MaxDP=7.49D-06 DE=-2.57D-09 OVMax= 3.72D-06

 Cycle  11  Pass 1  IDiag  3:
 E=-0.776763668389549     Delta-E=       -0.000000000244 Rises=F Damp=F
 DIIS: error= 2.93D-07 at cycle  11 NSaved=  11.
 NSaved=11 IEnMin=11 EnMin=-0.776763668389549     IErMin=11 ErrMin= 2.93D-07
 ErrMax= 2.93D-07  0.00D+00 EMaxC= 1.00D-01 BMatC= 3.26D-12 BMatP= 3.55D-11
 IDIUse=1 WtCom= 1.00D+00 WtEn= 0.00D+00
 Coeff-Com: -0.903D-05 0.518D-04-0.720D-04 0.978D-04 0.406D-03-0.242D-02
 Coeff-Com:  0.105D-01-0.501D-01 0.219D+00-0.715D+00 0.154D+01
 Coeff:     -0.903D-05 0.518D-04-0.720D-04 0.978D-04 0.406D-03-0.242D-02
 Coeff:      0.105D-01-0.501D-01 0.219D+00-0.715D+00 0.154D+01
 Gap=     0.384 Goal=   None    Shift=    0.000
 RMSDP=7.39D-08 MaxDP=2.24D-06 DE=-2.44D-10 OVMax= 9.78D-07

 Cycle  12  Pass 1  IDiag  3:
 E=-0.776763668424792     Delta-E=       -0.000000000035 Rises=F Damp=F
 DIIS: error= 7.30D-08 at cycle  12 NSaved=  12.
 NSaved=12 IEnMin=12 EnMin=-0.776763668424792     IErMin=12 ErrMin= 7.30D-08
 ErrMax= 7.30D-08  0.00D+00 EMaxC= 1.00D-01 BMatC= 3.22D-13 BMatP= 3.26D-12
 IDIUse=1 WtCom= 1.00D+00 WtEn= 0.00D+00
 Coeff-Com:  0.302D-05-0.175D-04 0.292D-04-0.774D-04 0.112D-03 0.186D-05
 Coeff-Com: -0.838D-03 0.677D-02-0.412D-01 0.193D+00-0.723D+00 0.156D+01
 Coeff:      0.302D-05-0.175D-04 0.292D-04-0.774D-04 0.112D-03 0.186D-05
 Coeff:     -0.838D-03 0.677D-02-0.412D-01 0.193D+00-0.723D+00 0.156D+01
 Gap=     0.384 Goal=   None    Shift=    0.000
 RMSDP=2.39D-08 MaxDP=6.19D-07 DE=-3.52D-11 OVMax= 2.94D-07

 Cycle  13  Pass 1  IDiag  3:
 E=-0.776763668418880     Delta-E=        0.000000000006 Rises=F Damp=F
 DIIS: error= 2.19D-08 at cycle  13 NSaved=  13.
 NSaved=13 IEnMin=12 EnMin=-0.776763668424792     IErMin=13 ErrMin= 2.19D-08
 ErrMax= 2.19D-08  0.00D+00 EMaxC= 1.00D-01 BMatC= 2.60D-14 BMatP= 3.22D-13
 IDIUse=1 WtCom= 1.00D+00 WtEn= 0.00D+00
 Coeff-Com: -0.748D-06 0.457D-05-0.912D-05 0.345D-04-0.106D-03 0.251D-03
 Coeff-Com: -0.603D-03 0.120D-02 0.942D-03-0.306D-01 0.201D+00-0.697D+00
 Coeff-Com:  0.152D+01
 Coeff:     -0.748D-06 0.457D-05-0.912D-05 0.345D-04-0.106D-03 0.251D-03
 Coeff:     -0.603D-03 0.120D-02 0.942D-03-0.306D-01 0.201D+00-0.697D+00
 Coeff:      0.152D+01
 Gap=     0.384 Goal=   None    Shift=    0.000
 RMSDP=6.42D-09 MaxDP=1.67D-07 DE= 5.91D-12 OVMax= 8.62D-08

 Cycle  14  Pass 2  IDiag  1:
 SCF Done:  E(RPM6) = -0.776763668419     A.U. after   14 cycles
            NFock= 13  Conv=0.64D-08     -V/T= 0.9974
 KE=-3.043377709038D+02 PE=-2.337970327714D+03 EE= 1.273711091204D+03
 Leave Link  502 at Tue Jun 22 14:21:25 2021, MaxMem=  2147483648 cpu:               0.5 elap:               0.0
 (Enter /home/matma/Programs/gaussian/G16_x86_SSE4/tar/g16/l601.exe)
 Copying SCF densities to generalized density rwf, IOpCl= 0 IROHF=0.

 **********************************************************************

            Population analysis using the SCF Density.

 **********************************************************************

 Orbital symmetries:
       Occupied  (A) (A) (A) (A) (A) (A) (A) (A) (A) (A) (A) (A)
                 (A) (A) (A) (A) (A) (A) (A) (A) (A) (A) (A) (A)
                 (A) (A) (A) (A) (A) (A) (A) (A) (A) (A) (A) (A)
                 (A) (A) (A) (A) (A) (A) (A) (A) (A) (A) (A) (A)
                 (A) (A) (A) (A) (A) (A) (A) (A) (A) (A) (A) (A)
                 (A) (A) (A) (A) (A) (A) (A) (A)
       Virtual   (A) (A) (A) (A) (A) (A) (A) (A) (A) (A) (A) (A)
                 (A) (A) (A) (A) (A) (A) (A) (A) (A) (A) (A) (A)
                 (A) (A) (A) (A) (A) (A) (A) (A) (A) (A) (A) (A)
                 (A) (A) (A) (A) (A) (A) (A) (A) (A) (A)
 The electronic state is 1-A.
 Alpha  occ. eigenvalues --   -1.17221  -1.16688  -1.14571  -1.13855  -1.13020
 Alpha  occ. eigenvalues --   -1.11995  -1.10567  -1.10197  -1.09249  -1.08809
 Alpha  occ. eigenvalues --   -1.07767  -1.02444  -1.00958  -0.99656  -0.98507
 Alpha  occ. eigenvalues --   -0.92163  -0.91372  -0.88672  -0.85452  -0.83074
 Alpha  occ. eigenvalues --   -0.82447  -0.77359  -0.75547  -0.73837  -0.72675
 Alpha  occ. eigenvalues --   -0.70637  -0.69392  -0.69133  -0.68224  -0.66553
 Alpha  occ. eigenvalues --   -0.65219  -0.64811  -0.63961  -0.62989  -0.62132
 Alpha  occ. eigenvalues --   -0.61563  -0.60720  -0.59430  -0.58916  -0.58826
 Alpha  occ. eigenvalues --   -0.56447  -0.56092  -0.55516  -0.55193  -0.54577
 Alpha  occ. eigenvalues --   -0.52746  -0.51830  -0.51459  -0.50406  -0.50096
 Alpha  occ. eigenvalues --   -0.49434  -0.49342  -0.48344  -0.48307  -0.47060
 Alpha  occ. eigenvalues --   -0.46176  -0.45994  -0.44915  -0.43646  -0.42902
 Alpha  occ. eigenvalues --   -0.42367  -0.42012  -0.41341  -0.41150  -0.39994
 Alpha  occ. eigenvalues --   -0.39648  -0.38695  -0.37999
 Alpha virt. eigenvalues --    0.00339   0.02177   0.03265   0.04716   0.05224
 Alpha virt. eigenvalues --    0.05315   0.05429   0.06830   0.07364   0.07607
 Alpha virt. eigenvalues --    0.08062   0.08251   0.08559   0.08969   0.09349
 Alpha virt. eigenvalues --    0.09664   0.09823   0.10395   0.10625   0.11037
 Alpha virt. eigenvalues --    0.11643   0.12065   0.12921   0.13865   0.14774
 Alpha virt. eigenvalues --    0.15467   0.15888   0.16192   0.16505   0.16698
 Alpha virt. eigenvalues --    0.16778   0.17097   0.17321   0.17514   0.17611
 Alpha virt. eigenvalues --    0.17875   0.17911   0.18213   0.18296   0.18678
 Alpha virt. eigenvalues --    0.18992   0.19165   0.19475   0.20275   0.21190
 Alpha virt. eigenvalues --    0.21942
          Condensed to atoms (all electrons):
               1          2          3          4          5          6
     1  O    6.558009   0.000000   0.000000   0.000000   0.000000   0.000000
     2  C    0.000000   3.927540   0.000000   0.000000   0.000000   0.000000
     3  C    0.000000   0.000000   3.913627   0.000000   0.000000   0.000000
     4  O    0.000000   0.000000   0.000000   6.559759   0.000000   0.000000
     5  C    0.000000   0.000000   0.000000   0.000000   4.021131   0.000000
     6  C    0.000000   0.000000   0.000000   0.000000   0.000000   3.665900
     7  O    0.000000   0.000000   0.000000   0.000000   0.000000   0.000000
     8  C    0.000000   0.000000   0.000000   0.000000   0.000000   0.000000
     9  C    0.000000   0.000000   0.000000   0.000000   0.000000   0.000000
    10  O    0.000000   0.000000   0.000000   0.000000   0.000000   0.000000
    11  O    0.000000   0.000000   0.000000   0.000000   0.000000   0.000000
    12  C    0.000000   0.000000   0.000000   0.000000   0.000000   0.000000
    13  C    0.000000   0.000000   0.000000   0.000000   0.000000   0.000000
    14  C    0.000000   0.000000   0.000000   0.000000   0.000000   0.000000
    15  C    0.000000   0.000000   0.000000   0.000000   0.000000   0.000000
    16  O    0.000000   0.000000   0.000000   0.000000   0.000000   0.000000
    17  C    0.000000   0.000000   0.000000   0.000000   0.000000   0.000000
    18  C    0.000000   0.000000   0.000000   0.000000   0.000000   0.000000
    19  O    0.000000   0.000000   0.000000   0.000000   0.000000   0.000000
    20  O    0.000000   0.000000   0.000000   0.000000   0.000000   0.000000
    21  O    0.000000   0.000000   0.000000   0.000000   0.000000   0.000000
    22  O    0.000000   0.000000   0.000000   0.000000   0.000000   0.000000
    23  O    0.000000   0.000000   0.000000   0.000000   0.000000   0.000000
    24  H    0.000000   0.000000   0.000000   0.000000   0.000000   0.000000
    25  H    0.000000   0.000000   0.000000   0.000000   0.000000   0.000000
    26  H    0.000000   0.000000   0.000000   0.000000   0.000000   0.000000
    27  H    0.000000   0.000000   0.000000   0.000000   0.000000   0.000000
    28  H    0.000000   0.000000   0.000000   0.000000   0.000000   0.000000
    29  H    0.000000   0.000000   0.000000   0.000000   0.000000   0.000000
    30  H    0.000000   0.000000   0.000000   0.000000   0.000000   0.000000
    31  H    0.000000   0.000000   0.000000   0.000000   0.000000   0.000000
    32  H    0.000000   0.000000   0.000000   0.000000   0.000000   0.000000
    33  H    0.000000   0.000000   0.000000   0.000000   0.000000   0.000000
    34  H    0.000000   0.000000   0.000000   0.000000   0.000000   0.000000
    35  H    0.000000   0.000000   0.000000   0.000000   0.000000   0.000000
    36  H    0.000000   0.000000   0.000000   0.000000   0.000000   0.000000
    37  H    0.000000   0.000000   0.000000   0.000000   0.000000   0.000000
    38  H    0.000000   0.000000   0.000000   0.000000   0.000000   0.000000
    39  H    0.000000   0.000000   0.000000   0.000000   0.000000   0.000000
    40  H    0.000000   0.000000   0.000000   0.000000   0.000000   0.000000
    41  H    0.000000   0.000000   0.000000   0.000000   0.000000   0.000000
    42  H    0.000000   0.000000   0.000000   0.000000   0.000000   0.000000
    43  H    0.000000   0.000000   0.000000   0.000000   0.000000   0.000000
    44  H    0.000000   0.000000   0.000000   0.000000   0.000000   0.000000
    45  H    0.000000   0.000000   0.000000   0.000000   0.000000   0.000000
               7          8          9         10         11         12
     1  O    0.000000   0.000000   0.000000   0.000000   0.000000   0.000000
     2  C    0.000000   0.000000   0.000000   0.000000   0.000000   0.000000
     3  C    0.000000   0.000000   0.000000   0.000000   0.000000   0.000000
     4  O    0.000000   0.000000   0.000000   0.000000   0.000000   0.000000
     5  C    0.000000   0.000000   0.000000   0.000000   0.000000   0.000000
     6  C    0.000000   0.000000   0.000000   0.000000   0.000000   0.000000
     7  O    6.441368   0.000000   0.000000   0.000000   0.000000   0.000000
     8  C    0.000000   3.939361   0.000000   0.000000   0.000000   0.000000
     9  C    0.000000   0.000000   4.027765   0.000000   0.000000   0.000000
    10  O    0.000000   0.000000   0.000000   6.559503   0.000000   0.000000
    11  O    0.000000   0.000000   0.000000   0.000000   6.556625   0.000000
    12  C    0.000000   0.000000   0.000000   0.000000   0.000000   3.923842
    13  C    0.000000   0.000000   0.000000   0.000000   0.000000   0.000000
    14  C    0.000000   0.000000   0.000000   0.000000   0.000000   0.000000
    15  C    0.000000   0.000000   0.000000   0.000000   0.000000   0.000000
    16  O    0.000000   0.000000   0.000000   0.000000   0.000000   0.000000
    17  C    0.000000   0.000000   0.000000   0.000000   0.000000   0.000000
    18  C    0.000000   0.000000   0.000000   0.000000   0.000000   0.000000
    19  O    0.000000   0.000000   0.000000   0.000000   0.000000   0.000000
    20  O    0.000000   0.000000   0.000000   0.000000   0.000000   0.000000
    21  O    0.000000   0.000000   0.000000   0.000000   0.000000   0.000000
    22  O    0.000000   0.000000   0.000000   0.000000   0.000000   0.000000
    23  O    0.000000   0.000000   0.000000   0.000000   0.000000   0.000000
    24  H    0.000000   0.000000   0.000000   0.000000   0.000000   0.000000
    25  H    0.000000   0.000000   0.000000   0.000000   0.000000   0.000000
    26  H    0.000000   0.000000   0.000000   0.000000   0.000000   0.000000
    27  H    0.000000   0.000000   0.000000   0.000000   0.000000   0.000000
    28  H    0.000000   0.000000   0.000000   0.000000   0.000000   0.000000
    29  H    0.000000   0.000000   0.000000   0.000000   0.000000   0.000000
    30  H    0.000000   0.000000   0.000000   0.000000   0.000000   0.000000
    31  H    0.000000   0.000000   0.000000   0.000000   0.000000   0.000000
    32  H    0.000000   0.000000   0.000000   0.000000   0.000000   0.000000
    33  H    0.000000   0.000000   0.000000   0.000000   0.000000   0.000000
    34  H    0.000000   0.000000   0.000000   0.000000   0.000000   0.000000
    35  H    0.000000   0.000000   0.000000   0.000000   0.000000   0.000000
    36  H    0.000000   0.000000   0.000000   0.000000   0.000000   0.000000
    37  H    0.000000   0.000000   0.000000   0.000000   0.000000   0.000000
    38  H    0.000000   0.000000   0.000000   0.000000   0.000000   0.000000
    39  H    0.000000   0.000000   0.000000   0.000000   0.000000   0.000000
    40  H    0.000000   0.000000   0.000000   0.000000   0.000000   0.000000
    41  H    0.000000   0.000000   0.000000   0.000000   0.000000   0.000000
    42  H    0.000000   0.000000   0.000000   0.000000   0.000000   0.000000
    43  H    0.000000   0.000000   0.000000   0.000000   0.000000   0.000000
    44  H    0.000000   0.000000   0.000000   0.000000   0.000000   0.000000
    45  H    0.000000   0.000000   0.000000   0.000000   0.000000   0.000000
              13         14         15         16         17         18
     1  O    0.000000   0.000000   0.000000   0.000000   0.000000   0.000000
     2  C    0.000000   0.000000   0.000000   0.000000   0.000000   0.000000
     3  C    0.000000   0.000000   0.000000   0.000000   0.000000   0.000000
     4  O    0.000000   0.000000   0.000000   0.000000   0.000000   0.000000
     5  C    0.000000   0.000000   0.000000   0.000000   0.000000   0.000000
     6  C    0.000000   0.000000   0.000000   0.000000   0.000000   0.000000
     7  O    0.000000   0.000000   0.000000   0.000000   0.000000   0.000000
     8  C    0.000000   0.000000   0.000000   0.000000   0.000000   0.000000
     9  C    0.000000   0.000000   0.000000   0.000000   0.000000   0.000000
    10  O    0.000000   0.000000   0.000000   0.000000   0.000000   0.000000
    11  O    0.000000   0.000000   0.000000   0.000000   0.000000   0.000000
    12  C    0.000000   0.000000   0.000000   0.000000   0.000000   0.000000
    13  C    3.928998   0.000000   0.000000   0.000000   0.000000   0.000000
    14  C    0.000000   3.988914   0.000000   0.000000   0.000000   0.000000
[...]
 360,-0.00199446,-0.04092221,-0.00445369,-0.00084947,0.00050818,0.00035
 713,-0.00006562,-0.00008198,-0.00013809,0.00036716,-0.00065959,-0.0008
 9541,-0.00014901,-0.00094401,-0.00554378,0.00231580,0.00085187,0.00051
 812,0.00009395,0.00005117,-0.00044953,-0.00033161,0.00028343,0.0003149
 4,-0.00032889,0.00017495,0.00069165,0.00019262,-0.00028161,0.00069424,
 0.00019396,-0.00132562,0.00011474,-0.00000879,0.00006710,-0.00001832,-
 0.00000984,0.00002953,-0.00001554,-0.00002611,-0.00000542,-0.00006001,
 0.00000407,-0.00001337,-0.00004790,-0.00000170,0.00002814,0.00004818,-
 0.00004777,-0.00007782,0.00000650,-0.00004865,0.00002954,0.00002126,0.
 00002167,0.00006925,-0.00002258,-0.00000004,0.00007135,-0.00005044,-0.
 00011354,0.00016732,0.00038477,0.00151786,-0.00024999,-0.00039651,-0.0
 0065130,0.00008019,0.00000744,0.00010481,0.00010268,-0.00000881,-0.000
 07422,0.00003899,0.00009803,-0.00001264,0.00026119,-0.00008292,0.00004
 002,-0.00004873,-0.00004675,-0.00002576,-0.00010425,0.00088420,0.00087
 086,-0.00056352,-0.00013385,-0.00052568,0.00105100,0.10785348,0.000019
 26,-0.00011055,-0.00001332,0.00002210,0.00006455,0.00000355,-0.0000550
 5,0.00003346,0.00001245,0.00006595,-0.00006197,0.00001207,-0.00000805,
 0.00001320,-0.00006221,-0.00023671,-0.00006424,0.00020558,0.00007670,-
 0.00002538,-0.00015740,-0.00001151,0.00005877,0.00005862,-0.00012457,0
 .00006858,0.00002978,0.00015867,-0.00020534,-0.00021508,-0.00595254,-0
 .01080233,-0.03358560,0.00845729,-0.00070208,0.01295102,-0.00192398,0.
 00075089,0.00024248,0.00019193,-0.00040011,0.00007389,-0.00016301,0.00
 020954,-0.00025517,0.00048297,-0.00005893,0.00066630,0.00181894,-0.000
 78561,-0.00112881,0.00053688,0.00036254,0.00006070,-0.00061909,-0.0006
 0296,-0.00057563,0.00009637,-0.00025782,0.00010577,0.00019384,0.000003
 38,-0.00006838,0.00042246,-0.00127731,-0.00025806,0.00005723,-0.000031
 17,0.00004543,-0.00000731,-0.00000745,0.00001112,-0.00000530,-0.000005
 30,-0.00000340,-0.00002157,0.00001172,-0.00001392,-0.00000816,0.000022
 99,0.00000911,0.00000699,-0.00000275,-0.00002379,-0.00000672,-0.000011
 09,0.00000493,0.00001738,0.00002271,0.00002307,0.00002138,0.00003874,0
 .00000297,-0.00010298,0.00004732,0.00012743,0.00259535,-0.00001968,0.0
 0047602,-0.00064973,-0.00015338,0.00006748,0.00005848,0.00009790,0.000
 06798,-0.00002304,-0.00001916,0.00001457,-0.00004547,0.00004104,-0.000
 18320,-0.00001359,-0.00003990,0.00002626,-0.00003939,-0.00005708,0.000
 04100,0.00036695,0.00083067,0.00072924,-0.00045646,0.00016668,0.000153
 53,-0.00520152,0.01266255,-0.00004193,-0.00002110,-0.00009682,0.000025
 25,0.00001215,0.00001782,-0.00004755,0.00003242,0.00004575,0.00004245,
 -0.00001735,-0.00007087,0.00004822,0.00003697,0.00000671,-0.00034280,-
 0.00004667,0.00064208,-0.00010676,0.00000197,-0.00045063,0.00000327,0.
 00016949,0.00011102,0.00015343,-0.00018565,-0.00014770,-0.00056198,-0.
 00008137,0.00014215,-0.07940894,-0.02269315,-0.17192433,-0.01190610,0.
 00250494,-0.00112812,0.00333307,-0.00017145,0.00342272,-0.00049456,-0.
 00017375,-0.00046396,-0.00118103,-0.00035046,0.00078709,0.00217847,0.0
 0037300,0.00024846,-0.00022408,-0.00056344,-0.00144139,0.00034101,0.00
 010228,-0.00021044,-0.00019260,-0.00029038,0.00068979,0.00050909,-0.00
 016853,-0.00021400,0.00063768,0.00044257,-0.00059716,-0.00368321,0.000
 30359,-0.00130402,0.00004889,0.00004150,-0.00015074,-0.00001120,-0.000
 00256,0.00000814,-0.00000232,-0.00001125,-0.00000770,-0.00003041,-0.00
 000505,0.00003491,-0.00004316,-0.00002620,0.00005714,0.00005141,-0.000
 01204,-0.00005028,0.00000902,-0.00003740,-0.00000188,0.00003470,0.0000
 2921,0.00002070,0.00002817,-0.00000347,0.00007098,0.00020902,0.0000586
 1,0.00015609,0.00144569,0.00088883,0.00072861,0.00017690,-0.00023387,-
 0.00003940,-0.00003759,0.00005308,0.00013773,-0.00002252,-0.00008503,-
 0.00008063,0.00013402,-0.00028716,-0.00007840,-0.00009158,0.00010729,-
 0.00006423,-0.00002981,-0.00009061,-0.00008569,0.00012917,0.00017046,-
 0.00137319,0.00083003,-0.00017217,-0.00025370,0.08833546,0.02037034,0.
 17273032,-0.00017809,-0.00028082,-0.00014965,0.00054097,0.00017446,-0.
 00041411,-0.00232444,-0.00103153,-0.00189319,-0.00020564,0.00041675,-0
 .00030079,0.00620624,0.01346800,-0.02442220,-0.00004890,-0.00026465,-0
 .00469463,-0.00074226,0.00078286,0.00039177,0.00020956,-0.00017733,0.0
 0002304,0.00020232,-0.00011669,-0.00004635,-0.00034501,0.00000689,0.00
 030260,0.00029867,-0.00002421,0.00017973,-0.00021235,0.00002779,-0.000
 03305,-0.00039903,-0.00023937,-0.00024226,0.00053870,0.00091967,-0.000
 46528,-0.00479614,0.00132946,0.00025327,0.00199622,0.00023731,-0.00036
 537,-0.00086101,0.00020902,-0.00036150,-0.00007651,-0.00019427,-0.0000
 1890,0.00033490,0.00009574,0.00000160,-0.00327663,-0.00137463,0.000283
 28,-0.00138195,-0.00086333,0.00156618,0.00017537,-0.00003856,0.0006966
 4,-0.04864067,-0.04860266,0.05506050,-0.00018139,-0.00003285,-0.000086
 78,-0.00023891,-0.00013505,0.00015836,-0.00012717,-0.00017381,0.000716
 22,0.00068980,0.00021463,-0.00136214,-0.00019164,-0.00006921,-0.000229
 03,0.00000602,-0.00001285,0.00006439,0.00001974,0.00000644,0.00000902,
 0.00004587,0.00005009,-0.00005723,0.00008526,0.00002550,-0.00014520,-0
 .00001922,-0.00006724,-0.00001926,0.00004461,0.00007937,-0.00002082,0.
 00005462,-0.00017167,-0.00020937,-0.00015246,0.00025231,0.00046106,0.0
 0004792,0.00005273,0.00003750,0.00000076,-0.00003875,0.00005553,-0.000
 00213,0.00004629,0.00003165,-0.00011633,0.00003627,0.00000362,0.000168
 12,0.00025855,-0.00036172,-0.00006694,-0.00002152,-0.00012607,0.051078
 35,-0.00002173,-0.00084880,0.00004726,0.00096016,0.00054102,-0.0004946
 6,-0.00305566,0.00094288,-0.00324153,0.00067571,-0.00099806,0.00102743
 ,0.00463717,0.00105008,-0.00127031,0.00274994,-0.00091629,0.00088243,-
 0.00049690,-0.00025286,-0.00035789,0.00019951,0.00028071,0.00009331,0.
 00014136,-0.00013220,-0.00009216,-0.00032219,-0.00008035,0.00014961,0.
 00006530,-0.00007263,0.00014558,-0.00006214,0.00002506,-0.00011394,-0.
 00015539,-0.00015749,0.00000790,0.00073251,0.00064288,-0.00034342,-0.0
 0218988,0.00330141,-0.00063697,0.00125902,-0.00045073,0.00005431,-0.00
 047127,-0.00000427,-0.00026346,0.00003345,-0.00009013,0.00000052,0.000
 14655,-0.00000305,0.00001643,0.00124646,-0.00381506,0.00027596,-0.0012
 8567,-0.00102676,0.00043112,0.00001626,-0.00012241,0.00034363,-0.04095
 766,-0.05385389,0.08036543,-0.00025177,-0.00005921,-0.00009215,-0.0001
 9812,-0.00023263,0.00001150,-0.00004264,0.00058578,-0.00087480,-0.0005
 1306,0.00167991,-0.00243848,0.00006974,-0.00026284,0.00029246,0.000009
 23,-0.00012207,0.00000683,0.00001673,0.00003316,0.00004752,0.00002250,
 0.00009341,-0.00003844,0.00016611,0.00006618,-0.00000625,-0.00002731,0
 .00001253,0.00000071,0.00002841,0.00005087,-0.00001283,0.00001680,0.00
 004757,-0.00010351,0.00069647,0.00023563,0.00016890,0.00007758,0.00006
 229,0.00002371,-0.00003728,0.00002303,0.00002478,-0.00000720,0.0000238
 9,0.00001688,-0.00005633,0.00003947,-0.00002640,0.00016502,0.00020132,
 -0.00023719,0.00000054,0.00002173,-0.00007065,0.03579481,0.05313815,0.
 00011841,0.00042994,0.00044373,0.00013993,-0.00028955,-0.00051329,-0.0
 0139506,-0.00134365,-0.00412616,-0.00088836,0.00072868,0.00065174,0.00
 017362,0.01633931,-0.04874093,-0.00310421,0.00113150,0.00013207,0.0008
 3036,-0.00063251,0.00069521,-0.00017897,-0.00020810,-0.00017055,-0.000
 20755,0.00019128,0.00018186,0.00047193,-0.00000230,-0.00020161,0.00000
 671,0.00004708,-0.00022141,-0.00002433,-0.00005493,0.00014589,0.000148
 72,0.00012543,-0.00004333,-0.00063318,-0.00112569,0.00032353,0.0025743
 9,-0.00170886,0.00122632,-0.00129731,-0.00004798,-0.00035663,0.0006564
 2,-0.00003267,0.00023786,0.00002756,0.00011611,0.00001065,-0.00020966,
 -0.00002332,-0.00010984,-0.00428547,-0.00111814,-0.00075300,0.00221479
 ,0.00062207,-0.00141747,0.00007401,0.00011387,-0.00047879,0.02981488,0
 .06190543,-0.13287411,0.00005199,0.00003944,-0.00014012,-0.00006697,0.
 00022792,0.00018739,0.00086219,-0.00034941,-0.00029950,-0.00020186,-0.
 00167167,0.00128747,0.00028253,0.00028494,0.00023170,0.00000057,0.0001
 2707,-0.00006820,-0.00002807,-0.00004182,-0.00007862,-0.00006257,-0.00
 006394,-0.00000984,-0.00025607,-0.00001917,-0.00000084,0.00000870,0.00
 002059,0.00000517,-0.00000993,-0.00001595,0.00004424,-0.00029000,0.000
 16214,0.00005680,0.00011693,0.00003400,0.00000073,-0.00005575,-0.00001
 447,0.00000291,0.00005355,0.00000081,0.00000158,0.00001918,-0.00001530
 ,-0.00000217,0.00006071,-0.00005436,0.00006971,-0.00027308,-0.00024023
 ,0.00030031,-0.00001597,-0.00001767,0.00009160,-0.02479751,-0.07364193
 ,0.18451688,-0.00006287,0.00000804,-0.00002016,-0.00001120,0.00001363,
 0.00001087,0.00010135,-0.00013660,0.00000473,-0.00010995,0.00016617,-0
 .00017145,-0.00006210,-0.00005008,-0.00001793,-0.00007995,-0.00001201,
 0.00006086,-0.00003501,-0.00001172,-0.00004179,0.00001949,0.00001039,0
 .00001184,0.00001626,-0.00001909,-0.00000085,-0.00006950,-0.00005972,0
 .00003932,0.00012686,-0.00021041,0.00030412,0.00007231,0.00016221,-0.0
 0031024,0.00028562,0.00016686,-0.00015497,-0.00314608,0.00200674,-0.00
 010866,0.00526377,0.03922207,-0.01486843,-0.00077855,-0.00215787,0.000
 95983,-0.00119840,-0.00012256,0.00024525,0.00003665,-0.00017005,-0.000
 01380,0.00033550,-0.00005603,-0.00004742,-0.04567687,-0.04745489,0.029
 52344,0.00002791,-0.00020391,-0.00030572,-0.00015949,-0.00027105,-0.00
 010763,-0.00035879,-0.00003363,0.00044437,0.00000035,-0.00000291,0.000
 00052,-0.00000607,0.00000534,0.00001190,0.00000534,-0.00009713,0.00015
 910,0.00010186,-0.00008137,-0.00003661,-0.00000477,0.00001641,0.000003
 91,-0.00000202,-0.00000300,-0.00000283,0.00000527,0.00000425,-0.000003
 23,0.00001175,0.00003162,-0.00002636,0.00002687,0.00003239,0.00001710,
 -0.00014774,0.00013364,-0.00003909,-0.00006313,-0.00000868,0.00007176,
 0.00004416,0.00034581,0.00000406,-0.00359442,0.00242303,-0.00004278,0.
 00026060,0.00007168,-0.00003155,-0.00020083,0.00007870,0.00020195,0.00
 000222,0.00002140,0.00007876,-0.00013687,0.00008976,-0.00002836,0.0000
 1737,0.00007189,-0.00006435,0.00001282,0.00004621,-0.00012429,0.001795
 48,0.00041931,-0.00043630,0.04728206,0.00009171,-0.00048595,0.00000241
 ,0.00013353,0.00027117,0.00002539,-0.00034364,0.00033846,0.00006738,0.
 00033211,-0.00045482,0.00013090,0.00005505,0.00004452,-0.00010033,-0.0
 0096260,-0.00037924,0.00132258,0.00005888,-0.00004350,-0.00087266,-0.0
 0004783,0.00035166,0.00019626,-0.00010760,-0.00002760,-0.00007652,0.00
 004735,-0.00005257,-0.00028389,-0.00047853,-0.00020138,-0.00008783,0.0
 0037564,0.00001349,-0.00008316,0.00078540,0.00019851,0.00015626,-0.001
 56210,-0.00086998,0.00108213,0.01355382,-0.04296714,0.01069343,0.00127
 029,-0.00221299,-0.00246282,0.00111820,-0.00079584,0.00100590,0.000198
 67,0.00027254,0.00003768,-0.00035478,-0.00039454,0.00001988,-0.0205673
 4,-0.15781999,0.06197631,0.00086500,0.00094206,-0.00094546,-0.00053257
 ,-0.00025061,-0.00083203,0.00034681,-0.00023904,-0.00023088,-0.0000406
 3,-0.00002797,0.00002877,-0.00000010,-0.00004059,-0.00004112,-0.000094
 00,0.00016465,-0.00011037,-0.00023114,0.00015508,0.00042864,0.00002593
 ,-0.00007456,-0.00007117,0.00000378,-0.00008374,0.00000237,0.00000789,
 0.00004872,0.00005935,0.00000007,0.00007529,0.00007346,0.00008764,-0.0
 0002624,0.00023321,-0.00009918,0.00037454,0.00003483,-0.00005344,-0.00
 013066,0.00001825,-0.00005440,0.00057988,0.00032917,0.00157340,-0.0024
 3394,-0.00051312,-0.00009853,-0.00010138,-0.00005612,-0.00034604,0.000
 35195,0.00000799,-0.00002628,-0.00008166,0.00001731,0.00007759,0.00005
 070,-0.00009288,0.00000382,-0.00015281,0.00026136,0.00011770,0.0001285
 2,0.00010181,-0.00067895,0.00006869,0.00033031,0.00563631,0.20568214,-
 0.00005250,-0.00011794,0.00027862,-0.00000639,0.00010207,-0.00001314,0
 .00014234,-0.00009281,-0.00013524,-0.00030789,-0.00002552,0.00009548,0
 .00019435,-0.00005678,0.00013204,0.00016889,0.00007570,-0.00048315,0.0
 0002185,-0.00008692,0.00028735,0.00001238,-0.00009985,0.00000040,-0.00
 004976,0.00004090,0.00009875,0.00008951,-0.00010963,0.00003693,0.00029
 308,0.00001817,-0.00025303,-0.00045974,-0.00000026,0.00023127,-0.00037
 366,-0.00009510,-0.00046800,-0.00159431,0.00108051,-0.00102811,-0.0033
 9578,-0.00013785,0.00076070,-0.00094943,0.00015940,-0.00094842,0.00074
 007,0.00064064,-0.00068858,0.00007707,0.00010376,0.00001362,-0.0001539
 2,0.00011450,-0.00026656,0.01739217,0.07148089,-0.02897485,-0.00024945
 ,-0.00056800,0.00035844,0.00027176,-0.00001922,0.00013717,-0.00032993,
 -0.00016643,-0.00038723,0.00003186,-0.00000078,-0.00003695,0.00002259,
 0.00006397,0.00001393,0.00021572,0.00005120,0.00001606,0.00028138,0.00
 059651,-0.00029113,0.00002057,0.00007707,0.00006004,-0.00000284,0.0000
 5131,-0.00003263,-0.00001386,-0.00001375,-0.00005024,-0.00002224,0.000
 06872,-0.00009445,-0.00005404,0.00005118,-0.00005051,-0.00007652,0.000
 03391,0.00004604,0.00004412,0.00004530,0.00001686,-0.00045333,0.000497
 22,-0.00038373,0.00317429,-0.00190008,-0.00001604,-0.00020909,-0.00002
 463,0.00004606,0.00036634,-0.00012955,0.00002924,0.00005785,0.00000654
 ,-0.00003447,0.00003680,-0.00010207,0.00014339,-0.00009424,0.00005223,
 -0.00007261,-0.00007765,-0.00003378,0.00002637,0.00039721,0.00006943,0
 .00003842,-0.01519695,-0.07170670,0.03203108,-0.12879753,0.09237235,-0
 .03583192,0.01178242,-0.00418541,0.00450920,0.00271114,-0.00493216,-0.
 00015536,-0.00206863,0.00163618,0.00091576,-0.00009662,0.00017040,0.00
 065464,-0.00032852,-0.00043131,0.00110545,0.00045085,-0.00056337,-0.00
 120733,-0.00210849,-0.00214367,0.00081619,-0.00072656,0.00015399,0.000
 04043,0.00042813,-0.00008131,-0.00021139,0.00011656,0.00000984,-0.0000
 3577,-0.00009819,-0.00000453,0.00003377,-0.00000868,0.00004412,0.00005
 563,-0.00001235,-0.00020767,0.00000068,0.00012780,-0.00018806,0.000228
 67,0.00001539,0.00003959,-0.00014365,0.00001008,0.00002585,0.00001931,
 -0.00004414,-0.00002373,-0.00000406,0.00004476,0.00002798,-0.00004386,
 -0.00020794,0.00019194,-0.00014953,0.00021915,0.00023547,-0.00032774,0
 .00014808,0.00001704,-0.00020933,-0.00048145,0.00033688,-0.00049451,-0
 .00018544,-0.00261270,-0.00082479,-0.00033600,0.00054961,-0.00018802,0
 .00057818,0.00114785,-0.00005273,0.00016176,0.00014715,0.00026207,0.00
 002754,0.00015079,-0.00006606,0.00033651,-0.00000118,-0.00020585,-0.00
 002539,-0.00005182,-0.00008955,-0.00009191,0.00011514,-0.00002481,-0.0
 0011198,0.00007721,0.00009985,-0.00000227,-0.00001097,0.00000411,-0.00
 001063,0.00001495,0.00001356,-0.00006133,0.00008432,0.00014175,-0.0000
 1230,0.00003073,-0.00001509,-0.00000756,0.00000755,0.00000649,0.000012
 33,-0.00001357,0.00001311,0.00000314,0.00000825,0.00001034,-0.00002296
 ,-0.00001056,0.00003637,-0.00019061,-0.00008532,0.00016549,-0.00003931
 ,-0.00001564,0.00000576,0.00004578,-0.00019446,0.00000941,0.00005328,-
 0.00008610,0.00007062,0.11880472,0.05920800,-0.09783998,0.02098688,0.0
 2698124,-0.05022535,0.00809434,-0.00141325,-0.00238787,-0.00300889,-0.
 00239480,-0.00391301,-0.00136660,-0.00002961,-0.00027995,-0.00064055,0
 .00072723,0.00002150,-0.00054461,0.00014064,-0.00007111,0.00062302,-0.
 00141495,-0.00547345,-0.00026923,0.00038904,-0.00037136,-0.00038644,-0
 .00071146,0.00026555,0.00041763,-0.00012914,-0.00005587,0.00003407,0.0
 0009272,0.00000563,-0.00005648,0.00003543,-0.00005460,0.00002924,0.000
 07870,0.00031070,-0.00015072,-0.00000592,0.00024513,-0.00025424,-0.000
 11863,-0.00012470,0.00015167,0.00002688,-0.00004377,0.00000479,0.00007
 490,0.00003631,0.00001003,-0.00006302,-0.00005568,0.00001162,0.0000263
 0,-0.00044282,0.00015427,-0.00062814,-0.00026551,0.00044025,-0.0001368
 2,-0.00016197,0.00017961,0.00008609,-0.00024807,0.00088998,-0.00054117
 ,-0.00050373,0.00140264,0.00024428,-0.00039537,0.00054371,-0.00015947,
 0.00081541,-0.00050906,0.00014806,0.00030259,-0.00033275,-0.00007622,-
 0.00010341,0.00001067,0.00036331,-0.00030999,0.00017434,0.00014501,0.0
 0005777,0.00013802,0.00028657,0.00009629,-0.00008296,0.00004757,-0.000
 07974,-0.00015233,-0.00001123,0.00006419,0.00002162,0.00000633,-0.0000
 0681,-0.00002173,0.00005222,0.00008238,-0.00005796,0.00002497,-0.00001
 068,0.00000919,0.00000546,0.00000176,-0.00000766,-0.00001731,0.0000268
 4,-0.00000542,-0.00000496,-0.00000892,-0.00000550,0.00002106,0.0000180
 9,-0.00002738,0.00024503,0.00020273,-0.00024891,0.00004595,0.00004438,
 0.00000110,0.00012481,0.00033418,-0.00024395,-0.00002124,0.00023639,0.
 00000629,-0.08175148,0.16026618,-0.03378681,0.02715745,-0.01106439,0.0
 0141340,0.00264325,-0.00257152,0.00023292,-0.00495825,0.00056469,0.000
 52923,0.00137889,-0.00069458,-0.00007047,0.00012544,-0.00034917,0.0003
 7340,-0.00070921,0.00118595,-0.00003983,-0.00032628,-0.00147829,-0.000
 10737,-0.00100478,0.00102290,-0.00029153,-0.00006726,-0.00008473,0.000
 30739,-0.00016200,-0.00037957,-0.00014528,0.00002377,-0.00005880,0.000
 08954,-0.00000255,-0.00002170,0.00019311,0.00008748,0.00021409,-0.0001
 5271,-0.00006936,0.00009119,0.00048363,-0.00020926,-0.00017707,-0.0003
 1372,-0.00000084,0.00013014,0.00017198,-0.00003937,0.00003065,0.000023
 42,0.00005012,0.00000423,-0.00009920,-0.00001196,0.00000333,-0.0003785
 7,0.00040041,0.00033943,-0.00010475,0.00039968,-0.00019583,-0.00012309
 ,0.00007123,-0.00038317,-0.00009735,0.00051303,0.00029131,0.00069334,0
 .00167759,0.00031218,-0.00022661,0.00001311,-0.00006105,-0.00025308,0.
 00027155,-0.00044829,0.00025278,-0.00062752,-0.00053583,-0.00010094,0.
 00007805,-0.00012987,0.00017891,-0.00005360,-0.00004062,-0.00008464,0.
 00006123,0.00007618,-0.00003251,-0.00011019,0.00022881,0.00006525,0.00
 002385,0.00023816,0.00001844,-0.00000315,0.00000282,-0.00001658,-0.000
 03714,-0.00000122,0.00018982,-0.00016734,-0.00007349,-0.00002948,-0.00
 001516,-0.00002748,-0.00000559,-0.00001413,-0.00000849,0.00001119,-0.0
 0000502,-0.00001374,0.00000247,-0.00001185,-0.00000974,0.00004254,-0.0
 0001281,0.00000041,-0.00008907,-0.00017565,0.00028078,0.00003542,0.000
 00253,0.00005895,0.00012942,-0.00014683,-0.00027740,0.00004828,-0.0000
 7570,-0.00018902,0.03106400,-0.02596162,0.01419890\\-0.00003801,-0.000
 01757,-0.00005264,-0.00001705,0.00003377,-0.00003333,0.00006491,0.0000
 3166,-0.00003467,-0.00001712,0.00002086,-0.00001358,0.00005254,-0.0000
 8753,0.00007871,-0.00001255,-0.00000197,0.00002064,-0.00002272,-0.0000
 4437,-0.00000396,0.00006696,-0.00001439,0.00000097,-0.00001812,0.00002
 271,-0.00004230,-0.00001837,-0.00005016,0.00001302,-0.00001646,-0.0000
 3225,-0.00000470,0.00000323,-0.00001566,-0.00007144,0.00002641,-0.0000
 4670,-0.00002269,0.00003554,0.00007049,0.00004452,-0.00011131,0.000039
 76,-0.00004047,0.00005338,0.00005271,-0.00000055,-0.00004929,-0.000038
 76,0.00002481,0.00001115,0.00002284,-0.00001600,0.00001478,-0.00001808
 ,-0.00002522,0.00005211,-0.00008122,-0.00006347,-0.00001440,0.00007522
 ,0.00000219,0.00000297,-0.00003948,0.00007817,-0.00007704,0.00005832,-
 0.00003202,-0.00000950,-0.00000343,-0.00001689,0.00000079,-0.00001496,
 -0.00000668,0.00001195,-0.00000458,0.00004301,-0.00001744,0.00003986,0
 .00000125,-0.00000285,-0.00002376,0.00004341,-0.00000833,0.00003564,-0
 .00001178,0.00003385,-0.00000736,-0.00000867,-0.00003041,-0.00000787,0
 .00000962,-0.00000899,0.00004025,0.00001229,-0.00000751,0.00002368,0.0
 0002690,-0.00000944,0.00002262,0.00000836,-0.00000934,-0.00005130,-0.0
 0002377,0.00000922,-0.00001442,0.00002911,0.00001658,0.00000022,0.0000
 0083,0.00001097,-0.00000581,0.00000726,-0.00001001,0.00001469,-0.00000
 490,-0.00000811,0.00001380,0.00001964,0.00000058,0.00004654,-0.0000159
 2,0.00001822,0.00001133,0.00000690,0.00002728,-0.00003146,0.00003690,-
 0.00000122,0.00003398,0.00001782,0.00002218,-0.00005785,0.00001933\\\@


 I LOVE THOSE WHO LONG FOR THE IMPOSSIBLE.

                                 -- GOETHE
 Job cpu time:       0 days  0 hours  0 minutes 10.9 seconds.
 Elapsed time:       0 days  0 hours  0 minutes  0.9 seconds.
 File lengths (MBytes):  RWF=    217 Int=      0 D2E=      0 Chk=      4 Scr=      1
 Normal termination of Gaussian 16 at Tue Jun 22 14:21:32 2021.
