 Entering Gaussian System, Link 0=g09
 Initial command:
 /share/apps//g09/l1.exe "/scratch/Gau-14668.inp" -scrdir="/scratch/"
 Entering Link 1 = /share/apps//g09/l1.exe PID=     14669.
  
 Copyright (c) 1988,1990,1992,1993,1995,1998,2003,2009,2013,
            Gaussian, Inc.  All Rights Reserved.
  
 This is part of the Gaussian(R) 09 program.  It is based on
 the Gaussian(R) 03 system (copyright 2003, Gaussian, Inc.),
 the Gaussian(R) 98 system (copyright 1998, Gaussian, Inc.),
 the Gaussian(R) 94 system (copyright 1995, Gaussian, Inc.),
 the Gaussian 92(TM) system (copyright 1992, Gaussian, Inc.),
 the Gaussian 90(TM) system (copyright 1990, Gaussian, Inc.),
 the Gaussian 88(TM) system (copyright 1988, Gaussian, Inc.),
 the Gaussian 86(TM) system (copyright 1986, Carnegie Mellon
 University), and the Gaussian 82(TM) system (copyright 1983,
 Carnegie Mellon University). Gaussian is a federally registered
 trademark of Gaussian, Inc.
  
 This software contains proprietary and confidential information,
 including trade secrets, belonging to Gaussian, Inc.
  
 This software is provided under written license and may be
 used, copied, transmitted, or stored only in accord with that
 written license.
  
 The following legend is applicable only to US Government
 contracts under FAR:
  
                    RESTRICTED RIGHTS LEGEND
  
 Use, reproduction and disclosure by the US Government is
 subject to restrictions as set forth in subparagraphs (a)
 and (c) of the Commercial Computer Software - Restricted
 Rights clause in FAR 52.227-19.
  
 Gaussian, Inc.
 340 Quinnipiac St., Bldg. 40, Wallingford CT 06492
  
  
 ---------------------------------------------------------------
 Warning -- This program may not be used in any manner that
 competes with the business of Gaussian, Inc. or will provide
 assistance to any competitor of Gaussian, Inc.  The licensee
 of this program is prohibited from giving any competitor of
 Gaussian, Inc. access to this program.  By using this program,
 the user acknowledges that Gaussian, Inc. is engaged in the
 business of creating and licensing software in the field of
 computational chemistry and represents and warrants to the
 licensee that it is not a competitor of Gaussian, Inc. and that
 it will not use this program in any manner prohibited above.
 ---------------------------------------------------------------
  

 Cite this work as:
 Gaussian 09, Revision D.01,
 M. J. Frisch, G. W. Trucks, H. B. Schlegel, G. E. Scuseria, 
 M. A. Robb, J. R. Cheeseman, G. Scalmani, V. Barone, B. Mennucci, 
 G. A. Petersson, H. Nakatsuji, M. Caricato, X. Li, H. P. Hratchian, 
 A. F. Izmaylov, J. Bloino, G. Zheng, J. L. Sonnenberg, M. Hada, 
 M. Ehara, K. Toyota, R. Fukuda, J. Hasegawa, M. Ishida, T. Nakajima, 
 Y. Honda, O. Kitao, H. Nakai, T. Vreven, J. A. Montgomery, Jr., 
 J. E. Peralta, F. Ogliaro, M. Bearpark, J. J. Heyd, E. Brothers, 
 K. N. Kudin, V. N. Staroverov, T. Keith, R. Kobayashi, J. Normand, 
 K. Raghavachari, A. Rendell, J. C. Burant, S. S. Iyengar, J. Tomasi, 
 M. Cossi, N. Rega, J. M. Millam, M. Klene, J. E. Knox, J. B. Cross, 
 V. Bakken, C. Adamo, J. Jaramillo, R. Gomperts, R. E. Stratmann, 
 O. Yazyev, A. J. Austin, R. Cammi, C. Pomelli, J. W. Ochterski, 
 R. L. Martin, K. Morokuma, V. G. Zakrzewski, G. A. Voth, 
 P. Salvador, J. J. Dannenberg, S. Dapprich, A. D. Daniels, 
 O. Farkas, J. B. Foresman, J. V. Ortiz, J. Cioslowski, 
 and D. J. Fox, Gaussian, Inc., Wallingford CT, 2013.
 
 ******************************************
 Gaussian 09:  EM64L-G09RevD.01 24-Apr-2013
                27-Apr-2016 
 ******************************************
 %nproc=20
 Will use up to   20 processors via shared memory.
 %mem=80GB
 %chk=Tri_A131_of.chk
 ----------------------------------------------------------------------
 #P PBE1PBE/6-311+G(d,p) opt=ModRedundant freq optcyc=999 EmpiricalDisp
 ersion=GD3
 ----------------------------------------------------------------------
 1/6=999,14=-1,18=120,19=15,26=3,38=1/1,3;
 2/9=110,12=2,17=6,18=5,40=1/2;
 3/5=4,6=6,7=111,11=2,16=1,25=1,30=1,71=1,74=-13,124=31/1,2,3;
 4//1;
 5/5=2,38=5/2;
 6/7=2,8=2,9=2,10=2,28=1/1;
 7//1,2,3,16;
 1/6=999,14=-1,18=20,19=15,26=3/3(2);
 2/9=110/2;
 99//99;
 2/9=110/2;
 3/5=4,6=6,7=111,11=2,16=1,25=1,30=1,71=1,74=-13,124=31/1,2,3;
 4/5=5,16=3,69=1/1;
 5/5=2,38=5/2;
 7//1,2,3,16;
 1/6=999,14=-1,18=20,19=15,26=3/3(-5);
 2/9=110/2;
 6/7=2,8=2,9=2,10=2,19=2,28=1/1;
 99/9=1/99;
 Leave Link    1 at Wed Apr 27 13:56:18 2016, MaxMem= 10737418240 cpu:         1.4
 (Enter /share/apps//g09/l101.exe)
 -----
 trich
 -----
 Symbolic Z-matrix:
 Charge =  1 Multiplicity = 1
 O                    -0.20369  -5.40049   8.3876 
 C                     0.32866  -4.10653   8.22965 
 C                     0.13487  -3.29836   9.5143 
 C                     0.77083  -4.00098   10.71756 
 C                     0.19064  -5.4128    10.84287 
 C                     0.36088  -6.14758   9.50032 
 H                    -0.24179  -3.66623   7.39372 
 H                    -0.9517   -3.22367   9.6791 
 H                     1.86204  -4.06255   10.57693 
 H                     0.77154  -5.97284   11.60379 
 H                     1.44568  -6.27653   9.32771 
 O                    -1.15641  -5.23415   11.27588 
 O                     0.55137  -3.21169   11.88832 
 O                     0.67953  -1.96383   9.37686 
 O                     1.72941  -4.10675   7.94507 
 C                    -0.25325  -7.53741   9.4658 
 H                    -0.14688  -7.94504   8.44679 
 H                     0.31339  -8.17893   10.16276 
 O                    -1.64023  -7.46795   9.84242 
 H                    -2.00502  -8.36749   9.87658 
 H                    -1.66104  -6.02831   10.99354 
 H                    -0.32967  -3.47732   12.22639 
 H                     0.57303  -1.57576   10.27078 
 O                     3.97747  -5.12459   4.5612 
 C                     4.11146  -5.96356   5.70438 
 C                     3.52749  -5.32256   6.98238 
 C                     2.1166   -4.799     6.74426 
 C                     2.08778  -3.86819   5.52419 
 C                     2.67672  -4.5906    4.2986 
 H                     3.62742  -6.94434   5.53924 
 H                     4.16049  -4.45897   7.25101 
 H                     1.43013  -5.64729   6.5744 
 H                     1.03923  -3.6065    5.28816 
 H                     1.9754   -5.39902   4.00641 
 O                     2.81632  -2.66259   5.81996 
 O                     3.51374  -6.27008   8.03727 
 O                     5.48266  -6.26933   5.83161 
 C                     2.87146  -3.65484   3.09867 
 H                     3.28157  -4.22939   2.25393 
 H                     1.90309  -3.23442   2.79063 
 O                     3.73239  -2.5514    3.42109 
 H                     4.67709  -2.88316   3.44398 
 H                     3.26205  -2.38947   4.95297 
 H                     4.45116  -6.34487   8.31735 
 O                     8.61041  -4.4383    5.19015 
 C                     8.54716  -3.48956   6.20663 
 C                     8.0307   -4.06465   7.55311 
 C                     7.13193  -5.28518   7.32999 
 C                     6.35747  -5.14217   6.01899 
 C                     7.37709  -5.1454    4.85805 
 H                     9.57999  -3.11546   6.32033 
 H                     7.41774  -3.28544   8.04455 
 H                     7.77977  -6.17646   7.25736 
 H                     7.68504  -6.1937    4.70721 
 H                     5.77947  -4.20539   6.00293 
 O                     6.22303  -5.44558   8.4364 
 O                     9.0771   -4.50865   8.41744 
 O                     7.68206  -2.40793   5.78064 
 C                     6.84665  -4.63618   3.51884 
 H                     7.67368  -4.69179   2.79203 
 H                     6.03485  -5.29364   3.18345 
 O                     6.32075  -3.30274   3.55574 
 H                     6.89864  -2.7705    4.14935 
 H                     6.76809  -5.68399   9.20767 
 H                     9.55742  -3.73959   8.77025 
 C                     7.97427  -1.11728   6.34557 
 H                     8.03824  -1.19124   7.44765 
 H                     8.95415  -0.76712   5.97578 
 C                     6.86917  -0.15719   5.92377 
 H                     6.84969  -0.11827   4.82335 
 H                     7.15184   0.85439   6.2584 
 C                     5.46288  -0.50978   6.43732 
 H                     4.7349    0.11487   5.89454 
 H                     5.23729  -1.55268   6.16426 
 C                     5.27247  -0.29399   7.94659 
 H                     5.88763  -1.00191   8.53009 
 H                     5.63827   0.70946   8.21979 
 C                     3.82698  -0.37257   8.43596 
 H                     3.17622   0.29982   7.85929 
 H                     3.76202  -0.07699   9.49201 
 N                     3.23359  -1.74172   8.31799 
 H                     3.1029   -2.06603   7.31084 
 H                     2.27212  -1.80934   8.75855 
 H                     3.8154   -2.44784   8.78472 
 
 The following ModRedundant input section has been read:
 B      45      84 B                                                           
 B      58      84 B                                                           
 B      56      84 B                                                           
 B      41      82 B                                                           
 B      62      82 B                                                           
 B      35      82 B                                                           
 B      13      83 B                                                           
 B      19      83 B                                                           
 B      14      83 B                                                           
 
 NAtoms=     84 NQM=       84 NQMF=       0 NMMI=      0 NMMIF=      0
                NMic=       0 NMicF=      0.
                    Isotopes and Nuclear Properties:
 (Nuclear quadrupole moments (NQMom) in fm**2, nuclear magnetic moments (NMagM)
  in nuclear magnetons)

  Atom         1           2           3           4           5           6           7           8           9          10
 IAtWgt=          16          12          12          12          12          12           1           1           1           1
 AtmWgt=  15.9949146  12.0000000  12.0000000  12.0000000  12.0000000  12.0000000   1.0078250   1.0078250   1.0078250   1.0078250
 NucSpn=           0           0           0           0           0           0           1           1           1           1
 AtZEff=   0.0000000   0.0000000   0.0000000   0.0000000   0.0000000   0.0000000   0.0000000   0.0000000   0.0000000   0.0000000
 NQMom=    0.0000000   0.0000000   0.0000000   0.0000000   0.0000000   0.0000000   0.0000000   0.0000000   0.0000000   0.0000000
 NMagM=    0.0000000   0.0000000   0.0000000   0.0000000   0.0000000   0.0000000   2.7928460   2.7928460   2.7928460   2.7928460
 AtZNuc=   8.0000000   6.0000000   6.0000000   6.0000000   6.0000000   6.0000000   1.0000000   1.0000000   1.0000000   1.0000000

  Atom        11          12          13          14          15          16          17          18          19          20
 IAtWgt=           1          16          16          16          16          12           1           1          16           1
 AtmWgt=   1.0078250  15.9949146  15.9949146  15.9949146  15.9949146  12.0000000   1.0078250   1.0078250  15.9949146   1.0078250
 NucSpn=           1           0           0           0           0           0           1           1           0           1
 AtZEff=   0.0000000   0.0000000   0.0000000   0.0000000   0.0000000   0.0000000   0.0000000   0.0000000   0.0000000   0.0000000
 NQMom=    0.0000000   0.0000000   0.0000000   0.0000000   0.0000000   0.0000000   0.0000000   0.0000000   0.0000000   0.0000000
 NMagM=    2.7928460   0.0000000   0.0000000   0.0000000   0.0000000   0.0000000   2.7928460   2.7928460   0.0000000   2.7928460
 AtZNuc=   1.0000000   8.0000000   8.0000000   8.0000000   8.0000000   6.0000000   1.0000000   1.0000000   8.0000000   1.0000000

  Atom        21          22          23          24          25          26          27          28          29          30
 IAtWgt=           1           1           1          16          12          12          12          12          12           1
 AtmWgt=   1.0078250   1.0078250   1.0078250  15.9949146  12.0000000  12.0000000  12.0000000  12.0000000  12.0000000   1.0078250
 NucSpn=           1           1           1           0           0           0           0           0           0           1
 AtZEff=   0.0000000   0.0000000   0.0000000   0.0000000   0.0000000   0.0000000   0.0000000   0.0000000   0.0000000   0.0000000
 NQMom=    0.0000000   0.0000000   0.0000000   0.0000000   0.0000000   0.0000000   0.0000000   0.0000000   0.0000000   0.0000000
 NMagM=    2.7928460   2.7928460   2.7928460   0.0000000   0.0000000   0.0000000   0.0000000   0.0000000   0.0000000   2.7928460
 AtZNuc=   1.0000000   1.0000000   1.0000000   8.0000000   6.0000000   6.0000000   6.0000000   6.0000000   6.0000000   1.0000000

  Atom        31          32          33          34          35          36          37          38          39          40
 IAtWgt=           1           1           1           1          16          16          16          12           1           1
 AtmWgt=   1.0078250   1.0078250   1.0078250   1.0078250  15.9949146  15.9949146  15.9949146  12.0000000   1.0078250   1.0078250
 NucSpn=           1           1           1           1           0           0           0           0           1           1
 AtZEff=   0.0000000   0.0000000   0.0000000   0.0000000   0.0000000   0.0000000   0.0000000   0.0000000   0.0000000   0.0000000
 NQMom=    0.0000000   0.0000000   0.0000000   0.0000000   0.0000000   0.0000000   0.0000000   0.0000000   0.0000000   0.0000000
 NMagM=    2.7928460   2.7928460   2.7928460   2.7928460   0.0000000   0.0000000   0.0000000   0.0000000   2.7928460   2.7928460
 AtZNuc=   1.0000000   1.0000000   1.0000000   1.0000000   8.0000000   8.0000000   8.0000000   6.0000000   1.0000000   1.0000000

  Atom        41          42          43          44          45          46          47          48          49          50
 IAtWgt=          16           1           1           1          16          12          12          12          12          12
 AtmWgt=  15.9949146   1.0078250   1.0078250   1.0078250  15.9949146  12.0000000  12.0000000  12.0000000  12.0000000  12.0000000
 NucSpn=           0           1           1           1           0           0           0           0           0           0
 AtZEff=   0.0000000   0.0000000   0.0000000   0.0000000   0.0000000   0.0000000   0.0000000   0.0000000   0.0000000   0.0000000
 NQMom=    0.0000000   0.0000000   0.0000000   0.0000000   0.0000000   0.0000000   0.0000000   0.0000000   0.0000000   0.0000000
 NMagM=    0.0000000   2.7928460   2.7928460   2.7928460   0.0000000   0.0000000   0.0000000   0.0000000   0.0000000   0.0000000
 AtZNuc=   8.0000000   1.0000000   1.0000000   1.0000000   8.0000000   6.0000000   6.0000000   6.0000000   6.0000000   6.0000000

  Atom        51          52          53          54          55          56          57          58          59          60
 IAtWgt=           1           1           1           1           1          16          16          16          12           1
 AtmWgt=   1.0078250   1.0078250   1.0078250   1.0078250   1.0078250  15.9949146  15.9949146  15.9949146  12.0000000   1.0078250
 NucSpn=           1           1           1           1           1           0           0           0           0           1
 AtZEff=   0.0000000   0.0000000   0.0000000   0.0000000   0.0000000   0.0000000   0.0000000   0.0000000   0.0000000   0.0000000
 NQMom=    0.0000000   0.0000000   0.0000000   0.0000000   0.0000000   0.0000000   0.0000000   0.0000000   0.0000000   0.0000000
 NMagM=    2.7928460   2.7928460   2.7928460   2.7928460   2.7928460   0.0000000   0.0000000   0.0000000   0.0000000   2.7928460
 AtZNuc=   1.0000000   1.0000000   1.0000000   1.0000000   1.0000000   8.0000000   8.0000000   8.0000000   6.0000000   1.0000000

  Atom        61          62          63          64          65          66          67          68          69          70
 IAtWgt=           1          16           1           1           1          12           1           1          12           1
 AtmWgt=   1.0078250  15.9949146   1.0078250   1.0078250   1.0078250  12.0000000   1.0078250   1.0078250  12.0000000   1.0078250
 NucSpn=           1           0           1           1           1           0           1           1           0           1
 AtZEff=   0.0000000   0.0000000   0.0000000   0.0000000   0.0000000   0.0000000   0.0000000   0.0000000   0.0000000   0.0000000
 NQMom=    0.0000000   0.0000000   0.0000000   0.0000000   0.0000000   0.0000000   0.0000000   0.0000000   0.0000000   0.0000000
 NMagM=    2.7928460   0.0000000   2.7928460   2.7928460   2.7928460   0.0000000   2.7928460   2.7928460   0.0000000   2.7928460
 AtZNuc=   1.0000000   8.0000000   1.0000000   1.0000000   1.0000000   6.0000000   1.0000000   1.0000000   6.0000000   1.0000000

  Atom        71          72          73          74          75          76          77          78          79          80
 IAtWgt=           1          12           1           1          12           1           1          12           1           1
 AtmWgt=   1.0078250  12.0000000   1.0078250   1.0078250  12.0000000   1.0078250   1.0078250  12.0000000   1.0078250   1.0078250
 NucSpn=           1           0           1           1           0           1           1           0           1           1
 AtZEff=   0.0000000   0.0000000   0.0000000   0.0000000   0.0000000   0.0000000   0.0000000   0.0000000   0.0000000   0.0000000
 NQMom=    0.0000000   0.0000000   0.0000000   0.0000000   0.0000000   0.0000000   0.0000000   0.0000000   0.0000000   0.0000000
 NMagM=    2.7928460   0.0000000   2.7928460   2.7928460   0.0000000   2.7928460   2.7928460   0.0000000   2.7928460   2.7928460
 AtZNuc=   1.0000000   6.0000000   1.0000000   1.0000000   6.0000000   1.0000000   1.0000000   6.0000000   1.0000000   1.0000000

  Atom        81          82          83          84
 IAtWgt=          14           1           1           1
 AtmWgt=  14.0030740   1.0078250   1.0078250   1.0078250
 NucSpn=           2           1           1           1
 AtZEff=   0.0000000   0.0000000   0.0000000   0.0000000
 NQMom=    2.0440000   0.0000000   0.0000000   0.0000000
 NMagM=    0.4037610   2.7928460   2.7928460   2.7928460
 AtZNuc=   7.0000000   1.0000000   1.0000000   1.0000000
 Leave Link  101 at Wed Apr 27 13:56:19 2016, MaxMem= 10737418240 cpu:         5.3
 (Enter /share/apps//g09/l103.exe)

 GradGradGradGradGradGradGradGradGradGradGradGradGradGradGradGradGradGrad
 Berny optimization.
 Initialization pass.
                           ----------------------------
                           !    Initial Parameters    !
                           ! (Angstroms and Degrees)  !
 --------------------------                            --------------------------
 ! Name  Definition              Value          Derivative Info.                !
 --------------------------------------------------------------------------------
 ! R1    R(1,2)                  1.4081         estimate D2E/DX2                !
 ! R2    R(1,6)                  1.4543         estimate D2E/DX2                !
 ! R3    R(2,3)                  1.53           estimate D2E/DX2                !
 ! R4    R(2,7)                  1.1037         estimate D2E/DX2                !
 ! R5    R(2,15)                 1.4294         estimate D2E/DX2                !
 ! R6    R(3,4)                  1.5317         estimate D2E/DX2                !
 ! R7    R(3,8)                  1.1015         estimate D2E/DX2                !
 ! R8    R(3,14)                 1.4479         estimate D2E/DX2                !
 ! R9    R(4,5)                  1.5315         estimate D2E/DX2                !
 ! R10   R(4,9)                  1.102          estimate D2E/DX2                !
 ! R11   R(4,13)                 1.4289         estimate D2E/DX2                !
 ! R12   R(5,6)                  1.5399         estimate D2E/DX2                !
 ! R13   R(5,10)                 1.1091         estimate D2E/DX2                !
 ! R14   R(5,12)                 1.4262         estimate D2E/DX2                !
 ! R15   R(6,11)                 1.106          estimate D2E/DX2                !
 ! R16   R(6,16)                 1.5199         estimate D2E/DX2                !
 ! R17   R(12,21)                0.9824         estimate D2E/DX2                !
 ! R18   R(13,22)                0.9803         estimate D2E/DX2                !
 ! R19   R(13,83)                3.8371         estimate D2E/DX2                !
 ! R20   R(14,23)                0.9803         estimate D2E/DX2                !
 ! R21   R(14,83)                1.7154         estimate D2E/DX2                !
 ! R22   R(15,27)                1.4391         estimate D2E/DX2                !
 ! R23   R(16,17)                1.1027         estimate D2E/DX2                !
 ! R24   R(16,18)                1.1038         estimate D2E/DX2                !
 ! R25   R(16,19)                1.4389         estimate D2E/DX2                !
 ! R26   R(19,20)                0.9713         estimate D2E/DX2                !
 ! R27   R(19,83)                6.9643         estimate D2E/DX2                !
 ! R28   R(24,25)                1.4243         estimate D2E/DX2                !
 ! R29   R(24,29)                1.4304         estimate D2E/DX2                !
 ! R30   R(25,26)                1.5444         estimate D2E/DX2                !
 ! R31   R(25,30)                1.1061         estimate D2E/DX2                !
 ! R32   R(25,37)                1.4106         estimate D2E/DX2                !
 ! R33   R(26,27)                1.5236         estimate D2E/DX2                !
 ! R34   R(26,31)                1.1039         estimate D2E/DX2                !
 ! R35   R(26,36)                1.418          estimate D2E/DX2                !
 ! R36   R(27,28)                1.5349         estimate D2E/DX2                !
 ! R37   R(27,32)                1.1044         estimate D2E/DX2                !
 ! R38   R(28,29)                1.5397         estimate D2E/DX2                !
 ! R39   R(28,33)                1.1062         estimate D2E/DX2                !
 ! R40   R(28,35)                1.4393         estimate D2E/DX2                !
 ! R41   R(29,34)                1.1094         estimate D2E/DX2                !
 ! R42   R(29,38)                1.5341         estimate D2E/DX2                !
 ! R43   R(35,43)                1.0124         estimate D2E/DX2                !
 ! R44   R(35,82)                1.6312         estimate D2E/DX2                !
 ! R45   R(36,44)                0.9812         estimate D2E/DX2                !
 ! R46   R(37,49)                1.4391         estimate D2E/DX2                !
 ! R47   R(38,39)                1.1009         estimate D2E/DX2                !
 ! R48   R(38,40)                1.0997         estimate D2E/DX2                !
 ! R49   R(38,41)                1.4362         estimate D2E/DX2                !
 ! R50   R(41,42)                1.0015         estimate D2E/DX2                !
 ! R51   R(41,82)                3.9701         estimate D2E/DX2                !
 ! R52   R(45,46)                1.3919         estimate D2E/DX2                !
 ! R53   R(45,50)                1.4599         estimate D2E/DX2                !
 ! R54   R(45,84)                6.3147         estimate D2E/DX2                !
 ! R55   R(46,47)                1.5526         estimate D2E/DX2                !
 ! R56   R(46,51)                1.1044         estimate D2E/DX2                !
 ! R57   R(46,58)                1.4491         estimate D2E/DX2                !
 ! R58   R(47,48)                1.5321         estimate D2E/DX2                !
 ! R59   R(47,52)                1.1065         estimate D2E/DX2                !
 ! R60   R(47,57)                1.428          estimate D2E/DX2                !
 ! R61   R(48,49)                1.5294         estimate D2E/DX2                !
 ! R62   R(48,53)                1.1042         estimate D2E/DX2                !
 ! R63   R(48,56)                1.4408         estimate D2E/DX2                !
 ! R64   R(49,50)                1.5451         estimate D2E/DX2                !
 ! R65   R(49,55)                1.1009         estimate D2E/DX2                !
 ! R66   R(50,54)                1.103          estimate D2E/DX2                !
 ! R67   R(50,59)                1.5278         estimate D2E/DX2                !
 ! R68   R(56,64)                0.9741         estimate D2E/DX2                !
 ! R69   R(56,84)                3.8606         estimate D2E/DX2                !
 ! R70   R(57,65)                0.973          estimate D2E/DX2                !
 ! R71   R(58,66)                1.4389         estimate D2E/DX2                !
 ! R72   R(58,84)                4.8966         estimate D2E/DX2                !
 ! R73   R(59,60)                1.1024         estimate D2E/DX2                !
 ! R74   R(59,61)                1.0972         estimate D2E/DX2                !
 ! R75   R(59,62)                1.4339         estimate D2E/DX2                !
 ! R76   R(62,63)                0.9847         estimate D2E/DX2                !
 ! R77   R(62,82)                5.0975         estimate D2E/DX2                !
 ! R78   R(66,67)                1.1064         estimate D2E/DX2                !
 ! R79   R(66,68)                1.1043         estimate D2E/DX2                !
 ! R80   R(66,69)                1.5235         estimate D2E/DX2                !
 ! R81   R(69,70)                1.1013         estimate D2E/DX2                !
 ! R82   R(69,71)                1.1023         estimate D2E/DX2                !
 ! R83   R(69,72)                1.5381         estimate D2E/DX2                !
 ! R84   R(72,73)                1.1022         estimate D2E/DX2                !
 ! R85   R(72,74)                1.1014         estimate D2E/DX2                !
 ! R86   R(72,75)                1.5365         estimate D2E/DX2                !
 ! R87   R(75,76)                1.1046         estimate D2E/DX2                !
 ! R88   R(75,77)                1.1024         estimate D2E/DX2                !
 ! R89   R(75,78)                1.5281         estimate D2E/DX2                !
 ! R90   R(78,79)                1.0992         estimate D2E/DX2                !
 ! R91   R(78,80)                1.0986         estimate D2E/DX2                !
 ! R92   R(78,81)                1.4969         estimate D2E/DX2                !
 ! R93   R(81,82)                1.0661         estimate D2E/DX2                !
 ! R94   R(81,83)                1.0598         estimate D2E/DX2                !
 ! R95   R(81,84)                1.0271         estimate D2E/DX2                !
 ! A1    A(2,1,6)              114.276          estimate D2E/DX2                !
 ! A2    A(1,2,3)              110.0796         estimate D2E/DX2                !
 ! A3    A(1,2,7)              104.8426         estimate D2E/DX2                !
 ! A4    A(1,2,15)             113.1221         estimate D2E/DX2                !
 ! A5    A(3,2,7)              111.0851         estimate D2E/DX2                !
 ! A6    A(3,2,15)             106.9398         estimate D2E/DX2                !
 ! A7    A(7,2,15)             110.8418         estimate D2E/DX2                !
 ! A8    A(2,3,4)              111.3896         estimate D2E/DX2                !
 ! A9    A(2,3,8)              106.6406         estimate D2E/DX2                !
 ! A10   A(2,3,14)             111.0689         estimate D2E/DX2                !
 ! A11   A(4,3,8)              108.8532         estimate D2E/DX2                !
 ! A12   A(4,3,14)             109.9492         estimate D2E/DX2                !
 ! A13   A(8,3,14)             108.8299         estimate D2E/DX2                !
 ! A14   A(3,4,5)              109.2604         estimate D2E/DX2                !
 ! A15   A(3,4,9)              109.6661         estimate D2E/DX2                !
 ! A16   A(3,4,13)             109.0567         estimate D2E/DX2                !
 ! A17   A(5,4,9)              109.5162         estimate D2E/DX2                !
 ! A18   A(5,4,13)             112.5801         estimate D2E/DX2                !
 ! A19   A(9,4,13)             106.709          estimate D2E/DX2                !
 ! A20   A(4,5,6)              109.0655         estimate D2E/DX2                !
 ! A21   A(4,5,10)             108.8568         estimate D2E/DX2                !
 ! A22   A(4,5,12)             105.4967         estimate D2E/DX2                !
 ! A23   A(6,5,10)             107.4155         estimate D2E/DX2                !
 ! A24   A(6,5,12)             115.3975         estimate D2E/DX2                !
 ! A25   A(10,5,12)            110.4661         estimate D2E/DX2                !
 ! A26   A(1,6,5)              112.2731         estimate D2E/DX2                !
 ! A27   A(1,6,11)             108.7385         estimate D2E/DX2                !
 ! A28   A(1,6,16)             107.1886         estimate D2E/DX2                !
 ! A29   A(5,6,11)             107.4656         estimate D2E/DX2                !
 ! A30   A(5,6,16)             114.297          estimate D2E/DX2                !
 ! A31   A(11,6,16)            106.6286         estimate D2E/DX2                !
 ! A32   A(5,12,21)            107.2571         estimate D2E/DX2                !
 ! A33   A(4,13,22)            105.718          estimate D2E/DX2                !
 ! A34   A(4,13,83)             57.6356         estimate D2E/DX2                !
 ! A35   A(22,13,83)           141.567          estimate D2E/DX2                !
 ! A36   A(3,14,23)            103.7351         estimate D2E/DX2                !
 ! A37   A(3,14,83)            117.8048         estimate D2E/DX2                !
 ! A38   A(23,14,83)           113.1969         estimate D2E/DX2                !
 ! A39   A(2,15,27)            115.4587         estimate D2E/DX2                !
 ! A40   A(6,16,17)            108.6667         estimate D2E/DX2                !
 ! A41   A(6,16,18)            108.0409         estimate D2E/DX2                !
 ! A42   A(6,16,19)            109.8407         estimate D2E/DX2                !
 ! A43   A(17,16,18)           108.611          estimate D2E/DX2                !
 ! A44   A(17,16,19)           110.6539         estimate D2E/DX2                !
 ! A45   A(18,16,19)           110.9542         estimate D2E/DX2                !
 ! A46   A(16,19,20)           109.0578         estimate D2E/DX2                !
 ! A47   A(16,19,83)            57.1103         estimate D2E/DX2                !
 ! A48   A(25,24,29)           116.9227         estimate D2E/DX2                !
 ! A49   A(24,25,26)           112.5891         estimate D2E/DX2                !
 ! A50   A(24,25,30)           111.1796         estimate D2E/DX2                !
 ! A51   A(24,25,37)           106.9486         estimate D2E/DX2                !
 ! A52   A(26,25,30)           109.0319         estimate D2E/DX2                !
 ! A53   A(26,25,37)           112.5123         estimate D2E/DX2                !
 ! A54   A(30,25,37)           104.2786         estimate D2E/DX2                !
 ! A55   A(25,26,27)           111.3115         estimate D2E/DX2                !
 ! A56   A(25,26,31)           108.0132         estimate D2E/DX2                !
 ! A57   A(25,26,36)           109.9943         estimate D2E/DX2                !
 ! A58   A(27,26,31)           107.4694         estimate D2E/DX2                !
 ! A59   A(27,26,36)           109.6879         estimate D2E/DX2                !
 ! A60   A(31,26,36)           110.32           estimate D2E/DX2                !
 ! A61   A(15,27,26)           106.5007         estimate D2E/DX2                !
 ! A62   A(15,27,28)           111.5003         estimate D2E/DX2                !
 ! A63   A(15,27,32)           109.3037         estimate D2E/DX2                !
 ! A64   A(26,27,28)           110.488          estimate D2E/DX2                !
 ! A65   A(26,27,32)           109.6142         estimate D2E/DX2                !
 ! A66   A(28,27,32)           109.383          estimate D2E/DX2                !
 ! A67   A(27,28,29)           109.9384         estimate D2E/DX2                !
 ! A68   A(27,28,33)           109.3219         estimate D2E/DX2                !
 ! A69   A(27,28,35)           109.5793         estimate D2E/DX2                !
 ! A70   A(29,28,33)           107.6811         estimate D2E/DX2                !
 ! A71   A(29,28,35)           111.2811         estimate D2E/DX2                !
 ! A72   A(33,28,35)           108.9948         estimate D2E/DX2                !
 ! A73   A(24,29,28)           112.1384         estimate D2E/DX2                !
 ! A74   A(24,29,34)           110.5595         estimate D2E/DX2                !
 ! A75   A(24,29,38)           104.8254         estimate D2E/DX2                !
 ! A76   A(28,29,34)           108.0431         estimate D2E/DX2                !
 ! A77   A(28,29,38)           112.6413         estimate D2E/DX2                !
 ! A78   A(34,29,38)           108.5863         estimate D2E/DX2                !
 ! A79   A(28,35,43)           105.8332         estimate D2E/DX2                !
 ! A80   A(28,35,82)           125.667          estimate D2E/DX2                !
 ! A81   A(43,35,82)           127.3516         estimate D2E/DX2                !
 ! A82   A(26,36,44)           104.715          estimate D2E/DX2                !
 ! A83   A(25,37,49)           115.6502         estimate D2E/DX2                !
 ! A84   A(29,38,39)           109.2166         estimate D2E/DX2                !
 ! A85   A(29,38,40)           109.9079         estimate D2E/DX2                !
 ! A86   A(29,38,41)           111.6629         estimate D2E/DX2                !
 ! A87   A(39,38,40)           108.2176         estimate D2E/DX2                !
 ! A88   A(39,38,41)           110.4831         estimate D2E/DX2                !
 ! A89   A(40,38,41)           107.2781         estimate D2E/DX2                !
 ! A90   A(38,41,42)           108.4248         estimate D2E/DX2                !
 ! A91   A(38,41,82)           102.6403         estimate D2E/DX2                !
 ! A92   A(42,41,82)            99.6521         estimate D2E/DX2                !
 ! A93   A(46,45,50)           117.2501         estimate D2E/DX2                !
 ! A94   A(46,45,84)            48.312          estimate D2E/DX2                !
 ! A95   A(50,45,84)            68.9413         estimate D2E/DX2                !
 ! A96   A(45,46,47)           113.3275         estimate D2E/DX2                !
 ! A97   A(45,46,51)           105.283          estimate D2E/DX2                !
 ! A98   A(45,46,58)           108.7372         estimate D2E/DX2                !
 ! A99   A(47,46,51)           110.3216         estimate D2E/DX2                !
 ! A100  A(47,46,58)           109.4417         estimate D2E/DX2                !
 ! A101  A(51,46,58)           109.6182         estimate D2E/DX2                !
 ! A102  A(46,47,48)           111.3418         estimate D2E/DX2                !
 ! A103  A(46,47,52)           107.9751         estimate D2E/DX2                !
 ! A104  A(46,47,57)           113.3499         estimate D2E/DX2                !
 ! A105  A(48,47,52)           107.5002         estimate D2E/DX2                !
 ! A106  A(48,47,57)           105.6834         estimate D2E/DX2                !
 ! A107  A(52,47,57)           110.8581         estimate D2E/DX2                !
 ! A108  A(47,48,49)           110.3291         estimate D2E/DX2                !
 ! A109  A(47,48,53)           107.964          estimate D2E/DX2                !
 ! A110  A(47,48,56)           110.2989         estimate D2E/DX2                !
 ! A111  A(49,48,53)           108.4324         estimate D2E/DX2                !
 ! A112  A(49,48,56)           110.44           estimate D2E/DX2                !
 ! A113  A(53,48,56)           109.3139         estimate D2E/DX2                !
 ! A114  A(37,49,48)           110.2559         estimate D2E/DX2                !
 ! A115  A(37,49,50)           107.5586         estimate D2E/DX2                !
 ! A116  A(37,49,55)           110.2088         estimate D2E/DX2                !
 ! A117  A(48,49,50)           108.042          estimate D2E/DX2                !
 ! A118  A(48,49,55)           110.9747         estimate D2E/DX2                !
 ! A119  A(50,49,55)           109.7119         estimate D2E/DX2                !
 ! A120  A(45,50,49)           112.6773         estimate D2E/DX2                !
 ! A121  A(45,50,54)           104.8081         estimate D2E/DX2                !
 ! A122  A(45,50,59)           109.3459         estimate D2E/DX2                !
 ! A123  A(49,50,54)           106.7973         estimate D2E/DX2                !
 ! A124  A(49,50,59)           115.3917         estimate D2E/DX2                !
 ! A125  A(54,50,59)           107.0883         estimate D2E/DX2                !
 ! A126  A(48,56,64)           106.3969         estimate D2E/DX2                !
 ! A127  A(48,56,84)           112.1011         estimate D2E/DX2                !
 ! A128  A(64,56,84)           117.8777         estimate D2E/DX2                !
 ! A129  A(47,57,65)           109.601          estimate D2E/DX2                !
 ! A130  A(46,58,66)           115.6507         estimate D2E/DX2                !
 ! A131  A(46,58,84)           106.5583         estimate D2E/DX2                !
 ! A132  A(66,58,84)            85.8024         estimate D2E/DX2                !
 ! A133  A(50,59,60)           107.4955         estimate D2E/DX2                !
 ! A134  A(50,59,61)           108.9728         estimate D2E/DX2                !
 ! A135  A(50,59,62)           114.5029         estimate D2E/DX2                !
 ! A136  A(60,59,61)           108.8634         estimate D2E/DX2                !
 ! A137  A(60,59,62)           109.8175         estimate D2E/DX2                !
 ! A138  A(61,59,62)           107.083          estimate D2E/DX2                !
 ! A139  A(59,62,63)           107.6332         estimate D2E/DX2                !
 ! A140  A(59,62,82)           118.4309         estimate D2E/DX2                !
 ! A141  A(63,62,82)            78.1852         estimate D2E/DX2                !
 ! A142  A(58,66,67)           110.0517         estimate D2E/DX2                !
 ! A143  A(58,66,68)           109.46           estimate D2E/DX2                !
 ! A144  A(58,66,69)           108.0152         estimate D2E/DX2                !
 ! A145  A(67,66,68)           107.6644         estimate D2E/DX2                !
 ! A146  A(67,66,69)           111.0912         estimate D2E/DX2                !
 ! A147  A(68,66,69)           110.5552         estimate D2E/DX2                !
 ! A148  A(66,69,70)           108.1651         estimate D2E/DX2                !
 ! A149  A(66,69,71)           107.9542         estimate D2E/DX2                !
 ! A150  A(66,69,72)           115.2342         estimate D2E/DX2                !
 ! A151  A(70,69,71)           105.9876         estimate D2E/DX2                !
 ! A152  A(70,69,72)           108.9993         estimate D2E/DX2                !
 ! A153  A(71,69,72)           110.0879         estimate D2E/DX2                !
 ! A154  A(69,72,73)           108.0324         estimate D2E/DX2                !
 ! A155  A(69,72,74)           108.757          estimate D2E/DX2                !
 ! A156  A(69,72,75)           114.1479         estimate D2E/DX2                !
 ! A157  A(73,72,74)           106.2166         estimate D2E/DX2                !
 ! A158  A(73,72,75)           108.8022         estimate D2E/DX2                !
 ! A159  A(74,72,75)           110.5567         estimate D2E/DX2                !
 ! A160  A(72,75,76)           111.0931         estimate D2E/DX2                !
 ! A161  A(72,75,77)           109.2776         estimate D2E/DX2                !
 ! A162  A(72,75,78)           115.1244         estimate D2E/DX2                !
 ! A163  A(76,75,77)           105.5248         estimate D2E/DX2                !
 ! A164  A(76,75,78)           108.9466         estimate D2E/DX2                !
 ! A165  A(77,75,78)           106.3388         estimate D2E/DX2                !
 ! A166  A(75,78,79)           111.1353         estimate D2E/DX2                !
 ! A167  A(75,78,80)           110.4845         estimate D2E/DX2                !
 ! A168  A(75,78,81)           113.3775         estimate D2E/DX2                !
 ! A169  A(79,78,80)           107.7427         estimate D2E/DX2                !
 ! A170  A(79,78,81)           106.4685         estimate D2E/DX2                !
 ! A171  A(80,78,81)           107.3631         estimate D2E/DX2                !
 ! A172  A(78,81,82)           113.6589         estimate D2E/DX2                !
 ! A173  A(78,81,83)           112.6596         estimate D2E/DX2                !
 ! A174  A(78,81,84)           111.6207         estimate D2E/DX2                !
 ! A175  A(82,81,83)           105.1946         estimate D2E/DX2                !
 ! A176  A(82,81,84)           106.8332         estimate D2E/DX2                !
 ! A177  A(83,81,84)           106.3286         estimate D2E/DX2                !
 ! A178  A(35,82,41)            24.1694         estimate D2E/DX2                !
 ! A179  A(35,82,62)            49.3742         estimate D2E/DX2                !
 ! A180  A(41,82,62)            31.6264         estimate D2E/DX2                !
 ! A181  A(41,82,81)           160.6157         estimate D2E/DX2                !
 ! A182  A(62,82,81)           133.8144         estimate D2E/DX2                !
 ! A183  A(13,83,14)            41.9885         estimate D2E/DX2                !
 ! A184  A(13,83,19)            47.4813         estimate D2E/DX2                !
 ! A185  A(13,83,81)           140.2884         estimate D2E/DX2                !
 ! A186  A(14,83,19)            49.3952         estimate D2E/DX2                !
 ! A187  A(19,83,81)           128.7714         estimate D2E/DX2                !
 ! A188  A(45,84,56)            39.6754         estimate D2E/DX2                !
 ! A189  A(45,84,58)            18.8656         estimate D2E/DX2                !
 ! A190  A(45,84,81)           112.8406         estimate D2E/DX2                !
 ! A191  A(56,84,58)            57.2155         estimate D2E/DX2                !
 ! A192  A(56,84,81)           147.7889         estimate D2E/DX2                !
 ! A193  A(58,84,81)            99.3764         estimate D2E/DX2                !
 ! A194  L(20,19,83,16,-1)     166.1681         estimate D2E/DX2                !
 ! A195  L(35,82,81,41,-1)     184.7851         estimate D2E/DX2                !
 ! A196  L(14,83,81,13,-1)     182.2768         estimate D2E/DX2                !
 ! A197  L(20,19,83,16,-2)     175.885          estimate D2E/DX2                !
 ! A198  L(35,82,81,41,-2)     183.735          estimate D2E/DX2                !
 ! A199  L(14,83,81,13,-2)     175.5193         estimate D2E/DX2                !
 ! D1    D(6,1,2,3)            -57.2591         estimate D2E/DX2                !
 ! D2    D(6,1,2,7)           -176.8056         estimate D2E/DX2                !
 ! D3    D(6,1,2,15)            62.3055         estimate D2E/DX2                !
 ! D4    D(2,1,6,5)             57.3811         estimate D2E/DX2                !
 ! D5    D(2,1,6,11)           -61.3976         estimate D2E/DX2                !
 ! D6    D(2,1,6,16)          -176.3109         estimate D2E/DX2                !
 ! D7    D(1,2,3,4)             56.8738         estimate D2E/DX2                !
 ! D8    D(1,2,3,8)            -61.7651         estimate D2E/DX2                !
 ! D9    D(1,2,3,14)           179.801          estimate D2E/DX2                !
 ! D10   D(7,2,3,4)            172.5481         estimate D2E/DX2                !
 ! D11   D(7,2,3,8)             53.9093         estimate D2E/DX2                !
 ! D12   D(7,2,3,14)           -64.5247         estimate D2E/DX2                !
 ! D13   D(15,2,3,4)           -66.3841         estimate D2E/DX2                !
 ! D14   D(15,2,3,8)           174.977          estimate D2E/DX2                !
 ! D15   D(15,2,3,14)           56.543          estimate D2E/DX2                !
 ! D16   D(1,2,15,27)           59.9728         estimate D2E/DX2                !
 ! D17   D(3,2,15,27)         -178.6748         estimate D2E/DX2                !
 ! D18   D(7,2,15,27)          -57.4528         estimate D2E/DX2                !
 ! D19   D(2,3,4,5)            -56.0779         estimate D2E/DX2                !
 ! D20   D(2,3,4,9)             63.9669         estimate D2E/DX2                !
 ! D21   D(2,3,4,13)          -179.5153         estimate D2E/DX2                !
 ! D22   D(8,3,4,5)             61.2274         estimate D2E/DX2                !
 ! D23   D(8,3,4,9)           -178.7277         estimate D2E/DX2                !
 ! D24   D(8,3,4,13)           -62.2099         estimate D2E/DX2                !
 ! D25   D(14,3,4,5)          -179.6441         estimate D2E/DX2                !
 ! D26   D(14,3,4,9)           -59.5992         estimate D2E/DX2                !
 ! D27   D(14,3,4,13)           56.9186         estimate D2E/DX2                !
 ! D28   D(2,3,14,23)         -175.0737         estimate D2E/DX2                !
 ! D29   D(2,3,14,83)          -49.1072         estimate D2E/DX2                !
 ! D30   D(4,3,14,23)          -51.3204         estimate D2E/DX2                !
 ! D31   D(4,3,14,83)           74.646          estimate D2E/DX2                !
 ! D32   D(8,3,14,23)           67.8223         estimate D2E/DX2                !
 ! D33   D(8,3,14,83)         -166.2113         estimate D2E/DX2                !
 ! D34   D(3,4,5,6)             53.7279         estimate D2E/DX2                !
 ! D35   D(3,4,5,10)           170.6428         estimate D2E/DX2                !
 ! D36   D(3,4,5,12)           -70.7946         estimate D2E/DX2                !
 ! D37   D(9,4,5,6)            -66.4089         estimate D2E/DX2                !
 ! D38   D(9,4,5,10)            50.5059         estimate D2E/DX2                !
 ! D39   D(9,4,5,12)           169.0685         estimate D2E/DX2                !
 ! D40   D(13,4,5,6)           175.0523         estimate D2E/DX2                !
 ! D41   D(13,4,5,10)          -68.0328         estimate D2E/DX2                !
 ! D42   D(13,4,5,12)           50.5297         estimate D2E/DX2                !
 ! D43   D(3,4,13,22)           85.8152         estimate D2E/DX2                !
 ! D44   D(3,4,13,83)          -55.9119         estimate D2E/DX2                !
 ! D45   D(5,4,13,22)          -35.6252         estimate D2E/DX2                !
 ! D46   D(5,4,13,83)         -177.3522         estimate D2E/DX2                !
 ! D47   D(9,4,13,22)         -155.7968         estimate D2E/DX2                !
 ! D48   D(9,4,13,83)           62.4762         estimate D2E/DX2                !
 ! D49   D(4,5,6,1)            -54.0965         estimate D2E/DX2                !
 ! D50   D(4,5,6,11)            65.4283         estimate D2E/DX2                !
 ! D51   D(4,5,6,16)          -176.4597         estimate D2E/DX2                !
 ! D52   D(10,5,6,1)          -171.9232         estimate D2E/DX2                !
 ! D53   D(10,5,6,11)          -52.3985         estimate D2E/DX2                !
 ! D54   D(10,5,6,16)           65.7135         estimate D2E/DX2                !
 ! D55   D(12,5,6,1)            64.3946         estimate D2E/DX2                !
 ! D56   D(12,5,6,11)         -176.0807         estimate D2E/DX2                !
 ! D57   D(12,5,6,16)          -57.9687         estimate D2E/DX2                !
 ! D58   D(4,5,12,21)          155.4462         estimate D2E/DX2                !
 ! D59   D(6,5,12,21)           34.9902         estimate D2E/DX2                !
 ! D60   D(10,5,12,21)         -87.0717         estimate D2E/DX2                !
 ! D61   D(1,6,16,17)           50.6149         estimate D2E/DX2                !
 ! D62   D(1,6,16,18)          168.2807         estimate D2E/DX2                !
 ! D63   D(1,6,16,19)          -70.5632         estimate D2E/DX2                !
 ! D64   D(5,6,16,17)          175.7108         estimate D2E/DX2                !
 ! D65   D(5,6,16,18)          -66.6234         estimate D2E/DX2                !
 ! D66   D(5,6,16,19)           54.5327         estimate D2E/DX2                !
 ! D67   D(11,6,16,17)         -65.7016         estimate D2E/DX2                !
 ! D68   D(11,6,16,18)          51.9642         estimate D2E/DX2                !
 ! D69   D(11,6,16,19)         173.1204         estimate D2E/DX2                !
 ! D70   D(4,13,83,14)          89.0158         estimate D2E/DX2                !
 ! D71   D(4,13,83,19)          16.5444         estimate D2E/DX2                !
 ! D72   D(4,13,83,81)         -86.5035         estimate D2E/DX2                !
 ! D73   D(22,13,83,14)         15.4359         estimate D2E/DX2                !
 ! D74   D(22,13,83,19)        -57.0355         estimate D2E/DX2                !
 ! D75   D(22,13,83,81)       -160.0834         estimate D2E/DX2                !
 ! D76   D(3,14,83,13)         -66.4683         estimate D2E/DX2                !
 ! D77   D(3,14,83,19)           1.3109         estimate D2E/DX2                !
 ! D78   D(23,14,83,13)         54.7314         estimate D2E/DX2                !
 ! D79   D(23,14,83,19)        122.5106         estimate D2E/DX2                !
 ! D80   D(2,15,27,26)        -150.6131         estimate D2E/DX2                !
 ! D81   D(2,15,27,28)          88.7873         estimate D2E/DX2                !
 ! D82   D(2,15,27,32)         -32.2722         estimate D2E/DX2                !
 ! D83   D(6,16,19,20)        -176.1026         estimate D2E/DX2                !
 ! D84   D(6,16,19,83)           8.0124         estimate D2E/DX2                !
 ! D85   D(17,16,19,20)         63.921          estimate D2E/DX2                !
 ! D86   D(17,16,19,83)       -111.964          estimate D2E/DX2                !
 ! D87   D(18,16,19,20)        -56.7139         estimate D2E/DX2                !
 ! D88   D(18,16,19,83)        127.4011         estimate D2E/DX2                !
 ! D89   D(16,19,83,13)       -114.9566         estimate D2E/DX2                !
 ! D90   D(16,19,83,14)       -172.1212         estimate D2E/DX2                !
 ! D91   D(16,19,83,81)         12.0713         estimate D2E/DX2                !
 ! D92   D(29,24,25,26)        -50.755          estimate D2E/DX2                !
 ! D93   D(29,24,25,30)         71.9269         estimate D2E/DX2                !
 ! D94   D(29,24,25,37)       -174.8324         estimate D2E/DX2                !
 ! D95   D(25,24,29,28)         52.9897         estimate D2E/DX2                !
 ! D96   D(25,24,29,34)        -67.6557         estimate D2E/DX2                !
 ! D97   D(25,24,29,38)        175.5099         estimate D2E/DX2                !
 ! D98   D(24,25,26,27)         49.8547         estimate D2E/DX2                !
 ! D99   D(24,25,26,31)        -67.9005         estimate D2E/DX2                !
 ! D100  D(24,25,26,36)        171.6419         estimate D2E/DX2                !
 ! D101  D(30,25,26,27)        -74.0251         estimate D2E/DX2                !
 ! D102  D(30,25,26,31)        168.2197         estimate D2E/DX2                !
 ! D103  D(30,25,26,36)         47.7621         estimate D2E/DX2                !
 ! D104  D(37,25,26,27)        170.7996         estimate D2E/DX2                !
 ! D105  D(37,25,26,31)         53.0444         estimate D2E/DX2                !
 ! D106  D(37,25,26,36)        -67.4132         estimate D2E/DX2                !
 ! D107  D(24,25,37,49)         60.4051         estimate D2E/DX2                !
 ! D108  D(26,25,37,49)        -63.7195         estimate D2E/DX2                !
 ! D109  D(30,25,37,49)        178.264          estimate D2E/DX2                !
 ! D110  D(25,26,27,15)       -174.1664         estimate D2E/DX2                !
 ! D111  D(25,26,27,28)        -52.9183         estimate D2E/DX2                !
 ! D112  D(25,26,27,32)         67.6969         estimate D2E/DX2                !
 ! D113  D(31,26,27,15)        -56.0829         estimate D2E/DX2                !
 ! D114  D(31,26,27,28)         65.1652         estimate D2E/DX2                !
 ! D115  D(31,26,27,32)       -174.2196         estimate D2E/DX2                !
 ! D116  D(36,26,27,15)         63.8686         estimate D2E/DX2                !
 ! D117  D(36,26,27,28)       -174.8834         estimate D2E/DX2                !
 ! D118  D(36,26,27,32)        -54.2682         estimate D2E/DX2                !
 ! D119  D(25,26,36,44)         74.4586         estimate D2E/DX2                !
 ! D120  D(27,26,36,44)       -162.7928         estimate D2E/DX2                !
 ! D121  D(31,26,36,44)        -44.5964         estimate D2E/DX2                !
 ! D122  D(15,27,28,29)        172.8128         estimate D2E/DX2                !
 ! D123  D(15,27,28,33)        -69.1815         estimate D2E/DX2                !
 ! D124  D(15,27,28,35)         50.2107         estimate D2E/DX2                !
 ! D125  D(26,27,28,29)         54.5792         estimate D2E/DX2                !
 ! D126  D(26,27,28,33)        172.5848         estimate D2E/DX2                !
 ! D127  D(26,27,28,35)        -68.023          estimate D2E/DX2                !
 ! D128  D(32,27,28,29)        -66.1739         estimate D2E/DX2                !
 ! D129  D(32,27,28,33)         51.8317         estimate D2E/DX2                !
 ! D130  D(32,27,28,35)        171.2239         estimate D2E/DX2                !
 ! D131  D(27,28,29,24)        -53.5029         estimate D2E/DX2                !
 ! D132  D(27,28,29,34)         68.5883         estimate D2E/DX2                !
 ! D133  D(27,28,29,38)       -171.4724         estimate D2E/DX2                !
 ! D134  D(33,28,29,24)       -172.5194         estimate D2E/DX2                !
 ! D135  D(33,28,29,34)        -50.4282         estimate D2E/DX2                !
 ! D136  D(33,28,29,38)         69.5111         estimate D2E/DX2                !
 ! D137  D(35,28,29,24)         68.0886         estimate D2E/DX2                !
 ! D138  D(35,28,29,34)       -169.8203         estimate D2E/DX2                !
 ! D139  D(35,28,29,38)        -49.881          estimate D2E/DX2                !
 ! D140  D(27,28,35,43)        145.2362         estimate D2E/DX2                !
 ! D141  D(27,28,35,82)        -23.221          estimate D2E/DX2                !
 ! D142  D(29,28,35,43)         23.4359         estimate D2E/DX2                !
 ! D143  D(29,28,35,82)       -145.0214         estimate D2E/DX2                !
 ! D144  D(33,28,35,43)        -95.1706         estimate D2E/DX2                !
 ! D145  D(33,28,35,82)         96.3721         estimate D2E/DX2                !
 ! D146  D(24,29,38,39)         58.5006         estimate D2E/DX2                !
 ! D147  D(24,29,38,40)        177.0782         estimate D2E/DX2                !
 ! D148  D(24,29,38,41)        -63.992          estimate D2E/DX2                !
 ! D149  D(28,29,38,39)       -179.3062         estimate D2E/DX2                !
 ! D150  D(28,29,38,40)        -60.7286         estimate D2E/DX2                !
 ! D151  D(28,29,38,41)         58.2013         estimate D2E/DX2                !
 ! D152  D(34,29,38,39)        -59.6811         estimate D2E/DX2                !
 ! D153  D(34,29,38,40)         58.8965         estimate D2E/DX2                !
 ! D154  D(34,29,38,41)        177.8264         estimate D2E/DX2                !
 ! D155  D(28,35,82,41)        158.0338         estimate D2E/DX2                !
 ! D156  D(28,35,82,62)        123.975          estimate D2E/DX2                !
 ! D157  D(43,35,82,41)         -7.9516         estimate D2E/DX2                !
 ! D158  D(43,35,82,62)        -42.0103         estimate D2E/DX2                !
 ! D159  D(25,37,49,48)        121.3473         estimate D2E/DX2                !
 ! D160  D(25,37,49,50)       -121.0695         estimate D2E/DX2                !
 ! D161  D(25,37,49,55)         -1.5015         estimate D2E/DX2                !
 ! D162  D(29,38,41,42)         75.7616         estimate D2E/DX2                !
 ! D163  D(29,38,41,82)        -29.0609         estimate D2E/DX2                !
 ! D164  D(39,38,41,42)        -46.0029         estimate D2E/DX2                !
 ! D165  D(39,38,41,82)       -150.8254         estimate D2E/DX2                !
 ! D166  D(40,38,41,42)       -163.7577         estimate D2E/DX2                !
 ! D167  D(40,38,41,82)         91.4198         estimate D2E/DX2                !
 ! D168  D(38,41,82,35)        -11.2498         estimate D2E/DX2                !
 ! D169  D(38,41,82,62)        114.5957         estimate D2E/DX2                !
 ! D170  D(38,41,82,81)        165.0153         estimate D2E/DX2                !
 ! D171  D(42,41,82,35)       -122.7622         estimate D2E/DX2                !
 ! D172  D(42,41,82,62)          3.0833         estimate D2E/DX2                !
 ! D173  D(42,41,82,81)         53.5028         estimate D2E/DX2                !
 ! D174  D(50,45,46,47)         57.0134         estimate D2E/DX2                !
 ! D175  D(50,45,46,51)        177.671          estimate D2E/DX2                !
 ! D176  D(50,45,46,58)        -64.9274         estimate D2E/DX2                !
 ! D177  D(84,45,46,47)         57.7263         estimate D2E/DX2                !
 ! D178  D(84,45,46,51)        178.3839         estimate D2E/DX2                !
 ! D179  D(84,45,46,58)        -64.2144         estimate D2E/DX2                !
 ! D180  D(46,45,50,49)        -22.7175         estimate D2E/DX2                !
 ! D181  D(46,45,50,54)       -138.4659         estimate D2E/DX2                !
 ! D182  D(46,45,50,59)        107.0182         estimate D2E/DX2                !
 ! D183  D(84,45,50,49)        -23.288          estimate D2E/DX2                !
 ! D184  D(84,45,50,54)       -139.0365         estimate D2E/DX2                !
 ! D185  D(84,45,50,59)        106.4476         estimate D2E/DX2                !
 ! D186  D(46,45,84,56)       -103.5386         estimate D2E/DX2                !
 ! D187  D(46,45,84,58)         51.2972         estimate D2E/DX2                !
 ! D188  D(46,45,84,81)         97.9904         estimate D2E/DX2                !
 ! D189  D(50,45,84,56)         75.7822         estimate D2E/DX2                !
 ! D190  D(50,45,84,58)       -129.382          estimate D2E/DX2                !
 ! D191  D(50,45,84,81)        -82.6888         estimate D2E/DX2                !
 ! D192  D(45,46,47,48)        -26.2895         estimate D2E/DX2                !
 ! D193  D(45,46,47,52)       -144.0763         estimate D2E/DX2                !
 ! D194  D(45,46,47,57)         92.7091         estimate D2E/DX2                !
 ! D195  D(51,46,47,48)       -144.0521         estimate D2E/DX2                !
 ! D196  D(51,46,47,52)         98.1612         estimate D2E/DX2                !
 ! D197  D(51,46,47,57)        -25.0535         estimate D2E/DX2                !
 ! D198  D(58,46,47,48)         95.2571         estimate D2E/DX2                !
 ! D199  D(58,46,47,52)        -22.5296         estimate D2E/DX2                !
 ! D200  D(58,46,47,57)       -145.7443         estimate D2E/DX2                !
 ! D201  D(45,46,58,66)       -151.4489         estimate D2E/DX2                !
 ! D202  D(45,46,58,84)        115.2223         estimate D2E/DX2                !
 ! D203  D(47,46,58,66)         84.2763         estimate D2E/DX2                !
 ! D204  D(47,46,58,84)         -9.0525         estimate D2E/DX2                !
 ! D205  D(51,46,58,66)        -36.8416         estimate D2E/DX2                !
 ! D206  D(51,46,58,84)       -130.1703         estimate D2E/DX2                !
 ! D207  D(46,47,48,49)        -32.5702         estimate D2E/DX2                !
 ! D208  D(46,47,48,53)         85.7624         estimate D2E/DX2                !
 ! D209  D(46,47,48,56)       -154.8547         estimate D2E/DX2                !
 ! D210  D(52,47,48,49)         85.503          estimate D2E/DX2                !
 ! D211  D(52,47,48,53)       -156.1644         estimate D2E/DX2                !
 ! D212  D(52,47,48,56)        -36.7815         estimate D2E/DX2                !
 ! D213  D(57,47,48,49)       -156.053          estimate D2E/DX2                !
 ! D214  D(57,47,48,53)        -37.7204         estimate D2E/DX2                !
 ! D215  D(57,47,48,56)         81.6625         estimate D2E/DX2                !
 ! D216  D(46,47,57,65)         71.4267         estimate D2E/DX2                !
 ! D217  D(48,47,57,65)       -166.3694         estimate D2E/DX2                !
 ! D218  D(52,47,57,65)        -50.1873         estimate D2E/DX2                !
 ! D219  D(47,48,49,37)       -178.2003         estimate D2E/DX2                !
 ! D220  D(47,48,49,50)         64.5155         estimate D2E/DX2                !
 ! D221  D(47,48,49,55)        -55.801          estimate D2E/DX2                !
 ! D222  D(53,48,49,37)         63.7543         estimate D2E/DX2                !
 ! D223  D(53,48,49,50)        -53.5298         estimate D2E/DX2                !
 ! D224  D(53,48,49,55)       -173.8464         estimate D2E/DX2                !
 ! D225  D(56,48,49,37)        -55.9989         estimate D2E/DX2                !
 ! D226  D(56,48,49,50)       -173.2831         estimate D2E/DX2                !
 ! D227  D(56,48,49,55)         66.4004         estimate D2E/DX2                !
 ! D228  D(47,48,56,64)        -67.348          estimate D2E/DX2                !
 ! D229  D(47,48,56,84)         62.8594         estimate D2E/DX2                !
 ! D230  D(49,48,56,64)        170.4328         estimate D2E/DX2                !
 ! D231  D(49,48,56,84)        -59.3598         estimate D2E/DX2                !
 ! D232  D(53,48,56,64)         51.2125         estimate D2E/DX2                !
 ! D233  D(53,48,56,84)       -178.5801         estimate D2E/DX2                !
 ! D234  D(37,49,50,45)       -156.4163         estimate D2E/DX2                !
 ! D235  D(37,49,50,54)        -41.8671         estimate D2E/DX2                !
 ! D236  D(37,49,50,59)         77.0175         estimate D2E/DX2                !
 ! D237  D(48,49,50,45)        -37.4051         estimate D2E/DX2                !
 ! D238  D(48,49,50,54)         77.1441         estimate D2E/DX2                !
 ! D239  D(48,49,50,59)       -163.9713         estimate D2E/DX2                !
 ! D240  D(55,49,50,45)         83.6997         estimate D2E/DX2                !
 ! D241  D(55,49,50,54)       -161.7511         estimate D2E/DX2                !
 ! D242  D(55,49,50,59)        -42.8665         estimate D2E/DX2                !
 ! D243  D(45,50,59,60)         51.6018         estimate D2E/DX2                !
 ! D244  D(45,50,59,61)        169.4311         estimate D2E/DX2                !
 ! D245  D(45,50,59,62)        -70.6962         estimate D2E/DX2                !
 ! D246  D(49,50,59,60)        179.8417         estimate D2E/DX2                !
 ! D247  D(49,50,59,61)        -62.3289         estimate D2E/DX2                !
 ! D248  D(49,50,59,62)         57.5438         estimate D2E/DX2                !
 ! D249  D(54,50,59,60)        -61.4349         estimate D2E/DX2                !
 ! D250  D(54,50,59,61)         56.3944         estimate D2E/DX2                !
 ! D251  D(54,50,59,62)        176.2671         estimate D2E/DX2                !
 ! D252  D(48,56,84,45)         -0.8755         estimate D2E/DX2                !
 ! D253  D(48,56,84,58)        -10.2881         estimate D2E/DX2                !
 ! D254  D(48,56,84,81)         38.5051         estimate D2E/DX2                !
 ! D255  D(64,56,84,45)        123.1446         estimate D2E/DX2                !
 ! D256  D(64,56,84,58)        113.732          estimate D2E/DX2                !
 ! D257  D(64,56,84,81)        162.5252         estimate D2E/DX2                !
 ! D258  D(46,58,66,67)        -51.6286         estimate D2E/DX2                !
 ! D259  D(46,58,66,68)         66.5068         estimate D2E/DX2                !
 ! D260  D(46,58,66,69)       -173.063          estimate D2E/DX2                !
 ! D261  D(84,58,66,67)         54.7363         estimate D2E/DX2                !
 ! D262  D(84,58,66,68)        172.8717         estimate D2E/DX2                !
 ! D263  D(84,58,66,69)        -66.6981         estimate D2E/DX2                !
 ! D264  D(46,58,84,45)        -35.7328         estimate D2E/DX2                !
 ! D265  D(46,58,84,56)        -16.894          estimate D2E/DX2                !
 ! D266  D(46,58,84,81)       -172.9115         estimate D2E/DX2                !
 ! D267  D(66,58,84,45)       -151.2642         estimate D2E/DX2                !
 ! D268  D(66,58,84,56)       -132.4253         estimate D2E/DX2                !
 ! D269  D(66,58,84,81)         71.5571         estimate D2E/DX2                !
 ! D270  D(50,59,62,63)         38.6061         estimate D2E/DX2                !
 ! D271  D(50,59,62,82)        -47.2523         estimate D2E/DX2                !
 ! D272  D(60,59,62,63)        -82.4205         estimate D2E/DX2                !
 ! D273  D(60,59,62,82)       -168.2789         estimate D2E/DX2                !
 ! D274  D(61,59,62,63)        159.5274         estimate D2E/DX2                !
 ! D275  D(61,59,62,82)         73.669          estimate D2E/DX2                !
 ! D276  D(59,62,82,35)        -90.9276         estimate D2E/DX2                !
 ! D277  D(59,62,82,41)       -116.8582         estimate D2E/DX2                !
 ! D278  D(59,62,82,81)         83.9051         estimate D2E/DX2                !
 ! D279  D(63,62,82,35)        165.2641         estimate D2E/DX2                !
 ! D280  D(63,62,82,41)        139.3335         estimate D2E/DX2                !
 ! D281  D(63,62,82,81)        -19.9033         estimate D2E/DX2                !
 ! D282  D(58,66,69,70)        -59.3509         estimate D2E/DX2                !
 ! D283  D(58,66,69,71)       -173.6207         estimate D2E/DX2                !
 ! D284  D(58,66,69,72)         62.8855         estimate D2E/DX2                !
 ! D285  D(67,66,69,70)        179.8611         estimate D2E/DX2                !
 ! D286  D(67,66,69,71)         65.5913         estimate D2E/DX2                !
 ! D287  D(67,66,69,72)        -57.9025         estimate D2E/DX2                !
 ! D288  D(68,66,69,70)         60.3909         estimate D2E/DX2                !
 ! D289  D(68,66,69,71)        -53.8788         estimate D2E/DX2                !
 ! D290  D(68,66,69,72)       -177.3726         estimate D2E/DX2                !
 ! D291  D(66,69,72,73)       -167.7858         estimate D2E/DX2                !
 ! D292  D(66,69,72,74)        -52.9058         estimate D2E/DX2                !
 ! D293  D(66,69,72,75)         71.0558         estimate D2E/DX2                !
 ! D294  D(70,69,72,73)        -45.998          estimate D2E/DX2                !
 ! D295  D(70,69,72,74)         68.882          estimate D2E/DX2                !
 ! D296  D(70,69,72,75)       -167.1564         estimate D2E/DX2                !
 ! D297  D(71,69,72,73)         69.8563         estimate D2E/DX2                !
 ! D298  D(71,69,72,74)       -175.2637         estimate D2E/DX2                !
 ! D299  D(71,69,72,75)        -51.302          estimate D2E/DX2                !
 ! D300  D(69,72,75,76)        -66.9649         estimate D2E/DX2                !
 ! D301  D(69,72,75,77)         49.0643         estimate D2E/DX2                !
 ! D302  D(69,72,75,78)        168.6147         estimate D2E/DX2                !
 ! D303  D(73,72,75,76)        172.3043         estimate D2E/DX2                !
 ! D304  D(73,72,75,77)        -71.6665         estimate D2E/DX2                !
 ! D305  D(73,72,75,78)         47.8839         estimate D2E/DX2                !
 ! D306  D(74,72,75,76)         56.0245         estimate D2E/DX2                !
 ! D307  D(74,72,75,77)        172.0537         estimate D2E/DX2                !
 ! D308  D(74,72,75,78)        -68.3959         estimate D2E/DX2                !
 ! D309  D(72,75,78,79)        -52.9197         estimate D2E/DX2                !
 ! D310  D(72,75,78,80)       -172.4702         estimate D2E/DX2                !
 ! D311  D(72,75,78,81)         66.9627         estimate D2E/DX2                !
 ! D312  D(76,75,78,79)       -178.4579         estimate D2E/DX2                !
 ! D313  D(76,75,78,80)         61.9915         estimate D2E/DX2                !
 ! D314  D(76,75,78,81)        -58.5756         estimate D2E/DX2                !
 ! D315  D(77,75,78,79)         68.2428         estimate D2E/DX2                !
 ! D316  D(77,75,78,80)        -51.3078         estimate D2E/DX2                !
 ! D317  D(77,75,78,81)       -171.8749         estimate D2E/DX2                !
 ! D318  D(75,78,81,82)        -66.8779         estimate D2E/DX2                !
 ! D319  D(75,78,81,83)        173.585          estimate D2E/DX2                !
 ! D320  D(75,78,81,84)         54.0348         estimate D2E/DX2                !
 ! D321  D(79,78,81,82)         55.6295         estimate D2E/DX2                !
 ! D322  D(79,78,81,83)        -63.9076         estimate D2E/DX2                !
 ! D323  D(79,78,81,84)        176.5422         estimate D2E/DX2                !
 ! D324  D(80,78,81,82)        170.8044         estimate D2E/DX2                !
 ! D325  D(80,78,81,83)         51.2673         estimate D2E/DX2                !
 ! D326  D(80,78,81,84)        -68.2829         estimate D2E/DX2                !
 ! D327  D(78,81,82,41)         33.8902         estimate D2E/DX2                !
 ! D328  D(78,81,82,62)         67.9524         estimate D2E/DX2                !
 ! D329  D(83,81,82,41)        157.5893         estimate D2E/DX2                !
 ! D330  D(83,81,82,62)       -168.3486         estimate D2E/DX2                !
 ! D331  D(84,81,82,41)        -89.6712         estimate D2E/DX2                !
 ! D332  D(84,81,82,62)        -55.609          estimate D2E/DX2                !
 ! D333  D(78,81,83,13)       -104.8813         estimate D2E/DX2                !
 ! D334  D(78,81,83,19)       -171.9481         estimate D2E/DX2                !
 ! D335  D(82,81,83,13)        130.7862         estimate D2E/DX2                !
 ! D336  D(82,81,83,19)         63.7194         estimate D2E/DX2                !
 ! D337  D(84,81,83,13)         17.6913         estimate D2E/DX2                !
 ! D338  D(84,81,83,19)        -49.3755         estimate D2E/DX2                !
 ! D339  D(78,81,84,45)        -82.565          estimate D2E/DX2                !
 ! D340  D(78,81,84,56)       -108.639          estimate D2E/DX2                !
 ! D341  D(78,81,84,58)        -68.7678         estimate D2E/DX2                !
 ! D342  D(82,81,84,45)         42.248          estimate D2E/DX2                !
 ! D343  D(82,81,84,56)         16.1739         estimate D2E/DX2                !
 ! D344  D(82,81,84,58)         56.0451         estimate D2E/DX2                !
 ! D345  D(83,81,84,45)        154.209          estimate D2E/DX2                !
 ! D346  D(83,81,84,56)        128.1349         estimate D2E/DX2                !
 ! D347  D(83,81,84,58)        168.0062         estimate D2E/DX2                !
 --------------------------------------------------------------------------------
 Trust Radius=3.00D-01 FncErr=1.00D-07 GrdErr=1.00D-06
 Number of steps in this run=    504 maximum allowed number of steps=    504.
 GradGradGradGradGradGradGradGradGradGradGradGradGradGradGradGradGradGrad

 Leave Link  103 at Wed Apr 27 13:56:19 2016, MaxMem= 10737418240 cpu:         0.7
 (Enter /share/apps//g09/l202.exe)
 Stoichiometry    C23H44NO16(1+)
 Framework group  C1[X(C23H44NO16)]
 Deg. of freedom   246
 Full point group                 C1      NOp   1
 Largest Abelian subgroup         C1      NOp   1
 Largest concise Abelian subgroup C1      NOp   1
                         Standard orientation:                         
 ---------------------------------------------------------------------
 Center     Atomic      Atomic             Coordinates (Angstroms)
 Number     Number       Type             X           Y           Z
 ---------------------------------------------------------------------
      1          8           0        4.272022   -0.934416    0.655407
      2          6           0        3.472618    0.144531    1.079086
      3          6           0        4.101511    1.468439    0.640021
      4          6           0        4.308620    1.512554   -0.876922
      5          6           0        5.157022    0.311894   -1.306094
      6          6           0        4.503884   -0.979438   -0.779599
      7          1           0        3.447258    0.062628    2.179406
      8          1           0        5.083437    1.530810    1.135302
      9          1           0        3.331980    1.473935   -1.385831
     10          1           0        5.161665    0.253826   -2.413657
     11          1           0        3.531010   -1.092666   -1.293319
     12          8           0        6.469387    0.577697   -0.815174
     13          8           0        4.906778    2.761295   -1.230013
     14          8           0        3.293336    2.593592    1.061208
     15          8           0        2.150856    0.110991    0.536033
     16          6           0        5.297187   -2.243589   -1.066947
     17          1           0        4.789114   -3.096005   -0.586212
     18          1           0        5.299360   -2.405014   -2.158881
     19          8           0        6.638304   -2.103266   -0.564856
     20          1           0        7.152147   -2.890702   -0.808413
     21          1           0        6.922341   -0.287752   -0.710824
     22          1           0        5.872799    2.632524   -1.123697
     23          1           0        3.743742    3.366643    0.660509
     24          8           0       -1.204587   -2.282766    1.278515
     25          6           0       -0.575280   -2.425293    0.008734
     26          6           0        0.414485   -1.279251   -0.294810
     27          6           0        1.375984   -1.056002    0.865838
     28          6           0        0.600626   -0.864466    2.176542
     29          6           0       -0.350257   -2.054191    2.402761
     30          1           0       -0.042406   -3.391631   -0.066974
     31          1           0       -0.168101   -0.350772   -0.425810
     32          1           0        2.049302   -1.926100    0.962081
     33          1           0        1.312796   -0.837988    3.022569
     34          1           0        0.266658   -2.952139    2.612219
     35          8           0       -0.121085    0.380090    2.132570
     36          8           0        1.147521   -1.571011   -1.473076
     37          8           0       -1.604036   -2.519089   -0.951857
     38          6           0       -1.305179   -1.830963    3.582462
     39          1           0       -1.947970   -2.716776    3.700946
     40          1           0       -0.729658   -1.697263    4.509976
     41          8           0       -2.103816   -0.650962    3.402150
     42          1           0       -2.819138   -0.852421    2.730752
     43          1           0       -0.983377    0.217342    2.637454
     44          1           0        0.511495   -1.422853   -2.205411
     45          8           0       -4.943979   -1.016660   -1.318527
     46          6           0       -4.587432    0.304738   -1.571750
     47          6           0       -3.364680    0.440924   -2.518745
     48          6           0       -2.460354   -0.793450   -2.442720
     49          6           0       -2.486187   -1.384991   -1.032623
     50          6           0       -3.919604   -1.888434   -0.751055
     51          1           0       -5.480729    0.764531   -2.030255
     52          1           0       -2.768763    1.311115   -2.184003
     53          1           0       -2.854857   -1.548453   -3.145351
     54          1           0       -4.033180   -2.844381   -1.289371
     55          1           0       -2.204031   -0.629602   -0.283175
     56          8           0       -1.112821   -0.449832   -2.819617
     57          8           0       -3.725771    0.570783   -3.894210
     58          8           0       -4.296546    0.958071   -0.311460
     59          6           0       -4.242231   -2.159130    0.717547
     60          1           0       -5.287434   -2.505895    0.768796
     61          1           0       -3.585325   -2.956979    1.085882
     62          8           0       -4.061305   -1.030984    1.583889
     63          1           0       -4.366866   -0.230377    1.098843
     64          1           0       -1.140552   -0.227995   -3.767671
     65          1           0       -4.118075    1.447883   -4.047273
     66          6           0       -4.535104    2.376561   -0.275590
     67          1           0       -4.028155    2.868157   -1.127341
     68          1           0       -5.617950    2.570102   -0.373096
     69          6           0       -4.014209    2.908478    1.053570
     70          1           0       -4.550470    2.390932    1.864366
     71          1           0       -4.299924    3.970406    1.130050
     72          6           0       -2.500205    2.751526    1.274616
     73          1           0       -2.286508    2.962872    2.335002
     74          1           0       -2.225556    1.697758    1.109588
     75          6           0       -1.638306    3.676751    0.401801
     76          1           0       -1.719203    3.405132   -0.665777
     77          1           0       -2.022793    4.707439    0.473997
     78          6           0       -0.160902    3.741108    0.786816
     79          1           0       -0.039130    3.982717    1.852153
     80          1           0        0.354175    4.518558    0.206216
     81          7           0        0.569270    2.454732    0.557280
     82          1           0        0.249393    1.661722    1.194006
     83          1           0        1.612128    2.541758    0.724499
     84          1           0        0.458333    2.123755   -0.408687
 ---------------------------------------------------------------------
 Rotational constants (GHZ):      0.1397467      0.0571568      0.0548249
 Leave Link  202 at Wed Apr 27 13:56:19 2016, MaxMem= 10737418240 cpu:         0.7
 (Enter /share/apps//g09/l301.exe)
 Standard basis: 6-311+G(d,p) (5D, 7F)
 Ernie: Thresh=  0.10000D-02 Tol=  0.10000D-05 Strict=F.
 There are  1184 symmetry adapted cartesian basis functions of A   symmetry.
 There are  1144 symmetry adapted basis functions of A   symmetry.
  1144 basis functions,  1792 primitive gaussians,  1184 cartesian basis functions
   158 alpha electrons      158 beta electrons
       nuclear repulsion energy      5874.2481715480 Hartrees.
 IExCor= 1009 DFT=T Ex+Corr=PBE1PBE ExCW=0 ScaHFX=  0.250000
 ScaDFX=  0.750000  0.750000  1.000000  1.000000 ScalE2=  1.000000  1.000000
 IRadAn=      0 IRanWt=     -1 IRanGd=            0 ICorTp=0 IEmpDi=131
 NAtoms=   84 NActive=   84 NUniq=   84 SFac= 1.00D+00 NAtFMM=   60 NAOKFM=T Big=T
 Integral buffers will be    131072 words long.
 Raffenetti 2 integral format.
[...]
 2055,-0.00055334,0.00010639,-0.00000052,-0.00011170,-0.00010859,-0.000
 49635,-0.00010559,0.00000929,-0.00000386,0.00003059,0.00015559,-0.0003
 9574,-0.00024283,-0.00030168,0.00003853,-0.00019871,-0.00016375,-0.002
 59270,-0.00293339,-0.00393224,-0.00055509,-0.00060893,0.00033659,-0.00
 053421,-0.00025072,0.00004716,0.00035220,0.00046955,0.00020315,-0.0000
 2846,-0.00009028,0.00000718,-0.00004986,0.00000878,-0.00000964,-0.0002
 4624,-0.00038836,-0.00066078,0.00008200,0.00006607,0.00012272,-0.00031
 328,-0.00019930,0.00067459,0.00021743,0.00025794,0.00006028,-0.0000527
 6,-0.00041495,-0.00030544,-0.00042636,0.00064363,0.00014486,-0.0003510
 0,0.00036320,-0.00003314,0.00004227,0.00009015,0.00001855,0.00012409,0
 .00045903,0.00005424,0.00015067,0.00010219,0.00008784,0.00002492,-0.00
 001552,0.00001731,0.00005287,-0.00011406,-0.00010488,0.00002219,-0.000
 04262,-0.00001656,0.00001707,-0.00003906,-0.00001477,0.00003586,-0.000
 00452,0.00007483,-0.00007766,-0.00047588,-0.00001098,0.00031454,-0.000
 23005,0.00014873,0.00042604,-0.00077185,-0.00018850,-0.00008284,0.0002
 2456,0.00004985,0.00003490,-0.00002255,-0.00001204,-0.00001330,-0.0000
 2251,-0.00001634,-0.00000293,-0.00031510,-0.00023194,0.00000270,0.0001
 8912,0.00027067,0.00001146,0.00018837,-0.00008234,-0.00012664,0.000043
 84,-0.00002955,-0.00009680,0.00046929,0.00017969,-0.00014467,-0.000002
 79,-0.00006931,0.00011453,-0.00010561,-0.00008171,-0.00032136,-0.00000
 797,-0.00002740,0.00020133,-0.00000521,-0.00016492,0.00011123,-0.00001
 389,0.00004238,0.00042327,-0.00015801,0.00038272,-0.00003099,0.0000034
 4,0.00001803,-0.00016197,0.00027593,0.00024113,0.00049170,0.00124499,-
 0.00001462,-0.00003147,-0.00020121,-0.00004539,0.00080925,0.00039857,-
 0.00016495,-0.00597680,-0.00927237,0.00002709,0.00082553,0.00119602,-0
 .00018943,0.00064979,0.00114618,-0.00000938,-0.27623860,-0.00533001,0.
 09849146,0.00947404,0.00428458,0.00636286,0.28360837,0.00064140,0.0007
 9994,-0.00025277,-0.00312476,-0.00083082,0.00041516,-0.00443171,0.0003
 6319,0.00185637,-0.00095044,0.00014843,0.00046643,-0.00005502,-0.00025
 747,0.00005002,0.00005690,-0.00017245,0.00026227,0.00026436,-0.0000342
 3,0.00001191,-0.00000333,-0.00058331,-0.00003464,0.00042511,-0.0002586
 1,0.00027592,0.00000662,0.00001261,-0.00003796,0.00001729,-0.00006464,
 -0.00003001,0.00031093,0.00014332,-0.00006430,0.00027911,-0.00012660,-
 0.00050395,0.00146806,-0.01056488,-0.00367056,-0.00034797,0.00045556,0
 .00131911,-0.00008993,-0.00008484,-0.00000030,0.00001183,-0.00000836,0
 .00001099,0.00001738,0.00002377,-0.00002195,0.00013542,0.00010273,-0.0
 0001109,-0.00002695,-0.00002126,0.00000042,-0.00003639,-0.00006207,-0.
 00000965,-0.00003877,-0.00004119,0.00003134,0.00286090,0.00089582,0.00
 002030,-0.00011698,-0.00002214,0.00007534,0.00013315,-0.00005872,-0.00
 026075,0.00036531,0.00028069,0.00000812,0.00171337,-0.00054531,-0.0017
 7611,0.00030421,0.00087956,-0.00012051,0.00001735,-0.00033088,0.000077
 78,-0.00000242,-0.00003711,-0.00002464,-0.00010273,-0.00000243,-0.0000
 0886,-0.00011665,0.00031097,0.00049896,-0.00008061,-0.00004577,-0.0000
 5679,0.00000783,-0.00005417,-0.00005923,-0.00093356,-0.00120484,-0.000
 82702,-0.00028501,-0.00004942,0.00016499,-0.00034827,-0.00006790,0.000
 06808,0.00004139,0.00022078,0.00003072,-0.00001780,-0.00003850,0.00003
 358,-0.00000427,0.00000359,-0.00000514,-0.00009599,-0.00014400,-0.0000
 4933,0.00004453,0.00001537,0.00000535,-0.00004409,0.00008001,0.0000737
 6,0.00015526,0.00005956,0.00002925,-0.00004468,-0.00008825,-0.00006753
 ,-0.00005690,0.00009887,0.00004813,-0.00007452,0.00011590,0.00001869,0
 .00000715,0.00002245,0.00000619,0.00009181,0.00018914,0.00003086,0.000
 05145,0.00001970,0.00001194,0.00000250,-0.00000689,0.00000050,-0.00000
 185,-0.00004571,-0.00002733,0.00000684,-0.00000849,-0.00000318,0.00000
 759,-0.00000863,-0.00000514,0.00000429,-0.00000094,0.00003158,-0.00006
 423,-0.00018174,-0.00000168,0.00005129,-0.00005843,0.00000657,0.000065
 51,-0.00009387,-0.00003928,-0.00000346,0.00004285,0.00000316,-0.000001
 05,-0.00000658,0.00000029,0.00000447,-0.00000772,-0.00001464,-0.000025
 41,-0.00006254,-0.00002623,0.00000790,0.00003767,0.00004461,0.00001281
 ,0.00004556,-0.00001758,-0.00002348,0.00000578,0.00000231,0.00000253,0
 .00004492,0.00000970,-0.00000711,-0.00001756,-0.00000315,0.00001638,-0
 .00001586,-0.00000538,-0.00007096,0.00002085,0.00009392,0.00000942,0.0
 0003169,0.00000651,0.00006603,0.00004948,-0.00002366,0.00030683,-0.000
 08104,-0.00041821,0.00000994,0.00001743,0.00008465,0.00000462,0.000151
 68,0.00017865,-0.00058006,-0.00623908,-0.00164920,0.00013744,0.0001150
 0,-0.00026158,-0.00163267,0.00008641,0.00056122,-0.02930938,0.00022468
 ,0.01442873,0.00019182,0.00004789,0.00087558,-0.00003061,0.00107157,-0
 .00051658,-0.00876895,-0.06307772,0.00659713,0.00861914,0.00096995,-0.
 00101075,0.00919797,0.07595580,0.00089661,-0.00020145,-0.00116395,-0.0
 0333799,-0.00006967,0.00298205,0.00036792,0.00681205,0.00048967,0.0003
 3253,-0.00016523,-0.00053192,0.00011277,0.00049445,0.00041143,-0.00020
 756,0.00014463,0.00043176,0.00009834,-0.00005486,-0.00023345,-0.000653
 16,-0.00165259,-0.00010018,-0.00022143,0.00031824,0.00007083,-0.000044
 71,-0.00022982,0.00003867,-0.00006501,-0.00003633,0.00008745,-0.000344
 85,-0.00070374,-0.00001211,-0.00024501,-0.00066520,0.00045072,-0.00903
 595,-0.00545117,-0.00385600,0.00234581,0.00134890,-0.00164729,-0.00002
 474,0.00007637,-0.00003519,-0.00004598,-0.00007671,-0.00006235,0.00000
 303,0.00001671,0.00002247,-0.00000635,-0.00017286,-0.00014788,0.000045
 57,0.00002010,0.00001023,0.00011859,0.00025865,0.00015561,0.00013328,0
 .00010059,-0.00024766,0.00300659,-0.00050036,-0.00217546,-0.00002033,0
 .00016598,-0.00005152,0.00011688,-0.00010807,0.00005358,-0.00013723,-0
 .00055017,0.00022795,0.00015904,-0.00031227,-0.00020220,-0.00079717,-0
 .00104451,-0.00042904,0.00014763,0.00006129,-0.00008151,-0.00000637,0.
 00005339,0.00004625,0.00020224,0.00006744,-0.00005646,-0.00004424,0.00
 015181,0.00013648,0.00009181,0.00000023,0.00004453,-0.00002557,0.00008
 785,0.00007452,-0.00102164,0.00038213,0.00126864,0.00010669,0.00032398
 ,-0.00037601,0.00000511,0.00011126,-0.00002000,-0.00015923,-0.00016758
 ,-0.00011332,-0.00000315,0.00003691,0.00002286,0.00001416,-0.00000342,
 -0.00001452,-0.00005684,0.00016404,0.00050007,0.00010433,-0.00003106,-
 0.00004106,0.00038968,0.00038347,-0.00050351,-0.00006010,-0.00007339,0
 .00004844,-0.00002365,0.00013264,0.00009862,0.00018718,-0.00022497,-0.
 00003388,0.00019603,-0.00016497,0.00003275,-0.00001355,-0.00005912,0.0
 0001809,0.00002291,-0.00013960,0.00000303,-0.00002491,-0.00002106,-0.0
 0003011,-0.00001460,-0.00000052,-0.00000893,-0.00001578,0.00005372,0.0
 0004822,-0.00000747,0.00002064,0.00000493,-0.00000860,0.00001521,0.000
 00361,-0.00000916,0.00001119,-0.00002644,0.00001574,0.00021244,-0.0000
 9076,-0.00017578,0.00009779,-0.00011345,-0.00017974,0.00027600,0.00004
 804,0.00005109,-0.00011440,-0.00002770,-0.00002328,0.00001072,0.000007
 89,0.00001398,0.00000315,-0.00000381,-0.00008082,0.00013846,0.00008433
 ,0.00001658,-0.00005229,-0.00008512,-0.00003170,-0.00006288,0.00008536
 ,0.00005209,-0.00001573,0.00003085,0.00004236,-0.00016269,-0.00006897,
 0.00006666,-0.00000404,0.00002449,-0.00004823,0.00003630,0.00003686,0.
 00008028,0.00012437,0.00009289,-0.00007881,0.00001527,0.00006963,0.000
 02449,0.00002279,-0.00005010,0.00000114,-0.00020533,-0.00027238,-0.000
 00385,0.00002785,0.00002048,0.00002764,0.00010790,0.00004931,-0.000752
 57,-0.00289749,-0.00055446,0.00042285,0.00006165,0.00000057,-0.0007922
 2,-0.00038351,0.00058263,-0.00758709,0.00397000,0.00338040,0.00033933,
 0.00024868,-0.00005792,-0.00113136,-0.00063687,-0.00014544,0.10537587,
 0.00513212,-0.10802945,0.03159808,0.00045102,-0.01474591,-0.10072616,-
 0.00341261,0.11545129,0.00037768,0.00048162,-0.00012691,-0.00110489,0.
 00009259,0.00046795,-0.00049378,0.00015123,0.00017196,-0.00071063,0.00
 024007,0.00021106,-0.00002146,-0.00023139,0.00001747,0.00003894,-0.000
 12423,0.00012556,0.00022868,-0.00001301,0.00001929,0.00003454,-0.00009
 516,-0.00000028,0.00020365,-0.00027277,0.00027689,0.00000336,0.0000182
 9,-0.00002663,0.00001723,-0.00005333,-0.00003626,0.00022272,0.00017405
 ,-0.00003002,0.00025260,-0.00004298,-0.00028519,-0.00018157,-0.0009708
 6,0.00097903,0.00143753,0.00088188,0.00083238,-0.00004314,-0.00007117,
 0.00000779,0.00001339,0.00000290,0.00001498,0.00000925,0.00001348,-0.0
 0001914,0.00007583,0.00008773,0.00000972,-0.00001879,-0.00001703,0.000
 00069,-0.00003111,-0.00007185,-0.00002450,-0.00002509,-0.00004272,0.00
 003849,-0.00028987,0.00004978,0.00012414,-0.00025046,0.00007656,-0.000
 03279,0.00042946,-0.00009841,-0.00011068,0.00010365,0.00025719,0.00003
 656,0.00065038,-0.00072213,-0.00106326,-0.00005662,0.00023345,0.000039
 78,0.00019041,-0.00020474,0.00002771,-0.00003216,-0.00001072,0.0000011
 9,0.00034310,0.00005107,0.00013177,-0.00004626,0.00017114,0.00020706,-
 0.00001776,0.00001470,-0.00002183,-0.00002345,-0.00000884,-0.00000912,
 -0.00012678,-0.00012142,0.00027309,-0.00036559,0.00000763,0.00007522,-
 0.00051696,-0.00014039,-0.00003465,0.00003742,0.00013034,-0.00000463,-
 0.00001135,-0.00002368,0.00003113,-0.00001174,0.00000530,-0.00001521,-
 0.00020904,-0.00005323,0.00007262,0.00017548,-0.00001890,0.00002824,0.
 00023952,0.00003714,-0.00012378,0.00033319,0.00014913,0.00006673,-0.00
 006423,-0.00013798,-0.00025072,-0.00007610,0.00000836,0.00027013,-0.00
 028301,0.00041974,0.00004621,-0.00017561,0.00000852,0.00034776,0.00020
 635,0.00026493,0.00007881,0.00006479,0.00004775,0.00006810,0.00000906,
 0.00000564,-0.00002159,0.00007056,-0.00019740,-0.00005535,0.00005378,-
 0.00002362,-0.00007238,0.00000766,-0.00001225,-0.00000978,0.00004421,-
 0.00003109,0.00006314,0.00011904,-0.00069663,-0.00032907,0.00025536,-0
 .00014891,-0.00000812,0.00005910,-0.00002362,-0.00018101,0.00002917,-0
 .00000470,0.00002084,-0.00000373,0.00000531,-0.00001029,0.00000175,-0.
 00000902,-0.00001733,-0.00010961,-0.00000917,-0.00010826,0.00004259,0.
 00004761,0.00012895,-0.00004102,0.00019911,-0.00006739,-0.00009947,0.0
 0000624,0.00001496,-0.00002784,-0.00003699,0.00014471,-0.00005409,-0.0
 0000431,-0.00006603,0.00001303,0.00000142,-0.00004625,-0.00006231,0.00
 004297,0.00002852,0.00001111,0.00000347,-0.00002465,0.00002268,0.00000
 084,-0.00000031,-0.00035880,0.00013253,0.00014533,0.00000564,0.0001155
 9,-0.00028946,0.00008066,0.00004610,0.00016775,0.00285936,-0.00138513,
 0.00124495,-0.00115463,0.00072381,-0.00078236,-0.00025324,0.00039894,-
 0.00027578,0.01165310,-0.01136923,0.00933914,-0.00112695,-0.00383998,-
 0.00008357,0.00025459,0.00052916,-0.00000053,-0.17572471,0.14270786,-0
 .09180872,-0.00304361,0.00136781,-0.00029600,-0.01574744,0.02379553,-0
 .01903896,0.18171330,0.00029144,-0.00002687,-0.00012242,-0.00066888,0.
 00030908,0.00046975,0.00020200,0.00088313,0.00004190,-0.00044869,0.000
 14607,0.00013678,-0.00003517,-0.00003555,0.00008212,-0.00013756,0.0000
 4167,0.00003382,0.00020851,-0.00000198,0.00001387,-0.00003552,-0.00017
 485,-0.00000128,0.00000740,0.00000365,0.00022088,-0.00000470,-0.000034
 13,0.00001439,-0.00004032,-0.00004243,0.00000982,0.00012624,-0.0000387
 6,-0.00005094,0.00013559,-0.00021382,-0.00014168,-0.00126030,-0.000712
 14,0.00045337,0.00094717,-0.00042081,-0.00005311,-0.00006335,-0.000045
 95,0.00001158,-0.00000547,-0.00000982,-0.00000967,0.00000276,-0.000005
 36,0.00000434,0.00010318,0.00002729,-0.00002860,-0.00001051,-0.0000087
 8,0.00000032,-0.00000904,0.00000595,0.00001246,0.00000825,-0.00000618,
 -0.00001596,0.00009766,-0.00004159,-0.00005192,0.00013233,-0.00029554,
 0.00043515,0.00065172,0.00045732,-0.00065089,-0.00100833,-0.00095802,-
 0.00010255,-0.00019030,0.00010476,-0.00039701,0.00046517,0.00079163,-0
 .00028643,-0.00039352,-0.00007601,-0.00003979,-0.00011045,0.00005600,0
 .00017660,0.00061373,0.00007391,-0.00082849,0.00009776,-0.00004135,0.0
 0009017,-0.00005197,-0.00012101,0.00002218,0.00004908,-0.00006270,-0.0
 0005608,-0.00030026,-0.00157271,-0.00139656,0.00009463,0.00052190,0.00
 041888,-0.00026223,-0.00015649,0.00016682,0.00012150,0.00017176,0.0000
 3035,-0.00001338,-0.00002714,-0.00000311,-0.00000437,-0.00001775,0.000
 01394,-0.00001790,-0.00017253,-0.00018438,-0.00003762,0.00006665,-0.00
 000420,-0.00009192,-0.00007639,0.00018766,0.00021905,-0.00041792,-0.00
 015388,-0.00008258,-0.00021504,-0.00003066,-0.00017466,0.00036634,-0.0
 0008497,-0.00002839,0.00009162,0.00008162,0.00037136,0.00014816,-0.000
 53916,0.00007661,0.00010719,-0.00000434,0.00016453,0.00011418,-0.00002
 970,-0.00000970,-0.00002942,0.00003401,-0.00000552,0.00002745,-0.00003
 827,-0.00009405,-0.00002061,0.00009409,-0.00000718,-0.00001680,0.00000
 623,0.00001468,0.00007805,-0.00005133,-0.00061835,0.00016251,0.0004877
 1,-0.00005786,-0.00010216,0.00001955,0.00014779,-0.00046698,-0.0000377
 9,-0.00007209,0.00013076,-0.00001465,0.00000746,-0.00002680,0.00002086
 ,0.00000216,-0.00000882,-0.00002724,0.00002073,-0.00019243,0.00000141,
 0.00001313,0.00009752,0.00005232,0.00008290,-0.00001109,0.00006391,-0.
 00000934,0.00002331,0.00000723,-0.00001628,0.00028587,0.00012484,-0.00
 005103,0.00000242,-0.00003225,0.00002203,-0.00004647,-0.00003206,-0.00
 011794,0.00001213,-0.00004489,0.00007657,-0.00000088,-0.00005521,0.000
 02817,-0.00002825,0.00001576,-0.00002628,0.00007973,0.00028617,0.00003
 938,-0.00000759,-0.00019601,-0.00008171,-0.00001547,0.00010883,0.00051
 325,0.00194292,0.00035617,-0.00124933,0.00010012,0.00018416,0.00040728
 ,0.00043228,-0.00055910,0.01835881,-0.02418529,0.01451832,-0.00344940,
 -0.00418867,-0.00195934,0.00055484,0.00067988,-0.00058751,0.14366225,-
 0.22964681,0.11022740,-0.00569121,0.00863748,-0.00073758,0.00077313,0.
 00155178,-0.00192181,-0.15286755,0.24629173,0.00027836,0.00021512,-0.0
 0032408,-0.00079796,0.00017021,0.00052044,0.00018340,-0.00005686,0.000
 04921,0.00076184,-0.00021813,0.00006505,-0.00000478,0.00024312,0.00003
 802,0.00001563,-0.00010770,0.00025289,0.00007805,-0.00001200,-0.000042
 17,-0.00002300,0.00005504,-0.00008822,-0.00011029,0.00026433,-0.000040
 15,0.00000480,0.00001607,-0.00002434,-0.00004220,0.00002089,0.00004931
 ,-0.00019210,-0.00017737,-0.00009982,-0.00027375,-0.00003311,-0.000060
 43,0.00032809,0.00061095,-0.00089554,0.00120833,-0.00016287,-0.0006748
 9,-0.00003934,0.00001726,-0.00000692,-0.00001710,-0.00003355,-0.000024
 43,0.00000437,0.00001764,-0.00000191,0.00002252,-0.00003149,-0.0000617
 4,0.00000572,-0.00000114,0.00001138,0.00000906,0.00006205,0.00007703,0
 .00003239,0.00002684,-0.00001269,0.00034227,-0.00008339,0.00006616,0.0
 0009214,-0.00007316,0.00022299,0.00065022,0.00032315,-0.00041701,-0.00
 128754,-0.00163557,0.00075477,-0.00051868,0.00001742,-0.00012660,0.000
 11967,-0.00011403,-0.00047314,-0.00027619,-0.00006715,-0.00008651,-0.0
 0009359,0.00010916,0.00018735,0.00095373,-0.00010587,-0.00030145,0.000
 13517,-0.00001689,0.00002399,0.00006103,0.00001920,0.00005720,0.000035
 31,-0.00001324,-0.00002987,0.00028554,-0.00144366,-0.00071250,0.000100
 42,0.00073520,-0.00074562,-0.00020004,0.00003639,0.00005183,-0.0000095
 9,0.00000215,-0.00002537,-0.00000655,0.00000560,0.00000452,0.00000662,
 -0.00001008,0.00000383,0.00000981,-0.00000116,0.00003485,0.00000116,0.
 00002931,-0.00003156,0.00007925,-0.00009324,-0.00013360,0.00013067,-0.
 00004091,0.00018547,-0.00008791,-0.00001825,-0.00000599,0.00011870,-0.
 00005451,0.00004351,0.00018458,-0.00007761,0.00005197,0.00000749,-0.00
 015471,0.00015822,0.00021252,-0.00018508,0.00006696,0.00005718,0.00010
 044,-0.00005552,-0.00002611,-0.00000305,-0.00000585,-0.00000555,0.0000
 3430,0.00008377,0.00000777,0.00002002,-0.00004201,-0.00002558,0.000005
 15,0.00002249,-0.00000361,0.00007339,-0.00013414,0.00000644,0.00003809
 ,-0.00052690,-0.00015724,0.00004052,-0.00017516,-0.00016534,0.00000580
 ,-0.00000116,0.00001765,-0.00002852,-0.00003356,-0.00001378,-0.0000030
 6,0.00001312,0.00000681,0.00000260,-0.00001820,-0.00003862,0.00000339,
 0.00006775,0.00002934,0.00001031,-0.00004781,-0.00015911,0.00014772,0.
 00019085,-0.00000656,0.00000624,0.00006190,0.00008205,0.00006808,0.000
 04621,0.00002031,-0.00000143,-0.00001633,-0.00002934,0.00000170,0.0000
 0855,0.00005974,-0.00017293,-0.00004806,-0.00001685,0.00000383,0.00001
 098,-0.00007060,-0.00002021,0.00002477,-0.00005866,0.00047879,-0.00004
 205,-0.00001502,-0.00017217,0.00000254,0.00004705,-0.00014542,-0.00040
 599,0.00032890,0.00024780,-0.00008785,0.00004813,0.00031720,0.00009772
 ,0.00000334,-0.00020666,0.00002710,0.00451781,-0.00328624,0.00271982,-
 0.00032863,-0.00135320,0.00057784,0.00055706,-0.00092233,0.00007725,-0
 .09328870,0.11068301,-0.12589873,-0.02120209,0.02772520,-0.00991346,0.
 00793265,-0.01349786,0.00869902,0.09941092,-0.11817489,0.12719065\\-0.
 00001615,-0.00000211,-0.00000645,0.00001429,0.00000367,-0.00001557,-0.
 00000003,0.00000561,-0.00000341,-0.00000525,0.00000434,0.00000574,-0.0
 0000720,-0.00000565,0.00000261,0.00000160,0.00000398,-0.00001037,-0.00
 000487,0.00000138,-0.00000883,-0.00000977,0.00000044,-0.00000916,0.000
 00139,-0.00000020,-0.00000280,0.00000109,0.00000149,-0.00000075,0.0000
 0292,0.00000053,-0.00000052,-0.00000911,0.00001825,-0.00000505,0.00001
 462,0.00000269,-0.00000025,0.00000813,0.00001012,-0.00001930,0.0000009
 0,0.00000290,0.00000468,-0.00001235,-0.00000054,0.00000032,0.00000214,
 -0.00000045,-0.00000940,-0.00000115,-0.00000192,-0.00000154,0.,0.00001
 419,0.00000137,-0.00000685,-0.00001080,-0.00000872,-0.00000820,-0.0000
 0686,-0.00001316,-0.00001973,0.00000047,-0.00000680,-0.00000484,0.0000
 0354,0.00000403,0.00000910,-0.00000402,-0.00001492,0.00000661,0.000003
 05,-0.00000132,0.00000094,0.00000843,0.00000625,-0.00001069,-0.0000011
 0,0.00000510,0.00000948,0.00001714,0.00000486,0.00000948,-0.00000605,0
 .00000141,-0.00000001,-0.00000825,0.00000409,0.00000390,0.00000310,0.0
 0000205,-0.00000417,-0.00000319,-0.00000102,-0.00000364,-0.00000125,-0
 .00000782,-0.00000103,-0.00000321,-0.00000346,-0.00000695,-0.00000457,
 -0.00000722,-0.00001527,-0.00000959,0.00000449,0.00000274,-0.00000573,
 -0.00000057,-0.00000201,-0.00000519,-0.00000528,0.00001095,-0.00000426
 ,-0.00000194,0.00000371,-0.00000046,-0.00000649,0.00002186,0.00001421,
 0.00001308,0.00000023,-0.00000662,-0.00001402,0.00000218,0.00000005,-0
 .00000278,0.00001133,0.00000148,0.00000641,0.00002254,-0.00000754,0.00
 002151,0.00000863,-0.00001629,-0.00001265,0.00000519,0.00000744,0.0000
 0953,0.00000141,-0.00000838,0.00001024,-0.00001279,-0.00000109,0.00001
 129,-0.00000592,0.00000147,-0.00000227,0.00000616,0.00000258,0.0000047
 0,-0.00000360,0.00000497,0.00000773,0.00000404,-0.00000694,0.00000354,
 0.00000634,-0.00000249,0.00000470,-0.00000194,0.00000324,0.00000026,-0
 .00001863,0.00001537,-0.00001610,-0.00001355,-0.00001867,0.00000694,-0
 .00000623,0.00001841,0.00000268,0.00000102,0.00001747,0.00000332,0.000
 01141,-0.00000433,0.00000428,0.00000030,-0.00000734,0.00000009,-0.0000
 1084,-0.00001421,-0.00000607,0.00001594,0.00000123,0.00001132,0.000007
 04,-0.00000408,0.00001144,0.00000659,0.00001189,0.00000706,0.00000219,
 -0.00001233,0.00000285,0.00000355,-0.00000015,0.00000786,0.00000841,0.
 00000150,0.00000477,-0.00000471,0.00000024,0.00000497,0.00000387,-0.00
 000103,-0.00000320,0.00000393,0.00000141,0.00000158,0.00000467,-0.0000
 0094,-0.00000247,-0.00000143,0.00000161,-0.00000221,-0.00000016,-0.000
 00483,0.00000032,0.00000154,0.00000237,0.00000392,0.00000077,-0.000003
 19,0.00000254,0.00000020,0.00000277,0.00000177,-0.00000046,-0.00000359
 ,-0.00000474,-0.00000408,0.00000275,-0.00000390,-0.00000249,0.00000201
 ,0.00000320,0.00003556,0.00000065,-0.00004433,-0.00000137,-0.00002165,
 0.00001600,-0.00003569,0.00002167,0.00000541,-0.00002773,-0.00001103,0
 .00004456\\\@


 WHEN IT COMES TO CASH FLOW, IT SEEMS LIKE THE TIDE IS ALWAYS GOING OUT.
 Job cpu time:      18 days  7 hours 38 minutes 26.2 seconds.
 File lengths (MBytes):  RWF=  17281 Int=      0 D2E=      0 Chk=    104 Scr=      1
 Normal termination of Gaussian 09 at Fri Apr 29 12:02:11 2016.
