 Entering Gaussian System, Link 0=g09
 Initial command:
 /share/apps//g09/l1.exe "/scratch/Gau-25039.inp" -scrdir="/scratch/"
 Entering Link 1 = /share/apps//g09/l1.exe PID=     25040.
  
 Copyright (c) 1988,1990,1992,1993,1995,1998,2003,2009,2013,
            Gaussian, Inc.  All Rights Reserved.
  
 This is part of the Gaussian(R) 09 program.  It is based on
 the Gaussian(R) 03 system (copyright 2003, Gaussian, Inc.),
 the Gaussian(R) 98 system (copyright 1998, Gaussian, Inc.),
 the Gaussian(R) 94 system (copyright 1995, Gaussian, Inc.),
 the Gaussian 92(TM) system (copyright 1992, Gaussian, Inc.),
 the Gaussian 90(TM) system (copyright 1990, Gaussian, Inc.),
 the Gaussian 88(TM) system (copyright 1988, Gaussian, Inc.),
 the Gaussian 86(TM) system (copyright 1986, Carnegie Mellon
 University), and the Gaussian 82(TM) system (copyright 1983,
 Carnegie Mellon University). Gaussian is a federally registered
 trademark of Gaussian, Inc.
  
 This software contains proprietary and confidential information,
 including trade secrets, belonging to Gaussian, Inc.
  
 This software is provided under written license and may be
 used, copied, transmitted, or stored only in accord with that
 written license.
  
 The following legend is applicable only to US Government
 contracts under FAR:
  
                    RESTRICTED RIGHTS LEGEND
  
 Use, reproduction and disclosure by the US Government is
 subject to restrictions as set forth in subparagraphs (a)
 and (c) of the Commercial Computer Software - Restricted
 Rights clause in FAR 52.227-19.
  
 Gaussian, Inc.
 340 Quinnipiac St., Bldg. 40, Wallingford CT 06492
  
  
 ---------------------------------------------------------------
 Warning -- This program may not be used in any manner that
 competes with the business of Gaussian, Inc. or will provide
 assistance to any competitor of Gaussian, Inc.  The licensee
 of this program is prohibited from giving any competitor of
 Gaussian, Inc. access to this program.  By using this program,
 the user acknowledges that Gaussian, Inc. is engaged in the
 business of creating and licensing software in the field of
 computational chemistry and represents and warrants to the
 licensee that it is not a competitor of Gaussian, Inc. and that
 it will not use this program in any manner prohibited above.
 ---------------------------------------------------------------
  

 Cite this work as:
 Gaussian 09, Revision D.01,
 M. J. Frisch, G. W. Trucks, H. B. Schlegel, G. E. Scuseria, 
 M. A. Robb, J. R. Cheeseman, G. Scalmani, V. Barone, B. Mennucci, 
 G. A. Petersson, H. Nakatsuji, M. Caricato, X. Li, H. P. Hratchian, 
 A. F. Izmaylov, J. Bloino, G. Zheng, J. L. Sonnenberg, M. Hada, 
 M. Ehara, K. Toyota, R. Fukuda, J. Hasegawa, M. Ishida, T. Nakajima, 
 Y. Honda, O. Kitao, H. Nakai, T. Vreven, J. A. Montgomery, Jr., 
 J. E. Peralta, F. Ogliaro, M. Bearpark, J. J. Heyd, E. Brothers, 
 K. N. Kudin, V. N. Staroverov, T. Keith, R. Kobayashi, J. Normand, 
 K. Raghavachari, A. Rendell, J. C. Burant, S. S. Iyengar, J. Tomasi, 
 M. Cossi, N. Rega, J. M. Millam, M. Klene, J. E. Knox, J. B. Cross, 
 V. Bakken, C. Adamo, J. Jaramillo, R. Gomperts, R. E. Stratmann, 
 O. Yazyev, A. J. Austin, R. Cammi, C. Pomelli, J. W. Ochterski, 
 R. L. Martin, K. Morokuma, V. G. Zakrzewski, G. A. Voth, 
 P. Salvador, J. J. Dannenberg, S. Dapprich, A. D. Daniels, 
 O. Farkas, J. B. Foresman, J. V. Ortiz, J. Cioslowski, 
 and D. J. Fox, Gaussian, Inc., Wallingford CT, 2013.
 
 ******************************************
 Gaussian 09:  EM64L-G09RevD.01 24-Apr-2013
                22-May-2016 
 ******************************************
 %nproc=20
 Will use up to   20 processors via shared memory.
 %mem=80GB
 %chk=Tri_A154_of.chk
 ----------------------------------------------------------------------
 #P PBE1PBE/6-311+G(d,p) opt=ModRedundant optcyc=999 freq EmpiricalDisp
 ersion=GD3
 ----------------------------------------------------------------------
 1/6=999,14=-1,18=120,19=15,26=3,38=1/1,3;
 2/9=110,12=2,17=6,18=5,40=1/2;
 3/5=4,6=6,7=111,11=2,16=1,25=1,30=1,71=1,74=-13,124=31/1,2,3;
 4//1;
 5/5=2,38=5/2;
 6/7=2,8=2,9=2,10=2,28=1/1;
 7//1,2,3,16;
 1/6=999,14=-1,18=20,19=15,26=3/3(2);
 2/9=110/2;
 99//99;
 2/9=110/2;
 3/5=4,6=6,7=111,11=2,16=1,25=1,30=1,71=1,74=-13,124=31/1,2,3;
 4/5=5,16=3,69=1/1;
 5/5=2,38=5/2;
 7//1,2,3,16;
 1/6=999,14=-1,18=20,19=15,26=3/3(-5);
 2/9=110/2;
 6/7=2,8=2,9=2,10=2,19=2,28=1/1;
 99/9=1/99;
 Leave Link    1 at Sun May 22 17:49:20 2016, MaxMem= 10737418240 cpu:         1.9
 (Enter /share/apps//g09/l101.exe)
 -------
 disacch
 -------
 Symbolic Z-matrix:
 Charge =  1 Multiplicity = 1
 O                     4.97022   0.73673   1.59292 
 C                     5.20819  -0.67464   1.63508 
 C                     6.323    -1.08283   0.66422 
 C                     7.59828  -0.29502   0.94975 
 C                     7.32518   1.20956   0.96668 
 C                     6.1262    1.53983   1.86946 
 C                     5.67664   2.99691   1.75266 
 O                     5.14728   3.31775   0.45541 
 O                     7.07468   1.68397  -0.36806 
 O                     8.59027  -0.51508  -0.05413 
 O                     6.65098  -2.45579   0.79401 
 O                     4.00715  -1.2546    1.20273 
 C                     3.3456   -2.22129   2.02991 
 C                     3.04786  -3.43833   1.15201 
 O                     4.27039  -4.01226   0.68145 
 C                     2.17763  -2.98847  -0.02032 
 C                     0.87796  -2.34552   0.50108 
 O                     1.17415  -1.28896   1.42272 
 C                     2.00094  -1.64953   2.52779 
 C                     2.20592  -0.38091   3.35253 
 O                     0.9392    0.30373   3.45609 
 O                     0.07285  -1.79003  -0.51057 
 C                     0.64753  -0.68406  -1.22806 
 C                     0.75569  -1.05119  -2.712 
 C                     1.18349   0.15341  -3.55171 
 C                     0.28044   1.35638  -3.27524 
 O                     0.27816   1.62806  -1.85789 
 C                    -0.28525   0.54055  -1.09903 
 C                    -0.57615   1.0463    0.30908 
 O                     0.57058   1.57505   0.99459 
 O                     0.82182   2.45769  -3.92706 
 C                    -0.04995   3.62107  -3.96162 
 C                     0.80258   4.88116  -3.86278 
 C                     1.77225   4.8896   -2.67225 
 C                     1.10883   4.84192  -1.28596 
 C                     2.08758   4.46756  -0.17653 
 N                     2.5041    3.01998  -0.26436 
 O                     1.13209  -0.27173  -4.91102 
 O                     1.69403  -2.12123  -2.8883 
 O                     1.92045  -4.12263  -0.83537 
 H                     5.45708  -0.99921   2.66843 
 H                     5.96026  -0.84017  -0.35299 
 H                     7.9841   -0.60092   1.94219 
 H                     8.21194   1.72787   1.37738 
 H                     6.45995   1.37914   2.91627 
 H                     6.52571   3.65909   1.99286 
 H                     4.87555   3.19282   2.47949 
 H                     5.7923    2.9359   -0.18762 
 H                     7.71702   1.21953  -0.94209 
 H                     8.63296  -1.47848  -0.2038 
 H                     5.84673  -2.99646   0.60817 
 H                     3.98692  -2.5136    2.87908 
 H                     2.50248  -4.18816   1.75728 
 H                     4.0164   -4.58798  -0.06787 
 H                     2.7509   -2.23394  -0.58204 
 H                     0.23814  -3.11492   0.97243 
 H                     1.48883  -2.41602   3.14416 
 H                     2.57958  -0.6632    4.3499 
 H                     2.94406   0.26967   2.8571 
 H                     0.98723   0.92538   4.20191 
 H                     1.63506  -0.42285  -0.81551 
 H                    -0.24412  -1.38312  -3.05344 
 H                     2.21461   0.44133  -3.26553 
 H                    -0.76136   1.15383  -3.60367 
 H                    -1.27262   0.26421  -1.52348 
 H                    -1.32686   1.84843   0.22252 
 H                    -1.01041   0.2226    0.89109 
 H                     0.70105   1.05175   1.82542 
 H                    -0.76283   3.55768  -3.12579 
 H                    -0.61908   3.60714  -4.90523 
 H                     0.11923   5.74498  -3.8162 
 H                     1.3839    4.99691  -4.79034 
 H                     2.40875   5.78598  -2.73529 
 H                     2.45335   4.03176  -2.80552 
 H                     0.27346   4.12568  -1.26929 
 H                     0.68014   5.82616  -1.04275 
 H                     3.00527   5.0698   -0.22616 
 H                     1.64141   4.60397   0.81699 
 H                     2.46169   2.69738  -1.24062 
 H                     1.82237   2.40059   0.26252 
 H                     3.49538   2.91344   0.08306 
 H                     1.48378   0.44704  -5.4661 
 H                     1.79844  -2.22997  -3.85277 
 H                     1.70101  -3.7581   -1.71952 
 
 The following ModRedundant input section has been read:
 
 NAtoms=     84 NQM=       84 NQMF=       0 NMMI=      0 NMMIF=      0
                NMic=       0 NMicF=      0.
                    Isotopes and Nuclear Properties:
 (Nuclear quadrupole moments (NQMom) in fm**2, nuclear magnetic moments (NMagM)
  in nuclear magnetons)

  Atom         1           2           3           4           5           6           7           8           9          10
 IAtWgt=          16          12          12          12          12          12          12          16          16          16
 AtmWgt=  15.9949146  12.0000000  12.0000000  12.0000000  12.0000000  12.0000000  12.0000000  15.9949146  15.9949146  15.9949146
 NucSpn=           0           0           0           0           0           0           0           0           0           0
 AtZEff=   0.0000000   0.0000000   0.0000000   0.0000000   0.0000000   0.0000000   0.0000000   0.0000000   0.0000000   0.0000000
 NQMom=    0.0000000   0.0000000   0.0000000   0.0000000   0.0000000   0.0000000   0.0000000   0.0000000   0.0000000   0.0000000
 NMagM=    0.0000000   0.0000000   0.0000000   0.0000000   0.0000000   0.0000000   0.0000000   0.0000000   0.0000000   0.0000000
 AtZNuc=   8.0000000   6.0000000   6.0000000   6.0000000   6.0000000   6.0000000   6.0000000   8.0000000   8.0000000   8.0000000

  Atom        11          12          13          14          15          16          17          18          19          20
 IAtWgt=          16          16          12          12          16          12          12          16          12          12
 AtmWgt=  15.9949146  15.9949146  12.0000000  12.0000000  15.9949146  12.0000000  12.0000000  15.9949146  12.0000000  12.0000000
 NucSpn=           0           0           0           0           0           0           0           0           0           0
 AtZEff=   0.0000000   0.0000000   0.0000000   0.0000000   0.0000000   0.0000000   0.0000000   0.0000000   0.0000000   0.0000000
 NQMom=    0.0000000   0.0000000   0.0000000   0.0000000   0.0000000   0.0000000   0.0000000   0.0000000   0.0000000   0.0000000
 NMagM=    0.0000000   0.0000000   0.0000000   0.0000000   0.0000000   0.0000000   0.0000000   0.0000000   0.0000000   0.0000000
 AtZNuc=   8.0000000   8.0000000   6.0000000   6.0000000   8.0000000   6.0000000   6.0000000   8.0000000   6.0000000   6.0000000

  Atom        21          22          23          24          25          26          27          28          29          30
 IAtWgt=          16          16          12          12          12          12          16          12          12          16
 AtmWgt=  15.9949146  15.9949146  12.0000000  12.0000000  12.0000000  12.0000000  15.9949146  12.0000000  12.0000000  15.9949146
 NucSpn=           0           0           0           0           0           0           0           0           0           0
 AtZEff=   0.0000000   0.0000000   0.0000000   0.0000000   0.0000000   0.0000000   0.0000000   0.0000000   0.0000000   0.0000000
 NQMom=    0.0000000   0.0000000   0.0000000   0.0000000   0.0000000   0.0000000   0.0000000   0.0000000   0.0000000   0.0000000
 NMagM=    0.0000000   0.0000000   0.0000000   0.0000000   0.0000000   0.0000000   0.0000000   0.0000000   0.0000000   0.0000000
 AtZNuc=   8.0000000   8.0000000   6.0000000   6.0000000   6.0000000   6.0000000   8.0000000   6.0000000   6.0000000   8.0000000

  Atom        31          32          33          34          35          36          37          38          39          40
 IAtWgt=          16          12          12          12          12          12          14          16          16          16
 AtmWgt=  15.9949146  12.0000000  12.0000000  12.0000000  12.0000000  12.0000000  14.0030740  15.9949146  15.9949146  15.9949146
 NucSpn=           0           0           0           0           0           0           2           0           0           0
 AtZEff=   0.0000000   0.0000000   0.0000000   0.0000000   0.0000000   0.0000000   0.0000000   0.0000000   0.0000000   0.0000000
 NQMom=    0.0000000   0.0000000   0.0000000   0.0000000   0.0000000   0.0000000   2.0440000   0.0000000   0.0000000   0.0000000
 NMagM=    0.0000000   0.0000000   0.0000000   0.0000000   0.0000000   0.0000000   0.4037610   0.0000000   0.0000000   0.0000000
 AtZNuc=   8.0000000   6.0000000   6.0000000   6.0000000   6.0000000   6.0000000   7.0000000   8.0000000   8.0000000   8.0000000

  Atom        41          42          43          44          45          46          47          48          49          50
 IAtWgt=           1           1           1           1           1           1           1           1           1           1
 AtmWgt=   1.0078250   1.0078250   1.0078250   1.0078250   1.0078250   1.0078250   1.0078250   1.0078250   1.0078250   1.0078250
 NucSpn=           1           1           1           1           1           1           1           1           1           1
 AtZEff=   0.0000000   0.0000000   0.0000000   0.0000000   0.0000000   0.0000000   0.0000000   0.0000000   0.0000000   0.0000000
 NQMom=    0.0000000   0.0000000   0.0000000   0.0000000   0.0000000   0.0000000   0.0000000   0.0000000   0.0000000   0.0000000
 NMagM=    2.7928460   2.7928460   2.7928460   2.7928460   2.7928460   2.7928460   2.7928460   2.7928460   2.7928460   2.7928460
 AtZNuc=   1.0000000   1.0000000   1.0000000   1.0000000   1.0000000   1.0000000   1.0000000   1.0000000   1.0000000   1.0000000

  Atom        51          52          53          54          55          56          57          58          59          60
 IAtWgt=           1           1           1           1           1           1           1           1           1           1
 AtmWgt=   1.0078250   1.0078250   1.0078250   1.0078250   1.0078250   1.0078250   1.0078250   1.0078250   1.0078250   1.0078250
 NucSpn=           1           1           1           1           1           1           1           1           1           1
 AtZEff=   0.0000000   0.0000000   0.0000000   0.0000000   0.0000000   0.0000000   0.0000000   0.0000000   0.0000000   0.0000000
 NQMom=    0.0000000   0.0000000   0.0000000   0.0000000   0.0000000   0.0000000   0.0000000   0.0000000   0.0000000   0.0000000
 NMagM=    2.7928460   2.7928460   2.7928460   2.7928460   2.7928460   2.7928460   2.7928460   2.7928460   2.7928460   2.7928460
 AtZNuc=   1.0000000   1.0000000   1.0000000   1.0000000   1.0000000   1.0000000   1.0000000   1.0000000   1.0000000   1.0000000

  Atom        61          62          63          64          65          66          67          68          69          70
 IAtWgt=           1           1           1           1           1           1           1           1           1           1
 AtmWgt=   1.0078250   1.0078250   1.0078250   1.0078250   1.0078250   1.0078250   1.0078250   1.0078250   1.0078250   1.0078250
 NucSpn=           1           1           1           1           1           1           1           1           1           1
 AtZEff=   0.0000000   0.0000000   0.0000000   0.0000000   0.0000000   0.0000000   0.0000000   0.0000000   0.0000000   0.0000000
 NQMom=    0.0000000   0.0000000   0.0000000   0.0000000   0.0000000   0.0000000   0.0000000   0.0000000   0.0000000   0.0000000
 NMagM=    2.7928460   2.7928460   2.7928460   2.7928460   2.7928460   2.7928460   2.7928460   2.7928460   2.7928460   2.7928460
 AtZNuc=   1.0000000   1.0000000   1.0000000   1.0000000   1.0000000   1.0000000   1.0000000   1.0000000   1.0000000   1.0000000

  Atom        71          72          73          74          75          76          77          78          79          80
 IAtWgt=           1           1           1           1           1           1           1           1           1           1
 AtmWgt=   1.0078250   1.0078250   1.0078250   1.0078250   1.0078250   1.0078250   1.0078250   1.0078250   1.0078250   1.0078250
 NucSpn=           1           1           1           1           1           1           1           1           1           1
 AtZEff=   0.0000000   0.0000000   0.0000000   0.0000000   0.0000000   0.0000000   0.0000000   0.0000000   0.0000000   0.0000000
 NQMom=    0.0000000   0.0000000   0.0000000   0.0000000   0.0000000   0.0000000   0.0000000   0.0000000   0.0000000   0.0000000
 NMagM=    2.7928460   2.7928460   2.7928460   2.7928460   2.7928460   2.7928460   2.7928460   2.7928460   2.7928460   2.7928460
 AtZNuc=   1.0000000   1.0000000   1.0000000   1.0000000   1.0000000   1.0000000   1.0000000   1.0000000   1.0000000   1.0000000

  Atom        81          82          83          84
 IAtWgt=           1           1           1           1
 AtmWgt=   1.0078250   1.0078250   1.0078250   1.0078250
 NucSpn=           1           1           1           1
 AtZEff=   0.0000000   0.0000000   0.0000000   0.0000000
 NQMom=    0.0000000   0.0000000   0.0000000   0.0000000
 NMagM=    2.7928460   2.7928460   2.7928460   2.7928460
 AtZNuc=   1.0000000   1.0000000   1.0000000   1.0000000
 Leave Link  101 at Sun May 22 17:49:21 2016, MaxMem= 10737418240 cpu:         6.1
 (Enter /share/apps//g09/l103.exe)

 GradGradGradGradGradGradGradGradGradGradGradGradGradGradGradGradGradGrad
 Berny optimization.
 Initialization pass.
                           ----------------------------
                           !    Initial Parameters    !
                           ! (Angstroms and Degrees)  !
 --------------------------                            --------------------------
 ! Name  Definition              Value          Derivative Info.                !
 --------------------------------------------------------------------------------
 ! R1    R(1,2)                  1.4319         estimate D2E/DX2                !
 ! R2    R(1,6)                  1.4345         estimate D2E/DX2                !
 ! R3    R(2,3)                  1.5336         estimate D2E/DX2                !
 ! R4    R(2,12)                 1.4021         estimate D2E/DX2                !
 ! R5    R(2,41)                 1.1114         estimate D2E/DX2                !
 ! R6    R(3,4)                  1.5259         estimate D2E/DX2                !
 ! R7    R(3,11)                 1.4175         estimate D2E/DX2                !
 ! R8    R(3,42)                 1.1069         estimate D2E/DX2                !
 ! R9    R(4,5)                  1.5293         estimate D2E/DX2                !
 ! R10   R(4,10)                 1.4284         estimate D2E/DX2                !
 ! R11   R(4,43)                 1.1079         estimate D2E/DX2                !
 ! R12   R(5,6)                  1.5368         estimate D2E/DX2                !
 ! R13   R(5,9)                  1.4385         estimate D2E/DX2                !
 ! R14   R(5,44)                 1.1062         estimate D2E/DX2                !
 ! R15   R(6,7)                  1.5293         estimate D2E/DX2                !
 ! R16   R(6,45)                 1.1104         estimate D2E/DX2                !
 ! R17   R(7,8)                  1.4374         estimate D2E/DX2                !
 ! R18   R(7,46)                 1.1032         estimate D2E/DX2                !
 ! R19   R(7,47)                 1.0993         estimate D2E/DX2                !
 ! R20   R(8,48)                 0.9876         estimate D2E/DX2                !
 ! R21   R(9,49)                 0.9787         estimate D2E/DX2                !
 ! R22   R(10,50)                0.9759         estimate D2E/DX2                !
 ! R23   R(11,51)                0.9868         estimate D2E/DX2                !
 ! R24   R(12,13)                1.434          estimate D2E/DX2                !
 ! R25   R(13,14)                1.5299         estimate D2E/DX2                !
 ! R26   R(13,19)                1.5437         estimate D2E/DX2                !
 ! R27   R(13,52)                1.1036         estimate D2E/DX2                !
 ! R28   R(14,15)                1.4302         estimate D2E/DX2                !
 ! R29   R(14,16)                1.5278         estimate D2E/DX2                !
 ! R30   R(14,53)                1.1073         estimate D2E/DX2                !
 ! R31   R(15,54)                0.9785         estimate D2E/DX2                !
 ! R32   R(16,17)                1.5409         estimate D2E/DX2                !
 ! R33   R(16,40)                1.4201         estimate D2E/DX2                !
 ! R34   R(16,55)                1.1016         estimate D2E/DX2                !
 ! R35   R(17,18)                1.433          estimate D2E/DX2                !
 ! R36   R(17,22)                1.4072         estimate D2E/DX2                !
 ! R37   R(17,56)                1.1061         estimate D2E/DX2                !
 ! R38   R(18,19)                1.4265         estimate D2E/DX2                !
 ! R39   R(19,20)                1.527          estimate D2E/DX2                !
 ! R40   R(19,57)                1.1089         estimate D2E/DX2                !
 ! R41   R(20,21)                1.4436         estimate D2E/DX2                !
 ! R42   R(20,58)                1.1018         estimate D2E/DX2                !
 ! R43   R(20,59)                1.1016         estimate D2E/DX2                !
 ! R44   R(21,60)                0.9721         estimate D2E/DX2                !
 ! R45   R(22,23)                1.4381         estimate D2E/DX2                !
 ! R46   R(23,24)                1.5325         estimate D2E/DX2                !
 ! R47   R(23,28)                1.5448         estimate D2E/DX2                !
 ! R48   R(23,61)                1.1017         estimate D2E/DX2                !
 ! R49   R(24,25)                1.5294         estimate D2E/DX2                !
 ! R50   R(24,39)                1.4341         estimate D2E/DX2                !
 ! R51   R(24,62)                1.1074         estimate D2E/DX2                !
 ! R52   R(25,26)                1.5294         estimate D2E/DX2                !
 ! R53   R(25,38)                1.4252         estimate D2E/DX2                !
 ! R54   R(25,63)                1.1082         estimate D2E/DX2                !
 ! R55   R(26,27)                1.4432         estimate D2E/DX2                !
 ! R56   R(26,31)                1.3895         estimate D2E/DX2                !
 ! R57   R(26,64)                1.111          estimate D2E/DX2                !
 ! R58   R(27,28)                1.4408         estimate D2E/DX2                !
 ! R59   R(28,29)                1.5242         estimate D2E/DX2                !
 ! R60   R(28,65)                1.1097         estimate D2E/DX2                !
 ! R61   R(29,30)                1.4368         estimate D2E/DX2                !
 ! R62   R(29,66)                1.102          estimate D2E/DX2                !
 ! R63   R(29,67)                1.0981         estimate D2E/DX2                !
 ! R64   R(30,68)                0.9905         estimate D2E/DX2                !
 ! R65   R(31,32)                1.4542         estimate D2E/DX2                !
 ! R66   R(32,33)                1.5246         estimate D2E/DX2                !
 ! R67   R(32,69)                1.1004         estimate D2E/DX2                !
 ! R68   R(32,70)                1.102          estimate D2E/DX2                !
 ! R69   R(33,34)                1.5355         estimate D2E/DX2                !
 ! R70   R(33,71)                1.1024         estimate D2E/DX2                !
 ! R71   R(33,72)                1.1008         estimate D2E/DX2                !
 ! R72   R(34,35)                1.5376         estimate D2E/DX2                !
 ! R73   R(34,73)                1.1012         estimate D2E/DX2                !
 ! R74   R(34,74)                1.1034         estimate D2E/DX2                !
 ! R75   R(35,36)                1.5261         estimate D2E/DX2                !
 ! R76   R(35,75)                1.1005         estimate D2E/DX2                !
 ! R77   R(35,76)                1.1008         estimate D2E/DX2                !
 ! R78   R(36,37)                1.5089         estimate D2E/DX2                !
 ! R79   R(36,77)                1.0988         estimate D2E/DX2                !
 ! R80   R(36,78)                1.0976         estimate D2E/DX2                !
 ! R81   R(37,79)                1.0291         estimate D2E/DX2                !
 ! R82   R(37,80)                1.0611         estimate D2E/DX2                !
 ! R83   R(37,81)                1.0558         estimate D2E/DX2                !
 ! R84   R(38,82)                0.9739         estimate D2E/DX2                !
 ! R85   R(39,83)                0.9762         estimate D2E/DX2                !
 ! R86   R(40,84)                0.9812         estimate D2E/DX2                !
 ! A1    A(2,1,6)              114.3445         estimate D2E/DX2                !
 ! A2    A(1,2,3)              111.3774         estimate D2E/DX2                !
 ! A3    A(1,2,12)             104.849          estimate D2E/DX2                !
 ! A4    A(1,2,41)             110.6376         estimate D2E/DX2                !
 ! A5    A(3,2,12)             108.5047         estimate D2E/DX2                !
 ! A6    A(3,2,41)             110.3707         estimate D2E/DX2                !
 ! A7    A(12,2,41)            110.9628         estimate D2E/DX2                !
 ! A8    A(2,3,4)              110.5875         estimate D2E/DX2                !
 ! A9    A(2,3,11)             111.5933         estimate D2E/DX2                !
 ! A10   A(2,3,42)             106.5706         estimate D2E/DX2                !
 ! A11   A(4,3,11)             106.8305         estimate D2E/DX2                !
 ! A12   A(4,3,42)             109.4301         estimate D2E/DX2                !
 ! A13   A(11,3,42)            111.8575         estimate D2E/DX2                !
 ! A14   A(3,4,5)              111.1474         estimate D2E/DX2                !
 ! A15   A(3,4,10)             111.6761         estimate D2E/DX2                !
 ! A16   A(3,4,43)             108.4282         estimate D2E/DX2                !
 ! A17   A(5,4,10)             106.4622         estimate D2E/DX2                !
 ! A18   A(5,4,43)             108.9011         estimate D2E/DX2                !
 ! A19   A(10,4,43)            110.1934         estimate D2E/DX2                !
 ! A20   A(4,5,6)              110.9331         estimate D2E/DX2                !
 ! A21   A(4,5,9)              110.1997         estimate D2E/DX2                !
 ! A22   A(4,5,44)             108.7805         estimate D2E/DX2                !
 ! A23   A(6,5,9)              109.7755         estimate D2E/DX2                !
 ! A24   A(6,5,44)             107.8561         estimate D2E/DX2                !
 ! A25   A(9,5,44)             109.2419         estimate D2E/DX2                !
 ! A26   A(1,6,5)              113.2756         estimate D2E/DX2                !
 ! A27   A(1,6,7)              106.3674         estimate D2E/DX2                !
 ! A28   A(1,6,45)             110.0555         estimate D2E/DX2                !
 ! A29   A(5,6,7)              112.9073         estimate D2E/DX2                !
 ! A30   A(5,6,45)             106.7506         estimate D2E/DX2                !
 ! A31   A(7,6,45)             107.3512         estimate D2E/DX2                !
 ! A32   A(6,7,8)              112.9458         estimate D2E/DX2                !
 ! A33   A(6,7,46)             109.2082         estimate D2E/DX2                !
 ! A34   A(6,7,47)             109.4827         estimate D2E/DX2                !
 ! A35   A(8,7,46)             110.2408         estimate D2E/DX2                !
 ! A36   A(8,7,47)             106.7724         estimate D2E/DX2                !
 ! A37   A(46,7,47)            108.0552         estimate D2E/DX2                !
 ! A38   A(7,8,48)             105.1173         estimate D2E/DX2                !
 ! A39   A(5,9,49)             105.8681         estimate D2E/DX2                !
 ! A40   A(4,10,50)            106.8736         estimate D2E/DX2                !
 ! A41   A(3,11,51)            108.9578         estimate D2E/DX2                !
 ! A42   A(2,12,13)            119.7462         estimate D2E/DX2                !
 ! A43   A(12,13,14)           107.1603         estimate D2E/DX2                !
 ! A44   A(12,13,19)           109.7682         estimate D2E/DX2                !
 ! A45   A(12,13,52)           110.7523         estimate D2E/DX2                !
 ! A46   A(14,13,19)           108.0715         estimate D2E/DX2                !
 ! A47   A(14,13,52)           110.1173         estimate D2E/DX2                !
 ! A48   A(19,13,52)           110.8638         estimate D2E/DX2                !
 ! A49   A(13,14,15)           109.9795         estimate D2E/DX2                !
 ! A50   A(13,14,16)           108.4783         estimate D2E/DX2                !
 ! A51   A(13,14,53)           108.7169         estimate D2E/DX2                !
 ! A52   A(15,14,16)           110.6465         estimate D2E/DX2                !
 ! A53   A(15,14,53)           109.2162         estimate D2E/DX2                !
 ! A54   A(16,14,53)           109.7737         estimate D2E/DX2                !
 ! A55   A(14,15,54)           105.4378         estimate D2E/DX2                !
 ! A56   A(14,16,17)           110.0995         estimate D2E/DX2                !
 ! A57   A(14,16,40)           107.9626         estimate D2E/DX2                !
 ! A58   A(14,16,55)           107.2505         estimate D2E/DX2                !
 ! A59   A(17,16,40)           112.0051         estimate D2E/DX2                !
 ! A60   A(17,16,55)           109.0067         estimate D2E/DX2                !
 ! A61   A(40,16,55)           110.4023         estimate D2E/DX2                !
 ! A62   A(16,17,18)           110.5447         estimate D2E/DX2                !
 ! A63   A(16,17,22)           113.8296         estimate D2E/DX2                !
 ! A64   A(16,17,56)           109.9885         estimate D2E/DX2                !
 ! A65   A(18,17,22)           106.8327         estimate D2E/DX2                !
 ! A66   A(18,17,56)           110.9989         estimate D2E/DX2                !
 ! A67   A(22,17,56)           104.4766         estimate D2E/DX2                !
 ! A68   A(17,18,19)           115.5743         estimate D2E/DX2                !
 ! A69   A(13,19,18)           110.4048         estimate D2E/DX2                !
 ! A70   A(13,19,20)           111.4074         estimate D2E/DX2                !
 ! A71   A(13,19,57)           108.9979         estimate D2E/DX2                !
 ! A72   A(18,19,20)           106.6323         estimate D2E/DX2                !
 ! A73   A(18,19,57)           109.7338         estimate D2E/DX2                !
 ! A74   A(20,19,57)           109.6361         estimate D2E/DX2                !
 ! A75   A(19,20,21)           108.359          estimate D2E/DX2                !
 ! A76   A(19,20,58)           108.7584         estimate D2E/DX2                !
 ! A77   A(19,20,59)           109.7364         estimate D2E/DX2                !
 ! A78   A(21,20,58)           110.7405         estimate D2E/DX2                !
 ! A79   A(21,20,59)           109.8847         estimate D2E/DX2                !
 ! A80   A(58,20,59)           109.3393         estimate D2E/DX2                !
 ! A81   A(20,21,60)           108.3584         estimate D2E/DX2                !
 ! A82   A(17,22,23)           115.6973         estimate D2E/DX2                !
 ! A83   A(22,23,24)           109.0908         estimate D2E/DX2                !
 ! A84   A(22,23,28)           109.0673         estimate D2E/DX2                !
 ! A85   A(22,23,61)           110.7149         estimate D2E/DX2                !
 ! A86   A(24,23,28)           108.2645         estimate D2E/DX2                !
 ! A87   A(24,23,61)           110.864          estimate D2E/DX2                !
 ! A88   A(28,23,61)           108.7856         estimate D2E/DX2                !
 ! A89   A(23,24,25)           111.2657         estimate D2E/DX2                !
 ! A90   A(23,24,39)           110.1191         estimate D2E/DX2                !
 ! A91   A(23,24,62)           107.8566         estimate D2E/DX2                !
 ! A92   A(25,24,39)           109.7042         estimate D2E/DX2                !
 ! A93   A(25,24,62)           108.6221         estimate D2E/DX2                !
 ! A94   A(39,24,62)           109.2195         estimate D2E/DX2                !
 ! A95   A(24,25,26)           110.7994         estimate D2E/DX2                !
 ! A96   A(24,25,38)           106.1779         estimate D2E/DX2                !
 ! A97   A(24,25,63)           108.8514         estimate D2E/DX2                !
 ! A98   A(26,25,38)           112.6909         estimate D2E/DX2                !
 ! A99   A(26,25,63)           107.3594         estimate D2E/DX2                !
 ! A100  A(38,25,63)           110.9394         estimate D2E/DX2                !
 ! A101  A(25,26,27)           109.0591         estimate D2E/DX2                !
 ! A102  A(25,26,31)           107.9724         estimate D2E/DX2                !
 ! A103  A(25,26,64)           110.9071         estimate D2E/DX2                !
 ! A104  A(27,26,31)           108.1865         estimate D2E/DX2                !
 ! A105  A(27,26,64)           108.8554         estimate D2E/DX2                !
 ! A106  A(31,26,64)           111.7883         estimate D2E/DX2                !
 ! A107  A(26,27,28)           112.0734         estimate D2E/DX2                !
 ! A108  A(23,28,27)           108.5562         estimate D2E/DX2                !
 ! A109  A(23,28,29)           117.0936         estimate D2E/DX2                !
 ! A110  A(23,28,65)           107.9329         estimate D2E/DX2                !
 ! A111  A(27,28,29)           108.1046         estimate D2E/DX2                !
 ! A112  A(27,28,65)           109.5381         estimate D2E/DX2                !
 ! A113  A(29,28,65)           105.4367         estimate D2E/DX2                !
 ! A114  A(28,29,30)           114.2392         estimate D2E/DX2                !
 ! A115  A(28,29,66)           107.3954         estimate D2E/DX2                !
 ! A116  A(28,29,67)           108.435          estimate D2E/DX2                !
 ! A117  A(30,29,66)           108.2576         estimate D2E/DX2                !
 ! A118  A(30,29,67)           109.8033         estimate D2E/DX2                !
 ! A119  A(66,29,67)           108.5555         estimate D2E/DX2                !
 ! A120  A(29,30,68)           108.1127         estimate D2E/DX2                !
 ! A121  A(26,31,32)           114.3088         estimate D2E/DX2                !
 ! A122  A(31,32,33)           108.9328         estimate D2E/DX2                !
 ! A123  A(31,32,69)           108.9197         estimate D2E/DX2                !
 ! A124  A(31,32,70)           108.6529         estimate D2E/DX2                !
 ! A125  A(33,32,69)           111.1393         estimate D2E/DX2                !
 ! A126  A(33,32,70)           110.7773         estimate D2E/DX2                !
 ! A127  A(69,32,70)           108.366          estimate D2E/DX2                !
 ! A128  A(32,33,34)           114.0754         estimate D2E/DX2                !
 ! A129  A(32,33,71)           107.6827         estimate D2E/DX2                !
 ! A130  A(32,33,72)           109.1224         estimate D2E/DX2                !
 ! A131  A(34,33,71)           110.7557         estimate D2E/DX2                !
 ! A132  A(34,33,72)           108.6184         estimate D2E/DX2                !
 ! A133  A(71,33,72)           106.2937         estimate D2E/DX2                !
 ! A134  A(33,34,35)           115.2396         estimate D2E/DX2                !
 ! A135  A(33,34,73)           108.9722         estimate D2E/DX2                !
 ! A136  A(33,34,74)           106.971          estimate D2E/DX2                !
 ! A137  A(35,34,73)           109.0413         estimate D2E/DX2                !
 ! A138  A(35,34,74)           110.5554         estimate D2E/DX2                !
 ! A139  A(73,34,74)           105.6133         estimate D2E/DX2                !
 ! A140  A(34,35,36)           112.7262         estimate D2E/DX2                !
 ! A141  A(34,35,75)           111.1834         estimate D2E/DX2                !
 ! A142  A(34,35,76)           109.8473         estimate D2E/DX2                !
 ! A143  A(36,35,75)           108.4313         estimate D2E/DX2                !
 ! A144  A(36,35,76)           107.9683         estimate D2E/DX2                !
 ! A145  A(75,35,76)           106.4374         estimate D2E/DX2                !
 ! A146  A(35,36,37)           111.7199         estimate D2E/DX2                !
 ! A147  A(35,36,77)           111.6144         estimate D2E/DX2                !
 ! A148  A(35,36,78)           111.5212         estimate D2E/DX2                !
 ! A149  A(37,36,77)           107.0169         estimate D2E/DX2                !
 ! A150  A(37,36,78)           106.5068         estimate D2E/DX2                !
 ! A151  A(77,36,78)           108.1958         estimate D2E/DX2                !
 ! A152  A(36,37,79)           110.1576         estimate D2E/DX2                !
 ! A153  A(36,37,80)           110.7166         estimate D2E/DX2                !
 ! A154  A(36,37,81)           109.6844         estimate D2E/DX2                !
 ! A155  A(79,37,80)           105.1643         estimate D2E/DX2                !
 ! A156  A(79,37,81)           108.617          estimate D2E/DX2                !
 ! A157  A(80,37,81)           112.3902         estimate D2E/DX2                !
 ! A158  A(25,38,82)           108.0858         estimate D2E/DX2                !
 ! A159  A(24,39,83)           105.936          estimate D2E/DX2                !
 ! A160  A(16,40,84)           105.1269         estimate D2E/DX2                !
 ! D1    D(6,1,2,3)            -56.7645         estimate D2E/DX2                !
 ! D2    D(6,1,2,12)          -173.9188         estimate D2E/DX2                !
 ! D3    D(6,1,2,41)            66.3881         estimate D2E/DX2                !
 ! D4    D(2,1,6,5)             54.4095         estimate D2E/DX2                !
 ! D5    D(2,1,6,7)            179.0178         estimate D2E/DX2                !
 ! D6    D(2,1,6,45)           -64.9989         estimate D2E/DX2                !
 ! D7    D(1,2,3,4)             55.5883         estimate D2E/DX2                !
 ! D8    D(1,2,3,11)           174.3592         estimate D2E/DX2                !
 ! D9    D(1,2,3,42)           -63.2617         estimate D2E/DX2                !
 ! D10   D(12,2,3,4)           170.5            estimate D2E/DX2                !
 ! D11   D(12,2,3,11)          -70.7291         estimate D2E/DX2                !
 ! D12   D(12,2,3,42)           51.65           estimate D2E/DX2                !
 ! D13   D(41,2,3,4)           -67.7166         estimate D2E/DX2                !
 ! D14   D(41,2,3,11)           51.0543         estimate D2E/DX2                !
 ! D15   D(41,2,3,42)          173.4334         estimate D2E/DX2                !
 ! D16   D(1,2,12,13)         -124.6877         estimate D2E/DX2                !
 ! D17   D(3,2,12,13)          116.2082         estimate D2E/DX2                !
 ! D18   D(41,2,12,13)          -5.2122         estimate D2E/DX2                !
 ! D19   D(2,3,4,5)            -52.9911         estimate D2E/DX2                !
 ! D20   D(2,3,4,10)          -171.723          estimate D2E/DX2                !
 ! D21   D(2,3,4,43)            66.678          estimate D2E/DX2                !
 ! D22   D(11,3,4,5)          -174.6149         estimate D2E/DX2                !
 ! D23   D(11,3,4,10)           66.6531         estimate D2E/DX2                !
 ! D24   D(11,3,4,43)          -54.9459         estimate D2E/DX2                !
 ! D25   D(42,3,4,5)            64.1094         estimate D2E/DX2                !
 ! D26   D(42,3,4,10)          -54.6225         estimate D2E/DX2                !
 ! D27   D(42,3,4,43)         -176.2216         estimate D2E/DX2                !
 ! D28   D(2,3,11,51)           59.4513         estimate D2E/DX2                !
 ! D29   D(4,3,11,51)         -179.5627         estimate D2E/DX2                !
 ! D30   D(42,3,11,51)         -59.8398         estimate D2E/DX2                !
 ! D31   D(3,4,5,6)             49.9895         estimate D2E/DX2                !
 ! D32   D(3,4,5,9)            -71.795          estimate D2E/DX2                !
 ! D33   D(3,4,5,44)           168.4684         estimate D2E/DX2                !
 ! D34   D(10,4,5,6)           171.8101         estimate D2E/DX2                !
 ! D35   D(10,4,5,9)            50.0257         estimate D2E/DX2                !
 ! D36   D(10,4,5,44)          -69.711          estimate D2E/DX2                !
 ! D37   D(43,4,5,6)           -69.3975         estimate D2E/DX2                !
 ! D38   D(43,4,5,9)           168.818          estimate D2E/DX2                !
 ! D39   D(43,4,5,44)           49.0814         estimate D2E/DX2                !
 ! D40   D(3,4,10,50)          -46.7766         estimate D2E/DX2                !
 ! D41   D(5,4,10,50)         -168.2609         estimate D2E/DX2                !
 ! D42   D(43,4,10,50)          73.7964         estimate D2E/DX2                !
 ! D43   D(4,5,6,1)            -50.1114         estimate D2E/DX2                !
 ! D44   D(4,5,6,7)           -171.0954         estimate D2E/DX2                !
 ! D45   D(4,5,6,45)            71.1755         estimate D2E/DX2                !
 ! D46   D(9,5,6,1)             71.9208         estimate D2E/DX2                !
 ! D47   D(9,5,6,7)            -49.0632         estimate D2E/DX2                !
 ! D48   D(9,5,6,45)          -166.7922         estimate D2E/DX2                !
 ! D49   D(44,5,6,1)          -169.148          estimate D2E/DX2                !
 ! D50   D(44,5,6,7)            69.868          estimate D2E/DX2                !
 ! D51   D(44,5,6,45)          -47.861          estimate D2E/DX2                !
 ! D52   D(4,5,9,49)           -40.6395         estimate D2E/DX2                !
 ! D53   D(6,5,9,49)          -163.1079         estimate D2E/DX2                !
 ! D54   D(44,5,9,49)           78.8173         estimate D2E/DX2                !
 ! D55   D(1,6,7,8)            -58.9546         estimate D2E/DX2                !
 ! D56   D(1,6,7,46)           177.9977         estimate D2E/DX2                !
 ! D57   D(1,6,7,47)            59.8729         estimate D2E/DX2                !
 ! D58   D(5,6,7,8)             65.8803         estimate D2E/DX2                !
 ! D59   D(5,6,7,46)           -57.1675         estimate D2E/DX2                !
 ! D60   D(5,6,7,47)          -175.2922         estimate D2E/DX2                !
 ! D61   D(45,6,7,8)          -176.7437         estimate D2E/DX2                !
 ! D62   D(45,6,7,46)           60.2085         estimate D2E/DX2                !
 ! D63   D(45,6,7,47)          -57.9162         estimate D2E/DX2                !
 ! D64   D(6,7,8,48)           -46.4673         estimate D2E/DX2                !
 ! D65   D(46,7,8,48)           76.0051         estimate D2E/DX2                !
 ! D66   D(47,7,8,48)         -166.8564         estimate D2E/DX2                !
 ! D67   D(2,12,13,14)        -129.38           estimate D2E/DX2                !
 ! D68   D(2,12,13,19)         113.4929         estimate D2E/DX2                !
 ! D69   D(2,12,13,52)          -9.2511         estimate D2E/DX2                !
 ! D70   D(12,13,14,15)         62.5151         estimate D2E/DX2                !
 ! D71   D(12,13,14,16)        -58.6208         estimate D2E/DX2                !
 ! D72   D(12,13,14,53)       -177.9506         estimate D2E/DX2                !
 ! D73   D(19,13,14,15)       -179.2492         estimate D2E/DX2                !
 ! D74   D(19,13,14,16)         59.6149         estimate D2E/DX2                !
 ! D75   D(19,13,14,53)        -59.7149         estimate D2E/DX2                !
 ! D76   D(52,13,14,15)        -58.0182         estimate D2E/DX2                !
 ! D77   D(52,13,14,16)       -179.1542         estimate D2E/DX2                !
 ! D78   D(52,13,14,53)         61.5161         estimate D2E/DX2                !
 ! D79   D(12,13,19,18)         57.9695         estimate D2E/DX2                !
 ! D80   D(12,13,19,20)        -60.3155         estimate D2E/DX2                !
 ! D81   D(12,13,19,57)        178.5722         estimate D2E/DX2                !
 ! D82   D(14,13,19,18)        -58.5858         estimate D2E/DX2                !
 ! D83   D(14,13,19,20)       -176.8708         estimate D2E/DX2                !
 ! D84   D(14,13,19,57)         62.0169         estimate D2E/DX2                !
 ! D85   D(52,13,19,18)       -179.3524         estimate D2E/DX2                !
 ! D86   D(52,13,19,20)         62.3626         estimate D2E/DX2                !
 ! D87   D(52,13,19,57)        -58.7497         estimate D2E/DX2                !
 ! D88   D(13,14,15,54)       -163.1603         estimate D2E/DX2                !
 ! D89   D(16,14,15,54)        -43.3334         estimate D2E/DX2                !
 ! D90   D(53,14,15,54)         77.6101         estimate D2E/DX2                !
 ! D91   D(13,14,16,17)        -58.0847         estimate D2E/DX2                !
 ! D92   D(13,14,16,40)        179.363          estimate D2E/DX2                !
 ! D93   D(13,14,16,55)         60.3896         estimate D2E/DX2                !
 ! D94   D(15,14,16,17)       -178.8086         estimate D2E/DX2                !
 ! D95   D(15,14,16,40)         58.6391         estimate D2E/DX2                !
 ! D96   D(15,14,16,55)        -60.3343         estimate D2E/DX2                !
 ! D97   D(53,14,16,17)         60.5793         estimate D2E/DX2                !
 ! D98   D(53,14,16,40)        -61.973          estimate D2E/DX2                !
 ! D99   D(53,14,16,55)        179.0536         estimate D2E/DX2                !
 ! D100  D(14,16,17,18)         54.1707         estimate D2E/DX2                !
 ! D101  D(14,16,17,22)        174.4086         estimate D2E/DX2                !
 ! D102  D(14,16,17,56)        -68.7544         estimate D2E/DX2                !
 ! D103  D(40,16,17,18)        174.3088         estimate D2E/DX2                !
 ! D104  D(40,16,17,22)        -65.4532         estimate D2E/DX2                !
 ! D105  D(40,16,17,56)         51.3837         estimate D2E/DX2                !
 ! D106  D(55,16,17,18)        -63.2191         estimate D2E/DX2                !
 ! D107  D(55,16,17,22)         57.0189         estimate D2E/DX2                !
 ! D108  D(55,16,17,56)        173.8558         estimate D2E/DX2                !
 ! D109  D(14,16,40,84)       -157.397          estimate D2E/DX2                !
 ! D110  D(17,16,40,84)         81.2262         estimate D2E/DX2                !
 ! D111  D(55,16,40,84)        -40.4483         estimate D2E/DX2                !
 ! D112  D(16,17,18,19)        -55.0641         estimate D2E/DX2                !
 ! D113  D(22,17,18,19)       -179.4079         estimate D2E/DX2                !
 ! D114  D(56,17,18,19)         67.2712         estimate D2E/DX2                !
 ! D115  D(16,17,22,23)        -64.0909         estimate D2E/DX2                !
 ! D116  D(18,17,22,23)         58.215          estimate D2E/DX2                !
 ! D117  D(56,17,22,23)        175.9108         estimate D2E/DX2                !
 ! D118  D(17,18,19,13)         57.7613         estimate D2E/DX2                !
 ! D119  D(17,18,19,20)        178.9301         estimate D2E/DX2                !
 ! D120  D(17,18,19,57)        -62.4002         estimate D2E/DX2                !
 ! D121  D(13,19,20,21)        163.7159         estimate D2E/DX2                !
 ! D122  D(13,19,20,58)        -75.8355         estimate D2E/DX2                !
 ! D123  D(13,19,20,59)         43.7294         estimate D2E/DX2                !
 ! D124  D(18,19,20,21)         43.1884         estimate D2E/DX2                !
 ! D125  D(18,19,20,58)        163.6369         estimate D2E/DX2                !
 ! D126  D(18,19,20,59)        -76.7982         estimate D2E/DX2                !
 ! D127  D(57,19,20,21)        -75.5452         estimate D2E/DX2                !
 ! D128  D(57,19,20,58)         44.9033         estimate D2E/DX2                !
 ! D129  D(57,19,20,59)        164.4683         estimate D2E/DX2                !
 ! D130  D(19,20,21,60)        161.2731         estimate D2E/DX2                !
 ! D131  D(58,20,21,60)         42.0658         estimate D2E/DX2                !
 ! D132  D(59,20,21,60)        -78.8331         estimate D2E/DX2                !
 ! D133  D(17,22,23,24)        119.5034         estimate D2E/DX2                !
 ! D134  D(17,22,23,28)       -122.4284         estimate D2E/DX2                !
 ! D135  D(17,22,23,61)         -2.76           estimate D2E/DX2                !
 ! D136  D(22,23,24,25)        172.3219         estimate D2E/DX2                !
 ! D137  D(22,23,24,39)        -65.8155         estimate D2E/DX2                !
 ! D138  D(22,23,24,62)         53.2846         estimate D2E/DX2                !
 ! D139  D(28,23,24,25)         53.7505         estimate D2E/DX2                !
 ! D140  D(28,23,24,39)        175.613          estimate D2E/DX2                !
 ! D141  D(28,23,24,62)        -65.2869         estimate D2E/DX2                !
 ! D142  D(61,23,24,25)        -65.5045         estimate D2E/DX2                !
 ! D143  D(61,23,24,39)         56.358          estimate D2E/DX2                !
 ! D144  D(61,23,24,62)        175.4581         estimate D2E/DX2                !
 ! D145  D(22,23,28,27)       -178.116          estimate D2E/DX2                !
 ! D146  D(22,23,28,29)         59.205          estimate D2E/DX2                !
 ! D147  D(22,23,28,65)        -59.4682         estimate D2E/DX2                !
 ! D148  D(24,23,28,27)        -59.5296         estimate D2E/DX2                !
 ! D149  D(24,23,28,29)        177.7914         estimate D2E/DX2                !
 ! D150  D(24,23,28,65)         59.1183         estimate D2E/DX2                !
 ! D151  D(61,23,28,27)         61.0283         estimate D2E/DX2                !
 ! D152  D(61,23,28,29)        -61.6507         estimate D2E/DX2                !
 ! D153  D(61,23,28,65)        179.6761         estimate D2E/DX2                !
 ! D154  D(23,24,25,26)        -52.2011         estimate D2E/DX2                !
 ! D155  D(23,24,25,38)       -174.8755         estimate D2E/DX2                !
 ! D156  D(23,24,25,63)         65.6354         estimate D2E/DX2                !
 ! D157  D(39,24,25,26)       -174.3043         estimate D2E/DX2                !
 ! D158  D(39,24,25,38)         63.0213         estimate D2E/DX2                !
 ! D159  D(39,24,25,63)        -56.4679         estimate D2E/DX2                !
 ! D160  D(62,24,25,26)         66.3776         estimate D2E/DX2                !
 ! D161  D(62,24,25,38)        -56.2968         estimate D2E/DX2                !
 ! D162  D(62,24,25,63)       -175.786          estimate D2E/DX2                !
 ! D163  D(23,24,39,83)       -173.1711         estimate D2E/DX2                !
 ! D164  D(25,24,39,83)        -50.3866         estimate D2E/DX2                !
 ! D165  D(62,24,39,83)         68.5641         estimate D2E/DX2                !
 ! D166  D(24,25,26,27)         54.9575         estimate D2E/DX2                !
 ! D167  D(24,25,26,31)        172.2944         estimate D2E/DX2                !
 ! D168  D(24,25,26,64)        -64.9103         estimate D2E/DX2                !
 ! D169  D(38,25,26,27)        173.7653         estimate D2E/DX2                !
 ! D170  D(38,25,26,31)        -68.8978         estimate D2E/DX2                !
 ! D171  D(38,25,26,64)         53.8975         estimate D2E/DX2                !
 ! D172  D(63,25,26,27)        -63.7853         estimate D2E/DX2                !
 ! D173  D(63,25,26,31)         53.5516         estimate D2E/DX2                !
 ! D174  D(63,25,26,64)        176.3469         estimate D2E/DX2                !
 ! D175  D(24,25,38,82)       -174.4974         estimate D2E/DX2                !
 ! D176  D(26,25,38,82)         64.0322         estimate D2E/DX2                !
 ! D177  D(63,25,38,82)        -56.3827         estimate D2E/DX2                !
 ! D178  D(25,26,27,28)        -63.5385         estimate D2E/DX2                !
 ! D179  D(31,26,27,28)        179.2602         estimate D2E/DX2                !
 ! D180  D(64,26,27,28)         57.589          estimate D2E/DX2                !
 ! D181  D(25,26,31,32)        169.3473         estimate D2E/DX2                !
 ! D182  D(27,26,31,32)        -72.7537         estimate D2E/DX2                !
 ! D183  D(64,26,31,32)         47.0921         estimate D2E/DX2                !
 ! D184  D(26,27,28,23)         66.3932         estimate D2E/DX2                !
 ! D185  D(26,27,28,29)       -165.6406         estimate D2E/DX2                !
 ! D186  D(26,27,28,65)        -51.2366         estimate D2E/DX2                !
 ! D187  D(23,28,29,30)         65.4475         estimate D2E/DX2                !
 ! D188  D(23,28,29,66)       -174.4795         estimate D2E/DX2                !
 ! D189  D(23,28,29,67)        -57.3538         estimate D2E/DX2                !
 ! D190  D(27,28,29,30)        -57.4637         estimate D2E/DX2                !
 ! D191  D(27,28,29,66)         62.6093         estimate D2E/DX2                !
 ! D192  D(27,28,29,67)        179.735          estimate D2E/DX2                !
 ! D193  D(65,28,29,30)       -174.5481         estimate D2E/DX2                !
 ! D194  D(65,28,29,66)        -54.4751         estimate D2E/DX2                !
 ! D195  D(65,28,29,67)         62.6506         estimate D2E/DX2                !
 ! D196  D(28,29,30,68)       -121.0355         estimate D2E/DX2                !
 ! D197  D(66,29,30,68)        119.375          estimate D2E/DX2                !
 ! D198  D(67,29,30,68)          1.0192         estimate D2E/DX2                !
 ! D199  D(26,31,32,33)        145.3268         estimate D2E/DX2                !
 ! D200  D(26,31,32,69)         23.9536         estimate D2E/DX2                !
 ! D201  D(26,31,32,70)        -93.9023         estimate D2E/DX2                !
 ! D202  D(31,32,33,34)        -52.5636         estimate D2E/DX2                !
 ! D203  D(31,32,33,71)       -175.9198         estimate D2E/DX2                !
 ! D204  D(31,32,33,72)         69.1061         estimate D2E/DX2                !
 ! D205  D(69,32,33,34)         67.4463         estimate D2E/DX2                !
 ! D206  D(69,32,33,71)        -55.91           estimate D2E/DX2                !
 ! D207  D(69,32,33,72)       -170.8841         estimate D2E/DX2                !
 ! D208  D(70,32,33,34)       -172.0219         estimate D2E/DX2                !
 ! D209  D(70,32,33,71)         64.6219         estimate D2E/DX2                !
 ! D210  D(70,32,33,72)        -50.3522         estimate D2E/DX2                !
 ! D211  D(32,33,34,35)        -62.417          estimate D2E/DX2                !
 ! D212  D(32,33,34,73)        174.6631         estimate D2E/DX2                !
 ! D213  D(32,33,34,74)         60.9299         estimate D2E/DX2                !
 ! D214  D(71,33,34,35)         59.2585         estimate D2E/DX2                !
 ! D215  D(71,33,34,73)        -63.6615         estimate D2E/DX2                !
 ! D216  D(71,33,34,74)       -177.3947         estimate D2E/DX2                !
 ! D217  D(72,33,34,35)        175.6357         estimate D2E/DX2                !
 ! D218  D(72,33,34,73)         52.7157         estimate D2E/DX2                !
 ! D219  D(72,33,34,74)        -61.0175         estimate D2E/DX2                !
 ! D220  D(33,34,35,36)        164.1532         estimate D2E/DX2                !
 ! D221  D(33,34,35,75)         42.1518         estimate D2E/DX2                !
 ! D222  D(33,34,35,76)        -75.3983         estimate D2E/DX2                !
 ! D223  D(73,34,35,36)        -72.9636         estimate D2E/DX2                !
 ! D224  D(73,34,35,75)        165.0349         estimate D2E/DX2                !
 ! D225  D(73,34,35,76)         47.4849         estimate D2E/DX2                !
 ! D226  D(74,34,35,36)         42.7265         estimate D2E/DX2                !
 ! D227  D(74,34,35,75)        -79.275          estimate D2E/DX2                !
 ! D228  D(74,34,35,76)        163.175          estimate D2E/DX2                !
 ! D229  D(34,35,36,37)        -70.587          estimate D2E/DX2                !
 ! D230  D(34,35,36,77)         49.1935         estimate D2E/DX2                !
 ! D231  D(34,35,36,78)        170.3449         estimate D2E/DX2                !
 ! D232  D(75,35,36,37)         52.9544         estimate D2E/DX2                !
 ! D233  D(75,35,36,77)        172.7349         estimate D2E/DX2                !
 ! D234  D(75,35,36,78)        -66.1137         estimate D2E/DX2                !
 ! D235  D(76,35,36,37)        167.8926         estimate D2E/DX2                !
 ! D236  D(76,35,36,77)        -72.3269         estimate D2E/DX2                !
 ! D237  D(76,35,36,78)         48.8245         estimate D2E/DX2                !
 ! D238  D(35,36,37,79)         28.4558         estimate D2E/DX2                !
 ! D239  D(35,36,37,80)        -87.441          estimate D2E/DX2                !
 ! D240  D(35,36,37,81)        147.9608         estimate D2E/DX2                !
 ! D241  D(77,36,37,79)        -93.9954         estimate D2E/DX2                !
 ! D242  D(77,36,37,80)        150.1078         estimate D2E/DX2                !
 ! D243  D(77,36,37,81)         25.5097         estimate D2E/DX2                !
 ! D244  D(78,36,37,79)        150.4547         estimate D2E/DX2                !
 ! D245  D(78,36,37,80)         34.5579         estimate D2E/DX2                !
 ! D246  D(78,36,37,81)        -90.0403         estimate D2E/DX2                !
 --------------------------------------------------------------------------------
 Trust Radius=3.00D-01 FncErr=1.00D-07 GrdErr=1.00D-06
 Number of steps in this run=    504 maximum allowed number of steps=    504.
 GradGradGradGradGradGradGradGradGradGradGradGradGradGradGradGradGradGrad

 Leave Link  103 at Sun May 22 17:49:21 2016, MaxMem= 10737418240 cpu:         0.4
 (Enter /share/apps//g09/l202.exe)
 Stoichiometry    C23H44NO16(1+)
 Framework group  C1[X(C23H44NO16)]
 Deg. of freedom   246
 Full point group                 C1      NOp   1
 Largest Abelian subgroup         C1      NOp   1
 Largest concise Abelian subgroup C1      NOp   1
                         Standard orientation:                         
 ---------------------------------------------------------------------
 Center     Atomic      Atomic             Coordinates (Angstroms)
 Number     Number       Type             X           Y           Z
 ---------------------------------------------------------------------
      1          8           0        2.287247    1.643928    0.680609
      2          6           0        3.168730    0.620959    0.204273
      3          6           0        3.597897    0.882920   -1.244582
      4          6           0        4.228874    2.266112   -1.375564
      5          6           0        3.309687    3.347923   -0.806872
      6          6           0        2.824884    2.971520    0.602004
      7          6           0        1.736725    3.908951    1.127323
      8          8           0        0.513266    3.822975    0.377808
      9          8           0        2.179051    3.545290   -1.674083
     10          8           0        4.463857    2.611607   -2.741456
     11          8           0        4.569133   -0.054020   -1.678494
     12          8           0        2.405514   -0.554723    0.236656
     13          6           0        2.884645   -1.694233    0.963510
     14          6           0        2.806141   -2.896601    0.020806
     15          8           0        3.662509   -2.690830   -1.106002
     16          6           0        1.355803   -3.065667   -0.428600
     17          6           0        0.440704   -3.256670    0.796348
     18          8           0        0.621235   -2.185422    1.730856
     19          6           0        1.961405   -1.970200    2.169484
     20          6           0        1.922599   -0.780177    3.125491
     21          8           0        0.781840   -0.933862    3.996746
     22          8           0       -0.930207   -3.295878    0.481271
     23          6           0       -1.477344   -2.087184   -0.073635
     24          6           0       -2.030286   -2.383066   -1.471944
     25          6           0       -2.792257   -1.181415   -2.032854
     26          6           0       -3.848356   -0.695888   -1.038877
     27          8           0       -3.212711   -0.420745    0.227199
     28          6           0       -2.644535   -1.606308    0.816770
     29          6           0       -2.325248   -1.303252    2.276014
     30          8           0       -1.435780   -0.191034    2.466554
     31          8           0       -4.380030    0.492507   -1.524558
     32          6           0       -5.564640    0.951615   -0.817063
     33          6           0       -5.555217    2.475562   -0.773467
     34          6           0       -4.253932    3.078473   -0.224971
     35          6           0       -3.925738    2.714110    1.232330
     36          6           0       -2.473343    3.004561    1.599915
     37          7           0       -1.523650    2.048474    0.921186
     38          8           0       -3.356908   -1.611012   -3.268866
     39          8           0       -0.961405   -2.735531   -2.360657
     40          8           0        1.298067   -4.174507   -1.313986
     41          1           0        4.060225    0.534507    0.862199
     42          1           0        2.678448    0.837934   -1.859213
     43          1           0        5.181730    2.271321   -0.810402
     44          1           0        3.878468    4.293445   -0.728518
     45          1           0        3.700294    3.068495    1.278225
     46          1           0        2.116088    4.944878    1.121198
     47          1           0        1.492331    3.641753    2.165246
     48          1           0        0.789290    3.851779   -0.569994
     49          1           0        2.531609    3.507287   -2.586265
     50          1           0        4.887239    1.838552   -3.160379
     51          1           0        4.189724   -0.962570   -1.613179
     52          1           0        3.926061   -1.537966    1.293448
     53          1           0        3.136147   -3.800174    0.569157
     54          1           0        3.366857   -3.336470   -1.779190
     55          1           0        1.066089   -2.140741   -0.952109
     56          1           0        0.643453   -4.235044    1.270894
     57          1           0        2.328241   -2.868132    2.706909
     58          1           0        2.858231   -0.762295    3.707153
     59          1           0        1.832106    0.155548    2.551222
     60          1           0        0.913243   -0.367707    4.775980
     61          1           0       -0.712226   -1.295582   -0.113684
     62          1           0       -2.730096   -3.237100   -1.386663
     63          1           0       -2.079553   -0.347820   -2.191531
     64          1           0       -4.633467   -1.466983   -0.886390
     65          1           0       -3.408547   -2.410700    0.842474
     66          1           0       -3.277625   -1.074138    2.780946
     67          1           0       -1.896065   -2.205226    2.732133
     68          1           0       -0.636637   -0.515726    2.953472
     69          1           0       -5.561811    0.525568    0.197483
     70          1           0       -6.457231    0.581184   -1.346747
     71          1           0       -6.419930    2.798665   -0.170809
     72          1           0       -5.723041    2.866396   -1.788741
     73          1           0       -4.299434    4.174629   -0.319711
     74          1           0       -3.440880    2.755752   -0.897537
     75          1           0       -4.129305    1.651183    1.432000
     76          1           0       -4.570241    3.288339    1.915362
     77          1           0       -2.175582    4.019370    1.301902
     78          1           0       -2.302538    2.900263    2.679130
     79          1           0       -1.924381    1.722626    0.031136
     80          1           0       -1.393197    1.171632    1.504395
     81          1           0       -0.609778    2.537552    0.720366
     82          1           0       -3.775591   -0.841204   -3.693756
     83          1           0       -1.361806   -2.801714   -3.248478
     84          1           0        0.488004   -4.032875   -1.849238
 ---------------------------------------------------------------------
 Rotational constants (GHZ):      0.1021864      0.0739344      0.0595115
 Leave Link  202 at Sun May 22 17:49:22 2016, MaxMem= 10737418240 cpu:         3.5
 (Enter /share/apps//g09/l301.exe)
 Standard basis: 6-311+G(d,p) (5D, 7F)
 Ernie: Thresh=  0.10000D-02 Tol=  0.10000D-05 Strict=F.
 There are  1184 symmetry adapted cartesian basis functions of A   symmetry.
 There are  1144 symmetry adapted basis functions of A   symmetry.
  1144 basis functions,  1792 primitive gaussians,  1184 cartesian basis functions
   158 alpha electrons      158 beta electrons
       nuclear repulsion energy      5865.4287382197 Hartrees.
 IExCor= 1009 DFT=T Ex+Corr=PBE1PBE ExCW=0 ScaHFX=  0.250000
 ScaDFX=  0.750000  0.750000  1.000000  1.000000 ScalE2=  1.000000  1.000000
 IRadAn=      0 IRanWt=     -1 IRanGd=            0 ICorTp=0 IEmpDi=131
 NAtoms=   84 NActive=   84 NUniq=   84 SFac= 1.00D+00 NAtFMM=   60 NAOKFM=T Big=T
 Integral buffers will be    131072 words long.
 Raffenetti 2 integral format.
 Two-electron integral symmetry is turned on.
 R6Disp:  Grimme-D3 Dispersion energy=       -0.0809133393 Hartrees.
 Nuclear repulsion after empirical dispersion term =     5865.3478248804 Hartrees.
 Leave Link  301 at Sun May 22 17:49:22 2016, MaxMem= 10737418240 cpu:         3.1
 (Enter /share/apps//g09/l302.exe)
 NPDir=0 NMtPBC=     1 NCelOv=     1 NCel=       1 NClECP=     1 NCelD=      1
         NCelK=      1 NCelE2=     1 NClLst=     1 CellRange=     0.0.
 One-electron integrals computed using PRISM.
 NBasis=  1144 RedAO= T EigKep=  1.53D-06  NBF=  1144
 NBsUse=  1144 1.00D-06 EigRej= -1.00D+00 NBFU=  1144
 Precomputing XC quadrature grid using
 IXCGrd= 4 IRadAn=           0 IRanWt=          -1 IRanGd=           0 AccXCQ= 0.00D+00.
 Generated NRdTot=       0 NPtTot=           0 NUsed=           0 NTot=          32
 NSgBfM=  1074  1076  1083  1089  1089 MxSgAt=    84 MxSgA2=    84.
 Leave Link  302 at Sun May 22 17:49:26 2016, MaxMem= 10737418240 cpu:        56.9
 (Enter /share/apps//g09/l303.exe)
 DipDrv:  MaxL=1.
 Leave Link  303 at Sun May 22 17:49:29 2016, MaxMem= 10737418240 cpu:        33.2
 (Enter /share/apps//g09/l401.exe)
 ExpMin= 4.38D-02 ExpMax= 8.59D+03 ExpMxC= 1.30D+03 IAcc=2 IRadAn=         4 AccDes= 0.00D+00
 Harris functional with IExCor= 1009 and IRadAn=       4 diagonalized for initial guess.
 HarFok:  IExCor= 1009 AccDes= 0.00D+00 IRadAn=         4 IDoV= 1 UseB2=F ITyADJ=14
 ICtDFT=  3500011 ScaDFX=  1.000000  1.000000  1.000000  1.000000
 FoFCou: FMM=F IPFlag=           0 FMFlag=      100000 FMFlg1=        2001
         NFxFlg=           0 DoJE=T BraDBF=F KetDBF=T FulRan=T
         wScrn=  0.000000 ICntrl=     500 IOpCl=  0 I1Cent=   200000004 NGrid=           0
         NMat0=    1 NMatS0=      1 NMatT0=    0 NMatD0=    1 NMtDS0=    0 NMtDT0=    0
 Petite list used in FoFCou.
 Harris En= -2159.71776467686    
 JPrj=0 DoOrth=F DoCkMO=F.
 Leave Link  401 at Sun May 22 17:49:35 2016, MaxMem= 10737418240 cpu:       115.1
 (Enter /share/apps//g09/l502.exe)
 Closed shell SCF:
 Using DIIS extrapolation, IDIIS=  1040.
 Integral symmetry usage will be decided dynamically.
 IVT=     4256630 IEndB=     4256630 NGot= 10737418240 MDV= 10734581291
 LenX= 10734581291 LenY= 10733178251
 Requested convergence on RMS density matrix=1.00D-08 within 128 cycles.
 Requested convergence on MAX density matrix=1.00D-06.
 Requested convergence on             energy=1.00D-06.
 No special actions if energy rises.
 Fock matrices will be formed incrementally for  20 cycles.

 Cycle   1  Pass 1  IDiag  1:
 FoFJK:  IHMeth= 1 ICntrl=       0 DoSepK=F KAlg= 0 I1Cent=   0 FoldK=F
 IRaf= 780000000 NMat=   1 IRICut=       1 DoRegI=T DoRafI=F ISym2E= 0.
 FoFCou: FMM=T IPFlag=           0 FMFlag=      100000 FMFlg1=        2001
         NFxFlg=           0 DoJE=F BraDBF=F KetDBF=F FulRan=T
         wScrn=  0.000000 ICntrl=       0 IOpCl=  0 I1Cent=           0 NGrid=           0
         NMat0=    1 NMatS0=      1 NMatT0=    0 NMatD0=    1 NMtDS0=    0 NMtDT0=    0
 Symmetry not used in FoFCou.
 FMM levels:  10  Number of levels for PrismC:   9
 E= -2158.70724791995    
 DIIS: error= 1.28D-02 at cycle   1 NSaved=   1.
 NSaved= 1 IEnMin= 1 EnMin= -2158.70724791995     IErMin= 1 ErrMin= 1.28D-02
 ErrMax= 1.28D-02  0.00D+00 EMaxC= 1.00D-01 BMatC= 1.02D+00 BMatP= 1.02D+00
 IDIUse=3 WtCom= 8.72D-01 WtEn= 1.28D-01
 Coeff-Com:  0.100D+01
 Coeff-En:   0.100D+01
 Coeff:      0.100D+01
 Gap=     0.259 Goal=   None    Shift=    0.000
 GapD=    0.259 DampG=1.000 DampE=0.500 DampFc=0.5000 IDamp=-1.
 Damping current iteration by 5.00D-01
 RMSDP=9.50D-03 MaxDP=2.20D+00              OVMax= 1.42D-01

 Cycle   2  Pass 1  IDiag  1:
 RMSU=  4.66D-03    CP:  1.03D+00
 E= -2158.98754825873     Delta-E=       -0.280300338780 Rises=F Damp=T
 DIIS: error= 3.66D-03 at cycle   2 NSaved=   2.
 NSaved= 2 IEnMin= 2 EnMin= -2158.98754825873     IErMin= 2 ErrMin= 3.66D-03
 ErrMax= 3.66D-03  0.00D+00 EMaxC= 1.00D-01 BMatC= 8.06D-02 BMatP= 1.02D+00
 IDIUse=3 WtCom= 9.63D-01 WtEn= 3.66D-02
 Coeff-Com:  0.617D-01 0.938D+00
 Coeff-En:   0.161D+00 0.839D+00
 Coeff:      0.654D-01 0.935D+00
 Gap=     0.280 Goal=   None    Shift=    0.000
 RMSDP=4.48D-03 MaxDP=1.18D+00 DE=-2.80D-01 OVMax= 8.15D-02

 Cycle   3  Pass 1  IDiag  1:
 RMSU=  2.71D-03    CP:  9.29D-01  9.28D-01
 E= -2159.35693390255     Delta-E=       -0.369385643820 Rises=F Damp=F
 DIIS: error= 3.56D-03 at cycle   3 NSaved=   3.
 NSaved= 3 IEnMin= 3 EnMin= -2159.35693390255     IErMin= 3 ErrMin= 3.56D-03
 ErrMax= 3.56D-03  0.00D+00 EMaxC= 1.00D-01 BMatC= 4.37D-02 BMatP= 8.06D-02
 IDIUse=3 WtCom= 9.64D-01 WtEn= 3.56D-02
 Coeff-Com: -0.669D-01 0.404D+00 0.663D+00
 Coeff-En:   0.000D+00 0.000D+00 0.100D+01
 Coeff:     -0.646D-01 0.390D+00 0.675D+00
 Gap=     0.264 Goal=   None    Shift=    0.000
 RMSDP=1.53D-03 MaxDP=4.71D-01 DE=-3.69D-01 OVMax= 1.58D-02

 Cycle   4  Pass 1  IDiag  1:
 RMSU=  1.06D-03    CP:  9.53D-01  1.05D+00  8.63D-01
 E= -2159.38410166522     Delta-E=       -0.027167762668 Rises=F Damp=F
 DIIS: error= 1.24D-03 at cycle   4 NSaved=   4.
 NSaved= 4 IEnMin= 4 EnMin= -2159.38410166522     IErMin= 4 ErrMin= 1.24D-03
 ErrMax= 1.24D-03  0.00D+00 EMaxC= 1.00D-01 BMatC= 6.10D-03 BMatP= 4.37D-02
 IDIUse=3 WtCom= 9.88D-01 WtEn= 1.24D-02
 Coeff-Com: -0.359D-01 0.123D+00 0.347D+00 0.566D+00
 Coeff-En:   0.000D+00 0.000D+00 0.868D-01 0.913D+00
 Coeff:     -0.354D-01 0.122D+00 0.343D+00 0.570D+00
 Gap=     0.258 Goal=   None    Shift=    0.000
 RMSDP=1.09D-03 MaxDP=4.04D-01 DE=-2.72D-02 OVMax= 6.27D-03

 Cycle   5  Pass 1  IDiag  1:
 RMSU=  2.78D-04    CP:  9.28D-01  1.01D+00  8.70D-01  5.95D-01
 E= -2159.38931614685     Delta-E=       -0.005214481628 Rises=F Damp=F
 DIIS: error= 3.20D-04 at cycle   5 NSaved=   5.
 NSaved= 5 IEnMin= 5 EnMin= -2159.38931614685     IErMin= 5 ErrMin= 3.20D-04
 ErrMax= 3.20D-04  0.00D+00 EMaxC= 1.00D-01 BMatC= 2.43D-04 BMatP= 6.10D-03
 IDIUse=3 WtCom= 9.97D-01 WtEn= 3.20D-03
 Coeff-Com: -0.113D-01 0.256D-01 0.103D+00 0.243D+00 0.640D+00
 Coeff-En:   0.000D+00 0.000D+00 0.000D+00 0.000D+00 0.100D+01
 Coeff:     -0.113D-01 0.255D-01 0.103D+00 0.242D+00 0.641D+00
 Gap=     0.258 Goal=   None    Shift=    0.000
 RMSDP=1.22D-04 MaxDP=2.88D-02 DE=-5.21D-03 OVMax= 1.46D-03

 Cycle   6  Pass 1  IDiag  1:
 RMSU=  6.27D-05    CP:  9.30D-01  1.01D+00  8.81D-01  6.09D-01  7.83D-01
 E= -2159.38949087524     Delta-E=       -0.000174728390 Rises=F Damp=F
 DIIS: error= 6.18D-05 at cycle   6 NSaved=   6.
 NSaved= 6 IEnMin= 6 EnMin= -2159.38949087524     IErMin= 6 ErrMin= 6.18D-05
 ErrMax= 6.18D-05  0.00D+00 EMaxC= 1.00D-01 BMatC= 2.05D-05 BMatP= 2.43D-04
 IDIUse=1 WtCom= 1.00D+00 WtEn= 0.00D+00
 Coeff-Com: -0.369D-02 0.656D-02 0.335D-01 0.923D-01 0.321D+00 0.550D+00
 Coeff:     -0.369D-02 0.656D-02 0.335D-01 0.923D-01 0.321D+00 0.550D+00
 Gap=     0.258 Goal=   None    Shift=    0.000
 RMSDP=3.14D-05 MaxDP=1.23D-02 DE=-1.75D-04 OVMax= 5.14D-04

 Cycle   7  Pass 1  IDiag  1:
 RMSU=  1.74D-05    CP:  9.30D-01  1.01D+00  8.83D-01  6.18D-01  7.84D-01
                    CP:  7.34D-01
 E= -2159.38950572867     Delta-E=       -0.000014853431 Rises=F Damp=F
 DIIS: error= 2.31D-05 at cycle   7 NSaved=   7.
 NSaved= 7 IEnMin= 7 EnMin= -2159.38950572867     IErMin= 7 ErrMin= 2.31D-05
 ErrMax= 2.31D-05  0.00D+00 EMaxC= 1.00D-01 BMatC= 1.62D-06 BMatP= 2.05D-05
 IDIUse=1 WtCom= 1.00D+00 WtEn= 0.00D+00
 Coeff-Com: -0.103D-02 0.142D-02 0.963D-02 0.299D-01 0.116D+00 0.281D+00
 Coeff-Com:  0.563D+00
 Coeff:     -0.103D-02 0.142D-02 0.963D-02 0.299D-01 0.116D+00 0.281D+00
 Coeff:      0.563D+00
 Gap=     0.258 Goal=   None    Shift=    0.000
 RMSDP=1.00D-05 MaxDP=1.78D-03 DE=-1.49D-05 OVMax= 1.46D-04

 Cycle   8  Pass 1  IDiag  1:
 RMSU=  7.04D-06    CP:  9.30D-01  1.01D+00  8.82D-01  6.20D-01  7.93D-01
                    CP:  7.22D-01  6.91D-01
 E= -2159.38950685398     Delta-E=       -0.000001125310 Rises=F Damp=F
 DIIS: error= 6.60D-06 at cycle   8 NSaved=   8.
 NSaved= 8 IEnMin= 8 EnMin= -2159.38950685398     IErMin= 8 ErrMin= 6.60D-06
 ErrMax= 6.60D-06  0.00D+00 EMaxC= 1.00D-01 BMatC= 1.49D-07 BMatP= 1.62D-06
 IDIUse=1 WtCom= 1.00D+00 WtEn= 0.00D+00
 Coeff-Com:  0.755D-05-0.201D-03 0.166D-03 0.215D-02 0.122D-01 0.562D-01
 Coeff-Com:  0.266D+00 0.663D+00
 Coeff:      0.755D-05-0.201D-03 0.166D-03 0.215D-02 0.122D-01 0.562D-01
 Coeff:      0.266D+00 0.663D+00
 Gap=     0.258 Goal=   None    Shift=    0.000
 RMSDP=3.53D-06 MaxDP=7.64D-04 DE=-1.13D-06 OVMax= 3.55D-05

 Cycle   9  Pass 1  IDiag  1:
 RMSU=  2.17D-06    CP:  9.30D-01  1.01D+00  8.82D-01  6.20D-01  7.93D-01
                    CP:  7.30D-01  7.68D-01  8.46D-01
 E= -2159.38950696778     Delta-E=       -0.000000113802 Rises=F Damp=F
 DIIS: error= 1.53D-06 at cycle   9 NSaved=   9.
 NSaved= 9 IEnMin= 9 EnMin= -2159.38950696778     IErMin= 9 ErrMin= 1.53D-06
 ErrMax= 1.53D-06  0.00D+00 EMaxC= 1.00D-01 BMatC= 1.19D-08 BMatP= 1.49D-07
 IDIUse=1 WtCom= 1.00D+00 WtEn= 0.00D+00
 Coeff-Com:  0.668D-04-0.180D-03-0.553D-03-0.924D-03-0.225D-02 0.668D-02
 Coeff-Com:  0.853D-01 0.310D+00 0.602D+00
 Coeff:      0.668D-04-0.180D-03-0.553D-03-0.924D-03-0.225D-02 0.668D-02
 Coeff:      0.853D-01 0.310D+00 0.602D+00
 Gap=     0.258 Goal=   None    Shift=    0.000
 RMSDP=7.28D-07 MaxDP=3.54D-04 DE=-1.14D-07 OVMax= 1.08D-05

 Cycle  10  Pass 1  IDiag  1:
 RMSU=  4.11D-07    CP:  9.30D-01  1.01D+00  8.82D-01  6.20D-01  7.93D-01
                    CP:  7.34D-01  7.73D-01  8.47D-01  8.00D-01
 E= -2159.38950697674     Delta-E=       -0.000000008961 Rises=F Damp=F
 DIIS: error= 5.78D-07 at cycle  10 NSaved=  10.
 NSaved=10 IEnMin=10 EnMin= -2159.38950697674     IErMin=10 ErrMin= 5.78D-07
 ErrMax= 5.78D-07  0.00D+00 EMaxC= 1.00D-01 BMatC= 1.15D-09 BMatP= 1.19D-08
 IDIUse=1 WtCom= 1.00D+00 WtEn= 0.00D+00
 Coeff-Com:  0.274D-04-0.635D-04-0.268D-03-0.564D-03-0.193D-02-0.113D-02
 Coeff-Com:  0.189D-01 0.964D-01 0.295D+00 0.593D+00
 Coeff:      0.274D-04-0.635D-04-0.268D-03-0.564D-03-0.193D-02-0.113D-02
 Coeff:      0.189D-01 0.964D-01 0.295D+00 0.593D+00
 Gap=     0.258 Goal=   None    Shift=    0.000
 RMSDP=1.84D-07 MaxDP=3.91D-05 DE=-8.96D-09 OVMax= 3.41D-06

 Cycle  11  Pass 1  IDiag  1:
 RMSU=  1.25D-07    CP:  9.30D-01  1.01D+00  8.82D-01  6.20D-01  7.93D-01
                    CP:  7.33D-01  7.75D-01  8.60D-01  7.98D-01  8.27D-01
 E= -2159.38950697743     Delta-E=       -0.000000000682 Rises=F Damp=F
 DIIS: error= 1.89D-07 at cycle  11 NSaved=  11.
 NSaved=11 IEnMin=11 EnMin= -2159.38950697743     IErMin=11 ErrMin= 1.89D-07
 ErrMax= 1.89D-07  0.00D+00 EMaxC= 1.00D-01 BMatC= 1.12D-10 BMatP= 1.15D-09
 IDIUse=1 WtCom= 1.00D+00 WtEn= 0.00D+00
 Coeff-Com:  0.822D-05-0.177D-04-0.954D-04-0.212D-03-0.787D-03-0.962D-03
 Coeff-Com:  0.324D-02 0.252D-01 0.103D+00 0.304D+00 0.566D+00
 Coeff:      0.822D-05-0.177D-04-0.954D-04-0.212D-03-0.787D-03-0.962D-03
 Coeff:      0.324D-02 0.252D-01 0.103D+00 0.304D+00 0.566D+00
 Gap=     0.258 Goal=   None    Shift=    0.000
 RMSDP=6.52D-08 MaxDP=1.76D-05 DE=-6.82D-10 OVMax= 9.69D-07

 Cycle  12  Pass 1  IDiag  1:
 RMSU=  4.00D-08    CP:  9.30D-01  1.01D+00  8.82D-01  6.20D-01  7.93D-01
                    CP:  7.33D-01  7.74D-01  8.63D-01  8.06D-01  8.14D-01
                    CP:  7.79D-01
 E= -2159.38950697749     Delta-E=       -0.000000000067 Rises=F Damp=F
 DIIS: error= 5.26D-08 at cycle  12 NSaved=  12.
 NSaved=12 IEnMin=12 EnMin= -2159.38950697749     IErMin=12 ErrMin= 5.26D-08
 ErrMax= 5.26D-08  0.00D+00 EMaxC= 1.00D-01 BMatC= 7.84D-12 BMatP= 1.12D-10
 IDIUse=1 WtCom= 1.00D+00 WtEn= 0.00D+00
 Coeff-Com:  0.221D-06-0.179D-06-0.119D-04-0.286D-04-0.124D-03-0.309D-03
 Coeff-Com: -0.891D-03-0.683D-03 0.104D-01 0.639D-01 0.250D+00 0.678D+00
 Coeff:      0.221D-06-0.179D-06-0.119D-04-0.286D-04-0.124D-03-0.309D-03
 Coeff:     -0.891D-03-0.683D-03 0.104D-01 0.639D-01 0.250D+00 0.678D+00
 Gap=     0.258 Goal=   None    Shift=    0.000
 RMSDP=2.28D-08 MaxDP=8.47D-06 DE=-6.73D-11 OVMax= 2.99D-07

 Cycle  13  Pass 1  IDiag  1:
 RMSU=  1.19D-08    CP:  9.30D-01  1.01D+00  8.82D-01  6.20D-01  7.93D-01
                    CP:  7.33D-01  7.74D-01  8.63D-01  8.11D-01  8.20D-01
                    CP:  7.79D-01  7.73D-01
 E= -2159.38950697747     Delta-E=        0.000000000026 Rises=F Damp=F
 DIIS: error= 1.59D-08 at cycle  13 NSaved=  13.
 NSaved=13 IEnMin=12 EnMin= -2159.38950697749     IErMin=13 ErrMin= 1.59D-08
 ErrMax= 1.59D-08  0.00D+00 EMaxC= 1.00D-01 BMatC= 7.09D-13 BMatP= 7.84D-12
 IDIUse=1 WtCom= 1.00D+00 WtEn= 0.00D+00
 Coeff-Com: -0.394D-06 0.987D-06 0.106D-06-0.853D-06-0.106D-04-0.856D-04
 Coeff-Com: -0.599D-03-0.191D-02-0.146D-02 0.118D-01 0.840D-01 0.325D+00
 Coeff-Com:  0.584D+00
 Coeff:     -0.394D-06 0.987D-06 0.106D-06-0.853D-06-0.106D-04-0.856D-04
 Coeff:     -0.599D-03-0.191D-02-0.146D-02 0.118D-01 0.840D-01 0.325D+00
 Coeff:      0.584D+00
 Gap=     0.258 Goal=   None    Shift=    0.000
 RMSDP=5.67D-09 MaxDP=1.22D-06 DE= 2.64D-11 OVMax= 1.22D-07

 Cycle  14  Pass 1  IDiag  1:
[...]
 0000929,0.00000124,0.00001950,0.00000401,0.00000102,0.00001441,-0.0000
 0403,-0.00000086,0.00000449,0.00000119,-0.00000453,-0.00000056,-0.0000
 0616,0.00000608,0.00000676,0.00002946,-0.00003934,-0.00004144,-0.00002
 790,-0.00003112,-0.00005197,-0.00001811,-0.00000448,-0.00005039,0.0001
 1243,0.00004513,-0.00009772,-0.00002382,-0.00002745,-0.00001587,-0.000
 09616,0.00003338,-0.00007204,0.00013587,0.00000467,-0.00010266,0.00048
 044,0.00013683,0.00016338,0.00004080,-0.00002039,-0.00000156,-0.000017
 24,0.00000836,-0.00000899,-0.00000039,-0.00000550,-0.00000940,0.000006
 40,-0.00000508,0.00000033,0.00000653,0.00000765,-0.00000070,0.00013928
 ,0.00004385,-0.00009258,-0.00059197,-0.00003450,0.00080405,-0.00024407
 ,-0.00049550,-0.00028299,-0.00018265,0.00011481,0.00001354,-0.00000701
 ,-0.00006682,0.00001528,-0.00003705,0.00003019,0.00009728,-0.00000156,
 0.00000051,-0.00000464,-0.00000315,0.00002836,0.00001386,0.00000725,-0
 .00000444,0.00000594,0.00000359,0.00000276,-0.00000784,-0.00000891,-0.
 00000696,-0.00000195,-0.00000348,-0.00000248,0.00000521,-0.00000502,-0
 .00000937,-0.00000582,0.00000683,0.00001416,-0.00000471,-0.00000637,0.
 00000264,0.00000634,-0.00000342,-0.00000129,0.00000102,-0.00000110,-0.
 00000593,-0.00000027,0.00000095,0.00000373,-0.00000064,0.00005415,0.00
 000182,-0.00000157,0.00004960,0.00005018,-0.00001582,0.00007041,-0.000
 00426,-0.00000378,0.00032160,-0.00083340,-0.00048555,0.04076331,0.0000
 2518,-0.00006542,0.00002879,-0.00000011,0.00007599,-0.00001226,-0.0000
 2198,0.00011031,-0.00005440,-0.00002735,0.00000845,0.00001522,-0.00001
 773,0.00002248,-0.00006342,-0.00000433,0.00000063,0.00000197,-0.000031
 33,0.00002265,-0.00009272,0.00008875,-0.00000965,0.00010065,0.00004772
 ,-0.00003256,0.00007426,0.00003744,-0.00003798,-0.00000655,0.00000368,
 -0.00013252,-0.00000575,-0.00002394,-0.00006962,0.00003759,0.00003216,
 0.00006317,-0.00005244,-0.00021843,-0.00005164,-0.00002802,0.00012388,
 -0.00012175,-0.00006657,0.00007778,0.00031096,-0.00025626,-0.00007685,
 -0.00001508,-0.00043753,0.00004357,-0.00006155,0.00005643,-0.00002210,
 0.00001631,-0.00003391,0.00001248,0.00001228,-0.00001134,-0.00000391,-
 0.00002518,0.00002410,-0.00041254,0.00055248,0.00090533,0.00445135,-0.
 00591598,0.00084697,0.00721750,-0.00787372,-0.03452985,0.00089197,-0.0
 0229532,-0.00437810,0.00079175,-0.00055055,-0.00133975,-0.00055846,0.0
 0019016,0.00142876,0.00031812,0.00087449,-0.00254859,0.00047558,-0.000
 48667,0.00032076,-0.00016783,-0.00006177,0.00006140,-0.00052505,0.0009
 6021,0.00031550,0.00035247,-0.00040651,0.00003579,-0.00007703,0.000031
 36,-0.00000251,0.00002778,-0.00002390,-0.00003220,0.00000650,0.0000070
 5,-0.00000930,-0.00001815,-0.00001629,-0.00000367,0.00000770,-0.000025
 50,0.00006717,-0.00088671,0.00181280,0.00007509,0.02419842,-0.03395232
 ,-0.02547499,0.00055596,-0.00167809,0.00081860,0.00000195,-0.00000640,
 0.00001656,-0.00000462,0.00000072,0.00001816,0.00000631,-0.00000115,0.
 00000379,0.00000441,-0.00000152,0.00001151,0.00000263,-0.00000534,0.00
 000943,0.00001174,-0.00000084,0.00001195,-0.00000181,-0.00000147,0.000
 00367,-0.00004069,0.00000760,-0.00002658,-0.00003124,0.00001539,-0.000
 01674,-0.00000956,0.00002385,0.00000666,0.00001992,0.00006073,0.000026
 02,0.00000059,-0.00000608,0.00000875,0.00005452,-0.00001032,0.00005311
 ,-0.00002928,0.00006738,0.00012972,-0.00019547,-0.00014621,-0.00013344
 ,-0.00002504,-0.00000360,0.00005234,-0.00000553,-0.00000807,0.00000896
 ,0.00000162,0.00000094,0.00000519,-0.00000353,-0.00000023,-0.00000314,
 0.00000890,0.00000648,-0.00001156,-0.00015364,0.00010202,0.00029770,0.
 00025152,0.00076960,0.00042135,-0.00015183,-0.00035833,0.00029468,-0.0
 0010909,0.00015112,0.00002248,-0.00002905,-0.00001839,0.00001393,0.000
 05002,-0.00007701,-0.00023804,-0.00000697,0.00002665,0.00007096,-0.000
 01641,0.00000880,-0.00003643,-0.00006498,0.00005588,0.00001757,-0.0000
 3231,0.00003126,-0.00002198,0.00001409,0.00005293,0.00001247,0.0000163
 1,-0.00001875,0.00001296,0.00000740,0.00002982,0.00002199,-0.00004589,
 -0.00001497,-0.00001829,0.00001198,-0.00001425,-0.00002945,-0.00000218
 ,0.00001375,0.00001223,0.00000223,-0.00000017,-0.00000716,0.00000077,0
 .00000760,0.00001717,-0.00002391,-0.00008697,-0.00011328,0.00010256,0.
 00009730,-0.00012225,-0.00009773,-0.00000047,-0.00005441,-0.00077707,0
 .00046985,0.00085732,-0.03481213,0.04479806,0.00007166,0.00011447,0.00
 001884,-0.00014264,-0.00012667,-0.00004516,-0.00000443,0.00001257,-0.0
 0003679,-0.00005943,-0.00001014,0.00002522,0.00000218,-0.00001656,0.00
 001632,-0.00007417,-0.00005400,-0.00002058,0.00000054,-0.00001131,0.00
 000060,0.00002485,0.00003670,-0.00000463,0.00002912,0.00003415,-0.0000
 2791,0.00006996,0.00000122,-0.00003074,0.00006842,0.00002967,0.0000150
 3,0.00014422,0.00007769,0.00006240,-0.00000736,-0.00006515,0.00002523,
 -0.00000938,0.00013525,-0.00005010,0.00010458,-0.00004921,0.00010228,-
 0.00015544,-0.00026078,-0.00008713,-0.00021435,0.00008051,-0.00032708,
 0.00010639,0.00009970,0.00029997,-0.00007291,0.00004421,-0.00014347,0.
 00002038,-0.00003658,-0.00002104,-0.00002942,0.00003221,0.00004744,-0.
 00017345,-0.00015802,0.00065223,0.00107184,-0.00002089,0.00047154,0.00
 040682,-0.00158529,-0.00402148,-0.00157735,0.00242455,0.00382210,0.000
 20418,-0.00041013,-0.00083503,0.00024148,-0.00010128,-0.00055085,-0.00
 023806,-0.00013244,0.00015215,0.00004821,0.00000508,-0.00004806,0.0000
 2182,0.00010323,0.00007367,-0.00012409,0.00066669,-0.00030996,0.000142
 49,0.00003607,0.00006509,-0.00004769,0.00003593,0.00000642,0.00000165,
 -0.00000578,-0.00000269,-0.00001005,-0.00000475,0.00000518,0.00001898,
 -0.00006097,0.00000005,0.00003176,0.00007717,-0.00002352,0.00003684,-0
 .00119229,-0.00081977,0.07855454,-0.06203652,-0.50544507,0.00008946,0.
 00000491,0.00055540,0.00000859,0.00000573,0.00001358,-0.00001690,-0.00
 001573,0.00001228,0.00000742,0.00000461,-0.00000056,0.00000644,0.00000
 855,-0.00000167,0.00000946,0.00000179,0.00000689,0.00000535,0.00000653
 ,0.00000015,-0.00000215,-0.00000486,-0.00000302,-0.00001628,-0.0000219
 7,0.00001291,-0.00001942,-0.00001747,0.00002114,-0.00003401,0.00000137
 ,0.00000925,-0.00008349,-0.00002690,-0.00002310,0.00002153,0.00001568,
 0.00001642,-0.00002204,-0.00001222,-0.00000186,-0.00007567,0.00007705,
 -0.00007904,0.00010518,0.00012092,-0.00025388,0.00001392,-0.00002329,0
 .00003434,0.00000790,-0.00001715,0.00001769,-0.00000076,0.00000635,0.0
 0001403,-0.00000748,0.00000176,-0.00000388,0.00001239,-0.00000922,-0.0
 0001510,0.00002947,0.00013249,0.00021518,-0.00127718,0.00109690,0.0003
 4871,-0.00014370,-0.00043904,-0.00031429,-0.00006405,0.00006499,0.0000
 3618,0.00008472,-0.00000960,-0.00001350,-0.00003046,0.00005134,0.00001
 630,0.00001725,-0.00001461,-0.00002353,0.00001301,-0.00002150,-0.00004
 735,0.00001077,-0.00001688,-0.00000951,-0.00002831,0.00001711,-0.00000
 846,0.00000994,0.00001745,-0.00000147,0.00001001,0.00001061,-0.0000120
 8,0.00000146,0.00000726,-0.00000057,-0.00000906,-0.00000079,0.00000983
 ,0.00000998,-0.00000766,-0.00000074,-0.00000013,0.00000629,-0.00000457
 ,0.00000132,0.00000794,0.00000147,-0.00000509,0.00000298,-0.00000494,-
 0.00001275,-0.00005201,0.00002089,-0.00006083,-0.00008891,0.00003017,-
 0.00003131,-0.00002381,-0.00000718,0.00032451,-0.00040503,-0.00044681,
 -0.07725950,0.06143231,0.50859440,-0.00001353,0.00014842,0.00005593,-0
 .00006199,-0.00018214,-0.00003613,-0.00000349,-0.00007418,-0.00008421,
 -0.00002676,-0.00003233,0.00000209,0.00001226,-0.00002429,-0.00000641,
 -0.00003424,-0.00003237,-0.00003468,0.00002122,-0.00002963,0.00002454,
 -0.00006732,0.00004228,-0.00002022,-0.00000510,0.00007024,0.00001490,0
 .00003349,0.00004481,0.00003313,0.00003402,0.00012911,0.00012964,0.000
 15861,0.00021902,0.00043413,-0.00028244,0.00056385,-0.00109475,-0.0014
 0965,-0.00251678,-0.00229137,0.00005376,-0.00079098,-0.00020487,-0.003
 77659,0.00142372,-0.01032698,0.00267547,0.00012101,0.00403484,-0.00087
 161,0.00049786,-0.00027473,-0.00003009,-0.00000215,-0.00003447,0.00002
 836,-0.00001486,-0.00007549,-0.00008059,0.00006108,0.00000274,-0.00024
 858,-0.00134600,-0.00155167,0.00063385,0.00153481,-0.00050598,0.000486
 54,0.00117482,-0.00114865,-0.00015798,0.00020930,-0.00001350,0.0001189
 1,0.00010531,-0.00016436,-0.00005905,-0.00024885,0.00014922,-0.0000813
 0,0.00005380,-0.00006741,0.00012127,0.00005450,0.00010206,-0.00017673,
 -0.00006145,-0.00011182,-0.00005237,-0.00009936,0.00004864,-0.00001051
 ,0.00004649,-0.00000806,0.00000369,0.00000694,0.00000156,0.00000120,-0
 .00001071,-0.00000122,0.00000735,0.00000796,0.00000115,0.00000677,-0.0
 0000835,0.00000081,-0.00007953,-0.00001167,0.00000123,-0.00013152,-0.0
 0003591,0.00012883,-0.00436638,-0.00021328,0.00174544,-0.03693999,0.03
 281967,-0.10090066,0.00003979,0.00001783,0.00005569,-0.00002050,-0.000
 04348,0.00002435,0.00001200,0.00000538,0.00001121,0.00000662,0.0000118
 9,0.00000174,0.00000671,0.00000238,0.00000488,-0.00000177,0.00000501,-
 0.00000646,-0.00000712,0.00000337,0.00000287,0.00002862,-0.00004647,-0
 .00001251,-0.00001527,-0.00003782,-0.00000523,-0.00004254,-0.00001773,
 -0.00002455,-0.00005523,-0.00004915,-0.00016903,-0.00006715,-0.0002857
 1,-0.00013449,0.00005164,-0.00004571,0.00006639,0.00087817,0.00043968,
 -0.00041086,0.00042252,0.00120945,-0.00047253,-0.00005925,-0.00004561,
 0.00009623,0.00000419,0.00001396,-0.00002653,-0.00000273,-0.00001488,-
 0.00000800,0.00000688,-0.00001047,-0.00000451,0.00000738,0.00000105,-0
 .00000082,-0.00010034,-0.00034135,-0.00000427,-0.00035146,0.00037134,-
 0.00018164,-0.00004357,-0.00008593,0.00003039,-0.00002104,0.00001031,-
 0.00000289,-0.00007097,0.00005293,-0.00002580,-0.00001203,-0.00002215,
 -0.00001355,-0.00002174,0.00001364,0.00005345,0.00004166,-0.00004398,0
 .00007663,0.00000014,0.00000532,0.00000429,0.00000427,-0.00000357,-0.0
 0000239,-0.00000273,-0.00000281,-0.00000207,-0.00000437,-0.00000241,0.
 00000161,-0.00000330,-0.00000768,-0.00000176,0.00000443,0.00001010,0.0
 0000158,-0.00000691,0.00000497,0.00000214,-0.00000232,-0.00000105,-0.0
 0000202,-0.00000115,-0.00000604,0.00000331,0.00000443,0.00000363,-0.00
 000021,0.00004606,0.00000832,0.00001390,0.00008670,0.00005392,-0.00002
 456,0.00009022,-0.00001907,0.00002154,0.00003933,-0.00001045,-0.000002
 64,0.00043655,-0.00059341,-0.00008220,0.04326576,-0.00002710,-0.000282
 98,0.00005769,0.00021427,0.00033645,0.00000137,-0.00003158,0.00014216,
 -0.00010072,0.00001301,0.00001945,0.00001294,-0.00003022,0.00003606,-0
 .00008634,0.00006156,0.00003617,0.00001496,-0.00005957,0.00004539,-0.0
 0012905,0.00015193,-0.00003051,0.00014008,0.00004843,-0.00006468,0.000
 09383,-0.00001627,-0.00004881,0.00002648,-0.00008797,-0.00022089,0.000
 04125,-0.00022444,-0.00033450,0.00022362,-0.00092925,0.00148903,-0.001
 50570,-0.00038491,-0.00634205,-0.00344238,0.00016285,0.00024197,0.0002
 5174,-0.00988059,0.00869981,-0.03806099,-0.00238602,0.00055390,-0.0037
 9836,0.00093537,-0.00107587,0.00030427,-0.00032632,0.00024067,0.000104
 05,-0.00003790,0.00015986,0.00009313,0.00016294,-0.00024560,0.00005752
 ,0.00017556,-0.00043814,0.00246510,0.00006987,-0.00053933,-0.00095290,
 0.00399111,-0.00382782,-0.00172705,-0.00110461,0.00057936,0.00045046,0
 .00046574,-0.00062310,-0.00055911,-0.00006966,0.00024184,0.00024695,0.
 00016120,-0.00026032,0.00035133,-0.00028415,0.00005094,-0.00038420,0.0
 0025760,0.00003486,0.00042124,-0.00025636,0.00094807,-0.00006888,0.000
 28515,-0.00030356,0.00004985,-0.00006596,0.00002290,-0.00000303,0.0000
 1882,-0.00001021,-0.00001813,-0.00001528,-0.00000653,-0.00000471,-0.00
 000345,-0.00004995,-0.00001024,0.00011556,0.00005795,0.00004111,-0.000
 10870,0.00047411,-0.00043084,-0.00092741,0.00156171,-0.00214821,0.0472
 9072,-0.10862755,0.17829586,0.00001383,-0.00001348,0.00004474,-0.00000
 843,-0.00001248,0.00003115,0.00001143,-0.00000071,0.00000946,-0.000000
 66,-0.00000837,0.00001515,-0.00000183,-0.00000667,0.00000847,0.0000154
 5,-0.00000909,0.00001947,-0.00000055,0.00000039,0.00000115,-0.00005370
 ,0.00002741,-0.00001945,-0.00002214,0.00002233,-0.00002289,0.00001161,
 0.00002574,-0.00001027,0.00016387,0.00013856,-0.00001617,-0.00014983,-
 0.00056114,-0.00033784,0.00030767,-0.00000315,0.00009528,-0.00032083,-
 0.00019897,0.00051449,-0.00125875,-0.00063818,-0.00067819,-0.00009494,
 -0.00000208,0.00028079,0.00000966,-0.00003264,0.00004221,0.00001948,0.
 00000783,0.00003623,-0.00000476,-0.00000625,-0.00001247,0.00000865,0.0
 0001457,-0.00001407,-0.00005513,-0.00002708,-0.00012537,-0.00061569,0.
 00049938,0.00003086,0.00002491,-0.00008184,0.00003880,-0.00001181,0.00
 005663,0.00002085,0.00000781,0.00001416,-0.00002003,0.00000311,0.00006
 399,0.00010427,0.00001568,-0.00000334,-0.00001078,-0.00008912,0.000183
 31,-0.00028696,-0.00002824,0.00001216,0.00000671,-0.00003191,0.0000323
 7,-0.00001789,0.00001298,0.00004325,0.00001069,0.00001955,-0.00000615,
 0.00000248,0.00001058,0.00002941,0.00001302,-0.00004079,-0.00001524,-0
 .00000785,0.00002299,-0.00002565,-0.00002077,0.00000226,0.00001772,0.0
 0000697,0.00000368,0.00001367,-0.00000915,-0.00001019,0.00000464,0.000
 00987,-0.00007642,-0.00010936,-0.00006549,-0.00007082,-0.00006423,-0.0
 0005645,-0.00019428,0.00000327,-0.00008313,-0.00006497,-0.00002001,0.0
 0017349,-0.00069607,0.00282064,0.00041738,-0.03410727,0.10517440,0.000
 18209,0.00045603,-0.00002611,-0.00058450,-0.00061880,-0.00003363,0.000
 06480,-0.00016350,0.00011641,-0.00012766,-0.00001450,0.00002106,0.0000
 3760,-0.00005795,0.00012232,-0.00019459,-0.00012943,-0.00004417,0.0000
 5770,-0.00005980,0.00012670,-0.00009512,0.00007735,-0.00014568,-0.0000
 0396,0.00009460,-0.00015203,0.00014327,0.00003348,-0.00010106,0.000319
 85,0.00034572,-0.00008262,0.00078001,0.00067274,0.00022875,-0.00057084
 ,0.00011023,-0.00026102,0.00010913,-0.00317611,-0.00107814,0.00140609,
 0.00054477,0.00108495,-0.00835265,0.00321242,-0.02758966,0.00179789,-0
 .00188880,-0.00129182,-0.00049323,0.00161552,0.00140620,-0.00022010,0.
 00012406,-0.00060651,0.00011744,-0.00024868,-0.00007483,-0.00018974,0.
 00029194,0.00002497,-0.00051198,0.00251140,-0.00121884,-0.00021741,-0.
 00181523,0.00200701,-0.00472413,0.00298532,0.00281561,0.00135528,-0.00
 096102,-0.00034529,-0.00051263,0.00051151,0.00114253,0.00005931,0.0001
 9799,-0.00079015,-0.00005836,-0.00016539,-0.00029607,0.00024649,-0.000
 11017,0.00030497,-0.00021343,0.00018212,-0.00036782,0.00029092,-0.0007
 7197,-0.00011278,-0.00023528,0.00021470,0.00000040,0.00006347,-0.00002
 383,0.00000441,-0.00001879,0.00000650,0.00002158,0.00000197,0.00000172
 ,0.00000967,0.00002705,-0.00003618,0.00000662,-0.00004165,0.00005982,-
 0.00007853,0.00015943,-0.00038065,-0.00009330,0.00268475,-0.00565940,-
 0.00397677,-0.10565940,0.13004628,-0.40598142,0.00005921,0.00003941,0.
 00001162,-0.00002276,0.00001276,-0.00000892,-0.00000566,0.00000485,-0.
 00001575,0.00001128,0.00002314,-0.00002116,0.00001746,0.00001005,0.000
 00382,-0.00000550,0.00002171,-0.00001962,-0.00000173,-0.00001161,-0.00
 000714,0.00002187,-0.00004400,0.00004327,-0.00000186,-0.00003197,0.000
 05782,-0.00006368,-0.00001331,0.00004414,-0.00053303,-0.00031516,0.000
 05718,0.00013564,-0.00003657,0.00002459,0.00011008,-0.00007467,0.00020
 788,-0.00167402,0.00021428,-0.00048521,0.00033494,0.00211714,0.0023616
 2,-0.00006689,0.00006099,-0.00021791,0.00004801,-0.00003076,0.00000978
 ,-0.00001737,0.00004384,0.00003241,-0.00001440,0.00001616,0.00001069,0
 .00002927,-0.00003572,-0.00000979,0.00011022,-0.00006977,-0.00004722,0
 .00054961,-0.00030774,-0.00000731,-0.00006064,0.00007041,-0.00007409,-
 0.00000005,-0.00006015,-0.00005049,-0.00007409,0.00005284,0.00002826,-
 0.00000774,0.00001526,-0.00008689,0.00007111,-0.00004509,-0.00005857,0
 .00011723,-0.00029961,0.00019776,0.00003889,-0.00002023,-0.00000479,0.
 00001983,-0.00002360,0.00000144,-0.00001596,-0.00003577,-0.00000637,-0
 .00001225,0.00000782,-0.00001198,-0.00000622,-0.00001946,-0.00001511,0
 .00002561,0.00001692,0.00001378,-0.00000764,0.00001218,0.00002128,-0.0
 0000297,-0.00000696,-0.00001092,-0.00000149,-0.00000050,0.00000850,0.0
 0000242,-0.00000563,-0.00001510,0.00004767,0.00005772,0.00009918,-0.00
 006121,-0.00009474,0.00013131,0.00012542,-0.00003084,0.00007370,0.0000
 1218,0.00004671,-0.00014603,0.00069400,0.00118757,-0.00172076,0.113196
 09,-0.13043275,0.43490519\\0.00001878,-0.00000568,0.00002512,-0.000064
 53,0.00000887,-0.00003133,-0.00000781,0.00000291,0.00000200,0.00001546
 ,-0.00000971,0.00002833,-0.00000633,0.00000237,-0.00000140,-0.00000908
 ,0.00000258,-0.00003035,-0.00000295,0.00000685,-0.00000599,0.00002700,
 0.00000703,-0.00000837,-0.00000794,0.00002083,0.00001343,0.00000391,0.
 00001065,-0.00000714,-0.00000236,-0.00001488,-0.00000828,0.00004296,-0
 .00000159,0.00000279,-0.00000584,0.00002082,-0.00000541,0.00001147,-0.
 00001658,-0.00000512,0.00000090,0.00000067,0.00000585,-0.00000292,-0.0
 0001158,0.00000334,-0.00000747,0.00002028,-0.00000929,0.00000509,-0.00
 000359,0.00001742,-0.00001276,0.00002796,-0.00001719,0.00002712,0.0000
 0125,0.00000726,-0.00002152,-0.00001328,-0.00002109,0.00000017,-0.0000
 2234,0.00002292,0.00000473,0.00000532,-0.00000849,0.00000689,0.0000092
 8,-0.00002911,-0.00000772,0.00000872,-0.00000174,0.00001368,0.00002603
 ,0.00003796,0.00000790,-0.00001449,-0.00001585,-0.00000739,0.00001373,
 0.00000016,0.00000324,-0.00001177,0.00001332,0.00000615,0.00000421,0.0
 0001449,0.00000866,-0.00001451,-0.00002773,-0.00001462,0.00000244,0.00
 000745,0.00000555,-0.00000452,0.00000159,0.00000044,0.00000238,0.00000
 206,-0.00001024,0.00001143,-0.00000599,0.00000511,-0.00000555,0.000010
 59,-0.00002535,-0.00002842,-0.00000796,0.00000287,-0.00002049,-0.00000
 144,0.00000376,-0.00000112,0.00001484,-0.00001352,0.00001067,-0.000010
 76,0.00000850,-0.00000499,0.00001836,-0.00000285,0.00000279,-0.0000074
 6,-0.00000249,-0.00000323,0.00000878,-0.00000024,0.00000993,-0.0000021
 1,-0.00000034,0.00000092,0.00001616,-0.00000503,0.00000907,-0.00000512
 ,-0.00001077,-0.00000980,0.00001547,-0.00001857,-0.00000047,-0.0000015
 1,0.00000727,-0.00000752,-0.00000043,0.00000180,-0.00000715,0.00000325
 ,-0.00000175,0.00001363,0.00002026,0.00000284,-0.00000064,0.00001598,-
 0.00000078,-0.00000543,0.00000015,-0.00000017,-0.00000206,0.00000204,0
 .00001187,0.00000972,-0.00000350,-0.00000701,-0.00001381,0.00000408,-0
 .00000838,-0.00001257,0.00001139,0.00000023,-0.00001482,-0.00000035,-0
 .00000551,0.00000153,-0.00000851,-0.00000219,0.00001484,0.00000413,0.0
 0001243,0.00000133,0.00000596,-0.00000785,-0.00000463,0.00000220,0.000
 01621,-0.00000314,0.00000910,-0.00001303,-0.00001223,-0.00001703,-0.00
 000620,-0.00000992,-0.00000559,-0.00000428,0.00000429,-0.00001032,0.00
 000061,-0.00000177,-0.00000156,-0.00000339,0.00001283,-0.00001850,-0.0
 0000108,0.00000264,0.00000277,0.00000558,-0.00000334,-0.00000543,-0.00
 000909,-0.00000072,-0.00000558,0.00000482,0.00000413,-0.00000733,0.000
 00569,0.00000019,-0.00000188,0.00000516,-0.00000884,-0.00000519,-0.000
 00094,-0.00001129,-0.00000700,0.00000141,0.00000412,-0.00000434,0.0000
 0386,0.00000911,-0.00000107,-0.00000847,0.00000410,0.00000253,0.000004
 38,0.00000223,-0.00000458,0.00000900,0.00001415,-0.00000619,0.00001339
 ,-0.00000723,0.00001231,0.00000395,0.00000779,-0.00000340,-0.00000261,
 -0.00000256,-0.00000269,0.00001257,-0.00000836,0.00001090\\\@


 THESE ARE THE TIMES THAT TRY MENS SOULS.
 THE SUMMER SOLDIER AND THE SUNSHINE PATRIOT WILL IN THIS CRISIS,
 SHRINK FROM THE SERVICE OF HIS COUNTRY.  BUT HE THAT STANDS NOW,
 DESERVES THE LOVE AND THANKS OF MAN AND WOMAN.
 TYRANNY, LIKE HELL, IS NOT EASILY CONQUERED,
 YET WE HAVE THIS CONSOLATION WITH US,
 THAT THE HARDER THE CONFLICT, THE MORE GLORIOUS THE TRIUMPH.
 WHAT WE OBTAIN TOO CHEAP, WE ESTEEM TOO LIGHTLY, 
 'TIS DEARNESS ONLY THAT GIVES EVERYTHING ITS VALUE.

                                              -- TOM PAINE
 Job cpu time:      18 days  1 hours  5 minutes 39.9 seconds.
 File lengths (MBytes):  RWF=  24123 Int=      0 D2E=      0 Chk=     97 Scr=      1
 Normal termination of Gaussian 09 at Tue May 24 16:54:57 2016.
