 Entering Gaussian System, Link 0=g16
 Input=input.com
 Output=input.log
 Initial command:
 /home/matma/Programs/gaussian/G16_x86_SSE4/tar/g16/l1.exe "/scratch-data/gaussian/Gau-3826.inp" -scrdir="/scratch-data/gaussian/"
 Entering Link 1 = /home/matma/Programs/gaussian/G16_x86_SSE4/tar/g16/l1.exe PID=      3828.
  
 Copyright (c) 1988-2017, Gaussian, Inc.  All Rights Reserved.
  
 This is part of the Gaussian(R) 16 program.  It is based on
 the Gaussian(R) 09 system (copyright 2009, Gaussian, Inc.),
 the Gaussian(R) 03 system (copyright 2003, Gaussian, Inc.),
 the Gaussian(R) 98 system (copyright 1998, Gaussian, Inc.),
 the Gaussian(R) 94 system (copyright 1995, Gaussian, Inc.),
 the Gaussian 92(TM) system (copyright 1992, Gaussian, Inc.),
 the Gaussian 90(TM) system (copyright 1990, Gaussian, Inc.),
 the Gaussian 88(TM) system (copyright 1988, Gaussian, Inc.),
 the Gaussian 86(TM) system (copyright 1986, Carnegie Mellon
 University), and the Gaussian 82(TM) system (copyright 1983,
 Carnegie Mellon University). Gaussian is a federally registered
 trademark of Gaussian, Inc.
  
 This software contains proprietary and confidential information,
 including trade secrets, belonging to Gaussian, Inc.
  
 This software is provided under written license and may be
 used, copied, transmitted, or stored only in accord with that
 written license.
  
 The following legend is applicable only to US Government
 contracts under FAR:
  
                    RESTRICTED RIGHTS LEGEND
  
 Use, reproduction and disclosure by the US Government is
 subject to restrictions as set forth in subparagraphs (a)
 and (c) of the Commercial Computer Software - Restricted
 Rights clause in FAR 52.227-19.
  
 Gaussian, Inc.
 340 Quinnipiac St., Bldg. 40, Wallingford CT 06492
  
  
 ---------------------------------------------------------------
 Warning -- This program may not be used in any manner that
 competes with the business of Gaussian, Inc. or will provide
 assistance to any competitor of Gaussian, Inc.  The licensee
 of this program is prohibited from giving any competitor of
 Gaussian, Inc. access to this program.  By using this program,
 the user acknowledges that Gaussian, Inc. is engaged in the
 business of creating and licensing software in the field of
 computational chemistry and represents and warrants to the
 licensee that it is not a competitor of Gaussian, Inc. and that
 it will not use this program in any manner prohibited above.
 ---------------------------------------------------------------
  

 Cite this work as:
 Gaussian 16, Revision B.01,
 M. J. Frisch, G. W. Trucks, H. B. Schlegel, G. E. Scuseria, 
 M. A. Robb, J. R. Cheeseman, G. Scalmani, V. Barone, 
 G. A. Petersson, H. Nakatsuji, X. Li, M. Caricato, A. V. Marenich, 
 J. Bloino, B. G. Janesko, R. Gomperts, B. Mennucci, H. P. Hratchian, 
 J. V. Ortiz, A. F. Izmaylov, J. L. Sonnenberg, D. Williams-Young, 
 F. Ding, F. Lipparini, F. Egidi, J. Goings, B. Peng, A. Petrone, 
 T. Henderson, D. Ranasinghe, V. G. Zakrzewski, J. Gao, N. Rega, 
 G. Zheng, W. Liang, M. Hada, M. Ehara, K. Toyota, R. Fukuda, 
 J. Hasegawa, M. Ishida, T. Nakajima, Y. Honda, O. Kitao, H. Nakai, 
 T. Vreven, K. Throssell, J. A. Montgomery, Jr., J. E. Peralta, 
 F. Ogliaro, M. J. Bearpark, J. J. Heyd, E. N. Brothers, K. N. Kudin, 
 V. N. Staroverov, T. A. Keith, R. Kobayashi, J. Normand, 
 K. Raghavachari, A. P. Rendell, J. C. Burant, S. S. Iyengar, 
 J. Tomasi, M. Cossi, J. M. Millam, M. Klene, C. Adamo, R. Cammi, 
 J. W. Ochterski, R. L. Martin, K. Morokuma, O. Farkas, 
 J. B. Foresman, and D. J. Fox, Gaussian, Inc., Wallingford CT, 2016.
 
 ******************************************
 Gaussian 16:  ES64L-G16RevB.01 20-Dec-2017
                22-Jun-2021 
 ******************************************
 %nproc=12
 Will use up to   12 processors via shared memory.
 %mem=16GB
 --------------------------------------
 #P pm6 opt=loose freq int=(grid=99590)
 --------------------------------------
 1/7=-1,18=20,19=15,26=1,38=1/1,3;
 2/9=110,12=2,17=6,18=5,40=1/2;
 3/5=2,25=1,41=3900000,71=1,75=99590/1,2,3;
 4/35=1/1;
 5/5=2,35=1,38=5/2;
 6/7=2,8=2,9=2,10=2,28=1/1;
 7//1,2,3,16;
 1/7=-1,18=20,19=15,26=1/3(2);
 2/9=110/2;
 99//99;
 2/9=110/2;
 3/5=2,25=1,41=3900000,71=1,75=99590,135=20/1,2,3;
 4/5=5,16=3,35=1/1;
 5/5=2,35=1,38=5/2;
 7//1,2,3,16;
 1/7=-1,18=20,19=15,26=1/3(-5);
 2/9=110/2;
 6/7=2,8=2,9=2,10=2,19=2,28=1/1;
 99/9=1/99;
 Leave Link    1 at Tue Jun 22 14:23:00 2021, MaxMem=  2147483648 cpu:               0.2 elap:               0.0
 (Enter /home/matma/Programs/gaussian/G16_x86_SSE4/tar/g16/l101.exe)
 ------------
 offspring-14
 ------------
 Symbolic Z-matrix:
 Charge =  0 Multiplicity = 1
 O                     1.965     0.955     0.207 
 C                     2.446     2.126     0.881 
 C                     3.128     1.708     2.204 
 O                     3.989     0.632     1.813 
 C                     2.07      1.194     3.205 
 C                     1.086     2.333     3.534 
 O                     1.055     3.347     2.536 
 C                     1.213     3.021     1.138 
 C                    -0.098     2.418     0.616 
 O                    -1.207     3.116     1.212 
 O                    -2.29      3.946     7.471 
 C                    -1.712     2.685     7.091 
 C                    -1.691     2.596     5.549 
 C                    -0.751     1.482     5.033 
 C                     0.534     1.272     5.878 
 O                     0.395     1.513     7.28 
 C                    -0.291     2.723     7.678 
 C                    -0.265     2.646     9.22 
 O                    -1.562     2.762     9.792 
 O                     0.865    -0.115     5.856 
 O                    -0.288     1.994     3.765 
 O                    -3.04      2.263     5.241 
 O                     2.801     0.882     4.392 
 H                     3.179     2.624     0.206 
 H                     3.745     2.52      2.649 
 H                     4.349     0.19      2.623 
 H                     1.566     0.279     2.809 
 H                     1.352     2.917     4.451 
 H                     1.372     4.051     0.729 
 H                    -0.228     2.565    -0.472 
 H                    -0.195     1.339     0.852 
 H                    -0.975     3.337     2.17 
 H                    -2.325     1.86      7.529 
 H                    -1.42      3.573     5.084 
 H                    -1.312     0.527     4.902 
 H                     1.414     1.817     5.475 
 H                     0.281     3.596     7.295 
 H                     0.079     1.644     9.557 
 H                     0.392     3.427     9.643 
 H                    -2.011     3.59      9.468 
 H                    -3.254     2.473     4.265 
 H                    -3.217     3.99      7.125 
 H                     2.368     0.114     4.859 
 H                     0.643    -0.537     6.726 
 H                     2.679     0.262     0.202 
 
 ITRead=  0  0  0  0  0  0  0  0  0  0  0  0  0  0  0  0  0  0  0  0
 ITRead=  0  0  0  0  0  0  0  0  0  0  0  0  0  0  0  0  0  0  0  0
 ITRead=  0  0  0  0  0
 MicOpt= -1 -1 -1 -1 -1 -1 -1 -1 -1 -1 -1 -1 -1 -1 -1 -1 -1 -1 -1 -1
 MicOpt= -1 -1 -1 -1 -1 -1 -1 -1 -1 -1 -1 -1 -1 -1 -1 -1 -1 -1 -1 -1
 MicOpt= -1 -1 -1 -1 -1
 NAtoms=     45 NQM=       45 NQMF=       0 NMMI=      0 NMMIF=      0
                NMic=       0 NMicF=      0.
                    Isotopes and Nuclear Properties:
 (Nuclear quadrupole moments (NQMom) in fm**2, nuclear magnetic moments (NMagM)
  in nuclear magnetons)

  Atom         1           2           3           4           5           6           7           8           9          10
 IAtWgt=          16          12          12          16          12          12          16          12          12          16
 AtmWgt=  15.9949146  12.0000000  12.0000000  15.9949146  12.0000000  12.0000000  15.9949146  12.0000000  12.0000000  15.9949146
 NucSpn=           0           0           0           0           0           0           0           0           0           0
 AtZEff=  -0.0000000  -0.0000000  -0.0000000  -0.0000000  -0.0000000  -0.0000000  -0.0000000  -0.0000000  -0.0000000  -0.0000000
 NQMom=    0.0000000   0.0000000   0.0000000   0.0000000   0.0000000   0.0000000   0.0000000   0.0000000   0.0000000   0.0000000
 NMagM=    0.0000000   0.0000000   0.0000000   0.0000000   0.0000000   0.0000000   0.0000000   0.0000000   0.0000000   0.0000000
 AtZNuc=   8.0000000   6.0000000   6.0000000   8.0000000   6.0000000   6.0000000   8.0000000   6.0000000   6.0000000   8.0000000

  Atom        11          12          13          14          15          16          17          18          19          20
 IAtWgt=          16          12          12          12          12          16          12          12          16          16
 AtmWgt=  15.9949146  12.0000000  12.0000000  12.0000000  12.0000000  15.9949146  12.0000000  12.0000000  15.9949146  15.9949146
 NucSpn=           0           0           0           0           0           0           0           0           0           0
 AtZEff=  -0.0000000  -0.0000000  -0.0000000  -0.0000000  -0.0000000  -0.0000000  -0.0000000  -0.0000000  -0.0000000  -0.0000000
 NQMom=    0.0000000   0.0000000   0.0000000   0.0000000   0.0000000   0.0000000   0.0000000   0.0000000   0.0000000   0.0000000
 NMagM=    0.0000000   0.0000000   0.0000000   0.0000000   0.0000000   0.0000000   0.0000000   0.0000000   0.0000000   0.0000000
 AtZNuc=   8.0000000   6.0000000   6.0000000   6.0000000   6.0000000   8.0000000   6.0000000   6.0000000   8.0000000   8.0000000

  Atom        21          22          23          24          25          26          27          28          29          30
 IAtWgt=          16          16          16           1           1           1           1           1           1           1
 AtmWgt=  15.9949146  15.9949146  15.9949146   1.0078250   1.0078250   1.0078250   1.0078250   1.0078250   1.0078250   1.0078250
 NucSpn=           0           0           0           1           1           1           1           1           1           1
 AtZEff=  -0.0000000  -0.0000000  -0.0000000  -0.0000000  -0.0000000  -0.0000000  -0.0000000  -0.0000000  -0.0000000  -0.0000000
 NQMom=    0.0000000   0.0000000   0.0000000   0.0000000   0.0000000   0.0000000   0.0000000   0.0000000   0.0000000   0.0000000
 NMagM=    0.0000000   0.0000000   0.0000000   2.7928460   2.7928460   2.7928460   2.7928460   2.7928460   2.7928460   2.7928460
 AtZNuc=   8.0000000   8.0000000   8.0000000   1.0000000   1.0000000   1.0000000   1.0000000   1.0000000   1.0000000   1.0000000

  Atom        31          32          33          34          35          36          37          38          39          40
 IAtWgt=           1           1           1           1           1           1           1           1           1           1
 AtmWgt=   1.0078250   1.0078250   1.0078250   1.0078250   1.0078250   1.0078250   1.0078250   1.0078250   1.0078250   1.0078250
 NucSpn=           1           1           1           1           1           1           1           1           1           1
 AtZEff=  -0.0000000  -0.0000000  -0.0000000  -0.0000000  -0.0000000  -0.0000000  -0.0000000  -0.0000000  -0.0000000  -0.0000000
 NQMom=    0.0000000   0.0000000   0.0000000   0.0000000   0.0000000   0.0000000   0.0000000   0.0000000   0.0000000   0.0000000
 NMagM=    2.7928460   2.7928460   2.7928460   2.7928460   2.7928460   2.7928460   2.7928460   2.7928460   2.7928460   2.7928460
 AtZNuc=   1.0000000   1.0000000   1.0000000   1.0000000   1.0000000   1.0000000   1.0000000   1.0000000   1.0000000   1.0000000

  Atom        41          42          43          44          45
 IAtWgt=           1           1           1           1           1
 AtmWgt=   1.0078250   1.0078250   1.0078250   1.0078250   1.0078250
 NucSpn=           1           1           1           1           1
 AtZEff=  -0.0000000  -0.0000000  -0.0000000  -0.0000000  -0.0000000
 NQMom=    0.0000000   0.0000000   0.0000000   0.0000000   0.0000000
 NMagM=    2.7928460   2.7928460   2.7928460   2.7928460   2.7928460
 AtZNuc=   1.0000000   1.0000000   1.0000000   1.0000000   1.0000000
 Leave Link  101 at Tue Jun 22 14:23:01 2021, MaxMem=  2147483648 cpu:               2.6 elap:               0.2
 (Enter /home/matma/Programs/gaussian/G16_x86_SSE4/tar/g16/l103.exe)

 GradGradGradGradGradGradGradGradGradGradGradGradGradGradGradGradGradGrad
 Berny optimization.
 Initialization pass.
                           ----------------------------
                           !    Initial Parameters    !
                           ! (Angstroms and Degrees)  !
 --------------------------                            --------------------------
 ! Name  Definition              Value          Derivative Info.                !
 --------------------------------------------------------------------------------
 ! R1    R(1,2)                  1.4342         estimate D2E/DX2                !
 ! R2    R(1,45)                 0.995          estimate D2E/DX2                !
 ! R3    R(2,3)                  1.546          estimate D2E/DX2                !
 ! R4    R(2,8)                  1.5451         estimate D2E/DX2                !
 ! R5    R(2,24)                 1.114          estimate D2E/DX2                !
 ! R6    R(3,4)                  1.4325         estimate D2E/DX2                !
 ! R7    R(3,5)                  1.5445         estimate D2E/DX2                !
 ! R8    R(3,25)                 1.1127         estimate D2E/DX2                !
 ! R9    R(4,26)                 0.9905         estimate D2E/DX2                !
 ! R10   R(5,6)                  1.5407         estimate D2E/DX2                !
 ! R11   R(5,23)                 1.4285         estimate D2E/DX2                !
 ! R12   R(5,27)                 1.1172         estimate D2E/DX2                !
 ! R13   R(6,7)                  1.4231         estimate D2E/DX2                !
 ! R14   R(6,21)                 1.4339         estimate D2E/DX2                !
 ! R15   R(6,28)                 1.1192         estimate D2E/DX2                !
 ! R16   R(7,8)                  1.4442         estimate D2E/DX2                !
 ! R17   R(8,9)                  1.5345         estimate D2E/DX2                !
 ! R18   R(8,29)                 1.1196         estimate D2E/DX2                !
 ! R19   R(9,10)                 1.4395         estimate D2E/DX2                !
 ! R20   R(9,30)                 1.1056         estimate D2E/DX2                !
 ! R21   R(9,31)                 1.1088         estimate D2E/DX2                !
 ! R22   R(10,32)                1.0102         estimate D2E/DX2                !
 ! R23   R(11,12)                1.4383         estimate D2E/DX2                !
 ! R24   R(11,42)                0.9904         estimate D2E/DX2                !
 ! R25   R(12,13)                1.5447         estimate D2E/DX2                !
 ! R26   R(12,17)                1.5379         estimate D2E/DX2                !
 ! R27   R(12,33)                1.1172         estimate D2E/DX2                !
 ! R28   R(13,14)                1.5462         estimate D2E/DX2                !
 ! R29   R(13,22)                1.4232         estimate D2E/DX2                !
 ! R30   R(13,34)                1.1154         estimate D2E/DX2                !
 ! R31   R(14,15)                1.5522         estimate D2E/DX2                !
 ! R32   R(14,21)                1.4437         estimate D2E/DX2                !
 ! R33   R(14,35)                1.1153         estimate D2E/DX2                !
 ! R34   R(15,16)                1.4293         estimate D2E/DX2                !
 ! R35   R(15,20)                1.4261         estimate D2E/DX2                !
 ! R36   R(15,36)                1.1108         estimate D2E/DX2                !
 ! R37   R(16,17)                1.4468         estimate D2E/DX2                !
 ! R38   R(17,18)                1.5441         estimate D2E/DX2                !
 ! R39   R(17,37)                1.1118         estimate D2E/DX2                !
 ! R40   R(18,19)                1.4223         estimate D2E/DX2                !
 ! R41   R(18,38)                1.1117         estimate D2E/DX2                !
 ! R42   R(18,39)                1.1048         estimate D2E/DX2                !
 ! R43   R(19,40)                0.9961         estimate D2E/DX2                !
 ! R44   R(20,44)                0.9921         estimate D2E/DX2                !
 ! R45   R(22,41)                1.021          estimate D2E/DX2                !
 ! R46   R(23,43)                0.9977         estimate D2E/DX2                !
 ! A1    A(2,1,45)             109.2907         estimate D2E/DX2                !
 ! A2    A(1,2,3)              109.2295         estimate D2E/DX2                !
 ! A3    A(1,2,8)              106.4682         estimate D2E/DX2                !
 ! A4    A(1,2,24)             107.5137         estimate D2E/DX2                !
 ! A5    A(3,2,8)              111.4876         estimate D2E/DX2                !
 ! A6    A(3,2,24)             110.4344         estimate D2E/DX2                !
 ! A7    A(8,2,24)             111.5262         estimate D2E/DX2                !
 ! A8    A(2,3,4)              103.5714         estimate D2E/DX2                !
 ! A9    A(2,3,5)              110.0235         estimate D2E/DX2                !
 ! A10   A(2,3,25)             112.9265         estimate D2E/DX2                !
 ! A11   A(4,3,5)              109.7948         estimate D2E/DX2                !
 ! A12   A(4,3,25)             108.907          estimate D2E/DX2                !
 ! A13   A(5,3,25)             111.3157         estimate D2E/DX2                !
 ! A14   A(3,4,26)             109.2954         estimate D2E/DX2                !
 ! A15   A(3,5,6)              109.2601         estimate D2E/DX2                !
 ! A16   A(3,5,23)             105.1103         estimate D2E/DX2                !
 ! A17   A(3,5,27)             110.6017         estimate D2E/DX2                !
 ! A18   A(6,5,23)             108.11           estimate D2E/DX2                !
 ! A19   A(6,5,27)             113.1444         estimate D2E/DX2                !
 ! A20   A(23,5,27)            110.2741         estimate D2E/DX2                !
 ! A21   A(5,6,7)              113.0114         estimate D2E/DX2                !
 ! A22   A(5,6,21)             118.1381         estimate D2E/DX2                !
 ! A23   A(5,6,28)             114.1358         estimate D2E/DX2                !
 ! A24   A(7,6,21)             105.103          estimate D2E/DX2                !
 ! A25   A(7,6,28)             102.0029         estimate D2E/DX2                !
 ! A26   A(21,6,28)            102.656          estimate D2E/DX2                !
 ! A27   A(6,7,8)              121.0405         estimate D2E/DX2                !
 ! A28   A(2,8,7)              112.2764         estimate D2E/DX2                !
 ! A29   A(2,8,9)              113.4256         estimate D2E/DX2                !
 ! A30   A(2,8,29)             111.0269         estimate D2E/DX2                !
 ! A31   A(7,8,9)              108.9368         estimate D2E/DX2                !
 ! A32   A(7,8,29)              99.2939         estimate D2E/DX2                !
 ! A33   A(9,8,29)             111.0125         estimate D2E/DX2                !
 ! A34   A(8,9,10)             109.074          estimate D2E/DX2                !
 ! A35   A(8,9,30)             112.5181         estimate D2E/DX2                !
 ! A36   A(8,9,31)             112.6277         estimate D2E/DX2                !
 ! A37   A(10,9,30)            104.6187         estimate D2E/DX2                !
 ! A38   A(10,9,31)            108.4417         estimate D2E/DX2                !
 ! A39   A(30,9,31)            109.1826         estimate D2E/DX2                !
 ! A40   A(9,10,32)            108.7711         estimate D2E/DX2                !
 ! A41   A(12,11,42)           108.8313         estimate D2E/DX2                !
 ! A42   A(11,12,13)           108.6461         estimate D2E/DX2                !
 ! A43   A(11,12,17)           104.4072         estimate D2E/DX2                !
 ! A44   A(11,12,33)           108.8649         estimate D2E/DX2                !
 ! A45   A(13,12,17)           111.7078         estimate D2E/DX2                !
 ! A46   A(13,12,33)           110.8708         estimate D2E/DX2                !
 ! A47   A(17,12,33)           112.0593         estimate D2E/DX2                !
 ! A48   A(12,13,14)           112.5136         estimate D2E/DX2                !
 ! A49   A(12,13,22)           102.5109         estimate D2E/DX2                !
 ! A50   A(12,13,34)           111.653          estimate D2E/DX2                !
 ! A51   A(14,13,22)           109.599          estimate D2E/DX2                !
 ! A52   A(14,13,34)           110.1346         estimate D2E/DX2                !
 ! A53   A(22,13,34)           110.1822         estimate D2E/DX2                !
 ! A54   A(13,14,15)           114.7763         estimate D2E/DX2                !
 ! A55   A(13,14,21)           103.4475         estimate D2E/DX2                !
 ! A56   A(13,14,35)           110.5065         estimate D2E/DX2                !
 ! A57   A(15,14,21)           105.1065         estimate D2E/DX2                !
 ! A58   A(15,14,35)           111.3773         estimate D2E/DX2                !
 ! A59   A(21,14,35)           111.2118         estimate D2E/DX2                !
 ! A60   A(14,15,16)           115.5092         estimate D2E/DX2                !
 ! A61   A(14,15,20)           108.3805         estimate D2E/DX2                !
 ! A62   A(14,15,36)           113.0769         estimate D2E/DX2                !
 ! A63   A(16,15,20)           101.6356         estimate D2E/DX2                !
 ! A64   A(16,15,36)           110.4986         estimate D2E/DX2                !
 ! A65   A(20,15,36)           106.7211         estimate D2E/DX2                !
 ! A66   A(15,16,17)           117.1915         estimate D2E/DX2                !
 ! A67   A(12,17,16)           108.2067         estimate D2E/DX2                !
 ! A68   A(12,17,18)           113.2957         estimate D2E/DX2                !
 ! A69   A(12,17,37)           111.3026         estimate D2E/DX2                !
 ! A70   A(16,17,18)           103.0045         estimate D2E/DX2                !
 ! A71   A(16,17,37)           108.5428         estimate D2E/DX2                !
 ! A72   A(18,17,37)           111.9944         estimate D2E/DX2                !
 ! A73   A(17,18,19)           112.4697         estimate D2E/DX2                !
 ! A74   A(17,18,38)           110.663          estimate D2E/DX2                !
 ! A75   A(17,18,39)           110.923          estimate D2E/DX2                !
 ! A76   A(19,18,38)           103.5195         estimate D2E/DX2                !
 ! A77   A(19,18,39)           109.3093         estimate D2E/DX2                !
 ! A78   A(38,18,39)           109.6991         estimate D2E/DX2                !
 ! A79   A(18,19,40)           110.3679         estimate D2E/DX2                !
 ! A80   A(15,20,44)           110.3789         estimate D2E/DX2                !
 ! A81   A(6,21,14)            122.1829         estimate D2E/DX2                !
 ! A82   A(13,22,41)           110.9413         estimate D2E/DX2                !
 ! A83   A(5,23,43)            109.5712         estimate D2E/DX2                !
 ! D1    D(45,1,2,3)           -46.8626         estimate D2E/DX2                !
 ! D2    D(45,1,2,8)          -167.3702         estimate D2E/DX2                !
 ! D3    D(45,1,2,24)           72.9927         estimate D2E/DX2                !
 ! D4    D(1,2,3,4)             47.7368         estimate D2E/DX2                !
 ! D5    D(1,2,3,5)            -69.5708         estimate D2E/DX2                !
 ! D6    D(1,2,3,25)           165.3843         estimate D2E/DX2                !
 ! D7    D(8,2,3,4)            165.1222         estimate D2E/DX2                !
 ! D8    D(8,2,3,5)             47.8147         estimate D2E/DX2                !
 ! D9    D(8,2,3,25)           -77.2302         estimate D2E/DX2                !
 ! D10   D(24,2,3,4)           -70.3027         estimate D2E/DX2                !
 ! D11   D(24,2,3,5)           172.3897         estimate D2E/DX2                !
 ! D12   D(24,2,3,25)           47.3448         estimate D2E/DX2                !
 ! D13   D(1,2,8,7)            123.9108         estimate D2E/DX2                !
 ! D14   D(1,2,8,9)             -0.1235         estimate D2E/DX2                !
 ! D15   D(1,2,8,29)          -125.9413         estimate D2E/DX2                !
 ! D16   D(3,2,8,7)              4.8679         estimate D2E/DX2                !
 ! D17   D(3,2,8,9)           -119.1665         estimate D2E/DX2                !
 ! D18   D(3,2,8,29)           115.0158         estimate D2E/DX2                !
 ! D19   D(24,2,8,7)          -119.0926         estimate D2E/DX2                !
 ! D20   D(24,2,8,9)           116.873          estimate D2E/DX2                !
 ! D21   D(24,2,8,29)           -8.9447         estimate D2E/DX2                !
 ! D22   D(2,3,4,26)          -169.9004         estimate D2E/DX2                !
 ! D23   D(5,3,4,26)           -52.4329         estimate D2E/DX2                !
 ! D24   D(25,3,4,26)           69.6837         estimate D2E/DX2                !
 ! D25   D(2,3,5,6)            -62.3347         estimate D2E/DX2                !
 ! D26   D(2,3,5,23)          -178.1461         estimate D2E/DX2                !
 ! D27   D(2,3,5,27)            62.8452         estimate D2E/DX2                !
 ! D28   D(4,3,5,6)           -175.7008         estimate D2E/DX2                !
 ! D29   D(4,3,5,23)            68.4878         estimate D2E/DX2                !
 ! D30   D(4,3,5,27)           -50.5209         estimate D2E/DX2                !
 ! D31   D(25,3,5,6)            63.628          estimate D2E/DX2                !
 ! D32   D(25,3,5,23)          -52.1833         estimate D2E/DX2                !
 ! D33   D(25,3,5,27)         -171.1921         estimate D2E/DX2                !
 ! D34   D(3,5,6,7)             21.9976         estimate D2E/DX2                !
 ! D35   D(3,5,6,21)           145.2383         estimate D2E/DX2                !
 ! D36   D(3,5,6,28)           -93.9715         estimate D2E/DX2                !
 ! D37   D(23,5,6,7)           135.8761         estimate D2E/DX2                !
 ! D38   D(23,5,6,21)         -100.8832         estimate D2E/DX2                !
 ! D39   D(23,5,6,28)           19.907          estimate D2E/DX2                !
 ! D40   D(27,5,6,7)          -101.6933         estimate D2E/DX2                !
 ! D41   D(27,5,6,21)           21.5475         estimate D2E/DX2                !
 ! D42   D(27,5,6,28)          142.3376         estimate D2E/DX2                !
 ! D43   D(3,5,23,43)         -147.7715         estimate D2E/DX2                !
 ! D44   D(6,5,23,43)           95.6269         estimate D2E/DX2                !
 ! D45   D(27,5,23,43)         -28.5436         estimate D2E/DX2                !
 ! D46   D(5,6,7,8)             35.1228         estimate D2E/DX2                !
 ! D47   D(21,6,7,8)           -95.0668         estimate D2E/DX2                !
 ! D48   D(28,6,7,8)           158.1119         estimate D2E/DX2                !
 ! D49   D(5,6,21,14)           80.6702         estimate D2E/DX2                !
 ! D50   D(7,6,21,14)         -152.2089         estimate D2E/DX2                !
 ! D51   D(28,6,21,14)         -45.867          estimate D2E/DX2                !
 ! D52   D(6,7,8,2)            -50.0659         estimate D2E/DX2                !
 ! D53   D(6,7,8,9)             76.4292         estimate D2E/DX2                !
 ! D54   D(6,7,8,29)          -167.4492         estimate D2E/DX2                !
 ! D55   D(2,8,9,10)           164.2336         estimate D2E/DX2                !
 ! D56   D(2,8,9,30)           -80.1439         estimate D2E/DX2                !
 ! D57   D(2,8,9,31)            43.7855         estimate D2E/DX2                !
 ! D58   D(7,8,9,10)            38.4011         estimate D2E/DX2                !
 ! D59   D(7,8,9,30)           154.0236         estimate D2E/DX2                !
 ! D60   D(7,8,9,31)           -82.047          estimate D2E/DX2                !
 ! D61   D(29,8,9,10)          -69.941          estimate D2E/DX2                !
 ! D62   D(29,8,9,30)           45.6815         estimate D2E/DX2                !
 ! D63   D(29,8,9,31)          169.6109         estimate D2E/DX2                !
 ! D64   D(8,9,10,32)          -37.4977         estimate D2E/DX2                !
 ! D65   D(30,9,10,32)        -158.0929         estimate D2E/DX2                !
 ! D66   D(31,9,10,32)          85.4881         estimate D2E/DX2                !
 ! D67   D(42,11,12,13)         60.8635         estimate D2E/DX2                !
 ! D68   D(42,11,12,17)       -179.8143         estimate D2E/DX2                !
 ! D69   D(42,11,12,33)        -59.9764         estimate D2E/DX2                !
 ! D70   D(11,12,13,14)        164.0777         estimate D2E/DX2                !
 ! D71   D(11,12,13,22)        -78.2824         estimate D2E/DX2                !
 ! D72   D(11,12,13,34)         39.6429         estimate D2E/DX2                !
 ! D73   D(17,12,13,14)         49.4342         estimate D2E/DX2                !
 ! D74   D(17,12,13,22)        167.0741         estimate D2E/DX2                !
 ! D75   D(17,12,13,34)        -75.0006         estimate D2E/DX2                !
 ! D76   D(33,12,13,14)        -76.327          estimate D2E/DX2                !
 ! D77   D(33,12,13,22)         41.3129         estimate D2E/DX2                !
 ! D78   D(33,12,13,34)        159.2382         estimate D2E/DX2                !
 ! D79   D(11,12,17,16)       -176.9653         estimate D2E/DX2                !
 ! D80   D(11,12,17,18)         69.4855         estimate D2E/DX2                !
 ! D81   D(11,12,17,37)        -57.7837         estimate D2E/DX2                !
 ! D82   D(13,12,17,16)        -59.7349         estimate D2E/DX2                !
 ! D83   D(13,12,17,18)       -173.2842         estimate D2E/DX2                !
 ! D84   D(13,12,17,37)         59.4467         estimate D2E/DX2                !
 ! D85   D(33,12,17,16)         65.3694         estimate D2E/DX2                !
 ! D86   D(33,12,17,18)        -48.1798         estimate D2E/DX2                !
 ! D87   D(33,12,17,37)       -175.4489         estimate D2E/DX2                !
 ! D88   D(12,13,14,15)        -35.2636         estimate D2E/DX2                !
 ! D89   D(12,13,14,21)       -149.1855         estimate D2E/DX2                !
 ! D90   D(12,13,14,35)         91.6962         estimate D2E/DX2                !
 ! D91   D(22,13,14,15)       -148.6234         estimate D2E/DX2                !
 ! D92   D(22,13,14,21)         97.4547         estimate D2E/DX2                !
 ! D93   D(22,13,14,35)        -21.6637         estimate D2E/DX2                !
 ! D94   D(34,13,14,15)         90.0037         estimate D2E/DX2                !
 ! D95   D(34,13,14,21)        -23.9183         estimate D2E/DX2                !
 ! D96   D(34,13,14,35)       -143.0366         estimate D2E/DX2                !
 ! D97   D(12,13,22,41)        161.0029         estimate D2E/DX2                !
 ! D98   D(14,13,22,41)        -79.3046         estimate D2E/DX2                !
 ! D99   D(34,13,22,41)         42.0397         estimate D2E/DX2                !
 ! D100  D(13,14,15,16)         32.8503         estimate D2E/DX2                !
 ! D101  D(13,14,15,20)        146.0564         estimate D2E/DX2                !
 ! D102  D(13,14,15,36)        -95.8365         estimate D2E/DX2                !
 ! D103  D(21,14,15,16)        145.7982         estimate D2E/DX2                !
 ! D104  D(21,14,15,20)       -100.9957         estimate D2E/DX2                !
 ! D105  D(21,14,15,36)         17.1115         estimate D2E/DX2                !
 ! D106  D(35,14,15,16)        -93.663          estimate D2E/DX2                !
 ! D107  D(35,14,15,20)         19.5431         estimate D2E/DX2                !
 ! D108  D(35,14,15,36)        137.6503         estimate D2E/DX2                !
 ! D109  D(13,14,21,6)         114.5562         estimate D2E/DX2                !
 ! D110  D(15,14,21,6)          -6.1649         estimate D2E/DX2                !
 ! D111  D(35,14,21,6)        -126.8128         estimate D2E/DX2                !
 ! D112  D(14,15,16,17)        -46.487          estimate D2E/DX2                !
 ! D113  D(20,15,16,17)       -163.5503         estimate D2E/DX2                !
 ! D114  D(36,15,16,17)         83.4584         estimate D2E/DX2                !
 ! D115  D(14,15,20,44)       -105.6437         estimate D2E/DX2                !
 ! D116  D(16,15,20,44)         16.4801         estimate D2E/DX2                !
 ! D117  D(36,15,20,44)        132.2767         estimate D2E/DX2                !
 ! D118  D(15,16,17,12)         59.2933         estimate D2E/DX2                !
 ! D119  D(15,16,17,18)        179.5079         estimate D2E/DX2                !
 ! D120  D(15,16,17,37)        -61.6179         estimate D2E/DX2                !
 ! D121  D(12,17,18,19)         -9.0349         estimate D2E/DX2                !
 ! D122  D(12,17,18,38)        106.2014         estimate D2E/DX2                !
 ! D123  D(12,17,18,39)       -131.8018         estimate D2E/DX2                !
 ! D124  D(16,17,18,19)       -125.6873         estimate D2E/DX2                !
 ! D125  D(16,17,18,38)        -10.451          estimate D2E/DX2                !
 ! D126  D(16,17,18,39)        111.5459         estimate D2E/DX2                !
 ! D127  D(37,17,18,19)        117.871          estimate D2E/DX2                !
 ! D128  D(37,17,18,38)       -126.8926         estimate D2E/DX2                !
 ! D129  D(37,17,18,39)         -4.8958         estimate D2E/DX2                !
 ! D130  D(17,18,19,40)        -54.1887         estimate D2E/DX2                !
 ! D131  D(38,18,19,40)       -173.6731         estimate D2E/DX2                !
 ! D132  D(39,18,19,40)         69.4807         estimate D2E/DX2                !
 --------------------------------------------------------------------------------
 Trust Radius=3.00D-01 FncErr=1.00D-07 GrdErr=1.00D-07 EigMax=2.50D+02 EigMin=1.00D-04
 Number of steps in this run=    270 maximum allowed number of steps=    270.
 GradGradGradGradGradGradGradGradGradGradGradGradGradGradGradGradGradGrad

 Leave Link  103 at Tue Jun 22 14:23:01 2021, MaxMem=  2147483648 cpu:               0.1 elap:               0.0
 (Enter /home/matma/Programs/gaussian/G16_x86_SSE4/tar/g16/l202.exe)
                          Input orientation:                          
 ---------------------------------------------------------------------
 Center     Atomic      Atomic             Coordinates (Angstroms)
 Number     Number       Type             X           Y           Z
 ---------------------------------------------------------------------
      1          8           0        1.965000    0.955000    0.207000
      2          6           0        2.446000    2.126000    0.881000
      3          6           0        3.128000    1.708000    2.204000
      4          8           0        3.989000    0.632000    1.813000
      5          6           0        2.070000    1.194000    3.205000
      6          6           0        1.086000    2.333000    3.534000
      7          8           0        1.055000    3.347000    2.536000
      8          6           0        1.213000    3.021000    1.138000
      9          6           0       -0.098000    2.418000    0.616000
     10          8           0       -1.207000    3.116000    1.212000
     11          8           0       -2.290000    3.946000    7.471000
     12          6           0       -1.712000    2.685000    7.091000
     13          6           0       -1.691000    2.596000    5.549000
     14          6           0       -0.751000    1.482000    5.033000
     15          6           0        0.534000    1.272000    5.878000
     16          8           0        0.395000    1.513000    7.280000
     17          6           0       -0.291000    2.723000    7.678000
     18          6           0       -0.265000    2.646000    9.220000
     19          8           0       -1.562000    2.762000    9.792000
     20          8           0        0.865000   -0.115000    5.856000
     21          8           0       -0.288000    1.994000    3.765000
     22          8           0       -3.040000    2.263000    5.241000
     23          8           0        2.801000    0.882000    4.392000
     24          1           0        3.179000    2.624000    0.206000
     25          1           0        3.745000    2.520000    2.649000
     26          1           0        4.349000    0.190000    2.623000
     27          1           0        1.566000    0.279000    2.809000
     28          1           0        1.352000    2.917000    4.451000
     29          1           0        1.372000    4.051000    0.729000
     30          1           0       -0.228000    2.565000   -0.472000
     31          1           0       -0.195000    1.339000    0.852000
     32          1           0       -0.975000    3.337000    2.170000
     33          1           0       -2.325000    1.860000    7.529000
     34          1           0       -1.420000    3.573000    5.084000
     35          1           0       -1.312000    0.527000    4.902000
     36          1           0        1.414000    1.817000    5.475000
     37          1           0        0.281000    3.596000    7.295000
     38          1           0        0.079000    1.644000    9.557000
     39          1           0        0.392000    3.427000    9.643000
     40          1           0       -2.011000    3.590000    9.468000
     41          1           0       -3.254000    2.473000    4.265000
     42          1           0       -3.217000    3.990000    7.125000
     43          1           0        2.368000    0.114000    4.859000
     44          1           0        0.643000   -0.537000    6.726000
     45          1           0        2.679000    0.262000    0.202000
 ---------------------------------------------------------------------
                    Distance matrix (angstroms):
                    1          2          3          4          5
     1  O    0.000000
     2  C    1.434182   0.000000
     3  C    2.430553   1.546020   0.000000
     4  O    2.603870   2.341262   1.432473   0.000000
     5  C    3.009344   2.531991   1.544526   2.436405   0.000000
     6  C    3.706812   2.988454   2.515808   3.779239   1.540720
     7  O    3.460348   2.482891   2.663433   4.062304   2.472488
     8  C    2.387597   1.545109   2.554907   3.724127   2.888748
     9  C    2.561956   2.574379   3.665095   4.618027   3.591841
    10  O    3.967560   3.799220   4.664628   5.790499   4.290089
    11  O    8.934025   8.316862   7.880651   9.078623   6.691925
    12  C    7.993915   7.494368   6.947150   8.035763   5.623842
    13  C    6.678037   6.255069   5.932987   7.076538   4.648124
    14  C    5.562793   5.279645   4.806346   5.792970   3.373806
    15  C    5.857345   5.418032   4.518540   5.373160   3.083879
    16  O    7.266608   6.747560   5.768283   6.601597   4.417353
    17  C    8.001950   7.351652   6.533335   7.555720   5.283928
    18  C    9.437508   8.784011   7.849621   8.775897   6.613679
    19  O   10.371943   9.791552   8.982470   9.950625   7.683659
    20  O    5.853725   5.680869   4.667076   5.163645   3.192696
    21  O    4.337614   3.976133   3.766639   4.894699   2.552208
    22  O    7.218175   7.008892   6.897508   7.988629   5.603584
    23  O    4.268308   3.741749   2.361472   2.850453   1.428522
    24  H    2.063821   1.113965   2.198559   2.684514   3.502682
    25  H    3.403085   2.229004   1.112681   2.079177   2.207496
    26  H    3.479330   3.225534   1.992668   0.990487   2.557456
    27  H    2.717827   2.811226   2.201797   2.643398   1.117165
    28  H    4.715586   3.816729   3.108837   4.374247   2.244275
    29  H    3.195207   2.209571   3.278538   4.439967   3.844506
    30  H    2.803995   3.028796   4.377004   5.171151   4.547612
    31  H    2.286718   2.755919   3.606438   4.350773   3.269229
    32  H    4.262733   3.851140   4.414681   5.664430   3.864673
    33  H    8.534331   8.187130   7.623250   8.605070   6.201335
    34  H    6.488242   5.891093   5.697098   6.971815   4.622811
    35  H    5.741510   5.731301   5.327998   6.136249   3.842216
    36  H    5.366421   4.718616   3.694471   4.630885   2.443638
    37  H    7.749225   6.927303   6.130924   7.251681   5.069342
    38  H    9.563170   9.005997   7.960346   8.733944   6.671918
    39  H    9.880446   9.093083   8.110449   9.058661   7.017821
    40  H   10.417194   9.784923   9.094885  10.166061   7.849876
    41  H    6.783041   6.637911   6.750027   7.865280   5.577133
    42  H    9.160954   8.633169   8.347622   9.561378   7.150971
    43  H    4.744554   4.458555   3.188646   3.489138   1.997729
    44  H    6.816972   6.671312   5.627054   6.058040   4.174941
    45  H    0.995023   1.997455   2.510084   2.109104   3.202735
                    6          7          8          9         10
     6  C    0.000000
     7  O    1.423082   0.000000
     8  C    2.496055   1.444176   0.000000
     9  C    3.150207   2.424634   1.534540   0.000000
    10  O    3.355983   2.631156   2.422994   1.439549   0.000000
    11  O    5.431309   5.991832   7.296131   7.357355   6.406003
    12  C    4.539268   5.370527   6.641290   6.678466   5.916369
    13  C    3.441093   4.145200   5.298185   5.186889   4.394795
    14  C    2.519081   3.602065   4.625672   4.562060   4.180662
    15  C    2.631494   3.968127   5.097808   5.422304   5.310647
    16  O    3.896460   5.128810   6.377096   6.743217   6.477394
    17  C    4.384172   5.351753   6.717322   7.071218   6.542374
    18  C    5.852672   6.849062   8.224587   8.608640   8.076901
    19  O    6.808708   7.735661   9.091723   9.298420   8.594634
    20  O    3.381306   4.800411   5.675837   5.899242   6.024888
    21  O    1.433931   2.268193   3.195131   3.183092   2.936197
    22  O    4.465717   5.026043   5.957951   5.483613   4.507809
    23  O    2.404743   3.545346   4.205423   5.002167   5.582761
    24  H    3.942197   3.234657   2.211648   3.308967   4.526709
    25  H    2.808643   2.816522   2.990844   4.348809   5.190615
    26  H    4.008683   4.563404   4.478201   5.363566   6.435956
    27  H    2.230458   3.122223   3.230389   3.486182   4.276506
    28  H    1.119241   1.985027   3.317545   4.130221   4.132699
    29  H    3.301718   1.965033   1.119581   2.200081   2.785454
    30  H    4.222376   3.362392   2.208284   1.105556   2.024327
    31  H    3.134026   2.903519   2.212099   1.108759   2.076409
    32  H    2.667627   2.062754   2.439718   2.007139   1.010163
    33  H    5.274341   6.210122   7.396637   7.284261   6.536968
    34  H    3.196895   3.559355   4.775805   4.800493   3.904690
    35  H    3.299010   4.376419   5.173331   4.839367   4.508885
    36  H    2.035024   3.332792   4.505506   5.124181   5.170127
    37  H    4.048248   4.827956   6.253631   6.792670   6.280719
    38  H    6.145348   7.290214   8.605908   8.976184   8.570858
    39  H    6.244866   7.138306   8.554175   9.096423   8.586925
    40  H    6.810566   7.583669   8.950242   9.131870   8.308588
    41  H    4.403358   4.724489   5.480194   4.824786   3.731550
    42  H    5.844377   6.302567   7.510528   7.386909   6.306151
    43  H    2.884980   4.191967   4.861123   5.421496   5.923955
    44  H    4.315323   5.728115   6.649061   6.827386   6.868122
    45  H    4.234255   4.195492   3.261492   3.539980   4.926095
                   11         12         13         14         15
    11  O    0.000000
    12  C    1.438265   0.000000
    13  C    2.423919   1.544709   0.000000
    14  C    3.792580   2.570232   1.546238   0.000000
    15  C    4.202725   2.917611   2.609951   1.552208   0.000000
    16  O    3.628387   2.418420   2.919015   2.522555   1.429338
    17  C    2.352569   1.537938   2.551229   2.957652   2.454797
    18  C    2.974832   2.574485   3.938555   4.372878   3.700708
    19  O    2.705343   2.706258   4.248205   4.994417   4.683237
    20  O    5.390174   4.000769   3.738570   2.416442   1.426119
    21  O    4.642493   3.683413   2.348078   1.443723   2.379440
    22  O    2.892730   2.316067   1.423220   2.427498   3.763154
    23  O    6.692280   5.559009   4.945150   3.658905   2.738537
    24  H    9.189008   8.445640   7.229477   6.328427   6.402774
    25  H    7.855341   7.038284   6.161645   5.193738   4.721702
    26  H    9.038084   7.932450   7.129650   5.786827   5.130300
    27  H    7.074593   5.905052   4.846044   3.429559   3.386714
    28  H    4.841839   4.051113   3.250922   2.611620   2.326258
    29  H    7.673059   7.200837   5.893335   5.443465   5.910777
    30  H    8.321674   7.708153   6.196271   5.634842   6.524952
    31  H    7.415972   6.560345   5.087227   4.220231   5.079036
    32  H    5.495517   5.018417   3.532616   3.418767   4.504506
    33  H    2.087100   1.117246   2.205460   2.974958   3.353420
    34  H    2.567839   2.214014   1.115435   2.196006   3.121402
    35  H    4.387004   3.099788   2.200684   1.115306   2.217051
    36  H    4.715535   3.624466   3.202084   2.234908   1.110781
    37  H    2.600676   2.200815   2.817321   3.263536   2.733656
    38  H    3.906758   3.220639   4.483667   4.602360   3.725648
    39  H    3.489996   3.389703   4.668007   5.132404   4.340439
    40  H    2.047581   2.560968   4.055736   5.069565   4.973756
    41  H    3.657521   3.226296   2.026513   2.799449   4.288719
    42  H    0.990445   1.992287   2.599171   4.092393   4.797138
    43  H    6.572955   5.313969   4.807484   3.410258   2.396431
    44  H    5.408771   4.007560   4.080266   2.980914   2.000866
    45  H    9.544694   8.521158   7.289367   6.049121   6.151268
                   16         17         18         19         20
    16  O    0.000000
    17  C    1.446755   0.000000
    18  C    2.341557   1.544140   0.000000
    19  O    3.420525   2.466973   1.422269   0.000000
    20  O    2.213382   3.565146   4.496278   5.446059   0.000000
    21  O    3.612904   3.980329   5.493875   6.207868   3.185839
    22  O    4.064388   3.702374   4.866185   4.810934   4.613256
    23  O    3.811501   4.873145   5.985118   7.192369   2.624005
    24  H    7.682867   8.239022   9.649550  10.695210   6.691728
    25  H    5.803681   6.451461   7.698962   8.901981   5.051977
    26  H    6.250767   7.314282   8.416730   9.641041   4.762727
    27  H    4.783705   5.755758   7.075039   8.044375   3.151324
    28  H    3.300046   3.626378   5.042965   6.086189   3.377013
    29  H    7.093065   7.267582   8.760758   9.612900   6.625612
    30  H    7.847824   8.151775   9.692409  10.352201   6.958494
    31  H    6.457365   6.965554   8.469745   9.155174   5.317681
    32  H    5.596068   5.584167   7.119275   7.666164   5.374802
    33  H    2.753327   2.214526   2.778647   2.552830   4.107999
    34  H    3.515713   2.953976   4.393159   4.779451   4.406649
    35  H    3.088839   3.683888   4.922550   5.382362   2.462034
    36  H    2.094947   2.929346   4.187040   5.327860   2.044306
    37  H    2.086171   1.111756   2.215004   3.213598   4.022847
    38  H    2.302552   2.198131   1.111714   1.999507   4.172443
    39  H    3.040917   2.196208   1.104780   2.069430   5.206809
    40  H    3.858770   2.629485   2.000289   0.996073   5.919877
    41  H    4.829806   4.526636   5.789307   5.787410   5.118123
    42  H    4.382476   3.236136   3.861304   3.370445   5.926560
    43  H    3.422159   4.671608   5.688764   6.840416   1.818092
    44  H    2.137971   3.522252   4.144392   5.014557   0.992103
    45  H    7.541866   8.412372   9.781356  10.779804   5.949827
                   21         22         23         24         25
    21  O    0.000000
    22  O    3.134396   0.000000
    23  O    3.342393   6.061785   0.000000
    24  H    5.008340   8.009838   4.549730   0.000000
    25  H    4.217490   7.267788   2.571425   2.509865   0.000000
    26  H    5.104934   8.108549   2.450414   3.624244   2.407154
    27  H    2.700459   5.573699   2.096359   3.856994   3.129812
    28  H    2.003029   4.510153   2.498861   4.630745   3.021798
    29  H    4.025437   6.559027   5.049967   2.361166   3.414892
    30  H    4.275723   6.374709   5.972087   3.474308   5.052464
    31  H    2.987180   5.311414   4.660093   3.667754   4.488604
    32  H    2.195369   3.853407   5.022199   4.649880   4.814076
    33  H    4.281941   2.430757   6.088771   9.192608   7.816323
    34  H    2.348281   2.089294   5.053433   6.770989   5.806484
    35  H    2.119772   2.472772   4.159675   6.827804   5.883987
    36  H    2.419139   4.482386   1.992707   5.615054   3.730154
    37  H    3.918044   4.126118   4.705699   7.719916   5.894267
    38  H    5.814160   5.360893   5.887882   9.900081   7.869396
    39  H    6.088249   5.701853   6.312948   9.872646   7.809052
    40  H    6.167670   4.548329   7.500292  10.660858   8.987502
    41  H    3.045751   1.021015   6.261824   7.608007   7.183291
    42  H    4.883918   2.561897   7.303785   9.520889   8.406243
    43  H    3.433012   5.831860   0.997698   5.348666   3.545288
    44  H    4.005027   4.858983   3.481103   7.676823   5.965700
    45  H    4.949534   7.880513   4.237379   2.414345   3.496102
                   26         27         28         29         30
    26  H    0.000000
    27  H    2.790628   0.000000
    28  H    4.445236   3.114643   0.000000
    29  H    5.230400   4.311846   3.890969   0.000000
    30  H    6.014032   4.382829   5.182300   2.492107   0.000000
    31  H    5.010447   2.838057   4.223280   3.134575   1.804755
    32  H    6.201112   4.026955   3.285466   2.845116   2.852044
    33  H    8.449853   6.318057   4.910363   8.044146   8.301231
    34  H    7.126189   4.994222   2.918049   5.195168   5.771141
    35  H    6.111819   3.567217   3.607270   6.085751   5.848793
    36  H    4.404005   3.081575   1.504134   5.245668   6.214698
    37  H    7.069444   5.725200   3.113907   6.671556   7.851645
    38  H    8.272084   7.043429   5.414083   9.241162  10.075879
    39  H    8.684263   7.615231   5.304580   8.989392  10.170579
    40  H    9.943019   8.252268   6.077252   9.382288  10.150533
    41  H    8.106409   5.492356   4.631087   6.032682   5.621771
    42  H    9.589179   7.434814   5.401608   7.872195   8.287289
    43  H    2.988283   2.207471   3.009241   5.792140   6.416087
    44  H    5.576520   4.106175   4.196239   7.585855   7.886206
    45  H    2.941993   2.834697   5.183045   4.042586   3.769447
                   31         32         33         34         35
    31  H    0.000000
    32  H    2.517445   0.000000
    33  H    7.027850   5.720394   0.000000
    34  H    4.939758   2.957214   3.119522   0.000000
    35  H    4.278964   3.933636   3.115154   3.053343   0.000000
    36  H    4.918282   4.352097   4.266250   3.356780   3.069773
    37  H    6.843455   5.283014   3.140014   2.789704   4.205099
    38  H    8.714650   7.651466   3.152563   5.096643   4.985137
    39  H    9.054612   7.597534   3.782403   4.908069   5.812977
    40  H    9.088471   7.375507   2.617483   4.423689   5.542466
    41  H    4.721441   3.213932   3.448551   2.290047   2.822065
    42  H    7.450558   5.477682   2.344308   2.751141   4.534658
    43  H    4.911786   5.366013   5.674651   5.134613   3.703352
    44  H    6.222981   6.195396   3.898646   4.883056   2.877690
    45  H    3.137245   5.165304   9.015462   7.183206   6.171572
                   36         37         38         39         40
    36  H    0.000000
    37  H    2.785845   0.000000
    38  H    4.298241   2.994621   0.000000
    39  H    4.583537   2.356690   1.812306   0.000000
    40  H    5.551415   3.158359   2.857085   2.414871   0.000000
    41  H    4.866689   4.789390   6.308835   6.567063   5.464792
    42  H    5.374997   3.524222   4.720377   4.436460   2.665349
    43  H    2.046895   4.734341   5.445331   6.145503   7.245764
    44  H    2.775024   4.187660   3.617930   4.928000   5.620890
    45  H    5.641168   8.196134   9.807444  10.216657  10.905523
                   41         42         43         44         45
    41  H    0.000000
    42  H    3.237632   0.000000
    43  H    6.125733   7.165916   0.000000
    44  H    5.504837   5.962594   2.623950   0.000000
    45  H    7.523096   9.827957   4.669719   6.880863   0.000000
 Stoichiometry    C12H22O11
 Framework group  C1[X(C12H22O11)]
 Deg. of freedom   129
 Full point group                 C1      NOp   1
 Largest Abelian subgroup         C1      NOp   1
 Largest concise Abelian subgroup C1      NOp   1
                         Standard orientation:                         
 ---------------------------------------------------------------------
 Center     Atomic      Atomic             Coordinates (Angstroms)
 Number     Number       Type             X           Y           Z
 ---------------------------------------------------------------------
      1          8           0       -4.598328    0.125736    0.714205
      2          6           0       -4.078382   -0.031944   -0.613074
      3          6           0       -3.248168   -1.334244   -0.683332
      4          8           0       -4.097196   -2.307934   -0.064418
      5          6           0       -1.948205   -1.177542    0.135876
      6          6           0       -1.093048   -0.052589   -0.478131
      7          8           0       -1.853808    0.860234   -1.261176
      8          6           0       -3.205020    1.211763   -0.891989
      9          6           0       -3.159640    2.200748    0.280472
     10          8           0       -2.061292    3.110767    0.086056
     11          8           0        4.082953    1.552754   -0.840072
     12          6           0        3.347674    0.713650    0.067603
     13          6           0        1.955349    1.340363    0.301669
     14          6           0        0.955900    0.343540    0.932779
     15          6           0        1.118017   -1.126457    0.461422
     16          8           0        2.454838   -1.532063    0.159097
     17          6           0        3.248024   -0.639064   -0.657303
     18          6           0        4.600926   -1.375658   -0.764338
     19          8           0        5.695249   -0.564759   -0.354765
     20          8           0        0.796237   -1.986630    1.552464
     21          8           0       -0.319658    0.768764    0.406971
     22          8           0        2.238450    2.383348    1.227731
     23          8           0       -1.248756   -2.411199   -0.035977
     24          1           0       -4.946554   -0.086152   -1.308960
     25          1           0       -3.032539   -1.655053   -1.726713
     26          1           0       -3.584484   -3.142345    0.083731
     27          1           0       -2.181634   -1.012066    1.215777
     28          1           0       -0.328040   -0.408658   -1.213440
     29          1           0       -3.523299    1.722624   -1.836013
     30          1           0       -4.054542    2.848518    0.322862
     31          1           0       -3.028264    1.696422    1.259115
     32          1           0       -1.285673    2.603089   -0.315324
     33          1           0        3.915065    0.634871    1.026821
     34          1           0        1.531847    1.765175   -0.638743
     35          1           0        0.979064    0.418632    2.045313
     36          1           0        0.432514   -1.395105   -0.370292
     37          1           0        2.753093   -0.531445   -1.646981
     38          1           0        4.636443   -2.235127   -0.060094
     39          1           0        4.775835   -1.731634   -1.795467
     40          1           0        5.698009    0.294254   -0.858997
     41          1           0        1.487413    3.074928    1.239259
     42          1           0        4.188596    2.449188   -0.432362
     43          1           0       -0.728496   -2.618254    0.789771
     44          1           0        1.621270   -2.384269    1.933873
     45          1           0       -4.995689   -0.735130    1.016007
 ---------------------------------------------------------------------
 Rotational constants (GHZ):           0.4820206           0.1493518           0.1250456
 Leave Link  202 at Tue Jun 22 14:23:01 2021, MaxMem=  2147483648 cpu:               0.0 elap:               0.0
 (Enter /home/matma/Programs/gaussian/G16_x86_SSE4/tar/g16/l301.exe)
 Standard basis: VSTO-6G (5D, 7F)
 Ernie: Thresh=  0.10000D-02 Tol=  0.10000D-05 Strict=F.
  NNHCO=     0 NNPyr=     0 NCTC=     0               EPep=         0.000000000
    EC=      1185.310851196  ECS=         9.033163795   EG=         0.737739578
   EHC=         0.002713359  EAt=      -175.965002454  AtH=         6.138669069
 EPDDG=         0.000000000  ECC=      1195.084467929 EAtT=       182.103671523
 There are   114 symmetry adapted cartesian basis functions of A   symmetry.
 There are   114 symmetry adapted basis functions of A   symmetry.
   114 basis functions,   684 primitive gaussians,   114 cartesian basis functions
    68 alpha electrons       68 beta electrons
       nuclear repulsion energy      1377.1881394516 Hartrees.
 IExCor=    0 DFT=F Ex=HF Corr=None ExCW=0 ScaHFX=  1.000000
 ScaDFX=  1.000000  1.000000  1.000000  1.000000 ScalE2=  1.000000  1.000000
 IRadAn=  99590 IRanWt=     -1 IRanGd=            0 ICorTp=0 IEmpDi=  4
 Integral buffers will be    131072 words long.
 Regular integral format.
 Two-electron integral symmetry is turned off.
 Leave Link  301 at Tue Jun 22 14:23:01 2021, MaxMem=  2147483648 cpu:               0.2 elap:               0.0
 (Enter /home/matma/Programs/gaussian/G16_x86_SSE4/tar/g16/l302.exe)
 Do NDO integrals.
 NPDir=0 NMtPBC=     1 NCelOv=     1 NCel=       1 NClECP=     1 NCelD=      1
         NCelK=      1 NCelE2=     1 NClLst=     1 CellRange=     0.0.
 One-electron integrals computed using PRISM.
 NBasis=   114 RedAO= F EigKep=  0.00D+00  NBF=   114
 NBsUse=   114 1.00D-04 EigRej=  0.00D+00 NBFU=   114
 Leave Link  302 at Tue Jun 22 14:23:01 2021, MaxMem=  2147483648 cpu:               0.6 elap:               0.1
 (Enter /home/matma/Programs/gaussian/G16_x86_SSE4/tar/g16/l303.exe)
 DipDrv:  MaxL=1.
 Leave Link  303 at Tue Jun 22 14:23:01 2021, MaxMem=  2147483648 cpu:               0.1 elap:               0.0
 (Enter /home/matma/Programs/gaussian/G16_x86_SSE4/tar/g16/l401.exe)
 Simple Huckel Guess.
 JPrj=0 DoOrth=F DoCkMO=F.
 Leave Link  401 at Tue Jun 22 14:23:01 2021, MaxMem=  2147483648 cpu:               0.3 elap:               0.0
 (Enter /home/matma/Programs/gaussian/G16_x86_SSE4/tar/g16/l502.exe)
 Keep J ints in memory in canonical form, NReq=892272.
 FoFCou: FMM=F IPFlag=           0 FMFlag=           0 FMFlg1=           0
         NFxFlg=           0 DoJE=F BraDBF=F KetDBF=F FulRan=T
         wScrn=  0.000000 ICntrl=       600 IOpCl=  2 I1Cent=           0 NGrid=           0
         NMat0=    1 NMatS0=    252 NMatT0=    0 NMatD0=    1 NMtDS0=    0 NMtDT0=    0
 Symmetry not used in FoFCou.
 Two-electron integral symmetry not used.
 Closed shell SCF:
 Using DIIS extrapolation, IDIIS=  1040.
 Overlap will be assumed to be unity.
 NGot=  2147483648 LenX=  2147363403 LenY=  2147349966
 Requested convergence on RMS density matrix=1.00D-08 within 128 cycles.
 Requested convergence on MAX density matrix=1.00D-06.
 Requested convergence on             energy=1.00D-06.
 No special actions if energy rises.

 Cycle   1  Pass 1  IDiag  1:
 E= 0.482931755412665    
 DIIS: error= 5.64D-02 at cycle   1 NSaved=   1.
 NSaved= 1 IEnMin= 1 EnMin= 0.482931755412665     IErMin= 1 ErrMin= 5.64D-02
 ErrMax= 5.64D-02  0.00D+00 EMaxC= 1.00D-01 BMatC= 3.19D-01 BMatP= 3.19D-01
 IDIUse=3 WtCom= 4.36D-01 WtEn= 5.64D-01
 Coeff-Com:  0.100D+01
 Coeff-En:   0.100D+01
 Coeff:      0.100D+01
 GapD=    2.000 DampG=2.000 DampE=0.500 DampFc=1.0000 IDamp=-1.
 RMSDP=8.22D-03 MaxDP=1.23D-01              OVMax= 0.00D+00

 Cycle   2  Pass 1  IDiag  1:
 E=-0.521317067162499     Delta-E=       -1.004248822575 Rises=F Damp=F
 DIIS: error= 1.67D-02 at cycle   2 NSaved=   2.
 NSaved= 2 IEnMin= 2 EnMin=-0.521317067162499     IErMin= 2 ErrMin= 1.67D-02
 ErrMax= 1.67D-02  0.00D+00 EMaxC= 1.00D-01 BMatC= 4.58D-02 BMatP= 3.19D-01
 IDIUse=3 WtCom= 8.33D-01 WtEn= 1.67D-01
 Coeff-Com: -0.437D+00 0.144D+01
 Coeff-En:   0.000D+00 0.100D+01
 Coeff:     -0.364D+00 0.136D+01
 RMSDP=4.78D-03 MaxDP=5.97D-02 DE=-1.00D+00 OVMax= 0.00D+00

 Cycle   3  Pass 1  IDiag  3:
 E=-0.727593520833807     Delta-E=       -0.206276453671 Rises=F Damp=F
 DIIS: error= 5.74D-03 at cycle   3 NSaved=   3.
 NSaved= 3 IEnMin= 3 EnMin=-0.727593520833807     IErMin= 3 ErrMin= 5.74D-03
 ErrMax= 5.74D-03  0.00D+00 EMaxC= 1.00D-01 BMatC= 4.64D-03 BMatP= 4.58D-02
 IDIUse=3 WtCom= 9.43D-01 WtEn= 5.74D-02
 Coeff-Com:  0.266D+00-0.106D+01 0.180D+01
 Coeff-En:   0.000D+00 0.000D+00 0.100D+01
 Coeff:      0.251D+00-0.100D+01 0.175D+01
 Gap=     0.379 Goal=   None    Shift=    0.000
 RMSDP=2.41D-03 MaxDP=4.05D-02 DE=-2.06D-01 OVMax= 2.79D-02

 Cycle   4  Pass 1  IDiag  3:
 E=-0.758332861665622     Delta-E=       -0.030739340832 Rises=F Damp=F
 DIIS: error= 1.06D-03 at cycle   4 NSaved=   4.
 NSaved= 4 IEnMin= 4 EnMin=-0.758332861665622     IErMin= 4 ErrMin= 1.06D-03
 ErrMax= 1.06D-03  0.00D+00 EMaxC= 1.00D-01 BMatC= 2.08D-04 BMatP= 4.64D-03
 IDIUse=3 WtCom= 9.89D-01 WtEn= 1.06D-02
 Coeff-Com: -0.533D-01 0.237D+00-0.597D+00 0.141D+01
 Coeff-En:   0.000D+00 0.000D+00 0.000D+00 0.100D+01
 Coeff:     -0.528D-01 0.234D+00-0.591D+00 0.141D+01
 Gap=     0.377 Goal=   None    Shift=    0.000
 RMSDP=5.76D-04 MaxDP=9.57D-03 DE=-3.07D-02 OVMax= 7.50D-03

 Cycle   5  Pass 1  IDiag  3:
 E=-0.759809649395493     Delta-E=       -0.001476787730 Rises=F Damp=F
 DIIS: error= 2.58D-04 at cycle   5 NSaved=   5.
 NSaved= 5 IEnMin= 5 EnMin=-0.759809649395493     IErMin= 5 ErrMin= 2.58D-04
 ErrMax= 2.58D-04  0.00D+00 EMaxC= 1.00D-01 BMatC= 1.09D-05 BMatP= 2.08D-04
 IDIUse=3 WtCom= 9.97D-01 WtEn= 2.58D-03
 Coeff-Com:  0.118D-02-0.643D-02 0.658D-01-0.403D+00 0.134D+01
 Coeff-En:   0.000D+00 0.000D+00 0.000D+00 0.000D+00 0.100D+01
 Coeff:      0.117D-02-0.642D-02 0.656D-01-0.402D+00 0.134D+01
 Gap=     0.378 Goal=   None    Shift=    0.000
 RMSDP=1.12D-04 MaxDP=1.87D-03 DE=-1.48D-03 OVMax= 1.81D-03

 Cycle   6  Pass 1  IDiag  3:
 E=-0.759878523634598     Delta-E=       -0.000068874239 Rises=F Damp=F
 DIIS: error= 9.81D-05 at cycle   6 NSaved=   6.
 NSaved= 6 IEnMin= 6 EnMin=-0.759878523634598     IErMin= 6 ErrMin= 9.81D-05
 ErrMax= 9.81D-05  0.00D+00 EMaxC= 1.00D-01 BMatC= 9.19D-07 BMatP= 1.09D-05
 IDIUse=1 WtCom= 1.00D+00 WtEn= 0.00D+00
 Coeff-Com:  0.282D-02-0.118D-01 0.506D-02 0.104D+00-0.641D+00 0.154D+01
 Coeff:      0.282D-02-0.118D-01 0.506D-02 0.104D+00-0.641D+00 0.154D+01
 Gap=     0.377 Goal=   None    Shift=    0.000
 RMSDP=3.74D-05 MaxDP=8.00D-04 DE=-6.89D-05 OVMax= 7.74D-04

 Cycle   7  Pass 1  IDiag  3:
 E=-0.759885076522551     Delta-E=       -0.000006552888 Rises=F Damp=F
 DIIS: error= 2.53D-05 at cycle   7 NSaved=   7.
 NSaved= 7 IEnMin= 7 EnMin=-0.759885076522551     IErMin= 7 ErrMin= 2.53D-05
 ErrMax= 2.53D-05  0.00D+00 EMaxC= 1.00D-01 BMatC= 6.65D-08 BMatP= 9.19D-07
 IDIUse=1 WtCom= 1.00D+00 WtEn= 0.00D+00
 Coeff-Com: -0.120D-02 0.529D-02-0.362D-02-0.370D-01 0.266D+00-0.828D+00
 Coeff-Com:  0.160D+01
 Coeff:     -0.120D-02 0.529D-02-0.362D-02-0.370D-01 0.266D+00-0.828D+00
 Coeff:      0.160D+01
 Gap=     0.377 Goal=   None    Shift=    0.000
 RMSDP=1.06D-05 MaxDP=2.52D-04 DE=-6.55D-06 OVMax= 2.40D-04

 Cycle   8  Pass 1  IDiag  3:
 E=-0.759885581707977     Delta-E=       -0.000000505185 Rises=F Damp=F
 DIIS: error= 7.14D-06 at cycle   8 NSaved=   8.
 NSaved= 8 IEnMin= 8 EnMin=-0.759885581707977     IErMin= 8 ErrMin= 7.14D-06
 ErrMax= 7.14D-06  0.00D+00 EMaxC= 1.00D-01 BMatC= 5.17D-09 BMatP= 6.65D-08
 IDIUse=1 WtCom= 1.00D+00 WtEn= 0.00D+00
 Coeff-Com:  0.250D-03-0.126D-02 0.724D-03 0.991D-02-0.730D-01 0.253D+00
 Coeff-Com: -0.713D+00 0.152D+01
 Coeff:      0.250D-03-0.126D-02 0.724D-03 0.991D-02-0.730D-01 0.253D+00
 Coeff:     -0.713D+00 0.152D+01
 Gap=     0.377 Goal=   None    Shift=    0.000
 RMSDP=3.03D-06 MaxDP=7.39D-05 DE=-5.05D-07 OVMax= 6.23D-05

 Cycle   9  Pass 1  IDiag  3:
 E=-0.759885621174362     Delta-E=       -0.000000039466 Rises=F Damp=F
 DIIS: error= 3.09D-06 at cycle   9 NSaved=   9.
 NSaved= 9 IEnMin= 9 EnMin=-0.759885621174362     IErMin= 9 ErrMin= 3.09D-06
 ErrMax= 3.09D-06  0.00D+00 EMaxC= 1.00D-01 BMatC= 4.60D-10 BMatP= 5.17D-09
 IDIUse=1 WtCom= 1.00D+00 WtEn= 0.00D+00
 Coeff-Com: -0.497D-04 0.319D-03-0.223D-03-0.198D-02 0.175D-01-0.678D-01
 Coeff-Com:  0.231D+00-0.722D+00 0.154D+01
 Coeff:     -0.497D-04 0.319D-03-0.223D-03-0.198D-02 0.175D-01-0.678D-01
 Coeff:      0.231D+00-0.722D+00 0.154D+01
 Gap=     0.377 Goal=   None    Shift=    0.000
 RMSDP=8.61D-07 MaxDP=2.38D-05 DE=-3.95D-08 OVMax= 1.36D-05

 Cycle  10  Pass 1  IDiag  3:
 E=-0.759885624585195     Delta-E=       -0.000000003411 Rises=F Damp=F
 DIIS: error= 8.73D-07 at cycle  10 NSaved=  10.
 NSaved=10 IEnMin=10 EnMin=-0.759885624585195     IErMin=10 ErrMin= 8.73D-07
 ErrMax= 8.73D-07  0.00D+00 EMaxC= 1.00D-01 BMatC= 4.73D-11 BMatP= 4.60D-10
 IDIUse=1 WtCom= 1.00D+00 WtEn= 0.00D+00
 Coeff-Com:  0.202D-04-0.127D-03 0.154D-03 0.946D-04-0.320D-02 0.143D-01
 Coeff-Com: -0.537D-01 0.204D+00-0.714D+00 0.155D+01
 Coeff:      0.202D-04-0.127D-03 0.154D-03 0.946D-04-0.320D-02 0.143D-01
 Coeff:     -0.537D-01 0.204D+00-0.714D+00 0.155D+01
 Gap=     0.377 Goal=   None    Shift=    0.000
 RMSDP=2.89D-07 MaxDP=8.04D-06 DE=-3.41D-09 OVMax= 4.24D-06

 Cycle  11  Pass 1  IDiag  3:
 E=-0.759885624928074     Delta-E=       -0.000000000343 Rises=F Damp=F
 DIIS: error= 2.26D-07 at cycle  11 NSaved=  11.
 NSaved=11 IEnMin=11 EnMin=-0.759885624928074     IErMin=11 ErrMin= 2.26D-07
 ErrMax= 2.26D-07  0.00D+00 EMaxC= 1.00D-01 BMatC= 4.40D-12 BMatP= 4.73D-11
 IDIUse=1 WtCom= 1.00D+00 WtEn= 0.00D+00
 Coeff-Com: -0.975D-05 0.569D-04-0.866D-04 0.140D-03 0.353D-03-0.253D-02
 Coeff-Com:  0.110D-01-0.487D-01 0.221D+00-0.739D+00 0.156D+01
 Coeff:     -0.975D-05 0.569D-04-0.866D-04 0.140D-03 0.353D-03-0.253D-02
 Coeff:      0.110D-01-0.487D-01 0.221D+00-0.739D+00 0.156D+01
 Gap=     0.377 Goal=   None    Shift=    0.000
 RMSDP=8.74D-08 MaxDP=2.32D-06 DE=-3.43D-10 OVMax= 1.30D-06

 Cycle  12  Pass 1  IDiag  3:
 E=-0.759885624968092     Delta-E=       -0.000000000040 Rises=F Damp=F
 DIIS: error= 7.98D-08 at cycle  12 NSaved=  12.
 NSaved=12 IEnMin=12 EnMin=-0.759885624968092     IErMin=12 ErrMin= 7.98D-08
 ErrMax= 7.98D-08  0.00D+00 EMaxC= 1.00D-01 BMatC= 4.04D-13 BMatP= 4.40D-12
 IDIUse=1 WtCom= 1.00D+00 WtEn= 0.00D+00
 Coeff-Com:  0.337D-05-0.198D-04 0.343D-04-0.948D-04 0.137D-03 0.367D-04
 Coeff-Com: -0.132D-02 0.836D-02-0.486D-01 0.215D+00-0.738D+00 0.156D+01
 Coeff:      0.337D-05-0.198D-04 0.343D-04-0.948D-04 0.137D-03 0.367D-04
 Coeff:     -0.132D-02 0.836D-02-0.486D-01 0.215D+00-0.738D+00 0.156D+01
 Gap=     0.377 Goal=   None    Shift=    0.000
 RMSDP=2.68D-08 MaxDP=6.47D-07 DE=-4.00D-11 OVMax= 3.08D-07

 Cycle  13  Pass 1  IDiag  3:
 E=-0.759885624964682     Delta-E=        0.000000000003 Rises=F Damp=F
 DIIS: error= 1.83D-08 at cycle  13 NSaved=  13.
 NSaved=13 IEnMin=12 EnMin=-0.759885624968092     IErMin=13 ErrMin= 1.83D-08
 ErrMax= 1.83D-08  0.00D+00 EMaxC= 1.00D-01 BMatC= 3.24D-14 BMatP= 4.04D-13
 IDIUse=1 WtCom= 1.00D+00 WtEn= 0.00D+00
 Coeff-Com: -0.778D-06 0.486D-05-0.104D-04 0.452D-04-0.149D-03 0.355D-03
 Coeff-Com: -0.697D-03 0.970D-03 0.349D-02-0.393D-01 0.216D+00-0.718D+00
 Coeff-Com:  0.154D+01
 Coeff:     -0.778D-06 0.486D-05-0.104D-04 0.452D-04-0.149D-03 0.355D-03
 Coeff:     -0.697D-03 0.970D-03 0.349D-02-0.393D-01 0.216D+00-0.718D+00
 Coeff:      0.154D+01
 Gap=     0.377 Goal=   None    Shift=    0.000
 RMSDP=7.07D-09 MaxDP=1.81D-07 DE= 3.41D-12 OVMax= 7.44D-08

 Cycle  14  Pass 2  IDiag  1:
 SCF Done:  E(RPM6) = -0.759885624965     A.U. after   14 cycles
            NFock= 13  Conv=0.71D-08     -V/T= 0.9975
 KE=-3.044586017099D+02 PE=-2.356325455054D+03 EE= 1.282836031687D+03
 Leave Link  502 at Tue Jun 22 14:23:01 2021, MaxMem=  2147483648 cpu:               0.5 elap:               0.0
 (Enter /home/matma/Programs/gaussian/G16_x86_SSE4/tar/g16/l601.exe)
 Copying SCF densities to generalized density rwf, IOpCl= 0 IROHF=0.

 **********************************************************************

            Population analysis using the SCF Density.

 **********************************************************************

 Orbital symmetries:
       Occupied  (A) (A) (A) (A) (A) (A) (A) (A) (A) (A) (A) (A)
                 (A) (A) (A) (A) (A) (A) (A) (A) (A) (A) (A) (A)
                 (A) (A) (A) (A) (A) (A) (A) (A) (A) (A) (A) (A)
                 (A) (A) (A) (A) (A) (A) (A) (A) (A) (A) (A) (A)
                 (A) (A) (A) (A) (A) (A) (A) (A) (A) (A) (A) (A)
                 (A) (A) (A) (A) (A) (A) (A) (A)
       Virtual   (A) (A) (A) (A) (A) (A) (A) (A) (A) (A) (A) (A)
                 (A) (A) (A) (A) (A) (A) (A) (A) (A) (A) (A) (A)
                 (A) (A) (A) (A) (A) (A) (A) (A) (A) (A) (A) (A)
                 (A) (A) (A) (A) (A) (A) (A) (A) (A) (A)
 The electronic state is 1-A.
 Alpha  occ. eigenvalues --   -1.18654  -1.16874  -1.15267  -1.13913  -1.13146
 Alpha  occ. eigenvalues --   -1.12034  -1.11368  -1.10200  -1.09144  -1.09016
 Alpha  occ. eigenvalues --   -1.07576  -1.02083  -1.00994  -0.99799  -0.98917
 Alpha  occ. eigenvalues --   -0.92779  -0.91985  -0.88971  -0.85681  -0.83006
 Alpha  occ. eigenvalues --   -0.82343  -0.77787  -0.75158  -0.74836  -0.72241
 Alpha  occ. eigenvalues --   -0.71477  -0.70054  -0.69293  -0.68075  -0.67683
 Alpha  occ. eigenvalues --   -0.65315  -0.64697  -0.64638  -0.62722  -0.62372
 Alpha  occ. eigenvalues --   -0.62140  -0.60299  -0.59149  -0.58664  -0.58058
 Alpha  occ. eigenvalues --   -0.56971  -0.56450  -0.55284  -0.55115  -0.54613
 Alpha  occ. eigenvalues --   -0.53138  -0.52388  -0.52010  -0.50328  -0.49760
 Alpha  occ. eigenvalues --   -0.49737  -0.49249  -0.48802  -0.48500  -0.47136
 Alpha  occ. eigenvalues --   -0.46483  -0.46229  -0.44975  -0.44443  -0.42981
 Alpha  occ. eigenvalues --   -0.42537  -0.41999  -0.41429  -0.40680  -0.39861
 Alpha  occ. eigenvalues --   -0.39660  -0.38774  -0.37653
 Alpha virt. eigenvalues --    0.00010   0.01569   0.02871   0.03788   0.05179
 Alpha virt. eigenvalues --    0.05268   0.05487   0.06544   0.07435   0.07489
 Alpha virt. eigenvalues --    0.07965   0.08097   0.08478   0.08823   0.09466
 Alpha virt. eigenvalues --    0.09710   0.09852   0.10165   0.10650   0.10807
 Alpha virt. eigenvalues --    0.11515   0.12152   0.12288   0.13011   0.13731
 Alpha virt. eigenvalues --    0.15430   0.15699   0.15782   0.16330   0.16479
 Alpha virt. eigenvalues --    0.16782   0.16943   0.17421   0.17553   0.17645
 Alpha virt. eigenvalues --    0.17737   0.17900   0.18086   0.18622   0.18738
 Alpha virt. eigenvalues --    0.19239   0.19459   0.19726   0.20859   0.20980
 Alpha virt. eigenvalues --    0.22185
          Condensed to atoms (all electrons):
               1          2          3          4          5          6
     1  O    6.553759   0.000000   0.000000   0.000000   0.000000   0.000000
     2  C    0.000000   3.927144   0.000000   0.000000   0.000000   0.000000
     3  C    0.000000   0.000000   3.915470   0.000000   0.000000   0.000000
     4  O    0.000000   0.000000   0.000000   6.557443   0.000000   0.000000
     5  C    0.000000   0.000000   0.000000   0.000000   4.011911   0.000000
     6  C    0.000000   0.000000   0.000000   0.000000   0.000000   3.675255
     7  O    0.000000   0.000000   0.000000   0.000000   0.000000   0.000000
     8  C    0.000000   0.000000   0.000000   0.000000   0.000000   0.000000
     9  C    0.000000   0.000000   0.000000   0.000000   0.000000   0.000000
    10  O    0.000000   0.000000   0.000000   0.000000   0.000000   0.000000
    11  O    0.000000   0.000000   0.000000   0.000000   0.000000   0.000000
    12  C    0.000000   0.000000   0.000000   0.000000   0.000000   0.000000
    13  C    0.000000   0.000000   0.000000   0.000000   0.000000   0.000000
    14  C    0.000000   0.000000   0.000000   0.000000   0.000000   0.000000
    15  C    0.000000   0.000000   0.000000   0.000000   0.000000   0.000000
    16  O    0.000000   0.000000   0.000000   0.000000   0.000000   0.000000
    17  C    0.000000   0.000000   0.000000   0.000000   0.000000   0.000000
    18  C    0.000000   0.000000   0.000000   0.000000   0.000000   0.000000
    19  O    0.000000   0.000000   0.000000   0.000000   0.000000   0.000000
    20  O    0.000000   0.000000   0.000000   0.000000   0.000000   0.000000
    21  O    0.000000   0.000000   0.000000   0.000000   0.000000   0.000000
    22  O    0.000000   0.000000   0.000000   0.000000   0.000000   0.000000
    23  O    0.000000   0.000000   0.000000   0.000000   0.000000   0.000000
    24  H    0.000000   0.000000   0.000000   0.000000   0.000000   0.000000
    25  H    0.000000   0.000000   0.000000   0.000000   0.000000   0.000000
    26  H    0.000000   0.000000   0.000000   0.000000   0.000000   0.000000
    27  H    0.000000   0.000000   0.000000   0.000000   0.000000   0.000000
    28  H    0.000000   0.000000   0.000000   0.000000   0.000000   0.000000
    29  H    0.000000   0.000000   0.000000   0.000000   0.000000   0.000000
    30  H    0.000000   0.000000   0.000000   0.000000   0.000000   0.000000
    31  H    0.000000   0.000000   0.000000   0.000000   0.000000   0.000000
    32  H    0.000000   0.000000   0.000000   0.000000   0.000000   0.000000
    33  H    0.000000   0.000000   0.000000   0.000000   0.000000   0.000000
    34  H    0.000000   0.000000   0.000000   0.000000   0.000000   0.000000
    35  H    0.000000   0.000000   0.000000   0.000000   0.000000   0.000000
    36  H    0.000000   0.000000   0.000000   0.000000   0.000000   0.000000
    37  H    0.000000   0.000000   0.000000   0.000000   0.000000   0.000000
    38  H    0.000000   0.000000   0.000000   0.000000   0.000000   0.000000
    39  H    0.000000   0.000000   0.000000   0.000000   0.000000   0.000000
    40  H    0.000000   0.000000   0.000000   0.000000   0.000000   0.000000
    41  H    0.000000   0.000000   0.000000   0.000000   0.000000   0.000000
    42  H    0.000000   0.000000   0.000000   0.000000   0.000000   0.000000
    43  H    0.000000   0.000000   0.000000   0.000000   0.000000   0.000000
    44  H    0.000000   0.000000   0.000000   0.000000   0.000000   0.000000
    45  H    0.000000   0.000000   0.000000   0.000000   0.000000   0.000000
               7          8          9         10         11         12
     1  O    0.000000   0.000000   0.000000   0.000000   0.000000   0.000000
     2  C    0.000000   0.000000   0.000000   0.000000   0.000000   0.000000
     3  C    0.000000   0.000000   0.000000   0.000000   0.000000   0.000000
     4  O    0.000000   0.000000   0.000000   0.000000   0.000000   0.000000
     5  C    0.000000   0.000000   0.000000   0.000000   0.000000   0.000000
     6  C    0.000000   0.000000   0.000000   0.000000   0.000000   0.000000
     7  O    6.444264   0.000000   0.000000   0.000000   0.000000   0.000000
     8  C    0.000000   3.936555   0.000000   0.000000   0.000000   0.000000
     9  C    0.000000   0.000000   4.027348   0.000000   0.000000   0.000000
    10  O    0.000000   0.000000   0.000000   6.556741   0.000000   0.000000
    11  O    0.000000   0.000000   0.000000   0.000000   6.559803   0.000000
    12  C    0.000000   0.000000   0.000000   0.000000   0.000000   3.925413
    13  C    0.000000   0.000000   0.000000   0.000000   0.000000   0.000000
    14  C    0.000000   0.000000   0.000000   0.000000   0.000000   0.000000
    15  C    0.000000   0.000000   0.000000   0.000000   0.000000   0.000000
    16  O    0.000000   0.000000   0.000000   0.000000   0.000000   0.000000
    17  C    0.000000   0.000000   0.000000   0.000000   0.000000   0.000000
    18  C    0.000000   0.000000   0.000000   0.000000   0.000000   0.000000
    19  O    0.000000   0.000000   0.000000   0.000000   0.000000   0.000000
    20  O    0.000000   0.000000   0.000000   0.000000   0.000000   0.000000
    21  O    0.000000   0.000000   0.000000   0.000000   0.000000   0.000000
    22  O    0.000000   0.000000   0.000000   0.000000   0.000000   0.000000
    23  O    0.000000   0.000000   0.000000   0.000000   0.000000   0.000000
    24  H    0.000000   0.000000   0.000000   0.000000   0.000000   0.000000
    25  H    0.000000   0.000000   0.000000   0.000000   0.000000   0.000000
    26  H    0.000000   0.000000   0.000000   0.000000   0.000000   0.000000
    27  H    0.000000   0.000000   0.000000   0.000000   0.000000   0.000000
    28  H    0.000000   0.000000   0.000000   0.000000   0.000000   0.000000
    29  H    0.000000   0.000000   0.000000   0.000000   0.000000   0.000000
    30  H    0.000000   0.000000   0.000000   0.000000   0.000000   0.000000
    31  H    0.000000   0.000000   0.000000   0.000000   0.000000   0.000000
    32  H    0.000000   0.000000   0.000000   0.000000   0.000000   0.000000
    33  H    0.000000   0.000000   0.000000   0.000000   0.000000   0.000000
    34  H    0.000000   0.000000   0.000000   0.000000   0.000000   0.000000
    35  H    0.000000   0.000000   0.000000   0.000000   0.000000   0.000000
    36  H    0.000000   0.000000   0.000000   0.000000   0.000000   0.000000
    37  H    0.000000   0.000000   0.000000   0.000000   0.000000   0.000000
    38  H    0.000000   0.000000   0.000000   0.000000   0.000000   0.000000
    39  H    0.000000   0.000000   0.000000   0.000000   0.000000   0.000000
    40  H    0.000000   0.000000   0.000000   0.000000   0.000000   0.000000
    41  H    0.000000   0.000000   0.000000   0.000000   0.000000   0.000000
    42  H    0.000000   0.000000   0.000000   0.000000   0.000000   0.000000
    43  H    0.000000   0.000000   0.000000   0.000000   0.000000   0.000000
    44  H    0.000000   0.000000   0.000000   0.000000   0.000000   0.000000
    45  H    0.000000   0.000000   0.000000   0.000000   0.000000   0.000000
              13         14         15         16         17         18
     1  O    0.000000   0.000000   0.000000   0.000000   0.000000   0.000000
     2  C    0.000000   0.000000   0.000000   0.000000   0.000000   0.000000
     3  C    0.000000   0.000000   0.000000   0.000000   0.000000   0.000000
     4  O    0.000000   0.000000   0.000000   0.000000   0.000000   0.000000
     5  C    0.000000   0.000000   0.000000   0.000000   0.000000   0.000000
     6  C    0.000000   0.000000   0.000000   0.000000   0.000000   0.000000
     7  O    0.000000   0.000000   0.000000   0.000000   0.000000   0.000000
     8  C    0.000000   0.000000   0.000000   0.000000   0.000000   0.000000
     9  C    0.000000   0.000000   0.000000   0.000000   0.000000   0.000000
    10  O    0.000000   0.000000   0.000000   0.000000   0.000000   0.000000
    11  O    0.000000   0.000000   0.000000   0.000000   0.000000   0.000000
    12  C    0.000000   0.000000   0.000000   0.000000   0.000000   0.000000
    13  C    3.949676   0.000000   0.000000   0.000000   0.000000   0.000000
    14  C    0.000000   3.972650   0.000000   0.000000   0.000000   0.000000
[...]
 ,-0.00003618,0.00002109,0.00006070,0.00000533,-0.00006308,-0.00010156,
 -0.00000961,-0.00005647,0.00002930,0.00006898,0.00001614,0.00005751,0.
 00002977,0.00001055,0.00008044,0.00003441,-0.00005737,0.00024283,0.002
 28339,0.00067993,-0.00049417,-0.00072076,-0.00041465,0.00030981,0.0001
 2211,0.00011987,0.00013167,-0.00005504,-0.00008051,0.00002925,0.000099
 07,-0.00012800,0.00009801,-0.00008476,0.00009361,-0.00002227,-0.000118
 39,-0.00003597,-0.00006768,0.00108641,0.00066836,-0.00098131,0.0000679
 3,-0.00042171,0.00089408,0.14869367,-0.00002190,-0.00005940,0.00002914
 ,0.00002310,0.00003323,-0.00000558,-0.00001033,0.00000492,-0.00000407,
 -0.00000493,-0.00002362,0.00001691,-0.00000921,-0.00000843,-0.00000029
 ,-0.00003407,-0.00002875,-0.00006587,0.00001986,-0.00005159,0.00001867
 ,0.00000608,-0.00000846,0.00002456,-0.00001976,0.00006791,0.00006847,-
 0.00007334,-0.00025714,0.00000307,0.01287099,-0.01870145,-0.01102169,0
 .02979197,-0.01076456,0.01986790,0.00031604,0.00095304,-0.00017766,-0.
 00005190,-0.00032700,0.00012927,-0.00002228,0.00006623,0.00002297,0.00
 094615,-0.00034904,0.00072364,0.00234943,-0.00307135,-0.00228662,0.000
 36980,0.00015244,-0.00006804,-0.00070185,-0.00018093,-0.00049340,-0.00
 007634,-0.00006339,0.00005569,-0.00012441,-0.00003352,0.00011742,-0.00
 019284,-0.00123019,0.00039381,-0.00000109,-0.00002597,0.00001941,-0.00
 000072,-0.00000285,-0.00000211,0.00000359,0.00000502,-0.00000164,0.000
 00593,0.00000634,-0.00001057,0.00001878,0.00001512,-0.00001092,-0.0000
 0271,0.00002159,0.00001432,-0.00000578,0.00001400,-0.00000534,0.000006
 94,0.00000771,-0.00001018,0.00002882,0.00002217,-0.00003899,-0.0000225
 5,0.00011073,0.00005609,0.00174071,-0.00149839,-0.00008716,-0.00031517
 ,0.00029971,0.00014724,0.00006602,0.00001881,-0.00000500,-0.00000849,0
 .00002084,0.00000335,-0.00013753,0.00009010,-0.00023738,0.00001239,-0.
 00006343,0.00004170,-0.00000365,-0.00003291,0.00008665,0.00042744,0.00
 033530,0.00088621,-0.00027315,0.00050778,-0.00018388,-0.04697054,0.033
 95080,-0.00006479,0.00004002,-0.00004804,0.00001336,-0.00001346,0.0000
 1096,0.00000194,0.00000974,0.00003105,-0.00002344,0.00001663,-0.000061
 71,0.00006527,-0.00000540,0.00003158,-0.00001140,0.00002687,0.00044378
 ,-0.00021600,0.00005951,-0.00024297,0.00008165,0.00009634,0.00006335,0
 .00005238,-0.00025443,-0.00015910,-0.00050280,0.00014245,0.00047682,-0
 .10332120,0.00834974,-0.11888411,0.00400909,0.00259183,0.00925161,0.00
 496118,-0.00199982,0.00148915,-0.00067571,0.00015841,-0.00021630,-0.00
 080554,-0.00003435,0.00126552,0.00226508,-0.00057172,-0.00028209,0.000
 15877,-0.00151138,-0.00170687,0.00003657,-0.00001011,-0.00024216,0.000
 16866,-0.00014323,0.00060582,0.00023140,-0.00017701,-0.00036018,0.0003
 2544,0.00019421,-0.00059756,-0.00332320,0.00187685,0.00030062,-0.00002
 798,0.00004410,-0.00016315,-0.00000400,0.00000294,-0.00000073,-0.00000
 015,-0.00000321,-0.00000568,0.00000132,-0.00000429,0.00003953,-0.00001
 903,-0.00001541,0.00005266,0.00002340,-0.00001024,-0.00003177,-0.00000
 495,-0.00002075,-0.00001066,0.00002807,0.00000741,-0.00001198,0.000038
 34,-0.00002082,0.00003505,0.00025171,-0.00001687,0.00000648,0.00124451
 ,-0.00008426,0.00035834,0.00027885,-0.00015483,-0.00016754,-0.00000507
 ,0.00002292,0.00010066,-0.00006365,-0.00004171,-0.00007370,-0.00006063
 ,-0.00028353,-0.00013610,-0.00002839,0.00011249,-0.00003658,-0.0000550
 1,-0.00005866,-0.00004167,-0.00061125,-0.00003463,-0.00109542,0.000574
 03,-0.00036417,-0.00079055,0.09514332,-0.00795910,0.11055994,-0.000274
 37,-0.00035531,0.00010594,0.00065660,-0.00008314,-0.00097607,-0.004858
 92,0.00076837,-0.00282237,0.00002687,0.00023901,0.00037043,0.00154283,
 0.01388237,-0.03883903,-0.00115225,-0.00010069,-0.00347462,-0.00021672
 ,0.00055487,0.00053903,0.00013400,-0.00018443,-0.00004911,0.00010047,-
 0.00015087,-0.00005906,-0.00017014,0.00007850,0.00032909,0.00027758,-0
 .00015325,0.00005348,-0.00018678,0.00010365,0.00003637,-0.00046996,-0.
 00005669,-0.00008101,0.00062078,0.00042851,-0.00064200,-0.00276546,0.0
 0339282,0.00137644,0.00144193,-0.00070585,-0.00091760,-0.00065492,0.00
 046686,-0.00012239,-0.00010909,-0.00013203,0.00001807,0.00026409,-0.00
 004730,-0.00011651,-0.00429114,-0.00129790,0.00153267,-0.00090824,-0.0
 0051209,0.00141317,0.00032047,-0.00013632,0.00050893,-0.04781424,-0.02
 138098,0.05494953,-0.00027253,0.00006650,-0.00007229,-0.00025698,-0.00
 000987,0.00029443,0.00016304,-0.00009190,0.00012679,-0.00013468,0.0002
 1854,-0.00177942,-0.00007299,-0.00004418,0.00001263,0.00001178,-0.0000
 2233,0.00003448,0.00001563,-0.00000112,-0.00000315,0.00002783,0.000045
 44,-0.00007855,0.00002740,0.00001935,-0.00014308,-0.00004444,-0.000032
 72,-0.00000266,0.00007049,0.00005780,-0.00003044,-0.00012569,-0.000050
 52,-0.00017530,0.00042228,0.00019944,0.00035630,0.00008474,0.00003664,
 0.00001896,0.00001011,-0.00002619,0.00005579,0.00002919,0.00003830,0.0
 0002751,-0.00007221,0.00006936,0.00004218,0.00010095,0.00016929,-0.000
 35390,-0.00009408,0.00001481,-0.00008192,0.05728181,-0.00019551,-0.000
 63835,0.00013397,0.00064634,0.00014423,-0.00048463,-0.00165003,0.00200
 270,-0.00151179,0.00051292,-0.00133169,0.00086231,0.00271343,-0.005653
 01,0.00985712,0.00282600,-0.00185985,0.00185570,-0.00052683,-0.0003908
 3,-0.00038553,0.00024787,0.00026632,0.00001777,-0.00000715,-0.00009248
 ,-0.00007654,-0.00017188,-0.00000274,0.00007841,-0.00005332,-0.0000310
 6,0.00008894,0.00000081,0.00000371,-0.00010133,0.00002204,-0.00005720,
 0.00010253,0.00047718,0.00005475,-0.00030251,0.00060168,0.00241610,-0.
 00087194,0.00020589,-0.00063512,0.00012908,-0.00015740,-0.00002455,-0.
 00005817,0.00005008,-0.00003374,-0.00000999,-0.00000309,-0.00004007,0.
 00001900,0.00114133,-0.00370373,-0.00033335,-0.00091040,-0.00027379,0.
 00008664,-0.00007273,-0.00007061,0.00007510,-0.01113645,-0.02281801,0.
 06094221,-0.00016544,0.00002633,0.00000961,-0.00015279,-0.00011424,-0.
 00001637,-0.00010493,0.00061070,-0.00106186,-0.00059192,0.00173202,-0.
 00155756,0.00014070,-0.00027301,0.00031944,-0.00004438,-0.00010333,-0.
 00000887,0.00003158,0.00002165,0.00003504,0.00002636,0.00006040,-0.000
 01900,0.00014667,-0.00000583,0.00000789,0.00000235,0.00004055,0.000009
 57,0.00001230,0.00001098,-0.00000867,0.00003978,0.00009629,-0.00002149
 ,0.00062687,-0.00016667,-0.00023743,0.00006218,0.00001197,-0.00001288,
 -0.00001644,0.00004764,0.00000778,-0.00000312,0.00000614,0.00000418,-0
 .00000537,0.00002567,-0.00002679,0.00008937,0.00004695,-0.00011329,0.0
 0003012,0.00001558,-0.00002727,0.00562219,0.02992165,0.00051568,0.0004
 3955,0.00033513,-0.00035282,-0.00028482,-0.00022822,-0.00165692,-0.000
 72366,-0.00268496,-0.00028511,0.00092770,0.00076722,-0.00948505,0.0125
 3034,-0.03738891,-0.00183131,0.00238522,0.00221161,0.00077566,-0.00119
 019,0.00030732,-0.00034055,-0.00004780,-0.00007798,-0.00008304,0.00031
 042,0.00024427,0.00041192,-0.00022045,-0.00045322,-0.00013828,0.000098
 48,-0.00024167,0.00006262,-0.00008098,0.00014313,0.00032794,0.00007576
 ,-0.00007123,-0.00112369,-0.00096400,0.00082991,0.00295378,-0.00378060
 ,0.00011503,-0.00177321,0.00072747,0.00034974,0.00086099,-0.00047666,0
 .00007553,0.00011543,0.00013823,-0.00001675,-0.00032175,0.00008677,-0.
 00000255,-0.00310279,0.00103151,0.00014871,0.00207496,-0.00012893,-0.0
 0263496,-0.00014861,0.00013870,-0.00067599,0.02458639,0.05747593,-0.16
 486217,0.00010047,0.00000047,-0.00013645,0.00017377,0.00023966,0.00008
 978,0.00048382,-0.00063194,-0.00060899,-0.00042996,-0.00158528,0.00203
 490,0.00048163,0.00015484,0.00012299,0.00002559,0.00012826,-0.00009234
 ,-0.00007248,-0.00002392,-0.00006333,-0.00009492,-0.00004727,0.0000412
 0,-0.00024504,0.00008424,0.00012859,0.00003273,0.00002841,0.00000157,-
 0.00002383,-0.00003102,0.00005869,-0.00013480,0.00029579,0.00018789,0.
 00000425,-0.00008341,-0.00016814,-0.00007944,-0.00000160,0.00001472,0.
 00004464,-0.00001021,-0.00003237,0.00000106,-0.00003450,-0.00001542,0.
 00007746,-0.00010272,0.00004111,-0.00027967,-0.00018076,0.00051916,0.0
 0003991,-0.00001754,0.00012300,-0.01126069,-0.06724202,0.20162206,-0.0
 0009489,-0.00019118,0.00009836,0.00009915,0.00012065,-0.00001192,-0.00
 001155,-0.00001212,-0.00000837,-0.00008979,-0.00001214,-0.00004169,0.0
 0000201,-0.00005080,-0.00001749,-0.00026571,0.00002139,0.00053315,-0.0
 0011058,-0.00003911,-0.00027019,0.00007418,0.00010211,0.00007192,-0.00
 004389,0.00000514,0.00001491,-0.00007279,-0.00008954,-0.00005069,-0.00
 004774,-0.00023877,0.00016221,0.00004881,0.00011086,-0.00025215,0.0003
 9155,0.00000603,-0.00035168,-0.00263185,0.00309824,0.00100918,0.011886
 73,0.01271977,-0.01214490,-0.00156243,-0.00219767,-0.00003171,-0.00030
 754,-0.00008935,0.00050901,0.00010966,-0.00006395,-0.00003353,-0.00001
 621,-0.00018883,-0.00011864,-0.05667549,-0.05969715,0.05846523,0.00009
 715,-0.00008603,-0.00058388,-0.00047725,-0.00018858,-0.00025536,-0.000
 24781,-0.00004873,0.00026077,-0.00001028,-0.00001035,0.00000326,0.0000
 0437,0.00000735,-0.00000273,0.00005921,-0.00002092,0.00008404,0.000158
 97,0.00012418,0.00000162,0.00001267,0.00000332,-0.00001075,-0.00001228
 ,-0.00001686,-0.00000893,0.00001160,0.00001534,0.00000198,0.00002616,0
 .00007118,-0.00003041,0.00007596,0.00001089,0.00007105,-0.00005577,0.0
 0032163,0.00002625,-0.00004772,-0.00001922,0.00009333,0.00016490,0.000
 66951,-0.00001269,-0.00121271,0.00117669,0.00018918,0.00010659,-0.0000
 3952,-0.00007399,-0.00004834,0.00022605,0.00022086,0.00002339,-0.00001
 716,0.00005927,-0.00004265,0.00009168,-0.00000060,0.00000159,0.0000195
 3,0.00002842,0.00004288,0.00006035,-0.00007177,0.00129060,-0.00018653,
 -0.00069155,0.04935277,-0.00007831,-0.00045353,0.00000961,0.00021055,0
 .00016732,-0.00004265,-0.00014735,0.00048083,0.00013490,0.00017881,-0.
 00059536,0.00011593,0.00005089,0.00003362,-0.00011478,-0.00050958,-0.0
 0001351,0.00144262,-0.00020069,-0.00002811,-0.00077420,0.00013626,0.00
 031024,0.00015293,-0.00012015,0.00002773,-0.00003678,-0.00003417,-0.00
 003605,-0.00028337,-0.00053258,0.00012073,-0.00002291,0.00027714,-0.00
 018420,-0.00005769,0.00065411,-0.00014809,0.00001436,-0.00042502,-0.00
 147170,0.00122012,-0.00771934,-0.05525213,0.01643193,0.00008463,-0.001
 53936,-0.00280553,0.00122889,-0.00129159,0.00043147,0.00027310,0.00021
 347,-0.00004514,-0.00051264,-0.00012528,0.00021704,-0.03773308,-0.1194
 1749,0.05515206,0.00083586,0.00059497,-0.00105592,-0.00065081,0.000092
 33,-0.00055257,0.00021526,-0.00036606,-0.00047297,-0.00003429,-0.00000
 783,0.00003990,-0.00002828,-0.00003680,-0.00003729,-0.00005985,0.00021
 722,-0.00014827,-0.00003701,0.00023390,0.00045959,-0.00002993,-0.00007
 901,-0.00006621,-0.00002546,-0.00007277,0.00000996,0.00003974,0.000035
 27,0.00004892,0.00004293,0.00004781,0.00007379,0.00011100,-0.00007225,
 0.00018099,0.00010371,0.00027074,0.00002649,-0.00007298,-0.00009718,0.
 00000688,0.00020256,0.00035428,0.00028341,0.00104924,-0.00394929,-0.00
 096757,-0.00021678,-0.00003577,0.00002594,-0.00012086,0.00037598,-0.00
 002138,-0.00006085,-0.00006328,0.00000086,0.00008858,-0.00003531,-0.00
 011479,0.00001480,-0.00016724,0.00027258,0.00017630,0.00004334,0.00009
 342,-0.00106161,0.00043369,0.00086333,0.04446436,0.18123441,0.00002394
 ,-0.00006120,0.00027887,0.00000881,0.00007100,-0.00001971,0.00004338,-
 0.00012277,-0.00016487,-0.00022426,0.00008099,0.00021692,0.00019910,-0
 .00012852,0.00008488,0.00008124,0.00002114,-0.00064617,0.00010709,-0.0
 0009598,0.00034148,-0.00004878,-0.00011989,-0.00001003,0.00001232,0.00
 005735,0.00010510,0.00007181,-0.00011853,0.00002083,0.00018076,-0.0000
 1379,-0.00040097,-0.00034228,0.00014099,0.00045432,-0.00062936,0.00007
 554,-0.00022810,-0.00051429,0.00069737,-0.00088549,-0.00692979,-0.0051
 4257,0.00627076,-0.00063182,0.00118361,-0.00073739,0.00088536,0.000300
 21,-0.00112418,0.00010042,0.00009235,-0.00001161,-0.00019724,0.0002429
 0,-0.00017944,0.05223074,0.07626156,-0.05633654,-0.00033395,-0.0004017
 9,0.00062155,0.00040798,-0.00007135,0.00010777,-0.00040614,-0.00000804
 ,-0.00038967,0.00001865,-0.00001008,-0.00004647,0.00004943,0.00004850,
 0.00000043,0.00020297,-0.00002698,-0.00009258,0.00036274,0.00044743,-0
 .00044059,0.00006627,0.00005798,0.00004637,0.00001098,0.00005425,-0.00
 003374,-0.00003702,-0.00000882,-0.00004304,-0.00002988,0.00005850,-0.0
 0008125,-0.00006474,0.00006768,-0.00005258,-0.00001665,-0.00003056,0.0
 0005756,0.00007722,0.00002520,-0.00003115,-0.00038255,0.00048746,-0.00
 027192,0.00252797,-0.00368158,-0.00090433,-0.00022946,0.00007420,0.000
 13854,0.00029424,-0.00033261,-0.00014308,0.00003436,-0.00001490,-0.000
 07173,0.00005389,-0.00015146,0.00013578,-0.00008901,0.00007745,-0.0000
 4271,-0.00008145,-0.00001795,0.00008191,-0.00008582,-0.00001982,0.0001
 9217,-0.04676597,-0.07001950,0.05443135,-0.07359736,0.08622179,0.00048
 766,0.01140542,-0.02948740,0.00161800,-0.00141654,-0.00687029,-0.00100
 355,-0.00206761,0.00131197,0.00077027,-0.00000829,0.00010952,0.0002217
 4,0.00021846,-0.00062496,0.00107128,-0.00026029,-0.00068782,-0.0012644
 0,-0.00350555,-0.00301872,0.00201039,-0.00054756,0.00020360,0.00003632
 ,0.00011087,-0.00008239,-0.00018310,-0.00000959,-0.00000621,-0.0000345
 9,-0.00001868,0.00000614,0.00000635,0.00011420,0.00000832,0.00009632,-
 0.00006386,-0.00005914,-0.00001372,0.00018671,-0.00022552,-0.00002488,
 -0.00012642,0.00004018,0.00001750,0.00006829,-0.00003757,0.00000567,0.
 00000336,0.00000878,0.00000105,-0.00002533,0.00000689,-0.00002529,-0.0
 0019052,0.00022126,0.00011160,-0.00004392,0.00024713,-0.00015499,-0.00
 005127,-0.00003038,-0.00022594,-0.00021173,0.00048800,0.00010423,-0.00
 090002,-0.00169092,0.00017200,-0.00009336,0.00040003,0.00007840,0.0007
 3293,0.00114419,-0.00059995,0.00023566,-0.00006356,-0.00015683,-0.0000
 1720,0.00012281,-0.00008798,0.00033212,-0.00032424,-0.00024919,0.00000
 718,-0.00000583,-0.00000074,0.00006707,0.00008172,-0.00000049,-0.00000
 206,0.00005822,0.00010828,0.00000937,0.00001343,0.00001116,-0.00000995
 ,0.00000341,0.00000625,0.00006787,0.00003476,0.00005958,-0.00000748,0.
 00002058,-0.00001574,-0.00000410,0.00000505,0.00000148,0.00000668,-0.0
 0000545,0.00000280,0.00000249,-0.00000083,0.00000310,0.00000542,-0.000
 00694,0.00001965,-0.00006064,-0.00001091,0.00015807,0.00000512,0.00000
 540,0.00002333,0.00002454,-0.00012049,-0.00019574,0.00004499,-0.000026
 36,-0.00001203,0.06959147,0.05306130,-0.16151174,0.01165998,0.00144269
 ,-0.04879338,0.00352318,-0.00291184,0.00105952,-0.00185078,-0.00335461
 ,-0.00330510,-0.00069021,-0.00037748,-0.00027696,-0.00076731,0.0004584
 6,-0.00007820,-0.00119315,0.00036734,0.00013967,0.00105368,-0.00218617
 ,-0.00355011,-0.00005929,0.00029838,-0.00061753,-0.00050677,-0.0004609
 8,0.00057503,0.00067872,-0.00014534,0.00001273,0.00009874,0.00008708,-
 0.00004085,-0.00009833,-0.00000418,-0.00007640,-0.00000572,0.00017442,
 0.00031080,-0.00019353,-0.00004202,0.00032360,-0.00030912,-0.00008215,
 -0.00008595,0.00022520,-0.00000900,-0.00004988,-0.00000409,0.00009269,
 0.00000115,-0.00001943,-0.00007726,-0.00002771,0.00005444,-0.00003003,
 -0.00050924,0.00018897,-0.00054175,-0.00007745,0.00074507,-0.00013684,
 -0.00008147,0.00031788,0.00039911,-0.00049367,0.00090474,0.00032889,0.
 00061603,0.00160705,0.00026660,-0.00070179,0.00049061,-0.00034478,0.00
 041440,-0.00032169,0.00002566,0.00021030,-0.00041133,-0.00011619,-0.00
 011524,0.00007695,0.00012885,-0.00034321,0.00020117,0.00020330,0.00000
 057,0.00010159,0.00025536,-0.00007753,-0.00016435,-0.00002457,-0.00012
 354,-0.00019463,0.00002212,0.00006097,0.00001435,-0.00000282,-0.000013
 26,-0.00002629,0.00004208,0.00002115,-0.00012602,0.00002124,-0.0000320
 4,0.00000829,0.00000396,-0.00000385,-0.00001126,-0.00000909,0.00003699
 ,-0.00000548,-0.00001227,-0.00000717,-0.00000565,0.00001914,0.00001009
 ,-0.00004808,0.00025777,0.00009578,-0.00039995,0.00006637,0.00001969,-
 0.00002442,0.00016462,0.00032415,-0.00027014,0.00005800,0.00025128,-0.
 00002480,-0.04737730,0.21651007,0.00357909,0.00568158,-0.00262631,-0.0
 0220443,0.00987914,-0.00366512,-0.00131356,-0.00257904,0.00123153,0.00
 137409,0.00056415,-0.00128364,-0.00014246,0.00011730,-0.00044226,0.000
 38237,-0.00068459,0.00073016,-0.00055583,0.00000253,-0.00096741,0.0009
 1074,-0.00007895,0.00049424,-0.00012521,-0.00003474,-0.00001828,0.0000
 3214,-0.00022140,-0.00037132,-0.00014429,0.00008989,0.00000013,0.00008
 246,-0.00004389,-0.00005597,0.00024498,-0.00001225,0.00011424,-0.00011
 025,0.00002759,0.00014171,0.00023559,-0.00030966,-0.00031210,-0.000204
 76,0.00011065,0.00023136,0.00012630,-0.00010310,-0.00002193,0.00004707
 ,0.00003449,-0.00000948,-0.00008917,0.00002803,0.00004606,-0.00000731,
 0.00043968,0.00039142,-0.00000319,0.00035133,-0.00011892,-0.00019683,0
 .00014196,-0.00026586,0.00030645,0.00034415,0.00027400,0.00173803,0.00
 189528,-0.00006160,-0.00018083,-0.00004947,0.00000185,-0.00052334,0.00
 002431,-0.00020645,-0.00028242,-0.00066108,-0.00051905,-0.00010142,0.0
 0007743,-0.00007339,0.00002096,-0.00003181,0.00000062,-0.00002056,0.00
 009483,0.00010218,-0.00001498,-0.00012568,0.00024292,0.00014775,-0.000
 03776,0.00017120,0.00001440,-0.00001241,-0.00000541,-0.00002783,-0.000
 03025,0.00000449,0.00005906,-0.00024900,-0.00014093,-0.00003866,-0.000
 00977,-0.00001135,-0.00001209,-0.00001260,-0.00000645,0.00000115,-0.00
 000567,-0.00001784,-0.00000728,-0.00001188,-0.00001067,0.00003213,-0.0
 0002805,-0.00002009,-0.00003186,-0.00013438,0.00025739,0.00005376,-0.0
 0001573,0.00003874,-0.00003523,-0.00013335,-0.00024963,-0.00006208,-0.
 00006927,-0.00019693,-0.00295240,-0.01421893,0.00720369\\0.00001961,0.
 00000182,0.00001114,0.00000117,-0.00002878,-0.00002274,-0.00001614,0.0
 0000529,0.00005683,-0.00000415,-0.00001202,-0.00002790,0.00003227,-0.0
 0002517,-0.00005118,0.00004772,0.00008146,-0.00001854,-0.00001774,0.00
 001334,0.00000440,-0.00004297,0.00001803,0.00003086,0.00004108,-0.0000
 2469,0.00000023,0.00001708,0.00003757,0.00003828,-0.00001318,0.0000098
 6,-0.00002031,0.00000861,-0.00000494,0.00000943,-0.00006851,0.00003756
 ,-0.00000598,0.00006267,-0.00001066,0.00004546,-0.00002541,0.00003996,
 -0.00001601,-0.00000279,-0.00000857,-0.00000390,-0.00001229,-0.0000021
 3,0.00001215,0.00000139,0.00000916,0.00000358,-0.00000037,-0.00001620,
 -0.00001328,-0.00001754,-0.00004624,-0.00000907,-0.00003790,-0.0000461
 8,-0.00001365,0.00001080,-0.00007747,0.00009021,0.00000453,0.00002470,
 0.00000609,0.00001329,-0.00000049,0.00001287,0.00000652,-0.00000134,-0
 .00001536,0.00000602,-0.00000332,0.00000975,-0.00001483,-0.00001364,0.
 00000532,-0.00000033,-0.00002652,-0.00000650,0.00000388,0.00000587,-0.
 00001249,-0.00000918,-0.00000497,-0.00002240,-0.00002039,0.00000460,-0
 .00000308,-0.00001684,0.00000642,-0.00002472,0.00000550,0.00000038,-0.
 00000403,0.00001198,-0.00000191,-0.00000107,-0.00000656,-0.00001161,-0
 .00001376,0.00000170,0.00000026,0.00001899,0.00000283,-0.00000079,0.00
 000232,0.00000016,0.00000049,0.00000382,-0.00000157,0.00000417,-0.0000
 0136,0.00000102,0.00001096,0.00000853,0.00000135,0.00006475,-0.0000829
 3,0.00000993,-0.00000456,0.00001661,0.00000146,-0.00001285,0.00000161,
 0.00002180,0.00001155,0.00000993,-0.00000567,-0.00000312,-0.00000813\\
 \@


 CHARLIE BROWN.."I CAN'T GET THAT STUPID KITE IN THE
 AIR... I CAN'T... I C A N N O T..."
 LUCY.."OH COME NOW CHARLIE BROWN...THAT'S NO WAY TO TALK...
 THE TROUBLE WITH YOU IS YOU DON'T BELIEVE IN YOURSELF... YOU
 DON'T BELIEVE IN YOUR OWN ABILITIES...  YOU'VE GOT TO SAY TO
 YOURSELF...'I BELIEVE I CAN FLY THIS KITE.'... GO AHEAD SAY
 IT...."
 CHARLIE BROWN.."I BELIEVE THAT I CAN FLY THIS STUPID
 KITE.....I BELIEVE THAT I CAN FLY THIS KITE........
 I  A C T U A L L Y  B E L I E V E  T H A T  I  C A N ******"
 LUCY.."I'LL BET YOU TEN-TO-ONE YOU'RE WRONG......."    SCHULZ
 Job cpu time:       0 days  0 hours  0 minutes 11.0 seconds.
 Elapsed time:       0 days  0 hours  0 minutes  0.9 seconds.
 File lengths (MBytes):  RWF=    217 Int=      0 D2E=      0 Chk=      4 Scr=      1
 Normal termination of Gaussian 16 at Tue Jun 22 14:23:14 2021.
