 Entering Gaussian System, Link 0=g09
 Initial command:
 /share/apps//g09/l1.exe "/scratch/Gau-34195.inp" -scrdir="/scratch/"
 Entering Link 1 = /share/apps//g09/l1.exe PID=     34196.
  
 Copyright (c) 1988,1990,1992,1993,1995,1998,2003,2009,2013,
            Gaussian, Inc.  All Rights Reserved.
  
 This is part of the Gaussian(R) 09 program.  It is based on
 the Gaussian(R) 03 system (copyright 2003, Gaussian, Inc.),
 the Gaussian(R) 98 system (copyright 1998, Gaussian, Inc.),
 the Gaussian(R) 94 system (copyright 1995, Gaussian, Inc.),
 the Gaussian 92(TM) system (copyright 1992, Gaussian, Inc.),
 the Gaussian 90(TM) system (copyright 1990, Gaussian, Inc.),
 the Gaussian 88(TM) system (copyright 1988, Gaussian, Inc.),
 the Gaussian 86(TM) system (copyright 1986, Carnegie Mellon
 University), and the Gaussian 82(TM) system (copyright 1983,
 Carnegie Mellon University). Gaussian is a federally registered
 trademark of Gaussian, Inc.
  
 This software contains proprietary and confidential information,
 including trade secrets, belonging to Gaussian, Inc.
  
 This software is provided under written license and may be
 used, copied, transmitted, or stored only in accord with that
 written license.
  
 The following legend is applicable only to US Government
 contracts under FAR:
  
                    RESTRICTED RIGHTS LEGEND
  
 Use, reproduction and disclosure by the US Government is
 subject to restrictions as set forth in subparagraphs (a)
 and (c) of the Commercial Computer Software - Restricted
 Rights clause in FAR 52.227-19.
  
 Gaussian, Inc.
 340 Quinnipiac St., Bldg. 40, Wallingford CT 06492
  
  
 ---------------------------------------------------------------
 Warning -- This program may not be used in any manner that
 competes with the business of Gaussian, Inc. or will provide
 assistance to any competitor of Gaussian, Inc.  The licensee
 of this program is prohibited from giving any competitor of
 Gaussian, Inc. access to this program.  By using this program,
 the user acknowledges that Gaussian, Inc. is engaged in the
 business of creating and licensing software in the field of
 computational chemistry and represents and warrants to the
 licensee that it is not a competitor of Gaussian, Inc. and that
 it will not use this program in any manner prohibited above.
 ---------------------------------------------------------------
  

 Cite this work as:
 Gaussian 09, Revision D.01,
 M. J. Frisch, G. W. Trucks, H. B. Schlegel, G. E. Scuseria, 
 M. A. Robb, J. R. Cheeseman, G. Scalmani, V. Barone, B. Mennucci, 
 G. A. Petersson, H. Nakatsuji, M. Caricato, X. Li, H. P. Hratchian, 
 A. F. Izmaylov, J. Bloino, G. Zheng, J. L. Sonnenberg, M. Hada, 
 M. Ehara, K. Toyota, R. Fukuda, J. Hasegawa, M. Ishida, T. Nakajima, 
 Y. Honda, O. Kitao, H. Nakai, T. Vreven, J. A. Montgomery, Jr., 
 J. E. Peralta, F. Ogliaro, M. Bearpark, J. J. Heyd, E. Brothers, 
 K. N. Kudin, V. N. Staroverov, T. Keith, R. Kobayashi, J. Normand, 
 K. Raghavachari, A. Rendell, J. C. Burant, S. S. Iyengar, J. Tomasi, 
 M. Cossi, N. Rega, J. M. Millam, M. Klene, J. E. Knox, J. B. Cross, 
 V. Bakken, C. Adamo, J. Jaramillo, R. Gomperts, R. E. Stratmann, 
 O. Yazyev, A. J. Austin, R. Cammi, C. Pomelli, J. W. Ochterski, 
 R. L. Martin, K. Morokuma, V. G. Zakrzewski, G. A. Voth, 
 P. Salvador, J. J. Dannenberg, S. Dapprich, A. D. Daniels, 
 O. Farkas, J. B. Foresman, J. V. Ortiz, J. Cioslowski, 
 and D. J. Fox, Gaussian, Inc., Wallingford CT, 2013.
 
 ******************************************
 Gaussian 09:  EM64L-G09RevD.01 24-Apr-2013
                27-Apr-2016 
 ******************************************
 %nproc=20
 Will use up to   20 processors via shared memory.
 %mem=80GB
 %chk=Tri_A131_of.chk
 ----------------------------------------------------------------------
 #P PBE1PBE/6-311+G(d,p) opt=ModRedundant freq optcyc=999 EmpiricalDisp
 ersion=GD3
 ----------------------------------------------------------------------
 1/6=999,14=-1,18=120,19=15,26=3,38=1/1,3;
 2/9=110,12=2,17=6,18=5,40=1/2;
 3/5=4,6=6,7=111,11=2,16=1,25=1,30=1,71=1,74=-13,124=31/1,2,3;
 4//1;
 5/5=2,38=5/2;
 6/7=2,8=2,9=2,10=2,28=1/1;
 7//1,2,3,16;
 1/6=999,14=-1,18=20,19=15,26=3/3(2);
 2/9=110/2;
 99//99;
 2/9=110/2;
 3/5=4,6=6,7=111,11=2,16=1,25=1,30=1,71=1,74=-13,124=31/1,2,3;
 4/5=5,16=3,69=1/1;
 5/5=2,38=5/2;
 7//1,2,3,16;
 1/6=999,14=-1,18=20,19=15,26=3/3(-5);
 2/9=110/2;
 6/7=2,8=2,9=2,10=2,19=2,28=1/1;
 99/9=1/99;
 Leave Link    1 at Wed Apr 27 04:09:03 2016, MaxMem= 10737418240 cpu:         2.0
 (Enter /share/apps//g09/l101.exe)
 -----
 trich
 -----
 Symbolic Z-matrix:
 Charge =  1 Multiplicity = 1
 O                    -1.82951  -2.0021    6.46933 
 C                    -0.90564  -2.95803   6.93408 
 C                     0.25294  -3.17583   5.94683 
 C                     0.93505  -1.8274    5.65928 
 C                    -0.0804   -0.78794   5.18048 
 C                    -1.27491  -0.70958   6.1421 
 H                    -1.49428  -3.87979   7.06276 
 H                    -0.18248  -3.55938   5.01059 
 H                     1.42194  -1.46702   6.57721 
 H                     0.40192   0.20462   5.17105 
 H                    -0.91655  -0.20839   7.05933 
 O                    -0.42757  -1.17094   3.84141 
 O                     1.98414  -1.95595   4.6846 
 O                     1.17782  -4.15573   6.41471 
 O                    -0.27901  -2.59601   8.16865 
 C                    -2.45246   0.0663    5.54406 
 H                    -3.00973  -0.61709   4.8812 
 H                    -3.12518   0.39774   6.35106 
 O                    -1.9159    1.18254   4.81509 
 H                    -2.65406   1.75538   4.54969 
 H                    -0.85681  -0.3948    3.43521 
 H                     1.54211  -1.91379   3.81044 
 H                     1.15249  -4.18545   7.3995 
 O                     1.22324  -2.73518   10.46869 
 C                     0.62549  -1.47109   10.82898 
 C                    -0.74608  -1.27019   10.11141 
 C                    -1.145    -2.52054   9.31521 
 C                    -1.02861  -3.76061   10.21092 
 C                     0.40563  -3.87186   10.81988 
 H                     0.44419  -1.46513   11.91961 
 H                    -0.66384  -0.42737   9.41309 
 H                    -2.1878   -2.39249   8.98574 
 H                    -1.74351  -3.61605   11.03603 
 H                     0.31902  -3.89393   11.9237 
 O                    -1.36405  -4.97046   9.49824 
 O                    -1.7818   -1.0337    11.07073 
 O                     1.56619  -0.45285   10.61859 
 C                     1.18011  -5.1203    10.40227 
 H                     2.21172  -5.02522   10.77014 
 H                     0.72779  -6.00083   10.88387 
 O                     1.26153  -5.30867   8.98415 
 H                     0.36706  -5.61026   8.72505 
 H                    -2.29512  -5.18545   9.66728 
 H                    -1.77321  -0.08883   11.29977 
 O                     3.9735   -0.21959   7.84351 
 C                     3.8461    1.16933   7.48286 
 C                     2.3654    1.54698   7.4985 
 C                     1.70381   1.20601   8.83776 
 C                     2.00496  -0.23482   9.26066 
 C                     3.53227  -0.46314   9.1857 
 H                     4.42393   1.78304   8.20848 
 H                     1.88211   0.95394   6.69979 
 H                     2.11236   1.88181   9.61445 
 H                     4.02519   0.24374   9.88535 
 H                     1.49843  -0.93909   8.58226 
 O                     0.28892   1.39441   8.73447 
 O                     2.14724   2.94164   7.29668 
 O                     4.30924   1.33378   6.1847 
 C                     3.99637  -1.86119   9.56872 
 H                     5.08561  -1.91527   9.4319 
 H                     3.76853  -2.04556   10.62819 
 O                     3.42031  -2.8922    8.75515 
 H                     2.51733  -3.04991   9.11519 
 H                     0.1618    2.29871   8.39131 
 H                     2.4794    3.16855   6.40958 
 C                     5.74716   1.19813   6.03061 
 H                     6.18548   2.20715   5.96351 
 H                     6.16174   0.69992   6.9201 
 C                     6.04005   0.40254   4.76386 
 H                     7.13574   0.3467    4.64899 
 H                     5.66889   0.97408   3.89894 
 C                     5.41821  -1.00223   4.72711 
 H                     4.32973  -0.89037   4.84756 
 H                     5.58087  -1.42598   3.72203 
 C                     5.97749  -1.97396   5.77623 
 H                     7.06583  -2.08477   5.64091 
 H                     5.82601  -1.57069   6.78962 
 C                     5.37952  -3.37762   5.71223 
 H                     5.88894  -4.05508   6.41034 
 H                     5.4648   -3.80366   4.70207 
 N                     3.92395  -3.38612   6.07811 
 H                     3.49626  -4.32      6.01934 
 H                     3.33683  -2.79403   5.44318 
 H                     3.75756  -3.06803   7.07304 
 
 The following ModRedundant input section has been read:
 B      45      84 B                                                           
 B      58      84 B                                                           
 B      56      84 B                                                           
 B      41      82 B                                                           
 B      62      82 B                                                           
 B      35      82 B                                                           
 B      13      83 B                                                           
 B      19      83 B                                                           
 B      14      83 B                                                           
 
 NAtoms=     84 NQM=       84 NQMF=       0 NMMI=      0 NMMIF=      0
                NMic=       0 NMicF=      0.
                    Isotopes and Nuclear Properties:
 (Nuclear quadrupole moments (NQMom) in fm**2, nuclear magnetic moments (NMagM)
  in nuclear magnetons)

  Atom         1           2           3           4           5           6           7           8           9          10
 IAtWgt=          16          12          12          12          12          12           1           1           1           1
 AtmWgt=  15.9949146  12.0000000  12.0000000  12.0000000  12.0000000  12.0000000   1.0078250   1.0078250   1.0078250   1.0078250
 NucSpn=           0           0           0           0           0           0           1           1           1           1
 AtZEff=   0.0000000   0.0000000   0.0000000   0.0000000   0.0000000   0.0000000   0.0000000   0.0000000   0.0000000   0.0000000
 NQMom=    0.0000000   0.0000000   0.0000000   0.0000000   0.0000000   0.0000000   0.0000000   0.0000000   0.0000000   0.0000000
 NMagM=    0.0000000   0.0000000   0.0000000   0.0000000   0.0000000   0.0000000   2.7928460   2.7928460   2.7928460   2.7928460
 AtZNuc=   8.0000000   6.0000000   6.0000000   6.0000000   6.0000000   6.0000000   1.0000000   1.0000000   1.0000000   1.0000000

  Atom        11          12          13          14          15          16          17          18          19          20
 IAtWgt=           1          16          16          16          16          12           1           1          16           1
 AtmWgt=   1.0078250  15.9949146  15.9949146  15.9949146  15.9949146  12.0000000   1.0078250   1.0078250  15.9949146   1.0078250
 NucSpn=           1           0           0           0           0           0           1           1           0           1
 AtZEff=   0.0000000   0.0000000   0.0000000   0.0000000   0.0000000   0.0000000   0.0000000   0.0000000   0.0000000   0.0000000
 NQMom=    0.0000000   0.0000000   0.0000000   0.0000000   0.0000000   0.0000000   0.0000000   0.0000000   0.0000000   0.0000000
 NMagM=    2.7928460   0.0000000   0.0000000   0.0000000   0.0000000   0.0000000   2.7928460   2.7928460   0.0000000   2.7928460
 AtZNuc=   1.0000000   8.0000000   8.0000000   8.0000000   8.0000000   6.0000000   1.0000000   1.0000000   8.0000000   1.0000000

  Atom        21          22          23          24          25          26          27          28          29          30
 IAtWgt=           1           1           1          16          12          12          12          12          12           1
 AtmWgt=   1.0078250   1.0078250   1.0078250  15.9949146  12.0000000  12.0000000  12.0000000  12.0000000  12.0000000   1.0078250
 NucSpn=           1           1           1           0           0           0           0           0           0           1
 AtZEff=   0.0000000   0.0000000   0.0000000   0.0000000   0.0000000   0.0000000   0.0000000   0.0000000   0.0000000   0.0000000
 NQMom=    0.0000000   0.0000000   0.0000000   0.0000000   0.0000000   0.0000000   0.0000000   0.0000000   0.0000000   0.0000000
 NMagM=    2.7928460   2.7928460   2.7928460   0.0000000   0.0000000   0.0000000   0.0000000   0.0000000   0.0000000   2.7928460
 AtZNuc=   1.0000000   1.0000000   1.0000000   8.0000000   6.0000000   6.0000000   6.0000000   6.0000000   6.0000000   1.0000000

  Atom        31          32          33          34          35          36          37          38          39          40
 IAtWgt=           1           1           1           1          16          16          16          12           1           1
 AtmWgt=   1.0078250   1.0078250   1.0078250   1.0078250  15.9949146  15.9949146  15.9949146  12.0000000   1.0078250   1.0078250
 NucSpn=           1           1           1           1           0           0           0           0           1           1
 AtZEff=   0.0000000   0.0000000   0.0000000   0.0000000   0.0000000   0.0000000   0.0000000   0.0000000   0.0000000   0.0000000
 NQMom=    0.0000000   0.0000000   0.0000000   0.0000000   0.0000000   0.0000000   0.0000000   0.0000000   0.0000000   0.0000000
 NMagM=    2.7928460   2.7928460   2.7928460   2.7928460   0.0000000   0.0000000   0.0000000   0.0000000   2.7928460   2.7928460
 AtZNuc=   1.0000000   1.0000000   1.0000000   1.0000000   8.0000000   8.0000000   8.0000000   6.0000000   1.0000000   1.0000000

  Atom        41          42          43          44          45          46          47          48          49          50
 IAtWgt=          16           1           1           1          16          12          12          12          12          12
 AtmWgt=  15.9949146   1.0078250   1.0078250   1.0078250  15.9949146  12.0000000  12.0000000  12.0000000  12.0000000  12.0000000
 NucSpn=           0           1           1           1           0           0           0           0           0           0
 AtZEff=   0.0000000   0.0000000   0.0000000   0.0000000   0.0000000   0.0000000   0.0000000   0.0000000   0.0000000   0.0000000
 NQMom=    0.0000000   0.0000000   0.0000000   0.0000000   0.0000000   0.0000000   0.0000000   0.0000000   0.0000000   0.0000000
 NMagM=    0.0000000   2.7928460   2.7928460   2.7928460   0.0000000   0.0000000   0.0000000   0.0000000   0.0000000   0.0000000
 AtZNuc=   8.0000000   1.0000000   1.0000000   1.0000000   8.0000000   6.0000000   6.0000000   6.0000000   6.0000000   6.0000000

  Atom        51          52          53          54          55          56          57          58          59          60
 IAtWgt=           1           1           1           1           1          16          16          16          12           1
 AtmWgt=   1.0078250   1.0078250   1.0078250   1.0078250   1.0078250  15.9949146  15.9949146  15.9949146  12.0000000   1.0078250
 NucSpn=           1           1           1           1           1           0           0           0           0           1
 AtZEff=   0.0000000   0.0000000   0.0000000   0.0000000   0.0000000   0.0000000   0.0000000   0.0000000   0.0000000   0.0000000
 NQMom=    0.0000000   0.0000000   0.0000000   0.0000000   0.0000000   0.0000000   0.0000000   0.0000000   0.0000000   0.0000000
 NMagM=    2.7928460   2.7928460   2.7928460   2.7928460   2.7928460   0.0000000   0.0000000   0.0000000   0.0000000   2.7928460
 AtZNuc=   1.0000000   1.0000000   1.0000000   1.0000000   1.0000000   8.0000000   8.0000000   8.0000000   6.0000000   1.0000000

  Atom        61          62          63          64          65          66          67          68          69          70
 IAtWgt=           1          16           1           1           1          12           1           1          12           1
 AtmWgt=   1.0078250  15.9949146   1.0078250   1.0078250   1.0078250  12.0000000   1.0078250   1.0078250  12.0000000   1.0078250
 NucSpn=           1           0           1           1           1           0           1           1           0           1
 AtZEff=   0.0000000   0.0000000   0.0000000   0.0000000   0.0000000   0.0000000   0.0000000   0.0000000   0.0000000   0.0000000
 NQMom=    0.0000000   0.0000000   0.0000000   0.0000000   0.0000000   0.0000000   0.0000000   0.0000000   0.0000000   0.0000000
 NMagM=    2.7928460   0.0000000   2.7928460   2.7928460   2.7928460   0.0000000   2.7928460   2.7928460   0.0000000   2.7928460
 AtZNuc=   1.0000000   8.0000000   1.0000000   1.0000000   1.0000000   6.0000000   1.0000000   1.0000000   6.0000000   1.0000000

  Atom        71          72          73          74          75          76          77          78          79          80
 IAtWgt=           1          12           1           1          12           1           1          12           1           1
 AtmWgt=   1.0078250  12.0000000   1.0078250   1.0078250  12.0000000   1.0078250   1.0078250  12.0000000   1.0078250   1.0078250
 NucSpn=           1           0           1           1           0           1           1           0           1           1
 AtZEff=   0.0000000   0.0000000   0.0000000   0.0000000   0.0000000   0.0000000   0.0000000   0.0000000   0.0000000   0.0000000
 NQMom=    0.0000000   0.0000000   0.0000000   0.0000000   0.0000000   0.0000000   0.0000000   0.0000000   0.0000000   0.0000000
 NMagM=    2.7928460   0.0000000   2.7928460   2.7928460   0.0000000   2.7928460   2.7928460   0.0000000   2.7928460   2.7928460
 AtZNuc=   1.0000000   6.0000000   1.0000000   1.0000000   6.0000000   1.0000000   1.0000000   6.0000000   1.0000000   1.0000000

  Atom        81          82          83          84
 IAtWgt=          14           1           1           1
 AtmWgt=  14.0030740   1.0078250   1.0078250   1.0078250
 NucSpn=           2           1           1           1
 AtZEff=   0.0000000   0.0000000   0.0000000   0.0000000
 NQMom=    2.0440000   0.0000000   0.0000000   0.0000000
 NMagM=    0.4037610   2.7928460   2.7928460   2.7928460
 AtZNuc=   7.0000000   1.0000000   1.0000000   1.0000000
 Leave Link  101 at Wed Apr 27 04:09:04 2016, MaxMem= 10737418240 cpu:         2.8
 (Enter /share/apps//g09/l103.exe)

 GradGradGradGradGradGradGradGradGradGradGradGradGradGradGradGradGradGrad
 Berny optimization.
 Initialization pass.
                           ----------------------------
                           !    Initial Parameters    !
                           ! (Angstroms and Degrees)  !
 --------------------------                            --------------------------
 ! Name  Definition              Value          Derivative Info.                !
 --------------------------------------------------------------------------------
 ! R1    R(1,2)                  1.4083         estimate D2E/DX2                !
 ! R2    R(1,6)                  1.444          estimate D2E/DX2                !
 ! R3    R(2,3)                  1.5377         estimate D2E/DX2                !
 ! R4    R(2,7)                  1.1012         estimate D2E/DX2                !
 ! R5    R(2,15)                 1.431          estimate D2E/DX2                !
 ! R6    R(3,4)                  1.5383         estimate D2E/DX2                !
 ! R7    R(3,8)                  1.1015         estimate D2E/DX2                !
 ! R8    R(3,14)                 1.4264         estimate D2E/DX2                !
 ! R9    R(4,5)                  1.53           estimate D2E/DX2                !
 ! R10   R(4,9)                  1.0998         estimate D2E/DX2                !
 ! R11   R(4,13)                 1.4377         estimate D2E/DX2                !
 ! R12   R(5,6)                  1.5355         estimate D2E/DX2                !
 ! R13   R(5,10)                 1.1036         estimate D2E/DX2                !
 ! R14   R(5,12)                 1.4354         estimate D2E/DX2                !
 ! R15   R(6,11)                 1.105          estimate D2E/DX2                !
 ! R16   R(6,16)                 1.5318         estimate D2E/DX2                !
 ! R17   R(12,21)                0.9755         estimate D2E/DX2                !
 ! R18   R(13,22)                0.9805         estimate D2E/DX2                !
 ! R19   R(13,83)                1.7628         estimate D2E/DX2                !
 ! R20   R(14,23)                0.9856         estimate D2E/DX2                !
 ! R21   R(14,83)                2.7312         estimate D2E/DX2                !
 ! R22   R(15,27)                1.4388         estimate D2E/DX2                !
 ! R23   R(16,17)                1.1032         estimate D2E/DX2                !
 ! R24   R(16,18)                1.1017         estimate D2E/DX2                !
 ! R25   R(16,19)                1.4371         estimate D2E/DX2                !
 ! R26   R(19,20)                0.9713         estimate D2E/DX2                !
 ! R27   R(19,83)                6.6181         estimate D2E/DX2                !
 ! R28   R(24,25)                1.444          estimate D2E/DX2                !
 ! R29   R(24,29)                1.4436         estimate D2E/DX2                !
 ! R30   R(25,26)                1.5609         estimate D2E/DX2                !
 ! R31   R(25,30)                1.1056         estimate D2E/DX2                !
 ! R32   R(25,37)                1.4021         estimate D2E/DX2                !
 ! R33   R(26,27)                1.5351         estimate D2E/DX2                !
 ! R34   R(26,31)                1.0976         estimate D2E/DX2                !
 ! R35   R(26,36)                1.4314         estimate D2E/DX2                !
 ! R36   R(27,28)                1.5342         estimate D2E/DX2                !
 ! R37   R(27,32)                1.1011         estimate D2E/DX2                !
 ! R38   R(28,29)                1.5621         estimate D2E/DX2                !
 ! R39   R(28,33)                1.1013         estimate D2E/DX2                !
 ! R40   R(28,35)                1.4437         estimate D2E/DX2                !
 ! R41   R(29,34)                1.1074         estimate D2E/DX2                !
 ! R42   R(29,38)                1.5274         estimate D2E/DX2                !
 ! R43   R(35,43)                0.9704         estimate D2E/DX2                !
 ! R44   R(35,82)                6.0124         estimate D2E/DX2                !
 ! R45   R(36,44)                0.9723         estimate D2E/DX2                !
 ! R46   R(37,49)                1.4436         estimate D2E/DX2                !
 ! R47   R(38,39)                1.0994         estimate D2E/DX2                !
 ! R48   R(38,40)                1.1008         estimate D2E/DX2                !
 ! R49   R(38,41)                1.4329         estimate D2E/DX2                !
 ! R50   R(41,42)                0.9789         estimate D2E/DX2                !
 ! R51   R(41,82)                3.8421         estimate D2E/DX2                !
 ! R52   R(45,46)                1.4406         estimate D2E/DX2                !
 ! R53   R(45,50)                1.4337         estimate D2E/DX2                !
 ! R54   R(45,84)                2.9587         estimate D2E/DX2                !
 ! R55   R(46,47)                1.5282         estimate D2E/DX2                !
 ! R56   R(46,51)                1.1122         estimate D2E/DX2                !
 ! R57   R(46,58)                1.3881         estimate D2E/DX2                !
 ! R58   R(47,48)                1.5322         estimate D2E/DX2                !
 ! R59   R(47,52)                1.106          estimate D2E/DX2                !
 ! R60   R(47,57)                1.426          estimate D2E/DX2                !
 ! R61   R(48,49)                1.5315         estimate D2E/DX2                !
 ! R62   R(48,53)                1.1076         estimate D2E/DX2                !
 ! R63   R(48,56)                1.4311         estimate D2E/DX2                !
 ! R64   R(49,50)                1.5461         estimate D2E/DX2                !
 ! R65   R(49,55)                1.1013         estimate D2E/DX2                !
 ! R66   R(50,54)                1.11           estimate D2E/DX2                !
 ! R67   R(50,59)                1.5221         estimate D2E/DX2                !
 ! R68   R(56,64)                0.9755         estimate D2E/DX2                !
 ! R69   R(56,84)                5.8911         estimate D2E/DX2                !
 ! R70   R(57,65)                0.974          estimate D2E/DX2                !
 ! R71   R(58,66)                1.4525         estimate D2E/DX2                !
 ! R72   R(58,84)                4.5243         estimate D2E/DX2                !
 ! R73   R(59,60)                1.0991         estimate D2E/DX2                !
 ! R74   R(59,61)                1.0993         estimate D2E/DX2                !
 ! R75   R(59,62)                1.4341         estimate D2E/DX2                !
 ! R76   R(62,63)                0.9848         estimate D2E/DX2                !
 ! R77   R(62,82)                3.0869         estimate D2E/DX2                !
 ! R78   R(66,67)                1.1022         estimate D2E/DX2                !
 ! R79   R(66,68)                1.1006         estimate D2E/DX2                !
 ! R80   R(66,69)                1.5243         estimate D2E/DX2                !
 ! R81   R(69,70)                1.1031         estimate D2E/DX2                !
 ! R82   R(69,71)                1.1011         estimate D2E/DX2                !
 ! R83   R(69,72)                1.5367         estimate D2E/DX2                !
 ! R84   R(72,73)                1.1008         estimate D2E/DX2                !
 ! R85   R(72,74)                1.1028         estimate D2E/DX2                !
 ! R86   R(72,75)                1.5355         estimate D2E/DX2                !
 ! R87   R(75,76)                1.1023         estimate D2E/DX2                !
 ! R88   R(75,77)                1.1012         estimate D2E/DX2                !
 ! R89   R(75,78)                1.5271         estimate D2E/DX2                !
 ! R90   R(78,79)                1.0981         estimate D2E/DX2                !
 ! R91   R(78,80)                1.0996         estimate D2E/DX2                !
 ! R92   R(78,81)                1.5009         estimate D2E/DX2                !
 ! R93   R(81,82)                1.0288         estimate D2E/DX2                !
 ! R94   R(81,83)                1.0481         estimate D2E/DX2                !
 ! R95   R(81,84)                1.0577         estimate D2E/DX2                !
 ! A1    A(2,1,6)              115.4921         estimate D2E/DX2                !
 ! A2    A(1,2,3)              112.244          estimate D2E/DX2                !
 ! A3    A(1,2,7)              104.8364         estimate D2E/DX2                !
 ! A4    A(1,2,15)             113.5932         estimate D2E/DX2                !
 ! A5    A(3,2,7)              111.0521         estimate D2E/DX2                !
 ! A6    A(3,2,15)             105.0581         estimate D2E/DX2                !
 ! A7    A(7,2,15)             110.182          estimate D2E/DX2                !
 ! A8    A(2,3,4)              109.2667         estimate D2E/DX2                !
 ! A9    A(2,3,8)              107.2897         estimate D2E/DX2                !
 ! A10   A(2,3,14)             112.0406         estimate D2E/DX2                !
 ! A11   A(4,3,8)              108.7625         estimate D2E/DX2                !
 ! A12   A(4,3,14)             112.0864         estimate D2E/DX2                !
 ! A13   A(8,3,14)             107.2126         estimate D2E/DX2                !
 ! A14   A(3,4,5)              111.0847         estimate D2E/DX2                !
 ! A15   A(3,4,9)              109.1193         estimate D2E/DX2                !
 ! A16   A(3,4,13)             111.8335         estimate D2E/DX2                !
 ! A17   A(5,4,9)              109.4145         estimate D2E/DX2                !
 ! A18   A(5,4,13)             109.4436         estimate D2E/DX2                !
 ! A19   A(9,4,13)             105.7883         estimate D2E/DX2                !
 ! A20   A(4,5,6)              110.7935         estimate D2E/DX2                !
 ! A21   A(4,5,10)             108.8837         estimate D2E/DX2                !
 ! A22   A(4,5,12)             105.7351         estimate D2E/DX2                !
 ! A23   A(6,5,10)             107.4245         estimate D2E/DX2                !
 ! A24   A(6,5,12)             114.1862         estimate D2E/DX2                !
 ! A25   A(10,5,12)            109.738          estimate D2E/DX2                !
 ! A26   A(1,6,5)              113.2668         estimate D2E/DX2                !
 ! A27   A(1,6,11)             110.0256         estimate D2E/DX2                !
 ! A28   A(1,6,16)             104.2766         estimate D2E/DX2                !
 ! A29   A(5,6,11)             106.9007         estimate D2E/DX2                !
 ! A30   A(5,6,16)             112.2956         estimate D2E/DX2                !
 ! A31   A(11,6,16)            110.1005         estimate D2E/DX2                !
 ! A32   A(5,12,21)            106.4145         estimate D2E/DX2                !
 ! A33   A(4,13,22)            105.76           estimate D2E/DX2                !
 ! A34   A(4,13,83)            108.101          estimate D2E/DX2                !
 ! A35   A(22,13,83)           138.5942         estimate D2E/DX2                !
 ! A36   A(3,14,23)            109.3791         estimate D2E/DX2                !
 ! A37   A(3,14,83)             93.0597         estimate D2E/DX2                !
 ! A38   A(23,14,83)           113.0036         estimate D2E/DX2                !
 ! A39   A(2,15,27)            115.9243         estimate D2E/DX2                !
 ! A40   A(6,16,17)            108.0084         estimate D2E/DX2                !
 ! A41   A(6,16,18)            109.6229         estimate D2E/DX2                !
 ! A42   A(6,16,19)            107.7254         estimate D2E/DX2                !
 ! A43   A(17,16,18)           108.5459         estimate D2E/DX2                !
 ! A44   A(17,16,19)           111.4066         estimate D2E/DX2                !
 ! A45   A(18,16,19)           111.4619         estimate D2E/DX2                !
 ! A46   A(16,19,20)           108.2364         estimate D2E/DX2                !
 ! A47   A(16,19,83)            77.3782         estimate D2E/DX2                !
 ! A48   A(25,24,29)           113.2137         estimate D2E/DX2                !
 ! A49   A(24,25,26)           111.2056         estimate D2E/DX2                !
 ! A50   A(24,25,30)           108.5864         estimate D2E/DX2                !
 ! A51   A(24,25,37)           108.6975         estimate D2E/DX2                !
 ! A52   A(26,25,30)           107.9807         estimate D2E/DX2                !
 ! A53   A(26,25,37)           115.2819         estimate D2E/DX2                !
 ! A54   A(30,25,37)           104.7213         estimate D2E/DX2                !
 ! A55   A(25,26,27)           111.2201         estimate D2E/DX2                !
 ! A56   A(25,26,31)           108.9938         estimate D2E/DX2                !
 ! A57   A(25,26,36)           110.4239         estimate D2E/DX2                !
 ! A58   A(27,26,31)           108.3563         estimate D2E/DX2                !
 ! A59   A(27,26,36)           107.1064         estimate D2E/DX2                !
 ! A60   A(31,26,36)           110.7161         estimate D2E/DX2                !
 ! A61   A(15,27,26)           107.4353         estimate D2E/DX2                !
 ! A62   A(15,27,28)           112.1598         estimate D2E/DX2                !
 ! A63   A(15,27,32)           109.735          estimate D2E/DX2                !
 ! A64   A(26,27,28)           109.624          estimate D2E/DX2                !
 ! A65   A(26,27,32)           107.8539         estimate D2E/DX2                !
 ! A66   A(28,27,32)           109.9106         estimate D2E/DX2                !
 ! A67   A(27,28,29)           110.7824         estimate D2E/DX2                !
 ! A68   A(27,28,33)           106.3848         estimate D2E/DX2                !
 ! A69   A(27,28,35)           111.8111         estimate D2E/DX2                !
 ! A70   A(29,28,33)           108.2577         estimate D2E/DX2                !
 ! A71   A(29,28,35)           110.2483         estimate D2E/DX2                !
 ! A72   A(33,28,35)           109.2106         estimate D2E/DX2                !
 ! A73   A(24,29,28)           111.6602         estimate D2E/DX2                !
 ! A74   A(24,29,34)           107.6063         estimate D2E/DX2                !
 ! A75   A(24,29,38)           106.8523         estimate D2E/DX2                !
 ! A76   A(28,29,34)           108.5522         estimate D2E/DX2                !
 ! A77   A(28,29,38)           114.6569         estimate D2E/DX2                !
 ! A78   A(34,29,38)           107.2112         estimate D2E/DX2                !
 ! A79   A(28,35,43)           108.8206         estimate D2E/DX2                !
 ! A80   A(28,35,82)            90.4095         estimate D2E/DX2                !
 ! A81   A(43,35,82)           154.2082         estimate D2E/DX2                !
 ! A82   A(26,36,44)           108.1825         estimate D2E/DX2                !
 ! A83   A(25,37,49)           117.0479         estimate D2E/DX2                !
 ! A84   A(29,38,39)           108.2786         estimate D2E/DX2                !
 ! A85   A(29,38,40)           109.0162         estimate D2E/DX2                !
 ! A86   A(29,38,41)           114.0083         estimate D2E/DX2                !
 ! A87   A(39,38,40)           107.9598         estimate D2E/DX2                !
 ! A88   A(39,38,41)           106.8114         estimate D2E/DX2                !
 ! A89   A(40,38,41)           110.5587         estimate D2E/DX2                !
 ! A90   A(38,41,42)           104.5099         estimate D2E/DX2                !
 ! A91   A(38,41,82)           139.7236         estimate D2E/DX2                !
 ! A92   A(42,41,82)           113.9868         estimate D2E/DX2                !
 ! A93   A(46,45,50)           111.7729         estimate D2E/DX2                !
 ! A94   A(46,45,84)           148.93           estimate D2E/DX2                !
 ! A95   A(50,45,84)            93.3125         estimate D2E/DX2                !
 ! A96   A(45,46,47)           108.7463         estimate D2E/DX2                !
 ! A97   A(45,46,51)           108.8271         estimate D2E/DX2                !
 ! A98   A(45,46,58)           108.5928         estimate D2E/DX2                !
 ! A99   A(47,46,51)           111.1215         estimate D2E/DX2                !
 ! A100  A(47,46,58)           107.6729         estimate D2E/DX2                !
 ! A101  A(51,46,58)           111.8036         estimate D2E/DX2                !
 ! A102  A(46,47,48)           111.8595         estimate D2E/DX2                !
 ! A103  A(46,47,52)           106.4691         estimate D2E/DX2                !
 ! A104  A(46,47,57)           112.8603         estimate D2E/DX2                !
 ! A105  A(48,47,52)           108.8582         estimate D2E/DX2                !
 ! A106  A(48,47,57)           105.98           estimate D2E/DX2                !
 ! A107  A(52,47,57)           110.8162         estimate D2E/DX2                !
 ! A108  A(47,48,49)           111.458          estimate D2E/DX2                !
 ! A109  A(47,48,53)           108.5346         estimate D2E/DX2                !
 ! A110  A(47,48,56)           109.5433         estimate D2E/DX2                !
 ! A111  A(49,48,53)           107.9294         estimate D2E/DX2                !
 ! A112  A(49,48,56)           109.7665         estimate D2E/DX2                !
 ! A113  A(53,48,56)           109.5699         estimate D2E/DX2                !
 ! A114  A(37,49,48)           110.0027         estimate D2E/DX2                !
 ! A115  A(37,49,50)           108.8775         estimate D2E/DX2                !
 ! A116  A(37,49,55)           110.0641         estimate D2E/DX2                !
 ! A117  A(48,49,50)           108.6502         estimate D2E/DX2                !
 ! A118  A(48,49,55)           109.9437         estimate D2E/DX2                !
 ! A119  A(50,49,55)           109.2721         estimate D2E/DX2                !
 ! A120  A(45,50,49)           108.9244         estimate D2E/DX2                !
 ! A121  A(45,50,54)           110.1958         estimate D2E/DX2                !
 ! A122  A(45,50,59)           107.3244         estimate D2E/DX2                !
 ! A123  A(49,50,54)           108.3043         estimate D2E/DX2                !
 ! A124  A(49,50,59)           115.1288         estimate D2E/DX2                !
 ! A125  A(54,50,59)           106.9129         estimate D2E/DX2                !
 ! A126  A(48,56,64)           106.0366         estimate D2E/DX2                !
 ! A127  A(48,56,84)            48.5869         estimate D2E/DX2                !
 ! A128  A(64,56,84)           132.8194         estimate D2E/DX2                !
 ! A129  A(47,57,65)           107.7321         estimate D2E/DX2                !
 ! A130  A(46,58,66)           114.7371         estimate D2E/DX2                !
 ! A131  A(46,58,84)            70.1488         estimate D2E/DX2                !
 ! A132  A(66,58,84)            92.905          estimate D2E/DX2                !
 ! A133  A(50,59,60)           108.4238         estimate D2E/DX2                !
 ! A134  A(50,59,61)           109.475          estimate D2E/DX2                !
 ! A135  A(50,59,62)           113.2725         estimate D2E/DX2                !
 ! A136  A(60,59,61)           108.489          estimate D2E/DX2                !
 ! A137  A(60,59,62)           106.9823         estimate D2E/DX2                !
 ! A138  A(61,59,62)           110.0552         estimate D2E/DX2                !
 ! A139  A(59,62,63)           106.0234         estimate D2E/DX2                !
 ! A140  A(59,62,82)           145.6297         estimate D2E/DX2                !
 ! A141  A(63,62,82)           105.8128         estimate D2E/DX2                !
 ! A142  A(58,66,67)           108.3403         estimate D2E/DX2                !
 ! A143  A(58,66,68)           109.2352         estimate D2E/DX2                !
 ! A144  A(58,66,69)           109.0947         estimate D2E/DX2                !
 ! A145  A(67,66,68)           108.2897         estimate D2E/DX2                !
 ! A146  A(67,66,69)           110.538          estimate D2E/DX2                !
 ! A147  A(68,66,69)           111.2846         estimate D2E/DX2                !
 ! A148  A(66,69,70)           107.6872         estimate D2E/DX2                !
 ! A149  A(66,69,71)           108.4871         estimate D2E/DX2                !
 ! A150  A(66,69,72)           114.7878         estimate D2E/DX2                !
 ! A151  A(70,69,71)           106.2174         estimate D2E/DX2                !
 ! A152  A(70,69,72)           110.6816         estimate D2E/DX2                !
 ! A153  A(71,69,72)           108.6208         estimate D2E/DX2                !
 ! A154  A(69,72,73)           107.7351         estimate D2E/DX2                !
 ! A155  A(69,72,74)           108.2623         estimate D2E/DX2                !
 ! A156  A(69,72,75)           114.506          estimate D2E/DX2                !
 ! A157  A(73,72,74)           106.5354         estimate D2E/DX2                !
 ! A158  A(73,72,75)           110.469          estimate D2E/DX2                !
 ! A159  A(74,72,75)           109.0144         estimate D2E/DX2                !
 ! A160  A(72,75,76)           109.8381         estimate D2E/DX2                !
 ! A161  A(72,75,77)           110.2993         estimate D2E/DX2                !
 ! A162  A(72,75,78)           114.2328         estimate D2E/DX2                !
 ! A163  A(76,75,77)           106.5956         estimate D2E/DX2                !
 ! A164  A(76,75,78)           106.8025         estimate D2E/DX2                !
 ! A165  A(77,75,78)           108.7436         estimate D2E/DX2                !
 ! A166  A(75,78,79)           111.0253         estimate D2E/DX2                !
 ! A167  A(75,78,80)           111.362          estimate D2E/DX2                !
 ! A168  A(75,78,81)           112.0089         estimate D2E/DX2                !
 ! A169  A(79,78,80)           107.9997         estimate D2E/DX2                !
 ! A170  A(79,78,81)           106.9438         estimate D2E/DX2                !
 ! A171  A(80,78,81)           107.275          estimate D2E/DX2                !
 ! A172  A(78,81,82)           113.2267         estimate D2E/DX2                !
 ! A173  A(78,81,83)           113.1043         estimate D2E/DX2                !
 ! A174  A(78,81,84)           112.3441         estimate D2E/DX2                !
 ! A175  A(82,81,83)           104.2006         estimate D2E/DX2                !
 ! A176  A(82,81,84)           105.1481         estimate D2E/DX2                !
 ! A177  A(83,81,84)           108.1699         estimate D2E/DX2                !
 ! A178  A(35,82,41)            19.1714         estimate D2E/DX2                !
 ! A179  A(35,82,62)            61.1406         estimate D2E/DX2                !
 ! A180  A(35,82,81)           113.6531         estimate D2E/DX2                !
 ! A181  A(41,82,62)            54.6066         estimate D2E/DX2                !
 ! A182  A(41,82,81)           115.5494         estimate D2E/DX2                !
 ! A183  A(62,82,81)            62.5973         estimate D2E/DX2                !
 ! A184  A(13,83,14)            77.4976         estimate D2E/DX2                !
 ! A185  A(13,83,19)            20.6856         estimate D2E/DX2                !
 ! A186  A(13,83,81)           163.5646         estimate D2E/DX2                !
 ! A187  A(14,83,19)            72.8975         estimate D2E/DX2                !
 ! A188  A(14,83,81)            86.8858         estimate D2E/DX2                !
 ! A189  A(19,83,81)           147.3072         estimate D2E/DX2                !
 ! A190  A(45,84,56)            40.5597         estimate D2E/DX2                !
 ! A191  A(45,84,58)            26.5638         estimate D2E/DX2                !
 ! A192  A(45,84,81)           121.5336         estimate D2E/DX2                !
 ! A193  A(56,84,58)            52.4245         estimate D2E/DX2                !
 ! A194  A(56,84,81)           125.8531         estimate D2E/DX2                !
 ! A195  A(58,84,81)            95.0897         estimate D2E/DX2                !
 ! A196  L(20,19,83,16,-1)     185.6146         estimate D2E/DX2                !
 ! A197  L(20,19,83,16,-2)     170.873          estimate D2E/DX2                !
 ! D1    D(6,1,2,3)            -55.6832         estimate D2E/DX2                !
 ! D2    D(6,1,2,7)           -176.3352         estimate D2E/DX2                !
 ! D3    D(6,1,2,15)            63.3237         estimate D2E/DX2                !
 ! D4    D(2,1,6,5)             52.1939         estimate D2E/DX2                !
 ! D5    D(2,1,6,11)           -67.3789         estimate D2E/DX2                !
 ! D6    D(2,1,6,16)           174.5747         estimate D2E/DX2                !
 ! D7    D(1,2,3,4)             55.8315         estimate D2E/DX2                !
 ! D8    D(1,2,3,8)            -61.9211         estimate D2E/DX2                !
 ! D9    D(1,2,3,14)          -179.3324         estimate D2E/DX2                !
 ! D10   D(7,2,3,4)            172.823          estimate D2E/DX2                !
 ! D11   D(7,2,3,8)             55.0704         estimate D2E/DX2                !
 ! D12   D(7,2,3,14)           -62.3409         estimate D2E/DX2                !
 ! D13   D(15,2,3,4)           -68.0744         estimate D2E/DX2                !
 ! D14   D(15,2,3,8)           174.173          estimate D2E/DX2                !
 ! D15   D(15,2,3,14)           56.7617         estimate D2E/DX2                !
 ! D16   D(1,2,15,27)           65.4496         estimate D2E/DX2                !
 ! D17   D(3,2,15,27)         -171.5072         estimate D2E/DX2                !
 ! D18   D(7,2,15,27)          -51.8234         estimate D2E/DX2                !
 ! D19   D(2,3,4,5)            -54.2913         estimate D2E/DX2                !
 ! D20   D(2,3,4,9)             66.4197         estimate D2E/DX2                !
 ! D21   D(2,3,4,13)          -176.8938         estimate D2E/DX2                !
 ! D22   D(8,3,4,5)             62.5322         estimate D2E/DX2                !
 ! D23   D(8,3,4,9)           -176.7568         estimate D2E/DX2                !
 ! D24   D(8,3,4,13)           -60.0702         estimate D2E/DX2                !
 ! D25   D(14,3,4,5)          -179.1007         estimate D2E/DX2                !
 ! D26   D(14,3,4,9)           -58.3898         estimate D2E/DX2                !
 ! D27   D(14,3,4,13)           58.2968         estimate D2E/DX2                !
 ! D28   D(2,3,14,23)          -26.7018         estimate D2E/DX2                !
 ! D29   D(2,3,14,83)         -142.4013         estimate D2E/DX2                !
 ! D30   D(4,3,14,23)           96.5593         estimate D2E/DX2                !
 ! D31   D(4,3,14,83)          -19.1402         estimate D2E/DX2                !
 ! D32   D(8,3,14,23)         -144.1592         estimate D2E/DX2                !
 ! D33   D(8,3,14,83)          100.1413         estimate D2E/DX2                !
 ! D34   D(3,4,5,6)             51.3317         estimate D2E/DX2                !
 ! D35   D(3,4,5,10)           169.2638         estimate D2E/DX2                !
 ! D36   D(3,4,5,12)           -72.8834         estimate D2E/DX2                !
 ! D37   D(9,4,5,6)            -69.2049         estimate D2E/DX2                !
 ! D38   D(9,4,5,10)            48.7272         estimate D2E/DX2                !
 ! D39   D(9,4,5,12)           166.58           estimate D2E/DX2                !
 ! D40   D(13,4,5,6)           175.3053         estimate D2E/DX2                !
 ! D41   D(13,4,5,10)          -66.7626         estimate D2E/DX2                !
 ! D42   D(13,4,5,12)           51.0902         estimate D2E/DX2                !
 ! D43   D(3,4,13,22)           83.7944         estimate D2E/DX2                !
 ! D44   D(3,4,13,83)          -72.0121         estimate D2E/DX2                !
 ! D45   D(5,4,13,22)          -39.7387         estimate D2E/DX2                !
 ! D46   D(5,4,13,83)          164.4548         estimate D2E/DX2                !
 ! D47   D(9,4,13,22)         -157.5226         estimate D2E/DX2                !
 ! D48   D(9,4,13,83)           46.6709         estimate D2E/DX2                !
 ! D49   D(4,5,6,1)            -48.9206         estimate D2E/DX2                !
 ! D50   D(4,5,6,11)            72.4266         estimate D2E/DX2                !
 ! D51   D(4,5,6,16)          -166.7236         estimate D2E/DX2                !
 ! D52   D(10,5,6,1)          -167.7385         estimate D2E/DX2                !
 ! D53   D(10,5,6,11)          -46.3913         estimate D2E/DX2                !
 ! D54   D(10,5,6,16)           74.4585         estimate D2E/DX2                !
 ! D55   D(12,5,6,1)            70.3247         estimate D2E/DX2                !
 ! D56   D(12,5,6,11)         -168.3281         estimate D2E/DX2                !
 ! D57   D(12,5,6,16)          -47.4783         estimate D2E/DX2                !
 ! D58   D(4,5,12,21)         -163.713          estimate D2E/DX2                !
 ! D59   D(6,5,12,21)           74.2237         estimate D2E/DX2                !
 ! D60   D(10,5,12,21)         -46.4337         estimate D2E/DX2                !
 ! D61   D(1,6,16,17)          -41.659          estimate D2E/DX2                !
 ! D62   D(1,6,16,18)           76.4385         estimate D2E/DX2                !
 ! D63   D(1,6,16,19)         -162.1112         estimate D2E/DX2                !
 ! D64   D(5,6,16,17)           81.3571         estimate D2E/DX2                !
 ! D65   D(5,6,16,18)         -160.5454         estimate D2E/DX2                !
 ! D66   D(5,6,16,19)          -39.095          estimate D2E/DX2                !
 ! D67   D(11,6,16,17)        -159.654          estimate D2E/DX2                !
 ! D68   D(11,6,16,18)         -41.5565         estimate D2E/DX2                !
 ! D69   D(11,6,16,19)          79.8939         estimate D2E/DX2                !
 ! D70   D(4,13,83,14)          40.4538         estimate D2E/DX2                !
 ! D71   D(4,13,83,19)         -34.1502         estimate D2E/DX2                !
 ! D72   D(4,13,83,81)          21.9603         estimate D2E/DX2                !
 ! D73   D(22,13,83,14)       -102.9379         estimate D2E/DX2                !
 ! D74   D(22,13,83,19)       -177.5418         estimate D2E/DX2                !
 ! D75   D(22,13,83,81)       -121.4314         estimate D2E/DX2                !
 ! D76   D(3,14,83,13)         -11.9523         estimate D2E/DX2                !
 ! D77   D(3,14,83,19)           8.922          estimate D2E/DX2                !
 ! D78   D(3,14,83,81)         162.8911         estimate D2E/DX2                !
 ! D79   D(23,14,83,13)       -124.5147         estimate D2E/DX2                !
 ! D80   D(23,14,83,19)       -103.6404         estimate D2E/DX2                !
 ! D81   D(23,14,83,81)         50.3287         estimate D2E/DX2                !
 ! D82   D(2,15,27,26)        -137.8665         estimate D2E/DX2                !
 ! D83   D(2,15,27,28)         101.6027         estimate D2E/DX2                !
 ! D84   D(2,15,27,32)         -20.8611         estimate D2E/DX2                !
 ! D85   D(6,16,19,20)        -171.3337         estimate D2E/DX2                !
 ! D86   D(6,16,19,83)          17.7933         estimate D2E/DX2                !
 ! D87   D(17,16,19,20)         70.3774         estimate D2E/DX2                !
 ! D88   D(17,16,19,83)       -100.4956         estimate D2E/DX2                !
 ! D89   D(18,16,19,20)        -51.036          estimate D2E/DX2                !
 ! D90   D(18,16,19,83)        138.091          estimate D2E/DX2                !
 ! D91   D(16,19,83,13)        106.2789         estimate D2E/DX2                !
 ! D92   D(16,19,83,14)          6.2761         estimate D2E/DX2                !
 ! D93   D(16,19,83,81)        -47.9466         estimate D2E/DX2                !
 ! D94   D(29,24,25,26)        -60.1031         estimate D2E/DX2                !
 ! D95   D(29,24,25,30)         58.5697         estimate D2E/DX2                !
 ! D96   D(29,24,25,37)        171.9507         estimate D2E/DX2                !
 ! D97   D(25,24,29,28)         54.9412         estimate D2E/DX2                !
 ! D98   D(25,24,29,34)        -64.0841         estimate D2E/DX2                !
 ! D99   D(25,24,29,38)       -178.9499         estimate D2E/DX2                !
 ! D100  D(24,25,26,27)          4.962          estimate D2E/DX2                !
 ! D101  D(24,25,26,31)       -114.44           estimate D2E/DX2                !
 ! D102  D(24,25,26,36)        123.7318         estimate D2E/DX2                !
 ! D103  D(30,25,26,27)       -114.0741         estimate D2E/DX2                !
 ! D104  D(30,25,26,31)        126.524          estimate D2E/DX2                !
 ! D105  D(30,25,26,36)          4.6958         estimate D2E/DX2                !
 ! D106  D(37,25,26,27)        129.2622         estimate D2E/DX2                !
 ! D107  D(37,25,26,31)          9.8603         estimate D2E/DX2                !
 ! D108  D(37,25,26,36)       -111.9679         estimate D2E/DX2                !
 ! D109  D(24,25,37,49)         63.6775         estimate D2E/DX2                !
 ! D110  D(26,25,37,49)        -61.9256         estimate D2E/DX2                !
 ! D111  D(30,25,37,49)        179.5796         estimate D2E/DX2                !
 ! D112  D(25,26,27,15)        -71.8032         estimate D2E/DX2                !
 ! D113  D(25,26,27,28)         50.3181         estimate D2E/DX2                !
 ! D114  D(25,26,27,32)        169.9677         estimate D2E/DX2                !
 ! D115  D(31,26,27,15)         47.9781         estimate D2E/DX2                !
 ! D116  D(31,26,27,28)        170.0995         estimate D2E/DX2                !
 ! D117  D(31,26,27,32)        -70.2509         estimate D2E/DX2                !
 ! D118  D(36,26,27,15)        167.455          estimate D2E/DX2                !
 ! D119  D(36,26,27,28)        -70.4236         estimate D2E/DX2                !
 ! D120  D(36,26,27,32)         49.226          estimate D2E/DX2                !
 ! D121  D(25,26,36,44)         83.5595         estimate D2E/DX2                !
 ! D122  D(27,26,36,44)       -155.1947         estimate D2E/DX2                !
 ! D123  D(31,26,36,44)        -37.2465         estimate D2E/DX2                !
 ! D124  D(15,27,28,29)         64.0037         estimate D2E/DX2                !
 ! D125  D(15,27,28,33)       -178.5533         estimate D2E/DX2                !
 ! D126  D(15,27,28,35)        -59.4043         estimate D2E/DX2                !
 ! D127  D(26,27,28,29)        -55.251          estimate D2E/DX2                !
 ! D128  D(26,27,28,33)         62.192          estimate D2E/DX2                !
 ! D129  D(26,27,28,35)       -178.659          estimate D2E/DX2                !
 ! D130  D(32,27,28,29)       -173.6322         estimate D2E/DX2                !
 ! D131  D(32,27,28,33)        -56.1892         estimate D2E/DX2                !
 ! D132  D(32,27,28,35)         62.9598         estimate D2E/DX2                !
 ! D133  D(27,28,29,24)          4.2672         estimate D2E/DX2                !
 ! D134  D(27,28,29,34)        122.7295         estimate D2E/DX2                !
 ! D135  D(27,28,29,38)       -117.4368         estimate D2E/DX2                !
 ! D136  D(33,28,29,24)       -112.0227         estimate D2E/DX2                !
 ! D137  D(33,28,29,34)          6.4396         estimate D2E/DX2                !
 ! D138  D(33,28,29,38)        126.2733         estimate D2E/DX2                !
 ! D139  D(35,28,29,24)        128.5708         estimate D2E/DX2                !
 ! D140  D(35,28,29,34)       -112.9669         estimate D2E/DX2                !
 ! D141  D(35,28,29,38)          6.8668         estimate D2E/DX2                !
 ! D142  D(27,28,35,43)        -95.7556         estimate D2E/DX2                !
 ! D143  D(27,28,35,82)         66.7414         estimate D2E/DX2                !
 ! D144  D(29,28,35,43)        140.5352         estimate D2E/DX2                !
 ! D145  D(29,28,35,82)        -56.9678         estimate D2E/DX2                !
 ! D146  D(33,28,35,43)         21.709          estimate D2E/DX2                !
 ! D147  D(33,28,35,82)       -175.794          estimate D2E/DX2                !
 ! D148  D(24,29,38,39)         47.9135         estimate D2E/DX2                !
 ! D149  D(24,29,38,40)        165.1276         estimate D2E/DX2                !
 ! D150  D(24,29,38,41)        -70.8082         estimate D2E/DX2                !
 ! D151  D(28,29,38,39)        172.205          estimate D2E/DX2                !
 ! D152  D(28,29,38,40)        -70.5808         estimate D2E/DX2                !
 ! D153  D(28,29,38,41)         53.4833         estimate D2E/DX2                !
 ! D154  D(34,29,38,39)        -67.218          estimate D2E/DX2                !
 ! D155  D(34,29,38,40)         49.9961         estimate D2E/DX2                !
 ! D156  D(34,29,38,41)        174.0603         estimate D2E/DX2                !
 ! D157  D(28,35,82,41)         85.915          estimate D2E/DX2                !
 ! D158  D(28,35,82,62)         21.299          estimate D2E/DX2                !
 ! D159  D(28,35,82,81)        -14.1056         estimate D2E/DX2                !
 ! D160  D(43,35,82,41)       -134.9495         estimate D2E/DX2                !
 ! D161  D(43,35,82,62)        160.4345         estimate D2E/DX2                !
 ! D162  D(43,35,82,81)        125.03           estimate D2E/DX2                !
 ! D163  D(25,37,49,48)        121.491          estimate D2E/DX2                !
 ! D164  D(25,37,49,50)       -119.553          estimate D2E/DX2                !
 ! D165  D(25,37,49,55)          0.1988         estimate D2E/DX2                !
 ! D166  D(29,38,41,42)        -74.1803         estimate D2E/DX2                !
 ! D167  D(29,38,41,82)         88.5616         estimate D2E/DX2                !
 ! D168  D(39,38,41,42)        166.2658         estimate D2E/DX2                !
 ! D169  D(39,38,41,82)        -30.9923         estimate D2E/DX2                !
 ! D170  D(40,38,41,42)         49.05           estimate D2E/DX2                !
 ! D171  D(40,38,41,82)       -148.2081         estimate D2E/DX2                !
 ! D172  D(38,41,82,35)       -123.201          estimate D2E/DX2                !
 ! D173  D(38,41,82,62)        -19.2804         estimate D2E/DX2                !
 ! D174  D(38,41,82,81)        -34.3946         estimate D2E/DX2                !
 ! D175  D(42,41,82,35)         38.4766         estimate D2E/DX2                !
 ! D176  D(42,41,82,62)        142.3972         estimate D2E/DX2                !
 ! D177  D(42,41,82,81)        127.283          estimate D2E/DX2                !
 ! D178  D(50,45,46,47)        -64.036          estimate D2E/DX2                !
 ! D179  D(50,45,46,51)         57.146          estimate D2E/DX2                !
 ! D180  D(50,45,46,58)        179.0655         estimate D2E/DX2                !
 ! D181  D(84,45,46,47)         77.5439         estimate D2E/DX2                !
 ! D182  D(84,45,46,51)       -161.2741         estimate D2E/DX2                !
 ! D183  D(84,45,46,58)        -39.3546         estimate D2E/DX2                !
 ! D184  D(46,45,50,49)         67.3784         estimate D2E/DX2                !
 ! D185  D(46,45,50,54)        -51.299          estimate D2E/DX2                !
 ! D186  D(46,45,50,59)       -167.3677         estimate D2E/DX2                !
 ! D187  D(84,45,50,49)        -93.8835         estimate D2E/DX2                !
 ! D188  D(84,45,50,54)        147.4392         estimate D2E/DX2                !
 ! D189  D(84,45,50,59)         31.3704         estimate D2E/DX2                !
 ! D190  D(46,45,84,56)        -79.5213         estimate D2E/DX2                !
 ! D191  D(46,45,84,58)         24.3519         estimate D2E/DX2                !
 ! D192  D(46,45,84,81)         30.3487         estimate D2E/DX2                !
 ! D193  D(50,45,84,56)         65.1647         estimate D2E/DX2                !
 ! D194  D(50,45,84,58)        169.0379         estimate D2E/DX2                !
 ! D195  D(50,45,84,81)        175.0347         estimate D2E/DX2                !
 ! D196  D(45,46,47,48)         54.1398         estimate D2E/DX2                !
 ! D197  D(45,46,47,52)        -64.661          estimate D2E/DX2                !
 ! D198  D(45,46,47,57)        173.5495         estimate D2E/DX2                !
 ! D199  D(51,46,47,48)        -65.6249         estimate D2E/DX2                !
 ! D200  D(51,46,47,52)        175.5743         estimate D2E/DX2                !
 ! D201  D(51,46,47,57)         53.7848         estimate D2E/DX2                !
 ! D202  D(58,46,47,48)        171.6247         estimate D2E/DX2                !
 ! D203  D(58,46,47,52)         52.8238         estimate D2E/DX2                !
 ! D204  D(58,46,47,57)        -68.9657         estimate D2E/DX2                !
 ! D205  D(45,46,58,66)        -70.705          estimate D2E/DX2                !
 ! D206  D(45,46,58,84)         13.1518         estimate D2E/DX2                !
 ! D207  D(47,46,58,66)        171.7107         estimate D2E/DX2                !
 ! D208  D(47,46,58,84)       -104.4325         estimate D2E/DX2                !
 ! D209  D(51,46,58,66)         49.3805         estimate D2E/DX2                !
 ! D210  D(51,46,58,84)        133.2373         estimate D2E/DX2                !
 ! D211  D(46,47,48,49)        -49.8979         estimate D2E/DX2                !
 ! D212  D(46,47,48,53)         68.8298         estimate D2E/DX2                !
 ! D213  D(46,47,48,56)       -171.5739         estimate D2E/DX2                !
 ! D214  D(52,47,48,49)         67.4772         estimate D2E/DX2                !
 ! D215  D(52,47,48,53)       -173.7951         estimate D2E/DX2                !
 ! D216  D(52,47,48,56)        -54.1988         estimate D2E/DX2                !
 ! D217  D(57,47,48,49)       -173.2849         estimate D2E/DX2                !
 ! D218  D(57,47,48,53)        -54.5572         estimate D2E/DX2                !
 ! D219  D(57,47,48,56)         65.0391         estimate D2E/DX2                !
 ! D220  D(46,47,57,65)         62.8512         estimate D2E/DX2                !
 ! D221  D(48,47,57,65)       -174.3941         estimate D2E/DX2                !
 ! D222  D(52,47,57,65)        -56.4524         estimate D2E/DX2                !
 ! D223  D(47,48,49,37)        170.2534         estimate D2E/DX2                !
 ! D224  D(47,48,49,50)         51.1582         estimate D2E/DX2                !
 ! D225  D(47,48,49,55)        -68.3824         estimate D2E/DX2                !
 ! D226  D(53,48,49,37)         51.1647         estimate D2E/DX2                !
 ! D227  D(53,48,49,50)        -67.9305         estimate D2E/DX2                !
 ! D228  D(53,48,49,55)        172.5289         estimate D2E/DX2                !
 ! D229  D(56,48,49,37)        -68.2001         estimate D2E/DX2                !
 ! D230  D(56,48,49,50)        172.7047         estimate D2E/DX2                !
 ! D231  D(56,48,49,55)         53.164          estimate D2E/DX2                !
 ! D232  D(47,48,56,64)        -52.6163         estimate D2E/DX2                !
 ! D233  D(47,48,56,84)         80.972          estimate D2E/DX2                !
 ! D234  D(49,48,56,64)       -175.3033         estimate D2E/DX2                !
 ! D235  D(49,48,56,84)        -41.7151         estimate D2E/DX2                !
 ! D236  D(53,48,56,64)         66.3423         estimate D2E/DX2                !
 ! D237  D(53,48,56,84)       -160.0694         estimate D2E/DX2                !
 ! D238  D(37,49,50,45)       -178.8055         estimate D2E/DX2                !
 ! D239  D(37,49,50,54)        -58.9494         estimate D2E/DX2                !
 ! D240  D(37,49,50,59)         60.6292         estimate D2E/DX2                !
 ! D241  D(48,49,50,45)        -59.0068         estimate D2E/DX2                !
 ! D242  D(48,49,50,54)         60.8493         estimate D2E/DX2                !
 ! D243  D(48,49,50,59)       -179.5721         estimate D2E/DX2                !
 ! D244  D(55,49,50,45)         60.9524         estimate D2E/DX2                !
 ! D245  D(55,49,50,54)       -179.1915         estimate D2E/DX2                !
 ! D246  D(55,49,50,59)        -59.6129         estimate D2E/DX2                !
 ! D247  D(45,50,59,60)         55.9379         estimate D2E/DX2                !
 ! D248  D(45,50,59,61)        174.1241         estimate D2E/DX2                !
 ! D249  D(45,50,59,62)        -62.6428         estimate D2E/DX2                !
 ! D250  D(49,50,59,60)        177.3748         estimate D2E/DX2                !
 ! D251  D(49,50,59,61)        -64.439          estimate D2E/DX2                !
 ! D252  D(49,50,59,62)         58.7941         estimate D2E/DX2                !
 ! D253  D(54,50,59,60)        -62.2805         estimate D2E/DX2                !
 ! D254  D(54,50,59,61)         55.9057         estimate D2E/DX2                !
 ! D255  D(54,50,59,62)        179.1388         estimate D2E/DX2                !
 ! D256  D(48,56,84,45)        -16.8326         estimate D2E/DX2                !
 ! D257  D(48,56,84,58)        -50.048          estimate D2E/DX2                !
 ! D258  D(48,56,84,81)       -115.3455         estimate D2E/DX2                !
 ! D259  D(64,56,84,45)         54.7987         estimate D2E/DX2                !
 ! D260  D(64,56,84,58)         21.5833         estimate D2E/DX2                !
 ! D261  D(64,56,84,81)        -43.7143         estimate D2E/DX2                !
 ! D262  D(46,58,66,67)       -101.1302         estimate D2E/DX2                !
 ! D263  D(46,58,66,68)         16.6339         estimate D2E/DX2                !
 ! D264  D(46,58,66,69)        138.48           estimate D2E/DX2                !
 ! D265  D(84,58,66,67)       -170.5824         estimate D2E/DX2                !
 ! D266  D(84,58,66,68)        -52.8183         estimate D2E/DX2                !
 ! D267  D(84,58,66,69)         69.0278         estimate D2E/DX2                !
 ! D268  D(46,58,84,45)        -13.5805         estimate D2E/DX2                !
 ! D269  D(46,58,84,56)         39.2174         estimate D2E/DX2                !
 ! D270  D(46,58,84,81)        171.5485         estimate D2E/DX2                !
 ! D271  D(66,58,84,45)        101.706          estimate D2E/DX2                !
 ! D272  D(66,58,84,56)        154.5038         estimate D2E/DX2                !
 ! D273  D(66,58,84,81)        -73.165          estimate D2E/DX2                !
 ! D274  D(50,59,62,63)        -80.2488         estimate D2E/DX2                !
 ! D275  D(50,59,62,82)         76.9849         estimate D2E/DX2                !
 ! D276  D(60,59,62,63)        160.3403         estimate D2E/DX2                !
 ! D277  D(60,59,62,82)        -42.426          estimate D2E/DX2                !
 ! D278  D(61,59,62,63)         42.6642         estimate D2E/DX2                !
 ! D279  D(61,59,62,82)       -160.1021         estimate D2E/DX2                !
 ! D280  D(59,62,82,35)       -162.9242         estimate D2E/DX2                !
 ! D281  D(59,62,82,41)        175.7328         estimate D2E/DX2                !
 ! D282  D(59,62,82,81)        -19.6329         estimate D2E/DX2                !
 ! D283  D(63,62,82,35)         -5.6653         estimate D2E/DX2                !
 ! D284  D(63,62,82,41)        -27.0084         estimate D2E/DX2                !
 ! D285  D(63,62,82,81)        137.626          estimate D2E/DX2                !
 ! D286  D(58,66,69,70)        177.873          estimate D2E/DX2                !
 ! D287  D(58,66,69,71)         63.3089         estimate D2E/DX2                !
 ! D288  D(58,66,69,72)        -58.376          estimate D2E/DX2                !
 ! D289  D(67,66,69,70)         58.8425         estimate D2E/DX2                !
 ! D290  D(67,66,69,71)        -55.7216         estimate D2E/DX2                !
 ! D291  D(67,66,69,72)       -177.4065         estimate D2E/DX2                !
 ! D292  D(68,66,69,70)        -61.529          estimate D2E/DX2                !
 ! D293  D(68,66,69,71)       -176.0931         estimate D2E/DX2                !
 ! D294  D(68,66,69,72)         62.222          estimate D2E/DX2                !
 ! D295  D(66,69,72,73)         57.7302         estimate D2E/DX2                !
 ! D296  D(66,69,72,74)        172.5769         estimate D2E/DX2                !
 ! D297  D(66,69,72,75)        -65.5878         estimate D2E/DX2                !
 ! D298  D(70,69,72,73)        179.8734         estimate D2E/DX2                !
 ! D299  D(70,69,72,74)        -65.2799         estimate D2E/DX2                !
 ! D300  D(70,69,72,75)         56.5553         estimate D2E/DX2                !
 ! D301  D(71,69,72,73)        -63.8819         estimate D2E/DX2                !
 ! D302  D(71,69,72,74)         50.9648         estimate D2E/DX2                !
 ! D303  D(71,69,72,75)        172.8001         estimate D2E/DX2                !
 ! D304  D(69,72,75,76)        -58.6371         estimate D2E/DX2                !
 ! D305  D(69,72,75,77)         58.5688         estimate D2E/DX2                !
 ! D306  D(69,72,75,78)       -178.5969         estimate D2E/DX2                !
 ! D307  D(73,72,75,76)        179.5268         estimate D2E/DX2                !
 ! D308  D(73,72,75,77)        -63.2673         estimate D2E/DX2                !
 ! D309  D(73,72,75,78)         59.567          estimate D2E/DX2                !
 ! D310  D(74,72,75,76)         62.7862         estimate D2E/DX2                !
 ! D311  D(74,72,75,77)        179.9922         estimate D2E/DX2                !
 ! D312  D(74,72,75,78)        -57.1736         estimate D2E/DX2                !
 ! D313  D(72,75,78,79)        174.0044         estimate D2E/DX2                !
 ! D314  D(72,75,78,80)         53.6191         estimate D2E/DX2                !
 ! D315  D(72,75,78,81)        -66.5151         estimate D2E/DX2                !
 ! D316  D(76,75,78,79)         52.3584         estimate D2E/DX2                !
 ! D317  D(76,75,78,80)        -68.0269         estimate D2E/DX2                !
 ! D318  D(76,75,78,81)        171.8389         estimate D2E/DX2                !
 ! D319  D(77,75,78,79)        -62.3202         estimate D2E/DX2                !
 ! D320  D(77,75,78,80)        177.2945         estimate D2E/DX2                !
 ! D321  D(77,75,78,81)         57.1603         estimate D2E/DX2                !
 ! D322  D(75,78,81,82)        178.6212         estimate D2E/DX2                !
 ! D323  D(75,78,81,83)         60.3712         estimate D2E/DX2                !
 ! D324  D(75,78,81,84)        -62.4423         estimate D2E/DX2                !
 ! D325  D(79,78,81,82)        -59.5295         estimate D2E/DX2                !
 ! D326  D(79,78,81,83)       -177.7795         estimate D2E/DX2                !
 ! D327  D(79,78,81,84)         59.407          estimate D2E/DX2                !
 ! D328  D(80,78,81,82)         56.1311         estimate D2E/DX2                !
 ! D329  D(80,78,81,83)        -62.119          estimate D2E/DX2                !
 ! D330  D(80,78,81,84)        175.0676         estimate D2E/DX2                !
 ! D331  D(78,81,82,35)        155.7427         estimate D2E/DX2                !
 ! D332  D(78,81,82,41)        134.7385         estimate D2E/DX2                !
 ! D333  D(78,81,82,62)        120.8861         estimate D2E/DX2                !
 ! D334  D(83,81,82,35)        -80.954          estimate D2E/DX2                !
 ! D335  D(83,81,82,41)       -101.9582         estimate D2E/DX2                !
 ! D336  D(83,81,82,62)       -115.8105         estimate D2E/DX2                !
 ! D337  D(84,81,82,35)         32.7337         estimate D2E/DX2                !
 ! D338  D(84,81,82,41)         11.7295         estimate D2E/DX2                !
 ! D339  D(84,81,82,62)         -2.1229         estimate D2E/DX2                !
 ! D340  D(78,81,83,13)       -179.104          estimate D2E/DX2                !
 ! D341  D(78,81,83,14)        162.8287         estimate D2E/DX2                !
 ! D342  D(78,81,83,19)       -146.224          estimate D2E/DX2                !
 ! D343  D(82,81,83,13)         57.513          estimate D2E/DX2                !
 ! D344  D(82,81,83,14)         39.4457         estimate D2E/DX2                !
 ! D345  D(82,81,83,19)         90.393          estimate D2E/DX2                !
 ! D346  D(84,81,83,13)        -54.0023         estimate D2E/DX2                !
 ! D347  D(84,81,83,14)        -72.0696         estimate D2E/DX2                !
 ! D348  D(84,81,83,19)        -21.1223         estimate D2E/DX2                !
 ! D349  D(78,81,84,45)         74.4317         estimate D2E/DX2                !
 ! D350  D(78,81,84,56)        123.4125         estimate D2E/DX2                !
 ! D351  D(78,81,84,58)         77.1201         estimate D2E/DX2                !
 ! D352  D(82,81,84,45)       -161.9947         estimate D2E/DX2                !
 ! D353  D(82,81,84,56)       -113.014          estimate D2E/DX2                !
 ! D354  D(82,81,84,58)       -159.3063         estimate D2E/DX2                !
 ! D355  D(83,81,84,45)        -51.1192         estimate D2E/DX2                !
 ! D356  D(83,81,84,56)         -2.1385         estimate D2E/DX2                !
 ! D357  D(83,81,84,58)        -48.4308         estimate D2E/DX2                !
 --------------------------------------------------------------------------------
 Trust Radius=3.00D-01 FncErr=1.00D-07 GrdErr=1.00D-06
 Number of steps in this run=    504 maximum allowed number of steps=    504.
 GradGradGradGradGradGradGradGradGradGradGradGradGradGradGradGradGradGrad

 Leave Link  103 at Wed Apr 27 04:09:04 2016, MaxMem= 10737418240 cpu:         0.5
 (Enter /share/apps//g09/l202.exe)
 Stoichiometry    C23H44NO16(1+)
 Framework group  C1[X(C23H44NO16)]
 Deg. of freedom   246
 Full point group                 C1      NOp   1
 Largest Abelian subgroup         C1      NOp   1
 Largest concise Abelian subgroup C1      NOp   1
                         Standard orientation:                         
 ---------------------------------------------------------------------
 Center     Atomic      Atomic             Coordinates (Angstroms)
 Number     Number       Type             X           Y           Z
 ---------------------------------------------------------------------
      1          8           0       -2.214682    2.391478   -1.435002
      2          6           0       -2.135061    1.014597   -1.719940
      3          6           0       -0.854441    0.652702   -2.490297
      4          6           0        0.370249    1.134231   -1.693751
      5          6           0        0.262313    2.624787   -1.365944
      6          6           0       -1.091265    2.943042   -0.714600
      7          1           0       -3.032412    0.798594   -2.320607
      8          1           0       -0.886737    1.191432   -3.450492
      9          1           0        0.441251    0.558628   -0.759314
     10          1           0        1.049222    2.888410   -0.638501
     11          1           0       -1.059534    2.530737    0.310057
     12          8           0        0.495820    3.313425   -2.603512
     13          8           0        1.598152    0.887139   -2.399667
     14          8           0       -0.785573   -0.740143   -2.789895
     15          8           0       -2.112243    0.188332   -0.551756
     16          6           0       -1.374310    4.447697   -0.668053
     17          1           0       -1.759121    4.753055   -1.655794
     18          1           0       -2.147457    4.655478    0.088732
     19          8           0       -0.140560    5.115556   -0.356427
     20          1           0       -0.335810    6.052209   -0.189030
     21          1           0        0.690705    4.240474   -2.370619
     22          1           0        1.707618    1.641910   -3.015832
     23          1           0       -1.301607   -1.244890   -2.118870
     24          8           0       -2.152670   -2.031129    1.072640
     25          6           0       -2.260289   -1.109157    2.178724
     26          6           0       -2.872431    0.252029    1.721639
     27          6           0       -3.306783    0.199747    0.250227
     28          6           0       -4.174866   -1.042758    0.013099
     29          6           0       -3.424048   -2.337231    0.461280
     30          1           0       -2.932763   -1.547696    2.938883
     31          1           0       -2.115033    1.038927    1.830723
     32          1           0       -3.888748    1.109934    0.037494
     33          1           0       -5.067022   -0.924138    0.647744
     34          1           0       -4.042286   -2.859243    1.217383
     35          8           0       -4.584881   -1.155292   -1.366536
     36          8           0       -4.037591    0.560172    2.493901
     37          8           0       -1.013377   -1.021765    2.813992
     38          6           0       -3.146593   -3.334178   -0.662079
     39          1           0       -2.499115   -4.129177   -0.265425
     40          1           0       -4.096091   -3.794566   -0.975706
     41          8           0       -2.465429   -2.768399   -1.788617
     42          1           0       -3.147568   -2.235112   -2.245188
     43          1           0       -5.469473   -0.768104   -1.462814
     44          1           0       -3.750037    0.978074    3.323348
     45          8           0        2.289129   -1.010927    1.187966
     46          6           0        2.947679    0.049978    1.906430
     47          6           0        1.965159    1.207006    2.083290
     48          6           0        0.658658    0.750536    2.740762
     49          6           0        0.080721   -0.483281    2.041325
     50          6           0        1.190259   -1.554381    1.931349
     51          1           0        3.288319   -0.340543    2.890559
     52          1           0        1.741359    1.586169    1.068721
     53          1           0        0.870618    0.477893    3.793190
     54          1           0        1.517562   -1.823886    2.957214
     55          1           0       -0.266350   -0.214435    1.031345
     56          8           0       -0.293896    1.817968    2.704630
     57          8           0        2.478597    2.248079    2.911511
     58          8           0        4.008696    0.511599    1.139678
     59          6           0        0.774348   -2.847743    1.245150
     60          1           0        1.651942   -3.506741    1.184822
     61          1           0        0.002323   -3.349409    1.845723
     62          8           0        0.304470   -2.652111   -0.095621
     63          1           0       -0.628709   -2.347898   -0.014965
     64          1           0        0.154381    2.592461    3.093070
     65          1           0        3.263342    2.619016    2.469531
     66          6           0        5.127405   -0.408694    1.033331
     67          1           0        5.915889   -0.077941    1.728776
     68          1           0        4.799427   -1.414655    1.336244
     69          6           0        5.642862   -0.403338   -0.401130
     70          1           0        6.513860   -1.078710   -0.446798
     71          1           0        6.022505    0.604178   -0.631970
     72          6           0        4.600264   -0.789765   -1.461827
     73          1           0        3.755372   -0.089817   -1.372161
     74          1           0        5.042370   -0.622105   -2.458140
     75          6           0        4.107162   -2.241084   -1.371117
     76          1           0        4.959697   -2.932731   -1.470526
     77          1           0        3.660986   -2.431879   -0.382655
     78          6           0        3.096678   -2.628228   -2.448599
     79          1           0        2.860656   -3.699589   -2.400672
     80          1           0        3.481163   -2.409687   -3.455384
     81          7           0        1.800272   -1.887485   -2.296093
     82          1           0        1.113117   -2.117643   -3.026401
     83          1           0        1.910250   -0.847506   -2.365120
     84          1           0        1.316289   -2.108015   -1.381829
 ---------------------------------------------------------------------
 Rotational constants (GHZ):      0.1130307      0.0816556      0.0748047
 Leave Link  202 at Wed Apr 27 04:09:04 2016, MaxMem= 10737418240 cpu:         0.5
 (Enter /share/apps//g09/l301.exe)
 Standard basis: 6-311+G(d,p) (5D, 7F)
 Ernie: Thresh=  0.10000D-02 Tol=  0.10000D-05 Strict=F.
[...]
 8138,0.00009726,0.00000994,0.00000821,-0.00003498,0.00001989,-0.000071
 71,-0.00000320,-0.00001434,-0.00002254,-0.00043779,0.00021948,-0.00039
 506,0.00013092,-0.00022808,0.00025031,-0.00000552,-0.00006402,0.000070
 02,0.00003770,0.00000413,0.00003379,-0.00067060,0.00059165,0.00011790,
 0.00052054,-0.00050571,-0.00022257,0.00035611,0.00033975,0.00044226,0.
 00024010,-0.00010868,0.00007807,0.00039606,0.00022659,0.00009000,0.000
 36556,0.00000802,-0.00014367,-0.00008816,0.00006573,0.00003195,-0.0000
 5058,-0.00001206,-0.00009435,-0.00003533,-0.00004830,-0.00007964,-0.00
 007195,0.00008691,0.00000532,0.00004318,-0.00008267,0.00013418,-0.0004
 4835,-0.00000290,-0.00023824,-0.00039531,-0.00012421,-0.00014992,-0.00
 081923,0.00031391,0.00036452,-0.00058625,-0.00083886,-0.00027318,-0.00
 005914,0.00004468,-0.00009098,0.00011187,0.00016348,0.00018585,-0.0013
 3413,0.00117304,0.00272070,0.00092280,0.00013042,0.00023084,0.00004818
 ,0.00006494,0.00008504,0.00022732,0.00003554,0.00006028,0.00066802,-0.
 00016012,-0.00027606,-0.00011067,0.00012740,0.00007821,-0.00009205,-0.
 00007491,-0.00009273,0.00026146,-0.00045048,-0.00011331,0.00006425,0.0
 0022646,0.00006921,0.00005028,0.00025784,-0.00006630,-0.00045764,0.000
 22249,0.00050292,0.00155657,-0.00134510,0.00052650,-0.00003227,-0.0000
 3472,0.00006685,0.00011853,-0.00059493,-0.00105143,0.00052242,0.000558
 91,0.00002429,-0.00014080,-0.00014416,-0.00010936,-0.01883281,0.017192
 09,-0.01748551,-0.00346457,-0.00050840,0.00206392,0.00144470,0.0004178
 0,0.00001388,-0.14279702,0.09236026,-0.09533068,0.01109201,-0.00854542
 ,0.01072183,0.14890453,0.00023359,-0.00067857,0.00028593,-0.00024593,-
 0.00035314,-0.00035730,-0.00228390,0.00251449,-0.00067344,0.00372277,0
 .00016848,-0.00475507,-0.00071311,-0.00048508,0.00045135,0.00010880,0.
 00064821,-0.00069958,-0.00018790,0.00001627,0.00016864,0.00012667,-0.0
 0005618,0.00008099,0.00027542,0.00004025,0.00000176,0.00012209,-0.0001
 5304,0.00006154,-0.00004817,-0.00004713,0.00000277,-0.00096415,0.00045
 453,0.00008039,-0.00071192,-0.00511859,-0.00289415,0.00311044,-0.00083
 932,-0.00020889,0.00011123,-0.00021007,0.00050826,-0.00004976,-0.00008
 063,0.00017804,0.00001445,0.00000050,-0.00002565,-0.00010068,0.0000818
 4,-0.00001023,-0.00009009,0.00011057,0.00007024,-0.00000410,-0.0000590
 6,0.00001082,0.00006235,-0.00010586,0.00014822,-0.00281492,0.00139664,
 0.00256260,-0.00012743,-0.00013269,0.00030166,0.00031428,-0.00031896,-
 0.00012571,-0.00007687,0.00041425,-0.00004972,-0.00002775,-0.00001513,
 -0.00003048,0.00011563,0.00004585,-0.00019459,-0.00006106,0.00008018,0
 .00000680,-0.00003895,-0.00000287,-0.00005416,0.00001255,-0.00004124,0
 .00000631,0.00001902,-0.00000823,-0.00001955,0.00000894,0.00000102,-0.
 00000839,0.00001019,-0.00001715,0.00001297,0.00002037,-0.00000791,-0.0
 0000392,0.00009900,-0.00012398,0.00004256,0.00003702,-0.00001767,0.000
 08520,-0.00003343,-0.00017054,0.00025839,-0.00007168,0.00008846,0.0002
 4260,0.00001180,-0.00001884,0.00001441,0.00001720,0.00000084,-0.000044
 87,0.00017954,-0.00000914,-0.00028246,-0.00013458,0.00003774,0.0000270
 2,-0.00000204,0.00002255,-0.00003364,-0.00001481,0.00001049,-0.0000310
 5,0.00023648,-0.00027380,0.00072736,-0.00005764,0.00003832,-0.00051383
 ,-0.00016948,-0.00031396,-0.00026411,0.00004939,0.00009664,-0.00012074
 ,-0.00013218,-0.00006795,-0.00016281,0.00005175,0.00027194,-0.00057733
 ,0.00006721,0.00003545,0.00008719,0.00012157,0.00001346,0.00007058,-0.
 00000403,0.00000867,0.00005200,0.00001105,-0.00006045,0.00012629,-0.00
 000981,0.00009389,-0.00006532,0.00003689,-0.00002446,0.00020623,0.0000
 6962,0.00016647,0.00013279,0.00022724,0.00019958,0.00035231,0.00051232
 ,0.00097085,0.00024886,-0.00000480,-0.00001870,0.00003432,-0.00009435,
 -0.00021173,-0.00015010,0.00102727,-0.00129394,-0.00249750,-0.00046514
 ,-0.00007237,-0.00010379,0.00002887,-0.00004926,-0.00007620,-0.0000395
 3,-0.00008266,-0.00002448,-0.00033704,-0.00002081,-0.00013031,0.000037
 30,0.00002497,0.00004257,0.00004206,0.00000737,0.00009175,0.00087254,-
 0.00056715,-0.00005500,0.00022296,0.00036982,0.00000562,-0.00005323,-0
 .00010614,0.00002522,-0.00179391,0.00108237,0.00011227,-0.00025753,-0.
 00242429,0.00089772,0.00022792,-0.00001231,-0.00014351,-0.00135260,0.0
 0131178,-0.00066863,0.00014516,-0.00061600,0.00021313,-0.00002285,-0.0
 0006414,0.00005490,0.00268826,0.00426354,-0.00619601,-0.00261919,0.000
 43457,0.00017644,0.00005931,-0.00032033,0.00009832,0.08707865,-0.15826
 826,0.10230021,0.01769894,-0.02137698,0.02344046,-0.09326162,0.1689838
 6,-0.00019219,0.00053688,-0.00036572,0.00018258,0.00051290,0.00064528,
 0.00207632,-0.00177955,0.00050964,-0.00094176,-0.00128339,0.00817772,0
 .00157124,0.00016342,-0.00142223,0.00014222,-0.00075736,0.00098164,0.0
 0016549,-0.00003397,-0.00018656,-0.00027028,-0.00011299,-0.00011101,0.
 00048437,-0.00052248,-0.00096216,-0.00017395,0.00013519,-0.00004260,0.
 00005549,0.00003107,-0.00003196,0.00052431,-0.00022344,-0.00047852,0.0
 0514663,-0.00153717,-0.00623319,-0.00292365,-0.00001905,-0.00104527,-0
 .00012039,0.00004283,-0.00069539,0.00012214,0.00013309,-0.00027494,-0.
 00002803,-0.00000564,0.00001031,0.00012445,-0.00010136,0.00002630,0.00
 006459,-0.00015662,-0.00006546,0.00000257,0.00007366,-0.00000914,-0.00
 013212,0.00006296,-0.00014951,-0.00019692,0.00000753,-0.00210653,0.000
 80063,0.00031697,-0.00025117,-0.00030644,0.00009523,0.00008029,0.00026
 132,-0.00008952,0.00000046,0.00003840,0.00001888,0.00003014,-0.0001452
 1,-0.00005812,0.00019717,0.00007663,-0.00003965,0.00002840,0.00010511,
 0.00008449,0.00002874,-0.00002470,0.00001329,0.00000732,0.00001145,0.0
 0001844,0.00003007,-0.00002263,-0.00000528,0.00001022,-0.00001381,0.00
 001848,-0.00001468,-0.00002443,-0.00000095,0.00000986,-0.00012942,0.00
 005291,-0.00009687,-0.00007599,-0.00000366,-0.00006740,-0.00025584,0.0
 0001818,0.00002301,0.00005700,-0.00004539,-0.00015165,-0.00001227,0.00
 002025,-0.00002193,-0.00001469,-0.00000983,0.00002610,-0.00021316,0.00
 000756,0.00010779,0.00012349,-0.00004568,0.00003657,0.00001413,-0.0000
 1390,0.00004110,0.00003407,-0.00001272,0.00001333,-0.00014480,0.001022
 61,0.00009803,0.00007907,-0.00083017,0.00055867,0.00019039,0.00010040,
 0.00018856,0.00018730,-0.00012346,0.00008316,0.00017779,0.00001553,-0.
 00004743,0.00018666,0.00001207,-0.00034336,-0.00004485,0.00013885,-0.0
 0002759,-0.00000009,-0.00001245,0.00000070,-0.00002545,-0.00000590,-0.
 00004384,-0.00002849,0.00006043,0.00008343,0.00008495,-0.00004281,0.00
 005838,-0.00026778,0.00006399,-0.00015984,-0.00021515,0.00008957,-0.00
 014385,-0.00004547,0.00014215,-0.00031685,-0.00022825,-0.00063561,-0.0
 0040109,-0.00002227,0.00005006,-0.00000264,0.00004908,0.00007870,0.000
 10689,0.00033896,-0.00020113,0.00083594,0.00048599,-0.00001346,-0.0003
 0861,0.00003023,0.00001666,0.00006216,0.00009430,0.00001777,0.00007304
 ,-0.00000790,-0.00014888,0.00014051,0.00000280,0.00001464,-0.00006110,
 -0.00005247,-0.00004783,-0.00010207,-0.00038452,0.00030624,-0.00036527
 ,-0.00010727,-0.00018190,0.00001334,0.00005672,0.00018984,-0.00002722,
 0.00048878,-0.00054504,0.00038454,0.00028101,0.00114321,0.00074004,0.0
 0047631,-0.00002392,-0.00043650,-0.00059292,-0.00050604,0.00000003,0.0
 0002050,0.00032218,-0.00022977,-0.00030923,0.00001567,-0.00030095,0.00
 308617,-0.01118796,0.01236262,0.00457166,0.00017969,-0.00063325,0.0006
 8523,-0.00068101,0.00002526,-0.09472896,0.10752651,-0.17515695,0.00389
 525,-0.00292787,0.00268459,0.09242212,-0.10936481,0.18241789,0.0002228
 1,-0.00031207,0.00010380,-0.00033066,-0.00000738,-0.00015197,-0.000912
 53,0.00071168,-0.00038895,0.00041553,-0.00030767,-0.00172466,-0.000355
 54,0.00019028,0.00012596,-0.00001093,0.00019302,-0.00010792,-0.0000144
 3,0.00000729,0.00003031,0.00017932,-0.00003262,0.00008149,-0.00031410,
 0.00043990,0.00013625,0.00004144,-0.00005821,0.00004053,-0.00001209,0.
 00000242,0.00001589,0.00006367,-0.00009045,0.00030960,-0.00187920,0.00
 116498,0.00058591,0.00169836,0.00070705,0.00130550,0.00035308,-0.00006
 235,-0.00005379,-0.00003331,0.00005957,-0.00002231,0.00000279,-0.00000
 271,0.00000656,-0.00000780,0.00000023,-0.00000116,0.00001235,-0.000091
 30,0.00005896,-0.00000180,0.00001306,-0.00001114,0.00002664,0.00003077
 ,-0.00000819,0.00006150,-0.00004349,0.00004467,-0.00159023,-0.00097519
 ,0.00039359,0.00023823,-0.00008054,-0.00019977,-0.00015496,0.00021818,
 0.00010279,-0.00006397,0.00004093,0.00004158,-0.00008761,0.00002591,0.
 00022260,-0.00004696,-0.00002509,-0.00003564,-0.00013350,-0.00016719,0
 .00006555,0.00001733,-0.00002979,-0.00002865,0.00000844,0.00002575,-0.
 00000982,0.00003978,-0.00000045,-0.00003129,0.00001372,0.00001250,-0.0
 0000802,0.00003201,0.00000601,-0.00004042,0.00010256,0.00006964,-0.000
 00010,0.00011219,-0.00006066,-0.00008138,0.00003400,-0.00016278,-0.000
 04321,-0.00001334,0.00005048,0.00027457,0.00001075,-0.00005726,0.00000
 050,0.00005022,0.00001280,-0.00006886,0.00015092,0.00034254,-0.0003038
 3,-0.00005511,-0.00007116,-0.00003094,-0.00002368,-0.00004093,-0.00000
 491,-0.00002858,0.00002806,0.00001248,-0.00067423,-0.00019578,0.000551
 30,0.00013456,0.00025611,-0.00044181,0.00009524,0.00013140,-0.00002185
 ,-0.00003822,0.00010757,-0.00015755,0.00003743,0.00022430,0.00023351,0
 .00016889,0.00015912,-0.00053605,0.00000244,-0.00001970,0.00003901,-0.
 00000619,-0.00000163,-0.00003556,0.00000998,-0.00004255,0.00001146,-0.
 00002608,-0.00019229,0.00010802,-0.00019977,0.00008305,-0.00001572,0.0
 0000781,-0.00011957,0.00007434,-0.00010490,-0.00011955,0.00008616,-0.0
 0047419,0.00006557,0.00048309,0.00296595,0.00314673,-0.00171532,-0.000
 48926,-0.00030478,-0.00035488,-0.00064768,-0.00096980,-0.00071451,-0.0
 0925401,-0.00462850,-0.00388403,-0.00069556,0.00050748,0.00307987,0.00
 001351,0.00002776,-0.00002154,0.00005650,-0.00000660,-0.00002225,0.000
 40545,-0.00011196,-0.00008732,-0.00006543,0.00006001,0.00001122,-0.000
 03298,-0.00004215,-0.00007544,-0.00007845,-0.00012423,-0.00008057,0.00
 000355,0.00002123,0.00004923,0.00001583,0.00011278,-0.00001187,0.00019
 254,-0.00019559,0.00006008,0.00006473,-0.00012287,-0.00000717,-0.00008
 660,0.00016529,-0.00017588,0.00139418,0.00047180,0.00067179,0.00033884
 ,0.00039614,-0.00051892,-0.00017693,-0.00113702,-0.00084137,-0.0059953
 4,0.01139972,0.03362322,0.00092894,0.00069675,-0.00022278,-0.00596812,
 -0.00031710,0.00052245,-0.06825716,0.01165161,0.03312205,0.00281196,-0
 .00317109,-0.01507971,0.00583339,-0.01076789,-0.01665211,0.07997204,0.
 00011498,-0.00023969,-0.00013489,-0.00003325,0.00012110,0.00046453,-0.
 00025295,0.00094566,-0.00066653,0.00001339,0.00032819,0.00123941,0.000
 17307,-0.00013151,-0.00009507,0.00010334,0.00011321,0.00010385,-0.0000
 4085,-0.00001995,-0.00001524,0.00003853,-0.00016251,0.00006336,0.00013
 865,-0.00008020,-0.00018636,0.00000348,-0.00004952,0.00003110,0.000018
 21,-0.00001147,-0.00001805,-0.00004971,-0.00003419,-0.00018843,0.00148
 041,-0.00124669,-0.00032748,0.00166184,-0.00077165,0.00064027,-0.00005
 136,-0.00024245,-0.00031187,0.00001083,0.00001777,-0.00002789,-0.00001
 416,-0.00000103,-0.00001053,0.00001369,-0.00000576,0.00000392,-0.00001
 190,-0.00005088,-0.00002416,0.00000660,0.00000772,0.00001646,-0.000014
 52,-0.00000070,-0.00001691,-0.00002803,0.00001004,-0.00006626,-0.00098
 233,0.00022849,0.00046099,-0.00056637,-0.00023030,0.00030522,0.0003352
 3,0.00022797,-0.00004688,0.00011432,0.00001253,-0.00002608,-0.00006030
 ,0.00002491,0.00008281,0.00003077,0.00011386,0.00006782,0.00023779,0.0
 0042820,-0.00013161,-0.00004122,-0.00000103,0.00003514,0.00002365,0.00
 000646,0.00000028,-0.00001350,-0.00001490,-0.00000586,-0.00000806,-0.0
 0000083,-0.00001387,-0.00002906,-0.00008283,0.00002445,-0.00000266,-0.
 00016502,-0.00009938,-0.00012719,-0.00002831,0.00001229,-0.00046422,-0
 .00015783,0.00035318,0.00008449,0.00020909,0.00050997,-0.00004335,0.00
 006240,-0.00003971,-0.00000264,-0.00003349,-0.00011183,0.00019450,-0.0
 0019212,-0.00063234,-0.00009920,0.00000925,0.00001826,0.00000857,0.000
 00571,-0.00001389,0.00003898,-0.00000890,-0.00001203,0.00034027,0.0019
 7384,-0.00015486,-0.00012550,-0.00139668,0.00139545,0.00018715,-0.0000
 7676,0.00003075,0.00026840,-0.00016445,0.00005275,0.00022099,-0.000081
 52,-0.00033000,0.00031124,-0.00045290,-0.00156392,-0.00003342,0.000329
 20,-0.00004330,0.00002073,0.00000791,0.00002376,-0.00001199,0.00002153
 ,-0.00001546,-0.00003040,0.00011116,0.00023448,0.00022514,0.00000066,0
 .00005419,-0.00031447,0.00009572,-0.00005148,-0.00021445,0.00032558,-0
 .00012147,0.00047770,0.00015485,-0.00064443,0.00009106,-0.00165141,-0.
 00278637,-0.00000429,0.00029907,0.00009241,0.00004204,0.00011201,0.000
 29865,-0.00491633,-0.00599948,0.00290347,0.00208172,0.00035878,0.00154
 432,0.00003117,-0.00002171,0.00001344,0.00003026,-0.00004483,0.0000681
 7,-0.00046167,-0.00006022,0.00022733,0.00005390,0.00000967,-0.00005206
 ,-0.00003423,0.00000081,-0.00001915,0.00007386,0.00001949,0.00005817,0
 .00001184,-0.00001505,-0.00003310,-0.00001653,-0.00005656,-0.00001415,
 -0.00012880,-0.00044731,-0.00021088,0.00002021,-0.00003450,0.00030733,
 0.00013927,0.00007046,-0.00023815,-0.00050205,0.00132422,0.00196265,0.
 00003353,-0.00037632,-0.00031440,-0.00036769,-0.00009316,-0.00065796,0
 .00286823,0.00065683,0.00242728,0.00029912,-0.00036276,-0.00041048,-0.
 00111281,0.00044032,0.00056318,0.01033138,-0.08877007,-0.07599016,0.00
 434119,-0.01090046,-0.03445721,-0.00736670,0.01081003,0.02046700,-0.00
 876758,0.09497515,0.00008624,0.00004822,-0.00071769,0.00015306,0.00030
 495,0.00187595,-0.00055454,0.00047810,-0.00069413,-0.00185180,0.000362
 98,0.00190543,0.00006950,0.00024235,0.00003932,-0.00001013,-0.00011255
 ,0.00054068,-0.00000124,-0.00005890,-0.00013314,-0.00005007,-0.0000309
 1,-0.00004150,-0.00011639,-0.00004013,0.00033111,-0.00002806,-0.000018
 30,0.00004179,0.00005137,-0.00000866,-0.00000938,0.00044869,-0.0003002
 2,-0.00027224,0.00289019,-0.00143080,0.00048048,0.00239995,0.00030922,
 -0.00107731,-0.00025173,-0.00029852,-0.00162382,0.00002185,0.00000016,
 -0.00004353,-0.00003306,0.00000240,-0.00001152,0.00008005,-0.00004713,
 0.00000283,0.00004996,-0.00006745,-0.00015567,0.00000876,0.00003692,0.
 00004253,-0.00006729,0.00005844,0.00000211,0.00007579,-0.00003575,-0.0
 0044507,0.00070271,-0.00001341,0.00193401,-0.00281075,0.00052204,0.001
 61584,0.00098655,-0.00131453,-0.00013801,0.00041402,0.00007618,-0.0000
 3749,-0.00022772,-0.00009400,0.00050670,0.00032375,0.00014193,0.000269
 48,0.00082338,0.00129582,-0.00024333,-0.00014059,0.00020748,0.00012881
 ,-0.00003258,-0.00000587,0.00003138,-0.00004697,-0.00001094,-0.0000466
 0,-0.00007341,0.00001964,-0.00006276,-0.00017162,-0.00019530,0.0001483
 6,-0.00045981,-0.00027245,-0.00038432,-0.00051990,0.00006219,-0.000014
 09,-0.00062214,0.00043675,-0.00018066,0.00047517,0.00030973,0.00012550
 ,-0.00012081,0.00024723,-0.00026854,-0.00014637,-0.00010265,-0.0000600
 7,-0.00081534,-0.00076292,-0.00107743,0.00008765,-0.00010333,0.0005899
 5,0.00006442,0.00005463,0.00005419,0.00014803,-0.00008804,-0.00000169,
 0.00039204,0.00200983,-0.00300242,-0.00041015,-0.00166804,0.00221838,0
 .00015202,0.00002115,0.00045515,0.00022594,-0.00055983,0.00056399,0.00
 069333,-0.00000458,-0.00031052,0.00038561,-0.00101046,0.00264602,-0.00
 011489,0.00010346,-0.00016006,-0.00008858,0.00000060,-0.00006526,-0.00
 004904,0.00004099,-0.00011180,-0.00007577,0.00084202,-0.00047872,0.000
 41363,-0.00024974,0.00023355,-0.00050747,0.00046341,-0.00050695,-0.000
 08314,0.00036608,-0.00045623,0.00119014,-0.00004146,-0.00185033,-0.008
 40964,-0.01019961,-0.00273329,0.00072122,0.00064790,0.00012178,0.00121
 444,0.00238251,0.00199355,-0.00389153,0.00370131,0.00392632,0.00693236
 ,0.00301491,0.00246417,-0.00003429,-0.00002963,0.00014399,-0.00002747,
 0.00004102,0.00012444,-0.00096395,0.00013308,0.00052565,0.00014436,-0.
 00013083,-0.00010487,0.00000202,0.00009892,0.00009098,0.00012200,0.000
 27597,0.00020483,-0.00004631,-0.00012258,-0.00011010,-0.00004158,-0.00
 026282,-0.00000703,0.00004997,-0.00028936,-0.00071492,-0.00021403,0.00
 052390,-0.00001822,-0.00004229,0.00002954,-0.00014735,-0.00062286,0.00
 182676,0.00092321,-0.00043645,-0.00075301,0.00016586,0.00015940,-0.000
 13519,-0.00005335,0.00967916,0.00141228,0.00087171,-0.00139316,0.00016
 879,0.00071593,-0.00295010,-0.00001838,0.00170017,0.03234902,-0.082549
 15,-0.29577421,-0.00268659,-0.00056973,0.00188539,-0.00129145,-0.00348
 867,-0.01804716,-0.03165472,0.08417406,0.29975127\\-0.00000590,0.00001
 596,-0.00000925,0.00002206,-0.00001455,0.00000929,-0.00000521,0.000000
 95,-0.00000514,-0.00001320,0.00000466,0.00000584,0.00000995,-0.0000039
 6,-0.00000499,0.00000028,-0.00000780,-0.00000304,-0.00000313,0.0000061
 5,-0.00000149,0.00000181,-0.00000252,0.00000354,0.00000080,-0.00000198
 ,-0.00000021,0.00000174,-0.00000353,-0.00000356,0.00000046,-0.00000018
 ,-0.00000722,0.00000661,-0.00000184,-0.00000243,0.00002366,-0.00001722
 ,-0.00002151,0.00000393,-0.00000516,-0.00000079,-0.00000657,0.00000340
 ,-0.00000660,0.00000536,-0.00000625,-0.00000825,0.00000314,0.00000201,
 -0.00000502,0.00000488,0.00000074,-0.00000618,0.00000335,0.00000686,-0
 .00000168,0.00000524,-0.00000556,-0.00000996,0.00000536,-0.00000350,-0
 .00000137,0.00000013,0.00000052,0.00000533,0.00000081,0.00000190,0.000
 00591,-0.00000510,0.00000294,0.00000659,-0.00002077,-0.00000099,0.0000
 0079,-0.00000476,-0.00000173,-0.00000129,-0.00000175,0.00000440,-0.000
 00265,-0.00000773,-0.00000248,-0.00000539,-0.00000504,0.00000441,-0.00
 000033,-0.00000149,0.00000487,-0.00000547,-0.00000243,0.00000021,-0.00
 000147,-0.00000053,0.00000298,-0.00000211,-0.00000520,0.00000674,-0.00
 000473,-0.00000469,0.00000627,-0.00000238,-0.00000550,0.00000698,0.000
 01292,-0.00000433,0.00000863,-0.00000873,0.00000575,0.00000931,-0.0000
 1381,-0.00000930,-0.00000192,0.00001733,-0.00000657,0.00000415,0.00000
 171,-0.00000391,0.00000686,-0.00000049,0.00000313,0.00000476,-0.000008
 48,-0.00000215,0.00000138,0.00000683,-0.00000288,0.00000496,-0.0000076
 4,-0.00000139,0.00000333,-0.00000369,0.00000068,-0.00000554,-0.0000100
 7,-0.00000146,0.00000542,0.00002165,0.00000182,-0.00000444,-0.00000714
 ,0.00000550,-0.00000457,0.00000275,-0.00001247,-0.00000215,0.00001335,
 0.00000511,0.00000655,0.00000684,-0.00000161,-0.00000312,-0.00000453,0
 .00000554,0.00000421,-0.00000088,-0.00000097,0.00000304,-0.00000798,-0
 .00000506,-0.00000005,-0.00000431,0.00000391,0.00000388,0.00000005,-0.
 00000225,0.00000365,-0.00000931,0.00000906,0.00000036,-0.00000382,0.00
 000740,-0.00001481,-0.00001451,-0.00000328,0.00001037,0.00000784,-0.00
 000508,-0.00000162,0.00000508,-0.00000515,0.00000194,0.00000037,0.0000
 1046,-0.00000353,-0.00000303,-0.00000447,0.00000034,0.00000389,0.00000
 114,0.00000200,-0.00000174,-0.00000155,-0.00000178,-0.00000333,-0.0000
 0193,0.00000587,0.00000483,0.00000397,-0.00000476,0.00000215,0.0000031
 5,-0.00000371,-0.00000038,0.00000631,-0.00000474,0.00000107,0.00000274
 ,-0.00000567,0.00000541,0.00000561,-0.00000769,0.00000333,0.00000309,-
 0.00000556,0.00000579,0.00000503,-0.00000397,0.00000262,0.00000605,-0.
 00000449,0.00000645,-0.00000113,-0.00000276,0.00000431,0.00000133,-0.0
 0000520,0.00000683,0.00000136,-0.00000497,0.00000195,0.00000297,-0.000
 00131,0.00000785,-0.00000055,-0.00000204,0.00000642,0.00000008,-0.0000
 0369,0.00000879,0.00001456,0.00001093,-0.00000662,-0.00002328,0.000006
 72,0.00002549,-0.00000825,0.00000650,-0.00000311,-0.00000731,-0.000014
 79,0.00001690\\\@


 WE SHOULD BE CAREFUL TO GET OUT OF AN EXPERIENCE ONLY THE WISDOM
 THAT IS IN IT -- AND STOP THERE;
 LEST WE BE LIKE THE CAT THAT SITS DOWN ON A HOT STOVE-LID.
 SHE WILL NEVER SIT DOWN ON A HOT STOVE LID AGAIN;
 BUT ALSO SHE WILL NEVER SIT DOWN ON A COLD ONE ANY MORE.

                                                     -- MARK TWAIN
 Job cpu time:      21 days 11 hours 36 minutes 23.4 seconds.
 File lengths (MBytes):  RWF=  17354 Int=      0 D2E=      0 Chk=     99 Scr=      1
 Normal termination of Gaussian 09 at Fri Apr 29 11:55:24 2016.
