 Entering Gaussian System, Link 0=g09
 Initial command:
 /share/apps//g09/l1.exe "/scratch/Gau-9244.inp" -scrdir="/scratch/"
 Entering Link 1 = /share/apps//g09/l1.exe PID=      9245.
  
 Copyright (c) 1988,1990,1992,1993,1995,1998,2003,2009,2013,
            Gaussian, Inc.  All Rights Reserved.
  
 This is part of the Gaussian(R) 09 program.  It is based on
 the Gaussian(R) 03 system (copyright 2003, Gaussian, Inc.),
 the Gaussian(R) 98 system (copyright 1998, Gaussian, Inc.),
 the Gaussian(R) 94 system (copyright 1995, Gaussian, Inc.),
 the Gaussian 92(TM) system (copyright 1992, Gaussian, Inc.),
 the Gaussian 90(TM) system (copyright 1990, Gaussian, Inc.),
 the Gaussian 88(TM) system (copyright 1988, Gaussian, Inc.),
 the Gaussian 86(TM) system (copyright 1986, Carnegie Mellon
 University), and the Gaussian 82(TM) system (copyright 1983,
 Carnegie Mellon University). Gaussian is a federally registered
 trademark of Gaussian, Inc.
  
 This software contains proprietary and confidential information,
 including trade secrets, belonging to Gaussian, Inc.
  
 This software is provided under written license and may be
 used, copied, transmitted, or stored only in accord with that
 written license.
  
 The following legend is applicable only to US Government
 contracts under FAR:
  
                    RESTRICTED RIGHTS LEGEND
  
 Use, reproduction and disclosure by the US Government is
 subject to restrictions as set forth in subparagraphs (a)
 and (c) of the Commercial Computer Software - Restricted
 Rights clause in FAR 52.227-19.
  
 Gaussian, Inc.
 340 Quinnipiac St., Bldg. 40, Wallingford CT 06492
  
  
 ---------------------------------------------------------------
 Warning -- This program may not be used in any manner that
 competes with the business of Gaussian, Inc. or will provide
 assistance to any competitor of Gaussian, Inc.  The licensee
 of this program is prohibited from giving any competitor of
 Gaussian, Inc. access to this program.  By using this program,
 the user acknowledges that Gaussian, Inc. is engaged in the
 business of creating and licensing software in the field of
 computational chemistry and represents and warrants to the
 licensee that it is not a competitor of Gaussian, Inc. and that
 it will not use this program in any manner prohibited above.
 ---------------------------------------------------------------
  

 Cite this work as:
 Gaussian 09, Revision D.01,
 M. J. Frisch, G. W. Trucks, H. B. Schlegel, G. E. Scuseria, 
 M. A. Robb, J. R. Cheeseman, G. Scalmani, V. Barone, B. Mennucci, 
 G. A. Petersson, H. Nakatsuji, M. Caricato, X. Li, H. P. Hratchian, 
 A. F. Izmaylov, J. Bloino, G. Zheng, J. L. Sonnenberg, M. Hada, 
 M. Ehara, K. Toyota, R. Fukuda, J. Hasegawa, M. Ishida, T. Nakajima, 
 Y. Honda, O. Kitao, H. Nakai, T. Vreven, J. A. Montgomery, Jr., 
 J. E. Peralta, F. Ogliaro, M. Bearpark, J. J. Heyd, E. Brothers, 
 K. N. Kudin, V. N. Staroverov, T. Keith, R. Kobayashi, J. Normand, 
 K. Raghavachari, A. Rendell, J. C. Burant, S. S. Iyengar, J. Tomasi, 
 M. Cossi, N. Rega, J. M. Millam, M. Klene, J. E. Knox, J. B. Cross, 
 V. Bakken, C. Adamo, J. Jaramillo, R. Gomperts, R. E. Stratmann, 
 O. Yazyev, A. J. Austin, R. Cammi, C. Pomelli, J. W. Ochterski, 
 R. L. Martin, K. Morokuma, V. G. Zakrzewski, G. A. Voth, 
 P. Salvador, J. J. Dannenberg, S. Dapprich, A. D. Daniels, 
 O. Farkas, J. B. Foresman, J. V. Ortiz, J. Cioslowski, 
 and D. J. Fox, Gaussian, Inc., Wallingford CT, 2013.
 
 ******************************************
 Gaussian 09:  EM64L-G09RevD.01 24-Apr-2013
                22-May-2016 
 ******************************************
 %nproc=20
 Will use up to   20 processors via shared memory.
 %mem=80GB
 %chk=Tri_A154_of.chk
 ----------------------------------------------------------------------
 #P PBE1PBE/6-311+G(d,p) opt=ModRedundant optcyc=999 freq EmpiricalDisp
 ersion=GD3
 ----------------------------------------------------------------------
 1/6=999,14=-1,18=120,19=15,26=3,38=1/1,3;
 2/9=110,12=2,17=6,18=5,40=1/2;
 3/5=4,6=6,7=111,11=2,16=1,25=1,30=1,71=1,74=-13,124=31/1,2,3;
 4//1;
 5/5=2,38=5/2;
 6/7=2,8=2,9=2,10=2,28=1/1;
 7//1,2,3,16;
 1/6=999,14=-1,18=20,19=15,26=3/3(2);
 2/9=110/2;
 99//99;
 2/9=110/2;
 3/5=4,6=6,7=111,11=2,16=1,25=1,30=1,71=1,74=-13,124=31/1,2,3;
 4/5=5,16=3,69=1/1;
 5/5=2,38=5/2;
 7//1,2,3,16;
 1/6=999,14=-1,18=20,19=15,26=3/3(-5);
 2/9=110/2;
 6/7=2,8=2,9=2,10=2,19=2,28=1/1;
 99/9=1/99;
 Leave Link    1 at Sun May 22 04:31:49 2016, MaxMem= 10737418240 cpu:         1.6
 (Enter /share/apps//g09/l101.exe)
 -------
 disacch
 -------
 Symbolic Z-matrix:
 Charge =  1 Multiplicity = 1
 O                     2.38323   1.89639  -0.91089 
 C                     3.20106   0.82134  -1.40659 
 C                     3.10203   0.7296   -2.92949 
 C                     3.53826   2.05085  -3.55617 
 C                     2.71919   3.21593  -2.98839 
 C                     2.69777   3.19872  -1.45126 
 C                     1.69197   4.1816   -0.84574 
 O                     0.32908   3.88982  -1.18401 
 O                     1.37794   3.16192  -3.49805 
 O                     3.32787   2.06749  -4.96662 
 O                     3.95784  -0.28499  -3.43495 
 O                     2.65584  -0.33619  -0.84459 
 C                     3.46795  -1.1578    0.01062 
 C                     3.27081  -2.60191  -0.46979 
 O                     3.63314  -2.77669  -1.85704 
 C                     1.78902  -2.94857  -0.3426 
 C                     1.30298  -2.76595   1.1117 
 O                     1.65963  -1.47565   1.62666 
 C                     3.01932  -1.07581   1.48079 
 C                     3.13745   0.30748   2.14217 
 O                     2.11783   1.23518   1.77642 
 O                    -0.07947  -2.90446   1.26307 
 C                    -0.91518  -1.94072   0.57211 
 C                    -1.7911   -2.69992  -0.43218 
 C                    -2.85312  -1.79445  -1.06564 
 C                    -3.64963  -1.07866   0.02325 
 O                    -2.73619  -0.3835    0.90673 
 C                    -1.82136  -1.24172   1.60313 
 C                    -1.11126  -0.37351   2.63817 
 O                    -0.52315   0.80549   2.07288 
 O                    -4.45948  -0.11459  -0.55694 
 C                    -5.51406   0.36528   0.31201 
 C                    -5.88147   1.78692  -0.09912 
 C                    -4.67618   2.73167  -0.21217 
 C                    -3.86415   2.91205   1.0819 
 C                    -2.45667   3.44343   0.82805 
 N                    -1.58751   2.39528   0.18618 
 O                    -3.75045  -2.54579  -1.86437 
 O                    -1.05645  -3.25321  -1.52314 
 O                     1.52347  -4.30621  -0.70087 
 H                     4.2565    0.96032  -1.09032 
 H                     2.04262   0.53184  -3.17653 
 H                     4.60948   2.21493  -3.32568 
 H                     3.19304   4.16516  -3.30128 
 H                     3.70676   3.50544  -1.10899 
 H                     1.95873   5.20152  -1.17239 
 H                     1.76408   4.14855   0.25056 
 H                     0.33001   3.71679  -2.15543 
 H                     1.45745   2.93296  -4.44637 
 H                     3.674     1.22779  -5.3227 
 H                     3.67493  -1.14261  -3.04785 
 H                     4.52955  -0.86631  -0.07353 
 H                     3.86958  -3.28432   0.15772 
 H                     4.53295  -3.14444  -1.9005 
 H                     1.22931  -2.26496  -1.00244 
 H                     1.73479  -3.56863   1.73914 
 H                     3.69053  -1.75246   2.05392 
 H                     3.04481   0.17706   3.22899 
 H                     4.1425    0.71998   1.94247 
 H                     2.21473   1.47935   0.82437 
 H                    -0.29711  -1.18448   0.06202 
 H                    -2.3089   -3.50788   0.12211 
 H                    -2.34012  -1.0156   -1.6683 
 H                    -4.23921  -1.81005   0.6155 
 H                    -2.37446  -2.02403   2.16274 
 H                    -1.85939  -0.04413   3.37538 
 H                    -0.34967  -0.97152   3.15543 
 H                     0.46836   0.74147   2.01514 
 H                    -5.16646   0.33382   1.35708 
 H                    -6.38603  -0.30307   0.21735 
 H                    -6.61157   2.17051   0.63229 
 H                    -6.39772   1.76022  -1.07067 
 H                    -5.02107   3.71703  -0.56249 
 H                    -4.03582   2.33665  -1.01903 
 H                    -3.7788    1.96209   1.63147 
 H                    -4.37981   3.61376   1.75488 
 H                    -2.46642   4.31756   0.16152 
 H                    -1.95592   3.73159   1.7616 
 H                    -2.13524   1.83196  -0.47787 
 H                    -1.20855   1.71218   0.91655 
 H                    -0.7857    2.84621  -0.32252 
 H                    -3.19885  -3.14355  -2.40378 
 H                    -0.4386   -3.93043  -1.17383 
 H                     1.94871  -4.44835  -1.56844 
 
 The following ModRedundant input section has been read:
 
 NAtoms=     84 NQM=       84 NQMF=       0 NMMI=      0 NMMIF=      0
                NMic=       0 NMicF=      0.
                    Isotopes and Nuclear Properties:
 (Nuclear quadrupole moments (NQMom) in fm**2, nuclear magnetic moments (NMagM)
  in nuclear magnetons)

  Atom         1           2           3           4           5           6           7           8           9          10
 IAtWgt=          16          12          12          12          12          12          12          16          16          16
 AtmWgt=  15.9949146  12.0000000  12.0000000  12.0000000  12.0000000  12.0000000  12.0000000  15.9949146  15.9949146  15.9949146
 NucSpn=           0           0           0           0           0           0           0           0           0           0
 AtZEff=   0.0000000   0.0000000   0.0000000   0.0000000   0.0000000   0.0000000   0.0000000   0.0000000   0.0000000   0.0000000
 NQMom=    0.0000000   0.0000000   0.0000000   0.0000000   0.0000000   0.0000000   0.0000000   0.0000000   0.0000000   0.0000000
 NMagM=    0.0000000   0.0000000   0.0000000   0.0000000   0.0000000   0.0000000   0.0000000   0.0000000   0.0000000   0.0000000
 AtZNuc=   8.0000000   6.0000000   6.0000000   6.0000000   6.0000000   6.0000000   6.0000000   8.0000000   8.0000000   8.0000000

  Atom        11          12          13          14          15          16          17          18          19          20
 IAtWgt=          16          16          12          12          16          12          12          16          12          12
 AtmWgt=  15.9949146  15.9949146  12.0000000  12.0000000  15.9949146  12.0000000  12.0000000  15.9949146  12.0000000  12.0000000
 NucSpn=           0           0           0           0           0           0           0           0           0           0
 AtZEff=   0.0000000   0.0000000   0.0000000   0.0000000   0.0000000   0.0000000   0.0000000   0.0000000   0.0000000   0.0000000
 NQMom=    0.0000000   0.0000000   0.0000000   0.0000000   0.0000000   0.0000000   0.0000000   0.0000000   0.0000000   0.0000000
 NMagM=    0.0000000   0.0000000   0.0000000   0.0000000   0.0000000   0.0000000   0.0000000   0.0000000   0.0000000   0.0000000
 AtZNuc=   8.0000000   8.0000000   6.0000000   6.0000000   8.0000000   6.0000000   6.0000000   8.0000000   6.0000000   6.0000000

  Atom        21          22          23          24          25          26          27          28          29          30
 IAtWgt=          16          16          12          12          12          12          16          12          12          16
 AtmWgt=  15.9949146  15.9949146  12.0000000  12.0000000  12.0000000  12.0000000  15.9949146  12.0000000  12.0000000  15.9949146
 NucSpn=           0           0           0           0           0           0           0           0           0           0
 AtZEff=   0.0000000   0.0000000   0.0000000   0.0000000   0.0000000   0.0000000   0.0000000   0.0000000   0.0000000   0.0000000
 NQMom=    0.0000000   0.0000000   0.0000000   0.0000000   0.0000000   0.0000000   0.0000000   0.0000000   0.0000000   0.0000000
 NMagM=    0.0000000   0.0000000   0.0000000   0.0000000   0.0000000   0.0000000   0.0000000   0.0000000   0.0000000   0.0000000
 AtZNuc=   8.0000000   8.0000000   6.0000000   6.0000000   6.0000000   6.0000000   8.0000000   6.0000000   6.0000000   8.0000000

  Atom        31          32          33          34          35          36          37          38          39          40
 IAtWgt=          16          12          12          12          12          12          14          16          16          16
 AtmWgt=  15.9949146  12.0000000  12.0000000  12.0000000  12.0000000  12.0000000  14.0030740  15.9949146  15.9949146  15.9949146
 NucSpn=           0           0           0           0           0           0           2           0           0           0
 AtZEff=   0.0000000   0.0000000   0.0000000   0.0000000   0.0000000   0.0000000   0.0000000   0.0000000   0.0000000   0.0000000
 NQMom=    0.0000000   0.0000000   0.0000000   0.0000000   0.0000000   0.0000000   2.0440000   0.0000000   0.0000000   0.0000000
 NMagM=    0.0000000   0.0000000   0.0000000   0.0000000   0.0000000   0.0000000   0.4037610   0.0000000   0.0000000   0.0000000
 AtZNuc=   8.0000000   6.0000000   6.0000000   6.0000000   6.0000000   6.0000000   7.0000000   8.0000000   8.0000000   8.0000000

  Atom        41          42          43          44          45          46          47          48          49          50
 IAtWgt=           1           1           1           1           1           1           1           1           1           1
 AtmWgt=   1.0078250   1.0078250   1.0078250   1.0078250   1.0078250   1.0078250   1.0078250   1.0078250   1.0078250   1.0078250
 NucSpn=           1           1           1           1           1           1           1           1           1           1
 AtZEff=   0.0000000   0.0000000   0.0000000   0.0000000   0.0000000   0.0000000   0.0000000   0.0000000   0.0000000   0.0000000
 NQMom=    0.0000000   0.0000000   0.0000000   0.0000000   0.0000000   0.0000000   0.0000000   0.0000000   0.0000000   0.0000000
 NMagM=    2.7928460   2.7928460   2.7928460   2.7928460   2.7928460   2.7928460   2.7928460   2.7928460   2.7928460   2.7928460
 AtZNuc=   1.0000000   1.0000000   1.0000000   1.0000000   1.0000000   1.0000000   1.0000000   1.0000000   1.0000000   1.0000000

  Atom        51          52          53          54          55          56          57          58          59          60
 IAtWgt=           1           1           1           1           1           1           1           1           1           1
 AtmWgt=   1.0078250   1.0078250   1.0078250   1.0078250   1.0078250   1.0078250   1.0078250   1.0078250   1.0078250   1.0078250
 NucSpn=           1           1           1           1           1           1           1           1           1           1
 AtZEff=   0.0000000   0.0000000   0.0000000   0.0000000   0.0000000   0.0000000   0.0000000   0.0000000   0.0000000   0.0000000
 NQMom=    0.0000000   0.0000000   0.0000000   0.0000000   0.0000000   0.0000000   0.0000000   0.0000000   0.0000000   0.0000000
 NMagM=    2.7928460   2.7928460   2.7928460   2.7928460   2.7928460   2.7928460   2.7928460   2.7928460   2.7928460   2.7928460
 AtZNuc=   1.0000000   1.0000000   1.0000000   1.0000000   1.0000000   1.0000000   1.0000000   1.0000000   1.0000000   1.0000000

  Atom        61          62          63          64          65          66          67          68          69          70
 IAtWgt=           1           1           1           1           1           1           1           1           1           1
 AtmWgt=   1.0078250   1.0078250   1.0078250   1.0078250   1.0078250   1.0078250   1.0078250   1.0078250   1.0078250   1.0078250
 NucSpn=           1           1           1           1           1           1           1           1           1           1
 AtZEff=   0.0000000   0.0000000   0.0000000   0.0000000   0.0000000   0.0000000   0.0000000   0.0000000   0.0000000   0.0000000
 NQMom=    0.0000000   0.0000000   0.0000000   0.0000000   0.0000000   0.0000000   0.0000000   0.0000000   0.0000000   0.0000000
 NMagM=    2.7928460   2.7928460   2.7928460   2.7928460   2.7928460   2.7928460   2.7928460   2.7928460   2.7928460   2.7928460
 AtZNuc=   1.0000000   1.0000000   1.0000000   1.0000000   1.0000000   1.0000000   1.0000000   1.0000000   1.0000000   1.0000000

  Atom        71          72          73          74          75          76          77          78          79          80
 IAtWgt=           1           1           1           1           1           1           1           1           1           1
 AtmWgt=   1.0078250   1.0078250   1.0078250   1.0078250   1.0078250   1.0078250   1.0078250   1.0078250   1.0078250   1.0078250
 NucSpn=           1           1           1           1           1           1           1           1           1           1
 AtZEff=   0.0000000   0.0000000   0.0000000   0.0000000   0.0000000   0.0000000   0.0000000   0.0000000   0.0000000   0.0000000
 NQMom=    0.0000000   0.0000000   0.0000000   0.0000000   0.0000000   0.0000000   0.0000000   0.0000000   0.0000000   0.0000000
 NMagM=    2.7928460   2.7928460   2.7928460   2.7928460   2.7928460   2.7928460   2.7928460   2.7928460   2.7928460   2.7928460
 AtZNuc=   1.0000000   1.0000000   1.0000000   1.0000000   1.0000000   1.0000000   1.0000000   1.0000000   1.0000000   1.0000000

  Atom        81          82          83          84
 IAtWgt=           1           1           1           1
 AtmWgt=   1.0078250   1.0078250   1.0078250   1.0078250
 NucSpn=           1           1           1           1
 AtZEff=   0.0000000   0.0000000   0.0000000   0.0000000
 NQMom=    0.0000000   0.0000000   0.0000000   0.0000000
 NMagM=    2.7928460   2.7928460   2.7928460   2.7928460
 AtZNuc=   1.0000000   1.0000000   1.0000000   1.0000000
 Leave Link  101 at Sun May 22 04:31:50 2016, MaxMem= 10737418240 cpu:         4.5
 (Enter /share/apps//g09/l103.exe)

 GradGradGradGradGradGradGradGradGradGradGradGradGradGradGradGradGradGrad
 Berny optimization.
 Initialization pass.
                           ----------------------------
                           !    Initial Parameters    !
                           ! (Angstroms and Degrees)  !
 --------------------------                            --------------------------
 ! Name  Definition              Value          Derivative Info.                !
 --------------------------------------------------------------------------------
 ! R1    R(1,2)                  1.4389         estimate D2E/DX2                !
 ! R2    R(1,6)                  1.4446         estimate D2E/DX2                !
 ! R3    R(2,3)                  1.5289         estimate D2E/DX2                !
 ! R4    R(2,12)                 1.3975         estimate D2E/DX2                !
 ! R5    R(2,41)                 1.1105         estimate D2E/DX2                !
 ! R6    R(3,4)                  1.526          estimate D2E/DX2                !
 ! R7    R(3,11)                 1.4203         estimate D2E/DX2                !
 ! R8    R(3,42)                 1.1057         estimate D2E/DX2                !
 ! R9    R(4,5)                  1.5332         estimate D2E/DX2                !
 ! R10   R(4,10)                 1.4262         estimate D2E/DX2                !
 ! R11   R(4,43)                 1.108          estimate D2E/DX2                !
 ! R12   R(5,6)                  1.5374         estimate D2E/DX2                !
 ! R13   R(5,9)                  1.4358         estimate D2E/DX2                !
 ! R14   R(5,44)                 1.1061         estimate D2E/DX2                !
 ! R15   R(6,7)                  1.5311         estimate D2E/DX2                !
 ! R16   R(6,45)                 1.1087         estimate D2E/DX2                !
 ! R17   R(7,8)                  1.4342         estimate D2E/DX2                !
 ! R18   R(7,46)                 1.1037         estimate D2E/DX2                !
 ! R19   R(7,47)                 1.0992         estimate D2E/DX2                !
 ! R20   R(8,48)                 0.9867         estimate D2E/DX2                !
 ! R21   R(9,49)                 0.9788         estimate D2E/DX2                !
 ! R22   R(10,50)                0.9755         estimate D2E/DX2                !
 ! R23   R(11,51)                0.9825         estimate D2E/DX2                !
 ! R24   R(12,13)                1.4373         estimate D2E/DX2                !
 ! R25   R(13,14)                1.5346         estimate D2E/DX2                !
 ! R26   R(13,19)                1.5393         estimate D2E/DX2                !
 ! R27   R(13,52)                1.1041         estimate D2E/DX2                !
 ! R28   R(14,15)                1.4444         estimate D2E/DX2                !
 ! R29   R(14,16)                1.5271         estimate D2E/DX2                !
 ! R30   R(14,53)                1.1036         estimate D2E/DX2                !
 ! R31   R(15,54)                0.973          estimate D2E/DX2                !
 ! R32   R(16,17)                1.5442         estimate D2E/DX2                !
 ! R33   R(16,40)                1.429          estimate D2E/DX2                !
 ! R34   R(16,55)                1.1027         estimate D2E/DX2                !
 ! R35   R(17,18)                1.4343         estimate D2E/DX2                !
 ! R36   R(17,22)                1.3976         estimate D2E/DX2                !
 ! R37   R(17,56)                1.1065         estimate D2E/DX2                !
 ! R38   R(18,19)                1.4247         estimate D2E/DX2                !
 ! R39   R(19,20)                1.5378         estimate D2E/DX2                !
 ! R40   R(19,57)                1.1121         estimate D2E/DX2                !
 ! R41   R(20,21)                1.4262         estimate D2E/DX2                !
 ! R42   R(20,58)                1.0985         estimate D2E/DX2                !
 ! R43   R(20,59)                1.1046         estimate D2E/DX2                !
 ! R44   R(21,60)                0.9876         estimate D2E/DX2                !
 ! R45   R(22,23)                1.4507         estimate D2E/DX2                !
 ! R46   R(23,24)                1.5337         estimate D2E/DX2                !
 ! R47   R(23,28)                1.5404         estimate D2E/DX2                !
 ! R48   R(23,61)                1.1019         estimate D2E/DX2                !
 ! R49   R(24,25)                1.5327         estimate D2E/DX2                !
 ! R50   R(24,39)                1.4269         estimate D2E/DX2                !
 ! R51   R(24,62)                1.1082         estimate D2E/DX2                !
 ! R52   R(25,26)                1.5272         estimate D2E/DX2                !
 ! R53   R(25,38)                1.4169         estimate D2E/DX2                !
 ! R54   R(25,63)                1.1104         estimate D2E/DX2                !
 ! R55   R(26,27)                1.4485         estimate D2E/DX2                !
 ! R56   R(26,31)                1.3863         estimate D2E/DX2                !
 ! R57   R(26,64)                1.1105         estimate D2E/DX2                !
 ! R58   R(27,28)                1.4347         estimate D2E/DX2                !
 ! R59   R(28,29)                1.5262         estimate D2E/DX2                !
 ! R60   R(28,65)                1.1095         estimate D2E/DX2                !
 ! R61   R(29,30)                1.4337         estimate D2E/DX2                !
 ! R62   R(29,66)                1.1008         estimate D2E/DX2                !
 ! R63   R(29,67)                1.0978         estimate D2E/DX2                !
 ! R64   R(30,68)                0.9953         estimate D2E/DX2                !
 ! R65   R(31,32)                1.4483         estimate D2E/DX2                !
 ! R66   R(32,33)                1.5248         estimate D2E/DX2                !
 ! R67   R(32,69)                1.1018         estimate D2E/DX2                !
 ! R68   R(32,70)                1.1027         estimate D2E/DX2                !
 ! R69   R(33,34)                1.5356         estimate D2E/DX2                !
 ! R70   R(33,71)                1.1023         estimate D2E/DX2                !
 ! R71   R(33,72)                1.1005         estimate D2E/DX2                !
 ! R72   R(34,35)                1.5384         estimate D2E/DX2                !
 ! R73   R(34,73)                1.1012         estimate D2E/DX2                !
 ! R74   R(34,74)                1.1032         estimate D2E/DX2                !
 ! R75   R(35,36)                1.5257         estimate D2E/DX2                !
 ! R76   R(35,75)                1.1008         estimate D2E/DX2                !
 ! R77   R(35,76)                1.1005         estimate D2E/DX2                !
 ! R78   R(36,37)                1.5053         estimate D2E/DX2                !
 ! R79   R(36,77)                1.0993         estimate D2E/DX2                !
 ! R80   R(36,78)                1.0979         estimate D2E/DX2                !
 ! R81   R(37,79)                1.0287         estimate D2E/DX2                !
 ! R82   R(37,80)                1.0694         estimate D2E/DX2                !
 ! R83   R(37,81)                1.0512         estimate D2E/DX2                !
 ! R84   R(38,82)                0.976          estimate D2E/DX2                !
 ! R85   R(39,83)                0.981          estimate D2E/DX2                !
 ! R86   R(40,84)                0.9766         estimate D2E/DX2                !
 ! A1    A(2,1,6)              114.8936         estimate D2E/DX2                !
 ! A2    A(1,2,3)              110.5596         estimate D2E/DX2                !
 ! A3    A(1,2,12)             104.985          estimate D2E/DX2                !
 ! A4    A(1,2,41)             110.4            estimate D2E/DX2                !
 ! A5    A(3,2,12)             109.0023         estimate D2E/DX2                !
 ! A6    A(3,2,41)             110.6554         estimate D2E/DX2                !
 ! A7    A(12,2,41)            111.095          estimate D2E/DX2                !
 ! A8    A(2,3,4)              109.791          estimate D2E/DX2                !
 ! A9    A(2,3,11)             110.9973         estimate D2E/DX2                !
 ! A10   A(2,3,42)             107.1789         estimate D2E/DX2                !
 ! A11   A(4,3,11)             107.4634         estimate D2E/DX2                !
 ! A12   A(4,3,42)             109.6948         estimate D2E/DX2                !
 ! A13   A(11,3,42)            111.7194         estimate D2E/DX2                !
 ! A14   A(3,4,5)              110.6798         estimate D2E/DX2                !
 ! A15   A(3,4,10)             111.9671         estimate D2E/DX2                !
 ! A16   A(3,4,43)             108.613          estimate D2E/DX2                !
 ! A17   A(5,4,10)             106.175          estimate D2E/DX2                !
 ! A18   A(5,4,43)             109.0831         estimate D2E/DX2                !
 ! A19   A(10,4,43)            110.2823         estimate D2E/DX2                !
 ! A20   A(4,5,6)              111.6665         estimate D2E/DX2                !
 ! A21   A(4,5,9)              109.816          estimate D2E/DX2                !
 ! A22   A(4,5,44)             108.5732         estimate D2E/DX2                !
 ! A23   A(6,5,9)              109.9661         estimate D2E/DX2                !
 ! A24   A(6,5,44)             107.3619         estimate D2E/DX2                !
 ! A25   A(9,5,44)             109.393          estimate D2E/DX2                !
 ! A26   A(1,6,5)              112.7752         estimate D2E/DX2                !
 ! A27   A(1,6,7)              106.7228         estimate D2E/DX2                !
 ! A28   A(1,6,45)             109.3938         estimate D2E/DX2                !
 ! A29   A(5,6,7)              113.4143         estimate D2E/DX2                !
 ! A30   A(5,6,45)             107.0304         estimate D2E/DX2                !
 ! A31   A(7,6,45)             107.3458         estimate D2E/DX2                !
 ! A32   A(6,7,8)              113.6005         estimate D2E/DX2                !
 ! A33   A(6,7,46)             108.5056         estimate D2E/DX2                !
 ! A34   A(6,7,47)             109.393          estimate D2E/DX2                !
 ! A35   A(8,7,46)             110.3574         estimate D2E/DX2                !
 ! A36   A(8,7,47)             106.9455         estimate D2E/DX2                !
 ! A37   A(46,7,47)            107.886          estimate D2E/DX2                !
 ! A38   A(7,8,48)             105.4846         estimate D2E/DX2                !
 ! A39   A(5,9,49)             106.0706         estimate D2E/DX2                !
 ! A40   A(4,10,50)            107.3736         estimate D2E/DX2                !
 ! A41   A(3,11,51)            108.048          estimate D2E/DX2                !
 ! A42   A(2,12,13)            119.4925         estimate D2E/DX2                !
 ! A43   A(12,13,14)           106.204          estimate D2E/DX2                !
 ! A44   A(12,13,19)           111.9105         estimate D2E/DX2                !
 ! A45   A(12,13,52)           110.3039         estimate D2E/DX2                !
 ! A46   A(14,13,19)           108.16           estimate D2E/DX2                !
 ! A47   A(14,13,52)           110.3705         estimate D2E/DX2                !
 ! A48   A(19,13,52)           109.8139         estimate D2E/DX2                !
 ! A49   A(13,14,15)           112.4763         estimate D2E/DX2                !
 ! A50   A(13,14,16)           108.1912         estimate D2E/DX2                !
 ! A51   A(13,14,53)           109.5222         estimate D2E/DX2                !
 ! A52   A(15,14,16)           107.2134         estimate D2E/DX2                !
 ! A53   A(15,14,53)           109.5831         estimate D2E/DX2                !
 ! A54   A(16,14,53)           109.7994         estimate D2E/DX2                !
 ! A55   A(14,15,54)           108.6995         estimate D2E/DX2                !
 ! A56   A(14,16,17)           110.9163         estimate D2E/DX2                !
 ! A57   A(14,16,40)           112.0305         estimate D2E/DX2                !
 ! A58   A(14,16,55)           107.5745         estimate D2E/DX2                !
 ! A59   A(17,16,40)           106.8568         estimate D2E/DX2                !
 ! A60   A(17,16,55)           109.297          estimate D2E/DX2                !
 ! A61   A(40,16,55)           110.1592         estimate D2E/DX2                !
 ! A62   A(16,17,18)           111.4844         estimate D2E/DX2                !
 ! A63   A(16,17,22)           113.6796         estimate D2E/DX2                !
 ! A64   A(16,17,56)           108.9899         estimate D2E/DX2                !
 ! A65   A(18,17,22)           107.2314         estimate D2E/DX2                !
 ! A66   A(18,17,56)           110.6065         estimate D2E/DX2                !
 ! A67   A(22,17,56)           104.6374         estimate D2E/DX2                !
 ! A68   A(17,18,19)           116.9366         estimate D2E/DX2                !
 ! A69   A(13,19,18)           111.1606         estimate D2E/DX2                !
 ! A70   A(13,19,20)           115.8676         estimate D2E/DX2                !
 ! A71   A(13,19,57)           106.4927         estimate D2E/DX2                !
 ! A72   A(18,19,20)           106.3627         estimate D2E/DX2                !
 ! A73   A(18,19,57)           110.638          estimate D2E/DX2                !
 ! A74   A(20,19,57)           106.2177         estimate D2E/DX2                !
 ! A75   A(19,20,21)           114.8282         estimate D2E/DX2                !
 ! A76   A(19,20,58)           108.1932         estimate D2E/DX2                !
 ! A77   A(19,20,59)           109.1506         estimate D2E/DX2                !
 ! A78   A(21,20,58)           105.7032         estimate D2E/DX2                !
 ! A79   A(21,20,59)           111.1748         estimate D2E/DX2                !
 ! A80   A(58,20,59)           107.4531         estimate D2E/DX2                !
 ! A81   A(20,21,60)           109.7481         estimate D2E/DX2                !
 ! A82   A(17,22,23)           116.8975         estimate D2E/DX2                !
 ! A83   A(22,23,24)           108.1818         estimate D2E/DX2                !
 ! A84   A(22,23,28)           108.7568         estimate D2E/DX2                !
 ! A85   A(22,23,61)           110.6889         estimate D2E/DX2                !
 ! A86   A(24,23,28)           109.0831         estimate D2E/DX2                !
 ! A87   A(24,23,61)           110.9138         estimate D2E/DX2                !
 ! A88   A(28,23,61)           109.1715         estimate D2E/DX2                !
 ! A89   A(23,24,25)           111.9587         estimate D2E/DX2                !
 ! A90   A(23,24,39)           113.4878         estimate D2E/DX2                !
 ! A91   A(23,24,62)           107.4712         estimate D2E/DX2                !
 ! A92   A(25,24,39)           105.6547         estimate D2E/DX2                !
 ! A93   A(25,24,62)           108.2811         estimate D2E/DX2                !
 ! A94   A(39,24,62)           109.8933         estimate D2E/DX2                !
 ! A95   A(24,25,26)           110.0961         estimate D2E/DX2                !
 ! A96   A(24,25,38)           111.0106         estimate D2E/DX2                !
 ! A97   A(24,25,63)           108.5769         estimate D2E/DX2                !
 ! A98   A(26,25,38)           108.6719         estimate D2E/DX2                !
 ! A99   A(26,25,63)           107.4079         estimate D2E/DX2                !
 ! A100  A(38,25,63)           111.0121         estimate D2E/DX2                !
 ! A101  A(25,26,27)           109.3239         estimate D2E/DX2                !
 ! A102  A(25,26,31)           109.4026         estimate D2E/DX2                !
 ! A103  A(25,26,64)           110.3921         estimate D2E/DX2                !
 ! A104  A(27,26,31)           106.8521         estimate D2E/DX2                !
 ! A105  A(27,26,64)           109.0009         estimate D2E/DX2                !
 ! A106  A(31,26,64)           111.7804         estimate D2E/DX2                !
 ! A107  A(26,27,28)           114.2725         estimate D2E/DX2                !
 ! A108  A(23,28,27)           108.7639         estimate D2E/DX2                !
 ! A109  A(23,28,29)           115.9989         estimate D2E/DX2                !
 ! A110  A(23,28,65)           108.1127         estimate D2E/DX2                !
 ! A111  A(27,28,29)           106.5928         estimate D2E/DX2                !
 ! A112  A(27,28,65)           110.4087         estimate D2E/DX2                !
 ! A113  A(29,28,65)           106.9166         estimate D2E/DX2                !
 ! A114  A(28,29,30)           113.0333         estimate D2E/DX2                !
 ! A115  A(28,29,66)           107.9505         estimate D2E/DX2                !
 ! A116  A(28,29,67)           109.4165         estimate D2E/DX2                !
 ! A117  A(30,29,66)           107.265          estimate D2E/DX2                !
 ! A118  A(30,29,67)           110.4362         estimate D2E/DX2                !
 ! A119  A(66,29,67)           108.5986         estimate D2E/DX2                !
 ! A120  A(29,30,68)           112.2496         estimate D2E/DX2                !
 ! A121  A(26,31,32)           113.8716         estimate D2E/DX2                !
 ! A122  A(31,32,33)           108.8202         estimate D2E/DX2                !
 ! A123  A(31,32,69)           109.2633         estimate D2E/DX2                !
 ! A124  A(31,32,70)           108.8727         estimate D2E/DX2                !
 ! A125  A(33,32,69)           111.0006         estimate D2E/DX2                !
 ! A126  A(33,32,70)           110.5732         estimate D2E/DX2                !
 ! A127  A(69,32,70)           108.2752         estimate D2E/DX2                !
 ! A128  A(32,33,34)           113.849          estimate D2E/DX2                !
 ! A129  A(32,33,71)           107.7655         estimate D2E/DX2                !
 ! A130  A(32,33,72)           109.1741         estimate D2E/DX2                !
 ! A131  A(34,33,71)           110.7698         estimate D2E/DX2                !
 ! A132  A(34,33,72)           108.5498         estimate D2E/DX2                !
 ! A133  A(71,33,72)           106.4694         estimate D2E/DX2                !
 ! A134  A(33,34,35)           115.1205         estimate D2E/DX2                !
 ! A135  A(33,34,73)           109.1542         estimate D2E/DX2                !
 ! A136  A(33,34,74)           106.8065         estimate D2E/DX2                !
 ! A137  A(35,34,73)           109.1482         estimate D2E/DX2                !
 ! A138  A(35,34,74)           110.5373         estimate D2E/DX2                !
 ! A139  A(73,34,74)           105.6358         estimate D2E/DX2                !
 ! A140  A(34,35,36)           112.8193         estimate D2E/DX2                !
 ! A141  A(34,35,75)           111.0824         estimate D2E/DX2                !
 ! A142  A(34,35,76)           109.9883         estimate D2E/DX2                !
 ! A143  A(36,35,75)           108.1859         estimate D2E/DX2                !
 ! A144  A(36,35,76)           108.1747         estimate D2E/DX2                !
 ! A145  A(75,35,76)           106.3364         estimate D2E/DX2                !
 ! A146  A(35,36,37)           111.1665         estimate D2E/DX2                !
 ! A147  A(35,36,77)           111.6936         estimate D2E/DX2                !
 ! A148  A(35,36,78)           111.759          estimate D2E/DX2                !
 ! A149  A(37,36,77)           107.4729         estimate D2E/DX2                !
 ! A150  A(37,36,78)           106.3786         estimate D2E/DX2                !
 ! A151  A(77,36,78)           108.1141         estimate D2E/DX2                !
 ! A152  A(36,37,79)           110.4321         estimate D2E/DX2                !
 ! A153  A(36,37,80)           110.9865         estimate D2E/DX2                !
 ! A154  A(36,37,81)           110.3689         estimate D2E/DX2                !
 ! A155  A(79,37,80)           106.2451         estimate D2E/DX2                !
 ! A156  A(79,37,81)           109.1862         estimate D2E/DX2                !
 ! A157  A(80,37,81)           109.5247         estimate D2E/DX2                !
 ! A158  A(25,38,82)           106.1647         estimate D2E/DX2                !
 ! A159  A(24,39,83)           108.6449         estimate D2E/DX2                !
 ! A160  A(16,40,84)           106.2656         estimate D2E/DX2                !
 ! D1    D(6,1,2,3)            -57.8289         estimate D2E/DX2                !
 ! D2    D(6,1,2,12)          -175.2414         estimate D2E/DX2                !
 ! D3    D(6,1,2,41)            64.9528         estimate D2E/DX2                !
 ! D4    D(2,1,6,5)             52.6885         estimate D2E/DX2                !
 ! D5    D(2,1,6,7)            177.8691         estimate D2E/DX2                !
 ! D6    D(2,1,6,45)           -66.2948         estimate D2E/DX2                !
 ! D7    D(1,2,3,4)             58.3835         estimate D2E/DX2                !
 ! D8    D(1,2,3,11)           177.0514         estimate D2E/DX2                !
 ! D9    D(1,2,3,42)           -60.7033         estimate D2E/DX2                !
 ! D10   D(12,2,3,4)           173.2962         estimate D2E/DX2                !
 ! D11   D(12,2,3,11)          -68.036          estimate D2E/DX2                !
 ! D12   D(12,2,3,42)           54.2093         estimate D2E/DX2                !
 ! D13   D(41,2,3,4)           -64.2493         estimate D2E/DX2                !
 ! D14   D(41,2,3,11)           54.4185         estimate D2E/DX2                !
 ! D15   D(41,2,3,42)          176.6638         estimate D2E/DX2                !
 ! D16   D(1,2,12,13)         -119.6503         estimate D2E/DX2                !
 ! D17   D(3,2,12,13)          121.8812         estimate D2E/DX2                !
 ! D18   D(41,2,12,13)          -0.3083         estimate D2E/DX2                !
 ! D19   D(2,3,4,5)            -55.4341         estimate D2E/DX2                !
 ! D20   D(2,3,4,10)          -173.6841         estimate D2E/DX2                !
 ! D21   D(2,3,4,43)            64.2929         estimate D2E/DX2                !
 ! D22   D(11,3,4,5)          -176.2595         estimate D2E/DX2                !
 ! D23   D(11,3,4,10)           65.4905         estimate D2E/DX2                !
 ! D24   D(11,3,4,43)          -56.5325         estimate D2E/DX2                !
 ! D25   D(42,3,4,5)            62.0955         estimate D2E/DX2                !
 ! D26   D(42,3,4,10)          -56.1546         estimate D2E/DX2                !
 ! D27   D(42,3,4,43)         -178.1775         estimate D2E/DX2                !
 ! D28   D(2,3,11,51)           60.8465         estimate D2E/DX2                !
 ! D29   D(4,3,11,51)         -179.0911         estimate D2E/DX2                !
 ! D30   D(42,3,11,51)         -58.7195         estimate D2E/DX2                !
 ! D31   D(3,4,5,6)             50.3627         estimate D2E/DX2                !
 ! D32   D(3,4,5,9)            -71.8932         estimate D2E/DX2                !
 ! D33   D(3,4,5,44)           168.5414         estimate D2E/DX2                !
 ! D34   D(10,4,5,6)           172.0849         estimate D2E/DX2                !
 ! D35   D(10,4,5,9)            49.829          estimate D2E/DX2                !
 ! D36   D(10,4,5,44)          -69.7364         estimate D2E/DX2                !
 ! D37   D(43,4,5,6)           -69.0816         estimate D2E/DX2                !
 ! D38   D(43,4,5,9)           168.6625         estimate D2E/DX2                !
 ! D39   D(43,4,5,44)           49.097          estimate D2E/DX2                !
 ! D40   D(3,4,10,50)          -46.8229         estimate D2E/DX2                !
 ! D41   D(5,4,10,50)         -167.7189         estimate D2E/DX2                !
 ! D42   D(43,4,10,50)          74.2398         estimate D2E/DX2                !
 ! D43   D(4,5,6,1)            -48.0211         estimate D2E/DX2                !
 ! D44   D(4,5,6,7)           -169.4801         estimate D2E/DX2                !
 ! D45   D(4,5,6,45)            72.3274         estimate D2E/DX2                !
 ! D46   D(9,5,6,1)             74.1485         estimate D2E/DX2                !
 ! D47   D(9,5,6,7)            -47.3104         estimate D2E/DX2                !
 ! D48   D(9,5,6,45)          -165.5029         estimate D2E/DX2                !
 ! D49   D(44,5,6,1)          -166.9221         estimate D2E/DX2                !
 ! D50   D(44,5,6,7)            71.6189         estimate D2E/DX2                !
 ! D51   D(44,5,6,45)          -46.5736         estimate D2E/DX2                !
 ! D52   D(4,5,9,49)           -41.8131         estimate D2E/DX2                !
 ! D53   D(6,5,9,49)          -165.0738         estimate D2E/DX2                !
 ! D54   D(44,5,9,49)           77.25           estimate D2E/DX2                !
 ! D55   D(1,6,7,8)            -61.6101         estimate D2E/DX2                !
 ! D56   D(1,6,7,46)           175.2586         estimate D2E/DX2                !
 ! D57   D(1,6,7,47)            57.7958         estimate D2E/DX2                !
 ! D58   D(5,6,7,8)             63.1811         estimate D2E/DX2                !
 ! D59   D(5,6,7,46)           -59.9502         estimate D2E/DX2                !
 ! D60   D(5,6,7,47)          -177.413          estimate D2E/DX2                !
 ! D61   D(45,6,7,8)          -178.8092         estimate D2E/DX2                !
 ! D62   D(45,6,7,46)           58.0595         estimate D2E/DX2                !
 ! D63   D(45,6,7,47)          -59.4033         estimate D2E/DX2                !
 ! D64   D(6,7,8,48)           -46.3624         estimate D2E/DX2                !
 ! D65   D(46,7,8,48)           75.7482         estimate D2E/DX2                !
 ! D66   D(47,7,8,48)         -167.1541         estimate D2E/DX2                !
 ! D67   D(2,12,13,14)        -132.6478         estimate D2E/DX2                !
 ! D68   D(2,12,13,19)         109.5307         estimate D2E/DX2                !
 ! D69   D(2,12,13,52)         -13.0424         estimate D2E/DX2                !
 ! D70   D(12,13,14,15)         58.2265         estimate D2E/DX2                !
 ! D71   D(12,13,14,16)        -60.0069         estimate D2E/DX2                !
 ! D72   D(12,13,14,53)       -179.6639         estimate D2E/DX2                !
 ! D73   D(19,13,14,15)        178.5105         estimate D2E/DX2                !
 ! D74   D(19,13,14,16)         60.2771         estimate D2E/DX2                !
 ! D75   D(19,13,14,53)        -59.3799         estimate D2E/DX2                !
 ! D76   D(52,13,14,15)        -61.3354         estimate D2E/DX2                !
 ! D77   D(52,13,14,16)       -179.5688         estimate D2E/DX2                !
 ! D78   D(52,13,14,53)         60.7741         estimate D2E/DX2                !
 ! D79   D(12,13,19,18)         58.4607         estimate D2E/DX2                !
 ! D80   D(12,13,19,20)        -63.1005         estimate D2E/DX2                !
 ! D81   D(12,13,19,57)        179.0426         estimate D2E/DX2                !
 ! D82   D(14,13,19,18)        -58.1855         estimate D2E/DX2                !
 ! D83   D(14,13,19,20)       -179.7468         estimate D2E/DX2                !
 ! D84   D(14,13,19,57)         62.3963         estimate D2E/DX2                !
 ! D85   D(52,13,19,18)       -178.6876         estimate D2E/DX2                !
 ! D86   D(52,13,19,20)         59.7512         estimate D2E/DX2                !
 ! D87   D(52,13,19,57)        -58.1057         estimate D2E/DX2                !
 ! D88   D(13,14,15,54)         98.427          estimate D2E/DX2                !
 ! D89   D(16,14,15,54)       -142.7652         estimate D2E/DX2                !
 ! D90   D(53,14,15,54)        -23.648          estimate D2E/DX2                !
 ! D91   D(13,14,16,17)        -57.4759         estimate D2E/DX2                !
 ! D92   D(13,14,16,40)       -176.7863         estimate D2E/DX2                !
 ! D93   D(13,14,16,55)         62.0061         estimate D2E/DX2                !
 ! D94   D(15,14,16,17)       -179.0157         estimate D2E/DX2                !
 ! D95   D(15,14,16,40)         61.6739         estimate D2E/DX2                !
 ! D96   D(15,14,16,55)        -59.5337         estimate D2E/DX2                !
 ! D97   D(53,14,16,17)         62.0066         estimate D2E/DX2                !
 ! D98   D(53,14,16,40)        -57.3039         estimate D2E/DX2                !
 ! D99   D(53,14,16,55)       -178.5115         estimate D2E/DX2                !
 ! D100  D(14,16,17,18)         51.0565         estimate D2E/DX2                !
 ! D101  D(14,16,17,22)        172.4041         estimate D2E/DX2                !
 ! D102  D(14,16,17,56)        -71.3176         estimate D2E/DX2                !
 ! D103  D(40,16,17,18)        173.4272         estimate D2E/DX2                !
 ! D104  D(40,16,17,22)        -65.2253         estimate D2E/DX2                !
 ! D105  D(40,16,17,56)         51.053          estimate D2E/DX2                !
 ! D106  D(55,16,17,18)        -67.3879         estimate D2E/DX2                !
 ! D107  D(55,16,17,22)         53.9596         estimate D2E/DX2                !
 ! D108  D(55,16,17,56)        170.2379         estimate D2E/DX2                !
 ! D109  D(14,16,40,84)        -50.2915         estimate D2E/DX2                !
 ! D110  D(17,16,40,84)       -171.9612         estimate D2E/DX2                !
 ! D111  D(55,16,40,84)         69.4139         estimate D2E/DX2                !
 ! D112  D(16,17,18,19)        -50.3337         estimate D2E/DX2                !
 ! D113  D(22,17,18,19)       -175.3611         estimate D2E/DX2                !
 ! D114  D(56,17,18,19)         71.1058         estimate D2E/DX2                !
 ! D115  D(16,17,22,23)        -63.0332         estimate D2E/DX2                !
 ! D116  D(18,17,22,23)         60.6588         estimate D2E/DX2                !
 ! D117  D(56,17,22,23)        178.1655         estimate D2E/DX2                !
 ! D118  D(17,18,19,13)         54.5773         estimate D2E/DX2                !
 ! D119  D(17,18,19,20)       -178.4642         estimate D2E/DX2                !
 ! D120  D(17,18,19,57)        -63.5273         estimate D2E/DX2                !
 ! D121  D(13,19,20,21)         76.8979         estimate D2E/DX2                !
 ! D122  D(13,19,20,58)       -165.3294         estimate D2E/DX2                !
 ! D123  D(13,19,20,59)        -48.6925         estimate D2E/DX2                !
 ! D124  D(18,19,20,21)        -47.1909         estimate D2E/DX2                !
 ! D125  D(18,19,20,58)         70.5818         estimate D2E/DX2                !
 ! D126  D(18,19,20,59)       -172.7813         estimate D2E/DX2                !
 ! D127  D(57,19,20,21)       -165.0931         estimate D2E/DX2                !
 ! D128  D(57,19,20,58)        -47.3203         estimate D2E/DX2                !
 ! D129  D(57,19,20,59)         69.3165         estimate D2E/DX2                !
 ! D130  D(19,20,21,60)        -67.5251         estimate D2E/DX2                !
 ! D131  D(58,20,21,60)        173.3028         estimate D2E/DX2                !
 ! D132  D(59,20,21,60)         57.0061         estimate D2E/DX2                !
 ! D133  D(17,22,23,24)        118.3165         estimate D2E/DX2                !
 ! D134  D(17,22,23,28)       -123.3274         estimate D2E/DX2                !
 ! D135  D(17,22,23,61)         -3.3957         estimate D2E/DX2                !
 ! D136  D(22,23,24,25)        171.6489         estimate D2E/DX2                !
 ! D137  D(22,23,24,39)        -68.8501         estimate D2E/DX2                !
 ! D138  D(22,23,24,62)         52.8672         estimate D2E/DX2                !
 ! D139  D(28,23,24,25)         53.5009         estimate D2E/DX2                !
 ! D140  D(28,23,24,39)        173.0019         estimate D2E/DX2                !
 ! D141  D(28,23,24,62)        -65.2809         estimate D2E/DX2                !
 ! D142  D(61,23,24,25)        -66.7776         estimate D2E/DX2                !
 ! D143  D(61,23,24,39)         52.7234         estimate D2E/DX2                !
 ! D144  D(61,23,24,62)        174.4407         estimate D2E/DX2                !
 ! D145  D(22,23,28,27)       -174.5024         estimate D2E/DX2                !
 ! D146  D(22,23,28,29)         65.4155         estimate D2E/DX2                !
 ! D147  D(22,23,28,65)        -54.5942         estimate D2E/DX2                !
 ! D148  D(24,23,28,27)        -56.716          estimate D2E/DX2                !
 ! D149  D(24,23,28,29)       -176.7982         estimate D2E/DX2                !
 ! D150  D(24,23,28,65)         63.1921         estimate D2E/DX2                !
 ! D151  D(61,23,28,27)         64.6282         estimate D2E/DX2                !
 ! D152  D(61,23,28,29)        -55.4539         estimate D2E/DX2                !
 ! D153  D(61,23,28,65)       -175.4636         estimate D2E/DX2                !
 ! D154  D(23,24,25,26)        -52.5599         estimate D2E/DX2                !
 ! D155  D(23,24,25,38)       -172.9382         estimate D2E/DX2                !
 ! D156  D(23,24,25,63)         64.7654         estimate D2E/DX2                !
 ! D157  D(39,24,25,26)       -176.5653         estimate D2E/DX2                !
 ! D158  D(39,24,25,38)         63.0565         estimate D2E/DX2                !
 ! D159  D(39,24,25,63)        -59.24           estimate D2E/DX2                !
 ! D160  D(62,24,25,26)         65.7415         estimate D2E/DX2                !
 ! D161  D(62,24,25,38)        -54.6367         estimate D2E/DX2                !
 ! D162  D(62,24,25,63)       -176.9331         estimate D2E/DX2                !
 ! D163  D(23,24,39,83)         64.1757         estimate D2E/DX2                !
 ! D164  D(25,24,39,83)       -172.7857         estimate D2E/DX2                !
 ! D165  D(62,24,39,83)        -56.1804         estimate D2E/DX2                !
 ! D166  D(24,25,26,27)         54.1337         estimate D2E/DX2                !
 ! D167  D(24,25,26,31)        170.8269         estimate D2E/DX2                !
 ! D168  D(24,25,26,64)        -65.7633         estimate D2E/DX2                !
 ! D169  D(38,25,26,27)        175.9122         estimate D2E/DX2                !
 ! D170  D(38,25,26,31)        -67.3946         estimate D2E/DX2                !
 ! D171  D(38,25,26,64)         56.0152         estimate D2E/DX2                !
 ! D172  D(63,25,26,27)        -63.9151         estimate D2E/DX2                !
 ! D173  D(63,25,26,31)         52.7781         estimate D2E/DX2                !
 ! D174  D(63,25,26,64)        176.1878         estimate D2E/DX2                !
 ! D175  D(24,25,38,82)        -45.8208         estimate D2E/DX2                !
 ! D176  D(26,25,38,82)       -167.0397         estimate D2E/DX2                !
 ! D177  D(63,25,38,82)         75.0499         estimate D2E/DX2                !
 ! D178  D(25,26,27,28)        -62.0754         estimate D2E/DX2                !
 ! D179  D(31,26,27,28)        179.6269         estimate D2E/DX2                !
 ! D180  D(64,26,27,28)         58.6732         estimate D2E/DX2                !
 ! D181  D(25,26,31,32)        163.8299         estimate D2E/DX2                !
 ! D182  D(27,26,31,32)        -77.9239         estimate D2E/DX2                !
 ! D183  D(64,26,31,32)         41.2446         estimate D2E/DX2                !
 ! D184  D(26,27,28,23)         63.3414         estimate D2E/DX2                !
 ! D185  D(26,27,28,29)       -170.9047         estimate D2E/DX2                !
 ! D186  D(26,27,28,65)        -55.1306         estimate D2E/DX2                !
 ! D187  D(23,28,29,30)         68.4688         estimate D2E/DX2                !
 ! D188  D(23,28,29,66)       -173.0584         estimate D2E/DX2                !
 ! D189  D(23,28,29,67)        -55.046          estimate D2E/DX2                !
 ! D190  D(27,28,29,30)        -52.7805         estimate D2E/DX2                !
 ! D191  D(27,28,29,66)         65.6923         estimate D2E/DX2                !
 ! D192  D(27,28,29,67)       -176.2952         estimate D2E/DX2                !
 ! D193  D(65,28,29,30)       -170.8764         estimate D2E/DX2                !
 ! D194  D(65,28,29,66)        -52.4036         estimate D2E/DX2                !
 ! D195  D(65,28,29,67)         65.6089         estimate D2E/DX2                !
 ! D196  D(28,29,30,68)       -106.3261         estimate D2E/DX2                !
 ! D197  D(66,29,30,68)        134.8033         estimate D2E/DX2                !
 ! D198  D(67,29,30,68)         16.6245         estimate D2E/DX2                !
 ! D199  D(26,31,32,33)        153.0259         estimate D2E/DX2                !
 ! D200  D(26,31,32,69)         31.6813         estimate D2E/DX2                !
 ! D201  D(26,31,32,70)        -86.3867         estimate D2E/DX2                !
 ! D202  D(31,32,33,34)        -51.2142         estimate D2E/DX2                !
 ! D203  D(31,32,33,71)       -174.4973         estimate D2E/DX2                !
 ! D204  D(31,32,33,72)         70.2509         estimate D2E/DX2                !
 ! D205  D(69,32,33,34)         69.0625         estimate D2E/DX2                !
 ! D206  D(69,32,33,71)        -54.2206         estimate D2E/DX2                !
 ! D207  D(69,32,33,72)       -169.4723         estimate D2E/DX2                !
 ! D208  D(70,32,33,34)       -170.7483         estimate D2E/DX2                !
 ! D209  D(70,32,33,71)         65.9687         estimate D2E/DX2                !
 ! D210  D(70,32,33,72)        -49.2831         estimate D2E/DX2                !
 ! D211  D(32,33,34,35)        -59.8185         estimate D2E/DX2                !
 ! D212  D(32,33,34,73)        177.0632         estimate D2E/DX2                !
 ! D213  D(32,33,34,74)         63.2999         estimate D2E/DX2                !
 ! D214  D(71,33,34,35)         61.8131         estimate D2E/DX2                !
 ! D215  D(71,33,34,73)        -61.3052         estimate D2E/DX2                !
 ! D216  D(71,33,34,74)       -175.0685         estimate D2E/DX2                !
 ! D217  D(72,33,34,35)        178.3702         estimate D2E/DX2                !
 ! D218  D(72,33,34,73)         55.2519         estimate D2E/DX2                !
 ! D219  D(72,33,34,74)        -58.5114         estimate D2E/DX2                !
 ! D220  D(33,34,35,36)        160.3512         estimate D2E/DX2                !
 ! D221  D(33,34,35,75)         38.6761         estimate D2E/DX2                !
 ! D222  D(33,34,35,76)        -78.7758         estimate D2E/DX2                !
 ! D223  D(73,34,35,36)        -76.5273         estimate D2E/DX2                !
 ! D224  D(73,34,35,75)        161.7976         estimate D2E/DX2                !
 ! D225  D(73,34,35,76)         44.3457         estimate D2E/DX2                !
 ! D226  D(74,34,35,36)         39.242          estimate D2E/DX2                !
 ! D227  D(74,34,35,75)        -82.4331         estimate D2E/DX2                !
 ! D228  D(74,34,35,76)        160.115          estimate D2E/DX2                !
 ! D229  D(34,35,36,37)        -71.2996         estimate D2E/DX2                !
 ! D230  D(34,35,36,77)         48.7372         estimate D2E/DX2                !
 ! D231  D(34,35,36,78)        170.0067         estimate D2E/DX2                !
 ! D232  D(75,35,36,37)         51.9986         estimate D2E/DX2                !
 ! D233  D(75,35,36,77)        172.0353         estimate D2E/DX2                !
 ! D234  D(75,35,36,78)        -66.6952         estimate D2E/DX2                !
 ! D235  D(76,35,36,37)        166.7991         estimate D2E/DX2                !
 ! D236  D(76,35,36,77)        -73.1642         estimate D2E/DX2                !
 ! D237  D(76,35,36,78)         48.1053         estimate D2E/DX2                !
 ! D238  D(35,36,37,79)         36.7119         estimate D2E/DX2                !
 ! D239  D(35,36,37,80)        -80.8457         estimate D2E/DX2                !
 ! D240  D(35,36,37,81)        157.5363         estimate D2E/DX2                !
 ! D241  D(77,36,37,79)        -85.7977         estimate D2E/DX2                !
 ! D242  D(77,36,37,80)        156.6447         estimate D2E/DX2                !
 ! D243  D(77,36,37,81)         35.0267         estimate D2E/DX2                !
 ! D244  D(78,36,37,79)        158.5916         estimate D2E/DX2                !
 ! D245  D(78,36,37,80)         41.034          estimate D2E/DX2                !
 ! D246  D(78,36,37,81)        -80.584          estimate D2E/DX2                !
 --------------------------------------------------------------------------------
 Trust Radius=3.00D-01 FncErr=1.00D-07 GrdErr=1.00D-06
 Number of steps in this run=    504 maximum allowed number of steps=    504.
 GradGradGradGradGradGradGradGradGradGradGradGradGradGradGradGradGradGrad

 Leave Link  103 at Sun May 22 04:31:50 2016, MaxMem= 10737418240 cpu:         0.4
 (Enter /share/apps//g09/l202.exe)
 Stoichiometry    C23H44NO16(1+)
 Framework group  C1[X(C23H44NO16)]
 Deg. of freedom   246
 Full point group                 C1      NOp   1
 Largest Abelian subgroup         C1      NOp   1
 Largest concise Abelian subgroup C1      NOp   1
                         Standard orientation:                         
 ---------------------------------------------------------------------
 Center     Atomic      Atomic             Coordinates (Angstroms)
 Number     Number       Type             X           Y           Z
 ---------------------------------------------------------------------
      1          8           0        2.263366    1.651369    0.648314
      2          6           0        3.176663    0.669936    0.125844
      3          6           0        3.513050    0.973187   -1.334406
      4          6           0        4.123415    2.367425   -1.445234
      5          6           0        3.189434    3.417618   -0.832505
      6          6           0        2.732349    3.016030    0.579346
      7          6           0        1.606660    3.897007    1.128020
      8          8           0        0.392814    3.817125    0.368264
      9          8           0        2.047547    3.608242   -1.681846
     10          8           0        4.322273    2.756362   -2.802840
     11          8           0        4.466184    0.049256   -1.839561
     12          8           0        2.481921   -0.540891    0.190764
     13          6           0        3.008960   -1.617469    0.983959
     14          6           0        2.940797   -2.871946    0.102622
     15          8           0        3.680134   -2.722249   -1.129151
     16          6           0        1.480224   -3.111725   -0.273257
     17          6           0        0.603324   -3.260182    0.989114
     18          8           0        0.812964   -2.176290    1.904803
     19          6           0        2.162342   -1.870124    2.244433
     20          6           0        2.102722   -0.713082    3.255654
     21          8           0        1.238915    0.360302    2.887268
     22          8           0       -0.766628   -3.313856    0.717790
     23          6           0       -1.361394   -2.139578    0.107908
     24          6           0       -1.924288   -2.544018   -1.260229
     25          6           0       -2.752990   -1.421077   -1.893704
     26          6           0       -3.818103   -0.937086   -0.911996
     27          8           0       -3.185628   -0.567182    0.337525
     28          6           0       -2.515412   -1.647853    1.001897
     29          6           0       -2.119063   -1.131913    2.382495
     30          8           0       -1.382033    0.096781    2.331854
     31          8           0       -4.419517    0.207428   -1.412294
     32          6           0       -5.672167    0.541348   -0.766652
     33          6           0       -5.892444    2.046689   -0.869152
     34          6           0       -4.694563    2.883089   -0.396317
     35          6           0       -4.281413    2.662045    1.068946
     36          6           0       -2.854147    3.118118    1.356542
     37          7           0       -1.849850    2.195023    0.719880
     38          8           0       -3.394682   -1.867843   -3.075361
     39          8           0       -0.916151   -2.865552   -2.217470
     40          8           0        1.312726   -4.307741   -1.037163
     41          1           0        4.100329    0.634280    0.741365
     42          1           0        2.565293    0.935094   -1.902554
     43          1           0        5.086832    2.376207   -0.898141
     44          1           0        3.742790    4.371034   -0.741580
     45          1           0        3.605901    3.139503    1.250872
     46          1           0        1.966124    4.939703    1.168867
     47          1           0        1.364224    3.583105    2.153133
     48          1           0        0.667613    3.894697   -0.576227
     49          1           0        2.390531    3.619378   -2.598521
     50          1           0        4.746199    2.006927   -3.261456
     51          1           0        4.075819   -0.850809   -1.785762
     52          1           0        4.053844   -1.405857    1.271154
     53          1           0        3.329422   -3.738824    0.664289
     54          1           0        4.551255   -3.142613   -1.023180
     55          1           0        1.138241   -2.238886   -0.853934
     56          1           0        0.830595   -4.228745    1.473542
     57          1           0        2.635922   -2.723945    2.776943
     58          1           0        1.703969   -1.104412    4.201501
     59          1           0        3.127489   -0.350906    3.452742
     60          1           0        1.604717    0.827014    2.097473
     61          1           0       -0.615854   -1.334893    0.004214
     62          1           0       -2.586793   -3.418242   -1.102201
     63          1           0       -2.081669   -0.562334   -2.105516
     64          1           0       -4.559384   -1.740921   -0.717966
     65          1           0       -3.212997   -2.495676    1.162092
     66          1           0       -3.042109   -0.936066    2.949327
     67          1           0       -1.542121   -1.903573    2.908681
     68          1           0       -0.415672   -0.035002    2.530103
     69          1           0       -5.635903    0.218366    0.286132
     70          1           0       -6.488525   -0.004757   -1.267965
     71          1           0       -6.795973    2.294718   -0.288407
     72          1           0       -6.111906    2.309489   -1.915053
     73          1           0       -4.915201    3.950610   -0.552285
     74          1           0       -3.855781    2.650685   -1.074223
     75          1           0       -4.365805    1.600653    1.348341
     76          1           0       -4.959330    3.213166    1.738198
     77          1           0       -2.664882    4.129389    0.969282
     78          1           0       -2.635948    3.118264    2.432502
     79          1           0       -2.192558    1.865797   -0.192514
     80          1           0       -1.701186    1.320348    1.316972
     81          1           0       -0.931817    2.689348    0.586198
     82          1           0       -2.719106   -2.355430   -3.583690
     83          1           0       -0.430200   -3.659046   -1.906659
     84          1           0        1.965205   -4.262725   -1.762391
 ---------------------------------------------------------------------
 Rotational constants (GHZ):      0.1044148      0.0739698      0.0579554
 Leave Link  202 at Sun May 22 04:31:50 2016, MaxMem= 10737418240 cpu:         0.9
 (Enter /share/apps//g09/l301.exe)
 Standard basis: 6-311+G(d,p) (5D, 7F)
 Ernie: Thresh=  0.10000D-02 Tol=  0.10000D-05 Strict=F.
 There are  1184 symmetry adapted cartesian basis functions of A   symmetry.
 There are  1144 symmetry adapted basis functions of A   symmetry.
  1144 basis functions,  1792 primitive gaussians,  1184 cartesian basis functions
   158 alpha electrons      158 beta electrons
       nuclear repulsion energy      5870.8535071135 Hartrees.
 IExCor= 1009 DFT=T Ex+Corr=PBE1PBE ExCW=0 ScaHFX=  0.250000
 ScaDFX=  0.750000  0.750000  1.000000  1.000000 ScalE2=  1.000000  1.000000
 IRadAn=      0 IRanWt=     -1 IRanGd=            0 ICorTp=0 IEmpDi=131
 NAtoms=   84 NActive=   84 NUniq=   84 SFac= 1.00D+00 NAtFMM=   60 NAOKFM=T Big=T
 Integral buffers will be    131072 words long.
 Raffenetti 2 integral format.
 Two-electron integral symmetry is turned on.
 R6Disp:  Grimme-D3 Dispersion energy=       -0.0813709915 Hartrees.
 Nuclear repulsion after empirical dispersion term =     5870.7721361219 Hartrees.
 Leave Link  301 at Sun May 22 04:31:50 2016, MaxMem= 10737418240 cpu:         1.6
 (Enter /share/apps//g09/l302.exe)
 NPDir=0 NMtPBC=     1 NCelOv=     1 NCel=       1 NClECP=     1 NCelD=      1
         NCelK=      1 NCelE2=     1 NClLst=     1 CellRange=     0.0.
 One-electron integrals computed using PRISM.
 NBasis=  1144 RedAO= T EigKep=  1.54D-06  NBF=  1144
 NBsUse=  1144 1.00D-06 EigRej= -1.00D+00 NBFU=  1144
 Precomputing XC quadrature grid using
 IXCGrd= 4 IRadAn=           0 IRanWt=          -1 IRanGd=           0 AccXCQ= 0.00D+00.
 Generated NRdTot=       0 NPtTot=           0 NUsed=           0 NTot=          32
 NSgBfM=  1070  1070  1070  1070  1070 MxSgAt=    84 MxSgA2=    84.
 Leave Link  302 at Sun May 22 04:31:54 2016, MaxMem= 10737418240 cpu:        52.0
 (Enter /share/apps//g09/l303.exe)
 DipDrv:  MaxL=1.
 Leave Link  303 at Sun May 22 04:31:56 2016, MaxMem= 10737418240 cpu:        27.6
 (Enter /share/apps//g09/l401.exe)
 ExpMin= 4.38D-02 ExpMax= 8.59D+03 ExpMxC= 1.30D+03 IAcc=2 IRadAn=         4 AccDes= 0.00D+00
 Harris functional with IExCor= 1009 and IRadAn=       4 diagonalized for initial guess.
 HarFok:  IExCor= 1009 AccDes= 0.00D+00 IRadAn=         4 IDoV= 1 UseB2=F ITyADJ=14
 ICtDFT=  3500011 ScaDFX=  1.000000  1.000000  1.000000  1.000000
 FoFCou: FMM=F IPFlag=           0 FMFlag=      100000 FMFlg1=        2001
         NFxFlg=           0 DoJE=T BraDBF=F KetDBF=T FulRan=T
         wScrn=  0.000000 ICntrl=     500 IOpCl=  0 I1Cent=   200000004 NGrid=           0
         NMat0=    1 NMatS0=      1 NMatT0=    0 NMatD0=    1 NMtDS0=    0 NMtDT0=    0
 Petite list used in FoFCou.
 Harris En= -2159.72138006125    
 JPrj=0 DoOrth=F DoCkMO=F.
 Leave Link  401 at Sun May 22 04:32:02 2016, MaxMem= 10737418240 cpu:       110.2
 (Enter /share/apps//g09/l502.exe)
 Closed shell SCF:
 Using DIIS extrapolation, IDIIS=  1040.
 Integral symmetry usage will be decided dynamically.
 IVT=     4256630 IEndB=     4256630 NGot= 10737418240 MDV= 10734581291
 LenX= 10734581291 LenY= 10733178251
 Requested convergence on RMS density matrix=1.00D-08 within 128 cycles.
 Requested convergence on MAX density matrix=1.00D-06.
 Requested convergence on             energy=1.00D-06.
 No special actions if energy rises.
 Fock matrices will be formed incrementally for  20 cycles.

 Cycle   1  Pass 1  IDiag  1:
 FoFJK:  IHMeth= 1 ICntrl=       0 DoSepK=F KAlg= 0 I1Cent=   0 FoldK=F
 IRaf= 770000000 NMat=   1 IRICut=       1 DoRegI=T DoRafI=F ISym2E= 0.
 FoFCou: FMM=T IPFlag=           0 FMFlag=      100000 FMFlg1=        2001
         NFxFlg=           0 DoJE=F BraDBF=F KetDBF=F FulRan=T
         wScrn=  0.000000 ICntrl=       0 IOpCl=  0 I1Cent=           0 NGrid=           0
         NMat0=    1 NMatS0=      1 NMatT0=    0 NMatD0=    1 NMtDS0=    0 NMtDT0=    0
 Symmetry not used in FoFCou.
 FMM levels:  10  Number of levels for PrismC:   9
 E= -2158.70176980679    
 DIIS: error= 1.44D-02 at cycle   1 NSaved=   1.
 NSaved= 1 IEnMin= 1 EnMin= -2158.70176980679     IErMin= 1 ErrMin= 1.44D-02
 ErrMax= 1.44D-02  0.00D+00 EMaxC= 1.00D-01 BMatC= 1.02D+00 BMatP= 1.02D+00
 IDIUse=3 WtCom= 8.56D-01 WtEn= 1.44D-01
 Coeff-Com:  0.100D+01
 Coeff-En:   0.100D+01
 Coeff:      0.100D+01
 Gap=     0.296 Goal=   None    Shift=    0.000
 GapD=    0.296 DampG=1.000 DampE=0.500 DampFc=0.5000 IDamp=-1.
 Damping current iteration by 5.00D-01
 RMSDP=9.24D-03 MaxDP=1.45D+00              OVMax= 1.43D-01

 Cycle   2  Pass 1  IDiag  1:
 RMSU=  4.59D-03    CP:  1.02D+00
 E= -2158.98276499065     Delta-E=       -0.280995183862 Rises=F Damp=T
 DIIS: error= 3.31D-03 at cycle   2 NSaved=   2.
 NSaved= 2 IEnMin= 2 EnMin= -2158.98276499065     IErMin= 2 ErrMin= 3.31D-03
 ErrMax= 3.31D-03  0.00D+00 EMaxC= 1.00D-01 BMatC= 8.18D-02 BMatP= 1.02D+00
 IDIUse=3 WtCom= 9.67D-01 WtEn= 3.31D-02
 Coeff-Com:  0.640D-01 0.936D+00
 Coeff-En:   0.165D+00 0.835D+00
 Coeff:      0.673D-01 0.933D+00
 Gap=     0.284 Goal=   None    Shift=    0.000
 RMSDP=4.56D-03 MaxDP=1.38D+00 DE=-2.81D-01 OVMax= 8.21D-02

 Cycle   3  Pass 1  IDiag  1:
 RMSU=  2.65D-03    CP:  9.18D-01  8.02D-01
 E= -2159.35512710500     Delta-E=       -0.372362114342 Rises=F Damp=F
 DIIS: error= 3.00D-03 at cycle   3 NSaved=   3.
 NSaved= 3 IEnMin= 3 EnMin= -2159.35512710500     IErMin= 3 ErrMin= 3.00D-03
 ErrMax= 3.00D-03  0.00D+00 EMaxC= 1.00D-01 BMatC= 4.55D-02 BMatP= 8.18D-02
 IDIUse=3 WtCom= 9.70D-01 WtEn= 3.00D-02
 Coeff-Com: -0.661D-01 0.408D+00 0.658D+00
 Coeff-En:   0.000D+00 0.000D+00 0.100D+01
 Coeff:     -0.641D-01 0.396D+00 0.668D+00
 Gap=     0.266 Goal=   None    Shift=    0.000
 RMSDP=1.63D-03 MaxDP=4.99D-01 DE=-3.72D-01 OVMax= 1.56D-02

 Cycle   4  Pass 1  IDiag  1:
 RMSU=  1.11D-03    CP:  9.43D-01  9.54D-01  8.81D-01
 E= -2159.38369802777     Delta-E=       -0.028570922772 Rises=F Damp=F
 DIIS: error= 1.15D-03 at cycle   4 NSaved=   4.
 NSaved= 4 IEnMin= 4 EnMin= -2159.38369802777     IErMin= 4 ErrMin= 1.15D-03
 ErrMax= 1.15D-03  0.00D+00 EMaxC= 1.00D-01 BMatC= 6.12D-03 BMatP= 4.55D-02
 IDIUse=3 WtCom= 9.89D-01 WtEn= 1.15D-02
 Coeff-Com: -0.363D-01 0.125D+00 0.343D+00 0.569D+00
 Coeff-En:   0.000D+00 0.000D+00 0.791D-01 0.921D+00
 Coeff:     -0.359D-01 0.124D+00 0.340D+00 0.573D+00
 Gap=     0.258 Goal=   None    Shift=    0.000
 RMSDP=1.10D-03 MaxDP=3.78D-01 DE=-2.86D-02 OVMax= 5.88D-03

 Cycle   5  Pass 1  IDiag  1:
 RMSU=  2.90D-04    CP:  9.18D-01  9.06D-01  8.87D-01  6.25D-01
 E= -2159.38894356094     Delta-E=       -0.005245533168 Rises=F Damp=F
 DIIS: error= 2.76D-04 at cycle   5 NSaved=   5.
 NSaved= 5 IEnMin= 5 EnMin= -2159.38894356094     IErMin= 5 ErrMin= 2.76D-04
 ErrMax= 2.76D-04  0.00D+00 EMaxC= 1.00D-01 BMatC= 2.70D-04 BMatP= 6.12D-03
 IDIUse=3 WtCom= 9.97D-01 WtEn= 2.76D-03
 Coeff-Com: -0.118D-01 0.268D-01 0.103D+00 0.249D+00 0.633D+00
 Coeff-En:   0.000D+00 0.000D+00 0.000D+00 0.000D+00 0.100D+01
 Coeff:     -0.118D-01 0.267D-01 0.103D+00 0.248D+00 0.634D+00
 Gap=     0.258 Goal=   None    Shift=    0.000
 RMSDP=1.31D-04 MaxDP=3.26D-02 DE=-5.25D-03 OVMax= 1.61D-03

 Cycle   6  Pass 1  IDiag  1:
 RMSU=  6.50D-05    CP:  9.20D-01  9.10D-01  9.02D-01  6.27D-01  7.74D-01
 E= -2159.38913813488     Delta-E=       -0.000194573945 Rises=F Damp=F
 DIIS: error= 6.08D-05 at cycle   6 NSaved=   6.
 NSaved= 6 IEnMin= 6 EnMin= -2159.38913813488     IErMin= 6 ErrMin= 6.08D-05
 ErrMax= 6.08D-05  0.00D+00 EMaxC= 1.00D-01 BMatC= 2.30D-05 BMatP= 2.70D-04
 IDIUse=1 WtCom= 1.00D+00 WtEn= 0.00D+00
 Coeff-Com: -0.403D-02 0.717D-02 0.345D-01 0.968D-01 0.321D+00 0.545D+00
 Coeff:     -0.403D-02 0.717D-02 0.345D-01 0.968D-01 0.321D+00 0.545D+00
 Gap=     0.258 Goal=   None    Shift=    0.000
 RMSDP=3.28D-05 MaxDP=8.55D-03 DE=-1.95D-04 OVMax= 5.62D-04

 Cycle   7  Pass 1  IDiag  1:
 RMSU=  1.85D-05    CP:  9.20D-01  9.11D-01  9.03D-01  6.39D-01  7.75D-01
                    CP:  7.17D-01
 E= -2159.38915430932     Delta-E=       -0.000016174440 Rises=F Damp=F
 DIIS: error= 1.91D-05 at cycle   7 NSaved=   7.
 NSaved= 7 IEnMin= 7 EnMin= -2159.38915430932     IErMin= 7 ErrMin= 1.91D-05
 ErrMax= 1.91D-05  0.00D+00 EMaxC= 1.00D-01 BMatC= 1.85D-06 BMatP= 2.30D-05
 IDIUse=1 WtCom= 1.00D+00 WtEn= 0.00D+00
 Coeff-Com: -0.109D-02 0.151D-02 0.949D-02 0.304D-01 0.114D+00 0.279D+00
 Coeff-Com:  0.566D+00
 Coeff:     -0.109D-02 0.151D-02 0.949D-02 0.304D-01 0.114D+00 0.279D+00
 Coeff:      0.566D+00
 Gap=     0.258 Goal=   None    Shift=    0.000
 RMSDP=1.08D-05 MaxDP=1.78D-03 DE=-1.62D-05 OVMax= 1.26D-04

 Cycle   8  Pass 1  IDiag  1:
 RMSU=  7.46D-06    CP:  9.20D-01  9.12D-01  9.02D-01  6.43D-01  7.82D-01
                    CP:  6.95D-01  7.86D-01
 E= -2159.38915557802     Delta-E=       -0.000001268697 Rises=F Damp=F
 DIIS: error= 5.26D-06 at cycle   8 NSaved=   8.
 NSaved= 8 IEnMin= 8 EnMin= -2159.38915557802     IErMin= 8 ErrMin= 5.26D-06
 ErrMax= 5.26D-06  0.00D+00 EMaxC= 1.00D-01 BMatC= 1.44D-07 BMatP= 1.85D-06
 IDIUse=1 WtCom= 1.00D+00 WtEn= 0.00D+00
 Coeff-Com:  0.540D-05-0.199D-03 0.859D-04 0.200D-02 0.112D-01 0.539D-01
 Coeff-Com:  0.255D+00 0.679D+00
 Coeff:      0.540D-05-0.199D-03 0.859D-04 0.200D-02 0.112D-01 0.539D-01
 Coeff:      0.255D+00 0.679D+00
 Gap=     0.258 Goal=   None    Shift=    0.000
 RMSDP=3.98D-06 MaxDP=9.18D-04 DE=-1.27D-06 OVMax= 3.21D-05

 Cycle   9  Pass 1  IDiag  1:
 RMSU=  2.22D-06    CP:  9.20D-01  9.11D-01  9.02D-01  6.42D-01  7.83D-01
                    CP:  7.03D-01  8.25D-01  8.24D-01
 E= -2159.38915568784     Delta-E=       -0.000000109818 Rises=F Damp=F
 DIIS: error= 1.94D-06 at cycle   9 NSaved=   9.
 NSaved= 9 IEnMin= 9 EnMin= -2159.38915568784     IErMin= 9 ErrMin= 1.94D-06
 ErrMax= 1.94D-06  0.00D+00 EMaxC= 1.00D-01 BMatC= 1.22D-08 BMatP= 1.44D-07
 IDIUse=1 WtCom= 1.00D+00 WtEn= 0.00D+00
 Coeff-Com:  0.698D-04-0.184D-03-0.584D-03-0.103D-02-0.252D-02 0.582D-02
 Coeff-Com:  0.791D-01 0.314D+00 0.605D+00
 Coeff:      0.698D-04-0.184D-03-0.584D-03-0.103D-02-0.252D-02 0.582D-02
 Coeff:      0.791D-01 0.314D+00 0.605D+00
 Gap=     0.258 Goal=   None    Shift=    0.000
 RMSDP=7.75D-07 MaxDP=2.87D-04 DE=-1.10D-07 OVMax= 1.05D-05

 Cycle  10  Pass 1  IDiag  1:
 RMSU=  4.40D-07    CP:  9.20D-01  9.11D-01  9.02D-01  6.42D-01  7.83D-01
                    CP:  7.06D-01  8.37D-01  8.46D-01  7.99D-01
 E= -2159.38915569704     Delta-E=       -0.000000009207 Rises=F Damp=F
 DIIS: error= 5.99D-07 at cycle  10 NSaved=  10.
 NSaved=10 IEnMin=10 EnMin= -2159.38915569704     IErMin=10 ErrMin= 5.99D-07
 ErrMax= 5.99D-07  0.00D+00 EMaxC= 1.00D-01 BMatC= 1.14D-09 BMatP= 1.22D-08
 IDIUse=1 WtCom= 1.00D+00 WtEn= 0.00D+00
 Coeff-Com:  0.281D-04-0.643D-04-0.271D-03-0.592D-03-0.196D-02-0.136D-02
 Coeff-Com:  0.168D-01 0.945D-01 0.294D+00 0.599D+00
 Coeff:      0.281D-04-0.643D-04-0.271D-03-0.592D-03-0.196D-02-0.136D-02
 Coeff:      0.168D-01 0.945D-01 0.294D+00 0.599D+00
 Gap=     0.258 Goal=   None    Shift=    0.000
 RMSDP=2.21D-07 MaxDP=5.62D-05 DE=-9.21D-09 OVMax= 2.98D-06

 Cycle  11  Pass 1  IDiag  1:
 RMSU=  1.28D-07    CP:  9.20D-01  9.11D-01  9.02D-01  6.42D-01  7.83D-01
                    CP:  7.06D-01  8.37D-01  8.55D-01  7.95D-01  7.28D-01
 E= -2159.38915569786     Delta-E=       -0.000000000818 Rises=F Damp=F
 DIIS: error= 1.44D-07 at cycle  11 NSaved=  11.
 NSaved=11 IEnMin=11 EnMin= -2159.38915569786     IErMin=11 ErrMin= 1.44D-07
 ErrMax= 1.44D-07  0.00D+00 EMaxC= 1.00D-01 BMatC= 1.14D-10 BMatP= 1.14D-09
 IDIUse=1 WtCom= 1.00D+00 WtEn= 0.00D+00
 Coeff-Com:  0.843D-05-0.178D-04-0.954D-04-0.219D-03-0.781D-03-0.102D-02
 Coeff-Com:  0.275D-02 0.240D-01 0.102D+00 0.307D+00 0.567D+00
 Coeff:      0.843D-05-0.178D-04-0.954D-04-0.219D-03-0.781D-03-0.102D-02
 Coeff:      0.275D-02 0.240D-01 0.102D+00 0.307D+00 0.567D+00
 Gap=     0.258 Goal=   None    Shift=    0.000
 RMSDP=6.59D-08 MaxDP=1.09D-05 DE=-8.18D-10 OVMax= 9.17D-07

 Cycle  12  Pass 1  IDiag  1:
 RMSU=  4.04D-08    CP:  9.20D-01  9.11D-01  9.02D-01  6.42D-01  7.83D-01
                    CP:  7.06D-01  8.37D-01  8.58D-01  8.00D-01  7.53D-01
                    CP:  7.19D-01
 E= -2159.38915569782     Delta-E=        0.000000000041 Rises=F Damp=F
 DIIS: error= 4.08D-08 at cycle  12 NSaved=  12.
 NSaved=12 IEnMin=11 EnMin= -2159.38915569786     IErMin=12 ErrMin= 4.08D-08
 ErrMax= 4.08D-08  0.00D+00 EMaxC= 1.00D-01 BMatC= 8.01D-12 BMatP= 1.14D-10
 IDIUse=1 WtCom= 1.00D+00 WtEn= 0.00D+00
 Coeff-Com:  0.125D-06 0.105D-06-0.104D-04-0.263D-04-0.110D-03-0.292D-03
 Coeff-Com: -0.882D-03-0.122D-02 0.943D-02 0.648D-01 0.249D+00 0.679D+00
 Coeff:      0.125D-06 0.105D-06-0.104D-04-0.263D-04-0.110D-03-0.292D-03
 Coeff:     -0.882D-03-0.122D-02 0.943D-02 0.648D-01 0.249D+00 0.679D+00
 Gap=     0.258 Goal=   None    Shift=    0.000
 RMSDP=2.82D-08 MaxDP=1.03D-05 DE= 4.09D-11 OVMax= 2.60D-07

 Cycle  13  Pass 1  IDiag  1:
 RMSU=  1.36D-08    CP:  9.20D-01  9.11D-01  9.02D-01  6.42D-01  7.83D-01
                    CP:  7.06D-01  8.37D-01  8.57D-01  8.07D-01  7.50D-01
                    CP:  7.26D-01  7.93D-01
 E= -2159.38915569777     Delta-E=        0.000000000054 Rises=F Damp=F
 DIIS: error= 1.21D-08 at cycle  13 NSaved=  13.
 NSaved=13 IEnMin=11 EnMin= -2159.38915569786     IErMin=13 ErrMin= 1.21D-08
 ErrMax= 1.21D-08  0.00D+00 EMaxC= 1.00D-01 BMatC= 6.27D-13 BMatP= 8.01D-12
 IDIUse=1 WtCom= 1.00D+00 WtEn= 0.00D+00
 Coeff-Com: -0.445D-06 0.110D-05 0.936D-06 0.113D-05-0.299D-05-0.659D-04
 Coeff-Com: -0.553D-03-0.202D-02-0.206D-02 0.108D-01 0.776D-01 0.309D+00
 Coeff-Com:  0.608D+00
 Coeff:     -0.445D-06 0.110D-05 0.936D-06 0.113D-05-0.299D-05-0.659D-04
 Coeff:     -0.553D-03-0.202D-02-0.206D-02 0.108D-01 0.776D-01 0.309D+00
 Coeff:      0.608D+00
 Gap=     0.258 Goal=   None    Shift=    0.000
 RMSDP=6.92D-09 MaxDP=2.37D-06 DE= 5.37D-11 OVMax= 9.75D-08

 Cycle  14  Pass 1  IDiag  1:
[...]
 .00007733,-0.00008763,0.00006292,-0.00005396,-0.00015921,-0.00000780,-
 0.00011585,-0.00000523,0.00016630,-0.00009661,-0.00008528,-0.00009401,
 0.00001063,-0.00001584,-0.00008257,0.00057774,-0.00003859,-0.00007512,
 0.00001725,0.00001006,-0.00002384,0.00000931,-0.00000666,-0.00002171,0
 .00000823,-0.00002420,-0.00000786,-0.00001686,-0.00000578,0.00000844,0
 .00000090,-0.00003200,-0.00000708,0.00001004,0.00003332,-0.00001345,-0
 .00000102,0.00001473,0.00002930,-0.00000154,-0.00001561,-0.00000595,0.
 00001101,-0.00000686,0.00001087,-0.00000088,-0.00000656,-0.00001715,0.
 00004296,0.00015492,0.00002559,0.00010251,0.00004509,0.00006443,0.0002
 0866,0.00011032,-0.00010229,-0.00031760,0.00033062,-0.00036377,0.18837
 141,0.00005656,0.00005324,-0.00004559,-0.00005703,-0.00008227,0.000065
 32,-0.00010582,0.00005912,0.00000144,-0.00000307,-0.00002202,0.0000503
 9,-0.00003006,-0.00000986,-0.00000373,-0.00001204,-0.00006506,0.000027
 25,-0.00005931,-0.00002092,-0.00001464,0.00007948,0.00007018,-0.000023
 95,0.00003936,0.00002294,-0.00002404,0.00002862,0.00000406,-0.00006436
 ,0.00007846,-0.00007966,-0.00002369,0.00018674,0.00002852,0.00002517,-
 0.00048219,0.00006778,0.00000715,-0.00019611,-0.00153101,0.00028145,0.
 00012530,-0.00031071,-0.00031306,-0.00250591,0.00398863,-0.00025022,-0
 .00174951,-0.00036669,-0.00054233,0.00056905,0.00002935,-0.00001873,-0
 .00028788,-0.00005771,0.00004537,-0.00003659,0.00004452,-0.00005946,0.
 00015652,0.00002633,0.00001991,0.00043044,0.00002329,0.00054751,-0.000
 23261,-0.00075756,0.00019824,0.00763745,-0.01158003,0.00400007,0.00069
 002,-0.00056200,-0.00231389,0.00070495,0.00010420,0.00033349,-0.000419
 21,0.00015817,-0.00005006,0.00106945,0.00008615,0.00037703,-0.00050040
 ,-0.00006897,0.00009920,0.00018362,0.00026781,0.00001232,-0.00031348,0
 .00035268,0.00004401,0.00018249,-0.00008884,-0.00009741,-0.00000547,-0
 .00000328,0.00001060,0.00000289,-0.00000302,-0.00001083,-0.00000354,-0
 .00001031,0.00000989,0.00004206,-0.00005941,-0.00002847,-0.00002216,0.
 00011510,-0.00004961,-0.00124476,0.00066052,0.00028773,0.21179222,-0.2
 6600120,0.11204887,-0.00113889,-0.00456987,-0.00116135,0.00003060,0.00
 002265,0.00000088,0.00002292,-0.00002100,0.00002039,0.00000623,0.00000
 929,-0.00000417,0.00000501,0.00000693,-0.00000231,0.00001222,0.0000048
 8,-0.00000091,0.00000938,0.00001106,-0.00000467,-0.00000035,-0.0000075
 0,-0.00000015,-0.00001355,-0.00002132,0.00002756,-0.00000915,-0.000012
 55,0.00002154,-0.00001884,0.00000501,0.00002484,-0.00006453,0.00006325
 ,-0.00000342,0.00002147,-0.00009334,-0.00005693,0.00044973,0.00011953,
 -0.00003401,0.00006813,0.00012077,0.00001319,-0.00144233,-0.00233984,0
 .00005394,0.00012835,-0.00002221,0.00029867,0.00005497,-0.00001471,0.0
 0001732,-0.00000776,-0.00001060,-0.00000336,0.00002982,0.00001912,0.00
 000052,-0.00004116,-0.00004293,0.00002508,-0.00009630,-0.00027208,-0.0
 0016849,-0.00117993,0.00168347,0.00082428,-0.00014467,0.00039096,-0.00
 018912,0.00001622,-0.00003797,-0.00009888,-0.00006450,-0.00000101,0.00
 003904,0.00004757,0.00013555,0.00012600,0.00000169,-0.00001271,-0.0000
 4082,-0.00020859,-0.00006467,-0.00003001,-0.00000561,0.00000267,0.0000
 1333,-0.00002988,-0.00000455,0.00000760,-0.00000803,0.00001850,0.00000
 845,0.00000529,0.00000097,-0.00001132,-0.00000528,0.00001837,0.0000007
 5,-0.00000829,-0.00001525,0.00001682,0.00001219,-0.00000698,-0.0000210
 5,-0.00000705,0.00001237,0.00000246,-0.00000846,0.00001216,-0.00000331
 ,-0.00000406,-0.00000236,0.00000736,0.00001530,-0.00008107,0.00001303,
 0.00004718,-0.00014692,0.00007430,-0.00007012,-0.00006336,0.00004899,0
 .00131770,-0.00000722,0.00063244,-0.21435073,0.28030943,-0.00001971,0.
 00013143,-0.00009452,-0.00004079,-0.00021928,0.00016380,0.00000908,0.0
 0006620,0.00003400,-0.00000678,-0.00001680,0.00004604,0.00002883,0.000
 00632,0.00001801,-0.00001140,-0.00008019,0.00004832,0.00002534,0.00000
 421,0.00000935,-0.00003193,0.00001160,-0.00002169,-0.00002826,-0.00000
 426,-0.00003852,-0.00000812,-0.00000552,-0.00008053,-0.00002203,-0.000
 02410,-0.00011826,0.00001946,0.00025833,-0.00025185,0.00019041,-0.0001
 5710,0.00008781,-0.00023126,0.00010971,0.00019194,0.00022896,0.0000468
 3,-0.00038512,-0.00165526,-0.00132841,-0.00019413,-0.00311452,-0.00113
 396,-0.00092326,0.00082266,0.00087746,0.00020264,-0.00040383,-0.000026
 39,0.00005068,0.00011299,-0.00011398,-0.00002478,-0.00004066,0.0001443
 1,-0.00004895,0.00008980,0.00255905,0.00163224,0.00272424,-0.00352724,
 0.00020272,0.02285790,-0.02815712,0.00978961,0.00257122,-0.00237406,-0
 .00626360,0.00064740,-0.00030474,0.00194004,-0.00069686,0.00026787,-0.
 00029507,0.00014187,-0.00014523,-0.00004853,0.00006718,-0.00004148,-0.
 00001278,-0.00009755,0.00013921,-0.00003111,0.00062825,-0.00048463,-0.
 00053629,-0.00011758,-0.00012376,0.00015947,0.00005896,-0.00000163,-0.
 00006100,0.00001166,0.00000592,0.00000814,0.00000058,-0.00000036,0.000
 00794,0.00002683,-0.00001922,-0.00001697,-0.00005907,0.00005349,-0.000
 04228,-0.00070888,0.00048903,0.00065022,-0.11156189,0.14727248,-0.1112
 4186,-0.00019605,-0.00069734,-0.00488903,0.00000074,0.00000980,-0.0000
 0772,-0.00000757,0.00001064,0.00000627,-0.00000877,-0.00000183,-0.0000
 0177,-0.00000397,0.00000159,-0.00000674,0.00000295,0.00000622,-0.00000
 265,-0.00000591,0.00000563,-0.00000216,0.00000193,-0.00000922,-0.00000
 560,0.00000809,-0.00000343,0.00002066,0.00000861,0.00000757,0.00001625
 ,0.00000994,0.00001478,0.00002391,0.00006089,-0.00001277,0.00013247,0.
 00002475,0.00006327,-0.00002606,-0.00003327,-0.00000990,-0.00003326,-0
 .00002616,0.00003219,0.00000446,-0.00006872,0.00028701,0.00045286,0.00
 000376,-0.00001388,-0.00007589,0.00004804,-0.00001002,-0.00000564,-0.0
 0000935,-0.00000336,-0.00000654,0.00000780,0.00005155,0.00000689,-0.00
 000752,-0.00006901,0.00008067,-0.00012035,0.00014457,-0.00010027,0.001
 00426,0.00031058,-0.00003930,-0.00023840,-0.00013284,0.00002011,-0.000
 02325,0.00002940,-0.00001461,0.00004946,0.00002681,-0.00000724,-0.0000
 3609,0.00001855,-0.00001048,-0.00002965,-0.00003875,-0.00010264,0.0000
 5237,-0.00006789,-0.00002572,0.00001776,-0.00000460,-0.00003141,0.0000
 1261,0.00000106,-0.00000749,0.00001062,-0.00003305,0.00000872,-0.00000
 721,-0.00000076,0.00000170,-0.00000413,-0.00000870,-0.00000436,0.00000
 003,0.00000967,-0.00000124,0.00001007,0.00000648,0.00000673,-0.0000035
 7,-0.00000320,-0.00000170,-0.00000283,0.00000592,0.00000262,-0.0000058
 4,-0.00000646,-0.00000183,0.00003606,0.00002222,0.00001694,0.00008872,
 -0.00009830,0.00010227,0.00001798,-0.00000565,0.00000572,0.00097091,0.
 00054078,0.00007682,0.08274344,-0.11470537,0.10843421,-0.00015212,0.00
 025719,0.00007009,0.00001260,-0.00035414,-0.00002271,0.00037167,-0.000
 27485,-0.00010636,-0.00005389,0.00000661,0.00006260,0.00010811,0.00000
 566,-0.00000239,-0.00002542,-0.00007949,0.00003420,0.00010467,0.000011
 27,0.00000973,-0.00013542,-0.00003190,0.00002034,-0.00012520,0.0000242
 6,-0.00001788,-0.00004572,0.00005288,-0.00006053,-0.00026784,0.0007198
 6,-0.00027654,-0.00033208,0.00039757,-0.00008175,0.00010526,-0.0003840
 9,0.00062377,0.00171542,-0.00316814,-0.00448624,0.00031224,0.00388742,
 0.00107953,0.00386257,-0.00285362,-0.00931798,-0.00177585,-0.00180220,
 -0.00035967,-0.00012538,-0.00153834,-0.00123769,0.00098670,0.00066740,
 -0.00019570,-0.00002269,-0.00016817,0.00018289,-0.00021447,0.00005289,
 0.00001252,-0.00021673,0.00040134,0.00022608,0.00043541,-0.00030625,0.
 00021375,-0.00042741,0.00041050,0.00116185,0.00011926,0.00001569,-0.00
 026118,-0.00005755,0.00021040,0.00023811,-0.00006506,-0.00008274,-0.00
 010194,-0.00014637,0.00005089,-0.00005853,0.00014074,0.00008665,-0.000
 01118,-0.00015786,-0.00014200,0.00000286,0.00018621,-0.00020375,-0.000
 09392,-0.00010509,0.00003477,0.00007936,0.00000939,0.00000706,-0.00001
 201,0.00000232,0.00000028,0.00000846,0.00000239,0.00000567,-0.00000117
 ,-0.00000331,0.00001513,0.00000101,-0.00003127,-0.00004912,0.00002921,
 0.00007365,-0.00013605,-0.00004039,0.00079756,-0.00068100,-0.00199374,
 -0.11472643,0.03244122,0.21081939,-0.00004844,-0.00003136,-0.00000629,
 -0.00006642,0.00005298,0.00000401,-0.00001619,-0.00001976,0.00000049,-
 0.00001936,0.00001421,-0.00000172,-0.00000138,0.00000586,-0.00000759,-
 0.00001847,-0.00000009,0.00000075,-0.00000266,-0.00000165,-0.00000036,
 0.00004154,-0.00000318,-0.00002172,0.00004525,-0.00000767,0.00000998,0
 .00003263,-0.00004239,0.00005576,0.00026469,-0.00077458,0.00058328,-0.
 00004322,-0.00008020,-0.00005810,-0.00044195,0.00005245,-0.00005294,-0
 .00099672,-0.00070940,0.00024591,0.00001807,-0.00016786,0.00062825,-0.
 00008122,0.00004759,0.00009733,-0.00010080,0.00004087,-0.00006737,-0.0
 0000017,0.00007499,0.00004717,-0.00004897,-0.00005822,-0.00001274,0.00
 004986,-0.00000117,-0.00006243,-0.00000224,0.00009865,0.00000650,0.000
 15315,-0.00001671,-0.00017927,-0.00003707,0.00000766,0.00000813,0.0000
 0038,-0.00001881,-0.00000617,0.00000990,-0.00000607,-0.00000218,-0.000
 01306,-0.00003302,-0.00001881,-0.00000951,-0.00000445,0.00000769,0.000
 18036,0.00007816,-0.00001238,0.00000757,0.00000159,-0.00001305,0.00000
 819,-0.00000120,-0.00000617,0.00000446,-0.00001389,-0.00000175,-0.0000
 0593,-0.00000160,0.00000390,0.00000104,-0.00001291,-0.00000194,0.00000
 345,0.00001304,-0.00000553,-0.00000214,0.00000517,0.00001226,0.0000002
 9,-0.00000624,-0.00000255,0.00000649,-0.00000476,0.00000437,-0.0000002
 9,-0.00000013,-0.00000706,0.00001195,0.00005599,0.00000472,0.00001041,
 0.00005224,-0.00001259,0.00009092,0.00005643,-0.00004988,-0.00018464,0
 .00009445,-0.00004817,-0.00241586,0.00083756,0.00323960,0.11348312,-0.
 00009459,0.00030666,0.00005579,0.00003304,-0.00045629,0.00006221,0.000
 10235,-0.00017485,-0.00009584,-0.00003413,-0.00005178,0.00011066,0.000
 05032,-0.00001677,-0.00001692,-0.00004575,-0.00014746,0.00005522,0.000
 03734,-0.00001524,-0.00001414,-0.00005205,0.00003944,0.00001808,-0.000
 05490,0.00007284,-0.00001836,0.00001589,0.00007539,-0.00011819,-0.0000
 1348,0.00045732,-0.00014688,0.00012135,0.00039188,0.00009930,0.0004677
 0,-0.00001826,0.00012899,-0.00063212,-0.00004252,-0.00342168,0.0014991
 3,0.00084645,0.00099483,0.01780164,-0.01364761,-0.04113638,-0.00208989
 ,-0.00655423,0.00149274,-0.00013316,-0.00108202,-0.00255236,0.00081376
 ,0.00048378,-0.00022085,-0.00009777,-0.00008273,0.00008740,-0.00004968
 ,0.00004260,0.00007194,-0.00024681,0.00053760,0.00051132,0.00013443,-0
 .00000543,0.00001172,0.00020992,-0.00020396,-0.00037262,0.00006997,0.0
 0005136,0.00012385,0.00012163,-0.00006023,-0.00002444,-0.00010011,0.00
 004949,0.00000321,0.00009920,-0.00006217,-0.00003508,-0.00004229,-0.00
 000137,-0.00002651,-0.00000703,0.00002060,0.00003633,-0.00013236,0.000
 09093,0.00002359,0.00007657,-0.00001461,-0.00003957,-0.00000324,0.0000
 0060,0.00000642,0.00000311,-0.00000485,-0.00000471,0.00000064,-0.00000
 143,0.00000447,0.00002706,-0.00003390,-0.00002011,-0.00003619,0.000026
 70,0.00001098,-0.00012601,-0.00004545,-0.00007889,-0.00079795,0.000083
 13,0.00020708,0.00855063,-0.04776538,-0.04308355,0.00000498,0.00003102
 ,-0.00001075,0.00000580,-0.00002303,0.00002539,0.00000139,0.00000735,-
 0.00000502,-0.00001052,0.00002505,-0.00000382,0.00001363,0.00001159,-0
 .00000650,-0.00000955,0.00001150,-0.00000349,-0.00000303,-0.00000713,0
 .00000268,0.00002750,-0.00003569,-0.00001125,0.00002128,-0.00003937,0.
 00002776,-0.00002465,-0.00004177,0.00007861,-0.00013155,-0.00052182,0.
 00033485,-0.00001774,0.00013775,0.00005675,-0.00002060,0.00003727,0.00
 036551,0.00001338,0.00089791,0.00067529,0.00074767,-0.00030730,-0.0001
 2582,-0.00014796,0.00021119,-0.00001560,-0.00008400,-0.00002698,-0.000
 00006,-0.00000900,0.00005557,0.00004950,-0.00001885,-0.00005013,-0.000
 01693,0.00001478,-0.00002897,-0.00009148,-0.00006910,-0.00001590,-0.00
 004253,-0.00006262,0.00001772,0.00010213,-0.00000306,-0.00003493,0.000
 00202,-0.00001085,0.00000129,0.00000884,-0.00000964,-0.00000065,0.0000
 0804,0.00000083,0.00001721,0.00001796,-0.00001005,-0.00001485,-0.00000
 593,0.00001603,0.00004086,-0.00003627,-0.00000025,0.00000039,0.0000034
 8,-0.00001076,-0.00000410,0.00000249,-0.00000418,0.00000633,0.00000405
 ,0.00000092,-0.00000020,-0.00000513,-0.00000129,0.00000584,-0.00000018
 ,-0.00000416,-0.00000194,0.00000923,0.00000298,-0.00000277,-0.00000742
 ,-0.00000537,0.00000425,0.00000151,0.00000047,0.00000265,0.00000015,-0
 .00000148,0.00000064,0.00000070,0.00002059,-0.00001666,0.00000040,0.00
 001836,-0.00002897,0.00000086,0.00003192,-0.00000030,-0.00001888,0.000
 08290,0.00004611,0.00005863,0.00127800,0.00042303,0.00017604,-0.027079
 31,0.06612273,-0.00002989,0.00021176,-0.00014316,-0.00008095,-0.000402
 37,0.00033366,-0.00007021,0.00020919,0.00009449,0.00000129,-0.00002715
 ,0.00005810,0.00002381,0.00001109,0.00003190,-0.00001706,-0.00009304,0
 .00007982,0.00001801,0.00001012,-0.00000164,-0.00001291,0.00001338,-0.
 00003496,-0.00001945,-0.00002441,-0.00005772,-0.00001027,-0.00002927,-
 0.00012565,-0.00000535,-0.00020138,-0.00022450,0.00002234,0.00067498,-
 0.00048429,0.00104278,-0.00035424,-0.00056920,0.00041665,0.00129879,0.
 00161626,-0.00041951,0.00057575,-0.00104205,0.00352800,-0.00217389,-0.
 01040291,-0.00025113,-0.00267919,-0.00016374,0.00024398,0.00004008,-0.
 00011492,0.00026975,-0.00006992,-0.00026835,0.00003934,-0.00013064,0.0
 0001567,-0.00008066,0.00012812,-0.00003430,-0.00054025,0.00043788,0.00
 028915,0.00030428,-0.00022672,0.00008291,0.00007955,0.00010206,-0.0000
 1264,0.00006747,-0.00000263,0.00009697,0.00010931,0.00000536,0.0000836
 3,-0.00015078,0.00004710,-0.00007952,0.00005171,-0.00009271,-0.0000162
 3,-0.00000217,-0.00002753,-0.00000794,-0.00004808,0.00005811,-0.000006
 54,-0.00007145,0.00004589,-0.00002851,0.00003312,-0.00000427,-0.000005
 96,-0.00000052,-0.00000076,0.00000327,-0.00000084,0.00000058,0.0000025
 1,0.00000144,-0.00000345,0.00000326,0.00001393,-0.00001640,-0.00000826
 ,-0.00001948,0.00003910,-0.00002697,-0.00009092,-0.00003090,-0.0001429
 3,-0.00080360,0.00037174,-0.00094631,0.19622446,-0.08455402,-0.4052430
 4,0.00000393,0.00002556,-0.00001661,-0.00000117,0.00001594,0.00000447,
 -0.00001374,-0.00000166,-0.00000185,-0.00000308,-0.00000238,-0.0000096
 5,0.00000490,0.00000823,-0.00000445,-0.00000679,0.00000956,-0.00000010
 ,0.00000336,-0.00000919,-0.00000696,-0.00000117,0.00000382,0.00003716,
 0.00000412,0.00002240,0.00002233,0.00001389,0.00004743,0.00002671,0.00
 014406,0.00017101,0.00024427,0.00004793,0.00044879,0.00013735,-0.00044
 155,-0.00018017,-0.00043961,-0.00033124,-0.00034397,0.00018099,0.00003
 518,0.00140599,0.00093094,-0.00010444,0.00004097,0.00040885,-0.0000282
 3,0.00000241,-0.00002441,-0.00001360,0.00001851,0.00001400,-0.00001187
 ,-0.00000653,-0.00000446,0.00000001,-0.00006635,0.00005368,-0.00000212
 ,-0.00003681,-0.00001588,0.00003346,-0.00002119,-0.00003101,-0.0000105
 9,0.00000753,0.00000464,-0.00000277,-0.00000412,-0.00000405,-0.0000108
 8,0.00001054,0.00001384,-0.00000689,0.00001012,0.00000582,-0.00000194,
 -0.00000728,-0.00002241,0.00004579,-0.00001434,-0.00002129,0.00000108,
 -0.00000136,-0.00000351,-0.00000486,-0.00000176,0.00000232,-0.00000039
 ,0.00000221,0.00000093,-0.00000269,0.00000091,-0.00000373,-0.00000189,
 0.00000380,-0.00000046,0.00000116,-0.00000210,0.00000361,0.00000387,0.
 00000061,-0.00000392,-0.00000231,0.00000111,-0.00000044,-0.00000205,0.
 00000453,0.00000002,-0.00000149,-0.00000319,0.00000007,0.00000787,-0.0
 0000988,0.00001444,0.00004034,-0.00005930,0.00005038,-0.00000405,-0.00
 001458,0.00001821,0.00000133,0.00002030,0.00009735,0.00129136,-0.00033
 747,0.00147920,-0.20043755,0.08570513,0.41426390\\-0.00000005,0.000000
 62,0.00000533,0.00000389,0.00000189,0.00000170,-0.00000093,0.00000152,
 -0.00000162,0.00000119,-0.00000110,-0.00000110,0.00000663,-0.00000333,
 -0.00000002,0.00000789,0.00000430,0.00000204,-0.00000175,0.00000090,0.
 00000497,-0.00000794,0.00000522,0.00001795,0.00000209,-0.00000070,-0.0
 0000484,-0.00000341,0.00001094,0.00000069,0.00000635,0.00001545,-0.000
 00368,-0.00000662,-0.00000466,0.00000234,-0.00000437,-0.00000008,0.000
 00101,0.00001173,0.00000691,-0.00000073,-0.00001407,-0.00001096,0.0000
 0581,0.00000607,0.00000552,-0.00001017,0.00000440,-0.00000579,0.000003
 13,-0.00000009,0.00000710,0.00000404,0.00000087,-0.00000997,0.00000100
 ,0.00000182,-0.00000326,0.00000018,-0.00000548,0.00000125,0.00001659,-
 0.00000416,-0.00000072,-0.00000172,0.00000344,-0.00000199,-0.00000597,
 0.00000152,-0.00000405,-0.00000227,0.00000423,-0.00000072,-0.00001298,
 -0.00000778,-0.00000097,0.00000221,-0.00000044,0.00000846,0.00000054,0
 .00000063,0.00000035,-0.00000176,-0.00000416,-0.00000547,0.00000332,-0
 .00002008,-0.00000090,0.00000009,0.00000441,-0.00000184,-0.00000596,0.
 00000535,0.00000396,0.00000329,0.00000166,-0.00000168,-0.00000411,-0.0
 0000121,-0.00000322,-0.00000362,-0.00000416,-0.00000304,-0.00000288,0.
 00000254,-0.00000240,-0.00000048,-0.00001996,0.00000413,0.00000378,-0.
 00000495,0.00000184,0.00000088,-0.00000107,0.00000414,-0.00000120,-0.0
 0000958,-0.00000066,0.00000404,0.00000082,0.00000211,0.00000215,0.0000
 0146,-0.00000073,0.00000115,0.00000221,0.00000604,0.00000402,0.0000023
 6,0.00000150,0.00000180,-0.00000151,0.00000060,0.00000063,0.00000306,0
 .00000213,0.00000266,-0.00000241,0.00000167,0.00000286,-0.00000212,-0.
 00000372,-0.00001113,0.00000257,0.00000212,-0.00000251,0.00000339,-0.0
 0000268,0.00000463,-0.00000383,-0.00000384,0.00000655,0.00000297,-0.00
 000198,0.00000285,-0.00000021,-0.00000359,0.00000162,0.00000829,0.0000
 0585,0.00000419,-0.00000044,0.00000133,0.00000053,0.00000149,-0.000001
 94,-0.00000147,0.00000054,0.00000352,0.00000478,-0.00000143,-0.0000000
 3,0.00000312,-0.00000171,0.00000036,0.00000159,0.00000286,-0.00000314,
 -0.00001066,0.00000233,-0.00000182,0.00000051,0.00000032,-0.00000227,-
 0.00000250,0.00000127,0.00000056,-0.00000137,0.00000067,-0.00000285,-0
 .00000252,0.00000102,0.00000169,0.00000206,-0.00000238,-0.00000047,0.0
 0000163,-0.00000302,-0.00000319,-0.00000209,0.00001237,-0.00000454,-0.
 00000322,-0.00000070,-0.00000193,-0.00000130,-0.00000347,-0.00000073,-
 0.00000486,-0.00000074,-0.00000178,-0.00000126,0.00000066,0.00000105,-
 0.00000399,-0.00000307,-0.00000093,-0.00000279,0.00000182,-0.00000114,
 -0.00000189,-0.00000238,-0.00000359,-0.00000041,-0.00000061,-0.0000020
 6,0.00000060,-0.00000097,0.00000021,-0.00000143,-0.00000021,-0.0000018
 5,-0.00000046,-0.00000120,-0.00000055,-0.00000463,0.00000409,-0.000000
 34,0.00000499,0.00000973,0.00000386,-0.00000676,0.00000655,-0.00000046
 ,-0.00000265,0.00000043,-0.00000144,-0.00000294,0.00000471,0.00000201,
 -0.00000191\\\@


 NOBODY LOSES ALL THE TIME
 I HAD AN UNCLE NAMED
 SOL WHO WAS A BORN FAILURE AND
 NEARLY EVERYBODY SAID HE SHOULD HAVE GONE
 INTO VAUDEVILLE PERHAPS BECAUSE MY UNCLE SOL COULD
 SING MCCANN HE WAS A DIVER ON XMAS EVE LIKE HELL ITSELF WHICH
 MAY OR MAY NOT ACCOUNT FOR THE FACT THAT MY UNCLE
 SOL INDULGED IN THAT POSSIBLY MOST INEXCUSABLE
 OF ALL TO USE A HIGHFALOOTIN PHRASE
 LUXURIES THAT IS OR TO
 WIT FARMING AND BE
 IT NEEDLESSLY
 ADDED
 MY UNCLE SOL'S FARM     
 FAILED BECAUSE THE CHICKENS
 ATE THE VEGETABLES SO
 MY UNCLE SOL HAD A
 CHICKEN FARM TILL THE
 SKUNKS ATE THE CHICKENS WHEN 
 MY UNCLE SOL
 HAD A SKUNK FARM BUT
 THE SKUNKS CAUGHT COLD AND
 DIED AND SO
 MY UNCLE SOL IMITATED THE
 SKUNKS IN A SUBTLE MANNER
 OR BY DROWNING HIMSELF IN THE WATERTANK
 BUT SOMEBODY WHO'D GIVEN MY UNCLE SOL A VICTOR     
 VICTROLA AND RECORDS WHILE HE LIVED PRESENTED TO
 HIM UPON THE AUSPICIOUS OCCASION OF HIS DECEASE A
 SCRUMPTIOUS NOT TO MENTION SPLENDIFEROUS FUNERAL WITH
 TALL BOYS IN BLACK GLOVES AND FLOWERS AND EVERYTHING AND
 I REMEMBER WE ALL CRIED LIKE THE MISSOURI
 WHEN MY UNCLE SOL'S COFFIN LURCHED BECAUSE     
 SOMEBODY PRESSED A BUTTON
 (AND DOWN WENT
 MY UNCLE
 SOL
 AND STARTED A WORM FARM)
           E. E. CUMMINGS
 Job cpu time:      19 days  0 hours 54 minutes 32.2 seconds.
 File lengths (MBytes):  RWF=  23740 Int=      0 D2E=      0 Chk=     97 Scr=      1
 Normal termination of Gaussian 09 at Tue May 24 06:57:02 2016.
