 Entering Gaussian System, Link 0=g09
 Initial command:
 /share/apps//g09/l1.exe "/scratch/Gau-10800.inp" -scrdir="/scratch/"
 Entering Link 1 = /share/apps//g09/l1.exe PID=     10802.
  
 Copyright (c) 1988,1990,1992,1993,1995,1998,2003,2009,2013,
            Gaussian, Inc.  All Rights Reserved.
  
 This is part of the Gaussian(R) 09 program.  It is based on
 the Gaussian(R) 03 system (copyright 2003, Gaussian, Inc.),
 the Gaussian(R) 98 system (copyright 1998, Gaussian, Inc.),
 the Gaussian(R) 94 system (copyright 1995, Gaussian, Inc.),
 the Gaussian 92(TM) system (copyright 1992, Gaussian, Inc.),
 the Gaussian 90(TM) system (copyright 1990, Gaussian, Inc.),
 the Gaussian 88(TM) system (copyright 1988, Gaussian, Inc.),
 the Gaussian 86(TM) system (copyright 1986, Carnegie Mellon
 University), and the Gaussian 82(TM) system (copyright 1983,
 Carnegie Mellon University). Gaussian is a federally registered
 trademark of Gaussian, Inc.
  
 This software contains proprietary and confidential information,
 including trade secrets, belonging to Gaussian, Inc.
  
 This software is provided under written license and may be
 used, copied, transmitted, or stored only in accord with that
 written license.
  
 The following legend is applicable only to US Government
 contracts under FAR:
  
                    RESTRICTED RIGHTS LEGEND
  
 Use, reproduction and disclosure by the US Government is
 subject to restrictions as set forth in subparagraphs (a)
 and (c) of the Commercial Computer Software - Restricted
 Rights clause in FAR 52.227-19.
  
 Gaussian, Inc.
 340 Quinnipiac St., Bldg. 40, Wallingford CT 06492
  
  
 ---------------------------------------------------------------
 Warning -- This program may not be used in any manner that
 competes with the business of Gaussian, Inc. or will provide
 assistance to any competitor of Gaussian, Inc.  The licensee
 of this program is prohibited from giving any competitor of
 Gaussian, Inc. access to this program.  By using this program,
 the user acknowledges that Gaussian, Inc. is engaged in the
 business of creating and licensing software in the field of
 computational chemistry and represents and warrants to the
 licensee that it is not a competitor of Gaussian, Inc. and that
 it will not use this program in any manner prohibited above.
 ---------------------------------------------------------------
  

 Cite this work as:
 Gaussian 09, Revision D.01,
 M. J. Frisch, G. W. Trucks, H. B. Schlegel, G. E. Scuseria, 
 M. A. Robb, J. R. Cheeseman, G. Scalmani, V. Barone, B. Mennucci, 
 G. A. Petersson, H. Nakatsuji, M. Caricato, X. Li, H. P. Hratchian, 
 A. F. Izmaylov, J. Bloino, G. Zheng, J. L. Sonnenberg, M. Hada, 
 M. Ehara, K. Toyota, R. Fukuda, J. Hasegawa, M. Ishida, T. Nakajima, 
 Y. Honda, O. Kitao, H. Nakai, T. Vreven, J. A. Montgomery, Jr., 
 J. E. Peralta, F. Ogliaro, M. Bearpark, J. J. Heyd, E. Brothers, 
 K. N. Kudin, V. N. Staroverov, T. Keith, R. Kobayashi, J. Normand, 
 K. Raghavachari, A. Rendell, J. C. Burant, S. S. Iyengar, J. Tomasi, 
 M. Cossi, N. Rega, J. M. Millam, M. Klene, J. E. Knox, J. B. Cross, 
 V. Bakken, C. Adamo, J. Jaramillo, R. Gomperts, R. E. Stratmann, 
 O. Yazyev, A. J. Austin, R. Cammi, C. Pomelli, J. W. Ochterski, 
 R. L. Martin, K. Morokuma, V. G. Zakrzewski, G. A. Voth, 
 P. Salvador, J. J. Dannenberg, S. Dapprich, A. D. Daniels, 
 O. Farkas, J. B. Foresman, J. V. Ortiz, J. Cioslowski, 
 and D. J. Fox, Gaussian, Inc., Wallingford CT, 2013.
 
 ******************************************
 Gaussian 09:  EM64L-G09RevD.01 24-Apr-2013
                 6-Apr-2016 
 ******************************************
 %nproc=20
 Will use up to   20 processors via shared memory.
 %mem=80GB
 %chk=Tri_A131_of.chk
 ----------------------------------------------------------------------
 #P PBE1PBE/6-311+G(d,p) opt=ModRedundant freq optcyc=999 EmpiricalDisp
 ersion=GD3
 ----------------------------------------------------------------------
 1/6=999,14=-1,18=120,19=15,26=3,38=1/1,3;
 2/9=110,12=2,17=6,18=5,40=1/2;
 3/5=4,6=6,7=111,11=2,16=1,25=1,30=1,71=1,74=-13,124=31/1,2,3;
 4//1;
 5/5=2,38=5/2;
 6/7=2,8=2,9=2,10=2,28=1/1;
 7//1,2,3,16;
 1/6=999,14=-1,18=20,19=15,26=3/3(2);
 2/9=110/2;
 99//99;
 2/9=110/2;
 3/5=4,6=6,7=111,11=2,16=1,25=1,30=1,71=1,74=-13,124=31/1,2,3;
 4/5=5,16=3,69=1/1;
 5/5=2,38=5/2;
 7//1,2,3,16;
 1/6=999,14=-1,18=20,19=15,26=3/3(-5);
 2/9=110/2;
 6/7=2,8=2,9=2,10=2,19=2,28=1/1;
 99/9=1/99;
 Leave Link    1 at Wed Apr  6 15:55:04 2016, MaxMem= 10737418240 cpu:         2.2
 (Enter /share/apps//g09/l101.exe)
 -------
 disacch
 -------
 Symbolic Z-matrix:
 Charge =  1 Multiplicity = 1
 O                     0.61186  -3.15041   8.37441 
 C                     1.5684   -4.23297   8.26063 
 C                     2.8394   -3.94688   9.07113 
 C                     2.53227  -3.5222    10.51075 
 C                     1.55604  -2.34383   10.52132 
 C                     0.30397  -2.69235   9.72444 
 H                     1.83109  -4.25396   7.19562 
 H                     3.3466   -3.10463   8.57479 
 H                     2.07049  -4.36584   11.06003 
 H                     1.24953  -2.14417   11.56561 
 H                    -0.22561  -3.49269   10.27455 
 O                     2.15466  -1.16515   9.95922 
 O                     3.71336  -3.07548   11.17041 
 O                     3.74917  -5.03659   9.03015 
 O                     1.03549  -5.46942   8.6779 
 C                    -0.66308  -1.51888   9.5597 
 H                    -1.60928  -1.87077   9.12313 
 H                    -0.89128  -1.10413   10.55591 
 O                    -0.16144  -0.49139   8.68975 
 H                     0.76815  -0.32898   8.97342 
 H                     3.03815  -1.08129   10.36861 
 H                     4.41477  -3.72773   10.98091 
 H                     3.22075  -5.85541   9.10964 
 O                    -2.07067  -6.26307   5.90133 
 C                    -0.75124  -6.48325   5.39082 
 C                     0.35012  -5.88076   6.30253 
 C                     0.11572  -6.17813   7.78237 
 C                    -1.34451  -5.90227   8.17019 
 C                    -2.24484  -6.73257   7.25085 
 H                    -0.57179  -7.56813   5.27848 
 H                     0.27432  -4.78434   6.19702 
 H                     0.33524  -7.23943   7.97863 
 H                    -1.49419  -6.20523   9.22205 
 H                    -1.95624  -7.79991   7.31704 
 O                    -1.71081  -4.52027   8.00854 
 O                     1.63222  -6.3434    5.93545 
 O                    -0.72001  -5.97932   4.07348 
 C                    -3.73685  -6.6235    7.55216 
 H                    -3.91963  -6.92973   8.59243 
 H                    -4.05825  -5.57117   7.44663 
 O                    -4.5038   -7.49629   6.73551 
 H                    -4.29734  -7.28324   5.80709 
 H                    -0.89139  -3.97913   8.13504 
 H                     1.81348  -6.03806   5.01615 
 O                    -1.25705  -2.44028   3.12788 
 C                    -0.37806  -2.35448   1.98483 
 C                     0.91922  -3.10716   2.30021 
 C                     0.65213  -4.53553   2.77167 
 C                    -0.44486  -4.5897    3.83232 
 C                    -1.68528  -3.78776   3.3976 
 H                    -0.89499  -2.7768    1.09635 
 H                     1.4068   -2.55518   3.1281 
 H                     0.34403  -5.1525    1.90745 
 H                    -2.13158  -4.23928   2.48865 
 H                    -0.06497  -4.08249   4.7304 
 O                     1.83955  -5.0886    3.36176 
 O                     1.78456  -3.20868   1.17519 
 O                    -0.02113  -1.02447   1.77958 
 C                    -2.78714  -3.69953   4.45015 
 H                    -3.57377  -3.03557   4.06132 
 H                    -3.21461  -4.69548   4.61259 
 O                    -2.33467  -3.15575   5.70185 
 H                    -2.2233   -3.86921   6.38406 
 H                     2.53145  -5.1002    2.67564 
 H                     2.05097  -2.30685   0.92075 
 C                    -1.00316  -0.171     1.13777 
 H                    -0.42153   0.71061   0.83381 
 H                    -1.37585  -0.66732   0.22593 
 C                    -2.16446   0.22218   2.05518 
 H                    -2.81806  -0.651     2.1952 
 H                    -2.76615   0.98263   1.5328 
 C                    -1.69282   0.73165   3.42889 
 H                    -0.72146   0.25084   3.62747 
 H                    -1.49098   1.81375   3.39548 
 C                    -2.67618   0.41342   4.56566 
 H                    -3.49311   1.15028   4.59023 
 H                    -3.15302  -0.56188   4.37927 
 C                    -2.03597   0.38089   5.94995 
 H                    -2.78798   0.23911   6.73692 
 H                    -1.48458   1.30498   6.17378 
 N                    -1.06535  -0.76314   6.08481 
 H                    -1.55579  -1.69674   5.94394 
 H                    -0.59808  -0.73369   7.03366 
 H                    -0.34473  -0.70969   5.35408 
 
 The following ModRedundant input section has been read:
 B      19      83 B                                                           
 B      62      82 B                                                           
 B       1      43 B                                                           
 B      44      56 B                                                           
 B      35      63 B                                                           
 
 NAtoms=     84 NQM=       84 NQMF=       0 NMMI=      0 NMMIF=      0
                NMic=       0 NMicF=      0.
                    Isotopes and Nuclear Properties:
 (Nuclear quadrupole moments (NQMom) in fm**2, nuclear magnetic moments (NMagM)
  in nuclear magnetons)

  Atom         1           2           3           4           5           6           7           8           9          10
 IAtWgt=          16          12          12          12          12          12           1           1           1           1
 AtmWgt=  15.9949146  12.0000000  12.0000000  12.0000000  12.0000000  12.0000000   1.0078250   1.0078250   1.0078250   1.0078250
 NucSpn=           0           0           0           0           0           0           1           1           1           1
 AtZEff=   0.0000000   0.0000000   0.0000000   0.0000000   0.0000000   0.0000000   0.0000000   0.0000000   0.0000000   0.0000000
 NQMom=    0.0000000   0.0000000   0.0000000   0.0000000   0.0000000   0.0000000   0.0000000   0.0000000   0.0000000   0.0000000
 NMagM=    0.0000000   0.0000000   0.0000000   0.0000000   0.0000000   0.0000000   2.7928460   2.7928460   2.7928460   2.7928460
 AtZNuc=   8.0000000   6.0000000   6.0000000   6.0000000   6.0000000   6.0000000   1.0000000   1.0000000   1.0000000   1.0000000

  Atom        11          12          13          14          15          16          17          18          19          20
 IAtWgt=           1          16          16          16          16          12           1           1          16           1
 AtmWgt=   1.0078250  15.9949146  15.9949146  15.9949146  15.9949146  12.0000000   1.0078250   1.0078250  15.9949146   1.0078250
 NucSpn=           1           0           0           0           0           0           1           1           0           1
 AtZEff=   0.0000000   0.0000000   0.0000000   0.0000000   0.0000000   0.0000000   0.0000000   0.0000000   0.0000000   0.0000000
 NQMom=    0.0000000   0.0000000   0.0000000   0.0000000   0.0000000   0.0000000   0.0000000   0.0000000   0.0000000   0.0000000
 NMagM=    2.7928460   0.0000000   0.0000000   0.0000000   0.0000000   0.0000000   2.7928460   2.7928460   0.0000000   2.7928460
 AtZNuc=   1.0000000   8.0000000   8.0000000   8.0000000   8.0000000   6.0000000   1.0000000   1.0000000   8.0000000   1.0000000

  Atom        21          22          23          24          25          26          27          28          29          30
 IAtWgt=           1           1           1          16          12          12          12          12          12           1
 AtmWgt=   1.0078250   1.0078250   1.0078250  15.9949146  12.0000000  12.0000000  12.0000000  12.0000000  12.0000000   1.0078250
 NucSpn=           1           1           1           0           0           0           0           0           0           1
 AtZEff=   0.0000000   0.0000000   0.0000000   0.0000000   0.0000000   0.0000000   0.0000000   0.0000000   0.0000000   0.0000000
 NQMom=    0.0000000   0.0000000   0.0000000   0.0000000   0.0000000   0.0000000   0.0000000   0.0000000   0.0000000   0.0000000
 NMagM=    2.7928460   2.7928460   2.7928460   0.0000000   0.0000000   0.0000000   0.0000000   0.0000000   0.0000000   2.7928460
 AtZNuc=   1.0000000   1.0000000   1.0000000   8.0000000   6.0000000   6.0000000   6.0000000   6.0000000   6.0000000   1.0000000

  Atom        31          32          33          34          35          36          37          38          39          40
 IAtWgt=           1           1           1           1          16          16          16          12           1           1
 AtmWgt=   1.0078250   1.0078250   1.0078250   1.0078250  15.9949146  15.9949146  15.9949146  12.0000000   1.0078250   1.0078250
 NucSpn=           1           1           1           1           0           0           0           0           1           1
 AtZEff=   0.0000000   0.0000000   0.0000000   0.0000000   0.0000000   0.0000000   0.0000000   0.0000000   0.0000000   0.0000000
 NQMom=    0.0000000   0.0000000   0.0000000   0.0000000   0.0000000   0.0000000   0.0000000   0.0000000   0.0000000   0.0000000
 NMagM=    2.7928460   2.7928460   2.7928460   2.7928460   0.0000000   0.0000000   0.0000000   0.0000000   2.7928460   2.7928460
 AtZNuc=   1.0000000   1.0000000   1.0000000   1.0000000   8.0000000   8.0000000   8.0000000   6.0000000   1.0000000   1.0000000

  Atom        41          42          43          44          45          46          47          48          49          50
 IAtWgt=          16           1           1           1          16          12          12          12          12          12
 AtmWgt=  15.9949146   1.0078250   1.0078250   1.0078250  15.9949146  12.0000000  12.0000000  12.0000000  12.0000000  12.0000000
 NucSpn=           0           1           1           1           0           0           0           0           0           0
 AtZEff=   0.0000000   0.0000000   0.0000000   0.0000000   0.0000000   0.0000000   0.0000000   0.0000000   0.0000000   0.0000000
 NQMom=    0.0000000   0.0000000   0.0000000   0.0000000   0.0000000   0.0000000   0.0000000   0.0000000   0.0000000   0.0000000
 NMagM=    0.0000000   2.7928460   2.7928460   2.7928460   0.0000000   0.0000000   0.0000000   0.0000000   0.0000000   0.0000000
 AtZNuc=   8.0000000   1.0000000   1.0000000   1.0000000   8.0000000   6.0000000   6.0000000   6.0000000   6.0000000   6.0000000

  Atom        51          52          53          54          55          56          57          58          59          60
 IAtWgt=           1           1           1           1           1          16          16          16          12           1
 AtmWgt=   1.0078250   1.0078250   1.0078250   1.0078250   1.0078250  15.9949146  15.9949146  15.9949146  12.0000000   1.0078250
 NucSpn=           1           1           1           1           1           0           0           0           0           1
 AtZEff=   0.0000000   0.0000000   0.0000000   0.0000000   0.0000000   0.0000000   0.0000000   0.0000000   0.0000000   0.0000000
 NQMom=    0.0000000   0.0000000   0.0000000   0.0000000   0.0000000   0.0000000   0.0000000   0.0000000   0.0000000   0.0000000
 NMagM=    2.7928460   2.7928460   2.7928460   2.7928460   2.7928460   0.0000000   0.0000000   0.0000000   0.0000000   2.7928460
 AtZNuc=   1.0000000   1.0000000   1.0000000   1.0000000   1.0000000   8.0000000   8.0000000   8.0000000   6.0000000   1.0000000

  Atom        61          62          63          64          65          66          67          68          69          70
 IAtWgt=           1          16           1           1           1          12           1           1          12           1
 AtmWgt=   1.0078250  15.9949146   1.0078250   1.0078250   1.0078250  12.0000000   1.0078250   1.0078250  12.0000000   1.0078250
 NucSpn=           1           0           1           1           1           0           1           1           0           1
 AtZEff=   0.0000000   0.0000000   0.0000000   0.0000000   0.0000000   0.0000000   0.0000000   0.0000000   0.0000000   0.0000000
 NQMom=    0.0000000   0.0000000   0.0000000   0.0000000   0.0000000   0.0000000   0.0000000   0.0000000   0.0000000   0.0000000
 NMagM=    2.7928460   0.0000000   2.7928460   2.7928460   2.7928460   0.0000000   2.7928460   2.7928460   0.0000000   2.7928460
 AtZNuc=   1.0000000   8.0000000   1.0000000   1.0000000   1.0000000   6.0000000   1.0000000   1.0000000   6.0000000   1.0000000

  Atom        71          72          73          74          75          76          77          78          79          80
 IAtWgt=           1          12           1           1          12           1           1          12           1           1
 AtmWgt=   1.0078250  12.0000000   1.0078250   1.0078250  12.0000000   1.0078250   1.0078250  12.0000000   1.0078250   1.0078250
 NucSpn=           1           0           1           1           0           1           1           0           1           1
 AtZEff=   0.0000000   0.0000000   0.0000000   0.0000000   0.0000000   0.0000000   0.0000000   0.0000000   0.0000000   0.0000000
 NQMom=    0.0000000   0.0000000   0.0000000   0.0000000   0.0000000   0.0000000   0.0000000   0.0000000   0.0000000   0.0000000
 NMagM=    2.7928460   0.0000000   2.7928460   2.7928460   0.0000000   2.7928460   2.7928460   0.0000000   2.7928460   2.7928460
 AtZNuc=   1.0000000   6.0000000   1.0000000   1.0000000   6.0000000   1.0000000   1.0000000   6.0000000   1.0000000   1.0000000

  Atom        81          82          83          84
 IAtWgt=          14           1           1           1
 AtmWgt=  14.0030740   1.0078250   1.0078250   1.0078250
 NucSpn=           2           1           1           1
 AtZEff=   0.0000000   0.0000000   0.0000000   0.0000000
 NQMom=    2.0440000   0.0000000   0.0000000   0.0000000
 NMagM=    0.4037610   2.7928460   2.7928460   2.7928460
 AtZNuc=   7.0000000   1.0000000   1.0000000   1.0000000
 Leave Link  101 at Wed Apr  6 15:55:05 2016, MaxMem= 10737418240 cpu:         4.7
 (Enter /share/apps//g09/l103.exe)

 GradGradGradGradGradGradGradGradGradGradGradGradGradGradGradGradGradGrad
 Berny optimization.
 Initialization pass.
                           ----------------------------
                           !    Initial Parameters    !
                           ! (Angstroms and Degrees)  !
 --------------------------                            --------------------------
 ! Name  Definition              Value          Derivative Info.                !
 --------------------------------------------------------------------------------
 ! R1    R(1,2)                  1.4491         estimate D2E/DX2                !
 ! R2    R(1,6)                  1.4585         estimate D2E/DX2                !
 ! R3    R(1,43)                 1.7332         estimate D2E/DX2                !
 ! R4    R(2,3)                  1.5343         estimate D2E/DX2                !
 ! R5    R(2,7)                  1.0971         estimate D2E/DX2                !
 ! R6    R(2,15)                 1.4096         estimate D2E/DX2                !
 ! R7    R(3,4)                  1.5321         estimate D2E/DX2                !
 ! R8    R(3,8)                  1.1014         estimate D2E/DX2                !
 ! R9    R(3,14)                 1.4202         estimate D2E/DX2                !
 ! R10   R(4,5)                  1.5303         estimate D2E/DX2                !
 ! R11   R(4,9)                  1.1076         estimate D2E/DX2                !
 ! R12   R(4,13)                 1.4247         estimate D2E/DX2                !
 ! R13   R(5,6)                  1.5245         estimate D2E/DX2                !
 ! R14   R(5,10)                 1.1065         estimate D2E/DX2                !
 ! R15   R(5,12)                 1.4365         estimate D2E/DX2                !
 ! R16   R(6,11)                 1.1062         estimate D2E/DX2                !
 ! R17   R(6,16)                 1.5295         estimate D2E/DX2                !
 ! R18   R(12,21)                0.9773         estimate D2E/DX2                !
 ! R19   R(13,22)                0.9764         estimate D2E/DX2                !
 ! R20   R(14,23)                0.9778         estimate D2E/DX2                !
 ! R21   R(15,27)                1.4664         estimate D2E/DX2                !
 ! R22   R(16,17)                1.0999         estimate D2E/DX2                !
 ! R23   R(16,18)                1.103          estimate D2E/DX2                !
 ! R24   R(16,19)                1.4367         estimate D2E/DX2                !
 ! R25   R(19,20)                0.9854         estimate D2E/DX2                !
 ! R26   R(19,83)                1.7297         estimate D2E/DX2                !
 ! R27   R(24,25)                1.4318         estimate D2E/DX2                !
 ! R28   R(24,29)                1.4394         estimate D2E/DX2                !
 ! R29   R(25,26)                1.5515         estimate D2E/DX2                !
 ! R30   R(25,30)                1.1053         estimate D2E/DX2                !
 ! R31   R(25,37)                1.4108         estimate D2E/DX2                !
 ! R32   R(26,27)                1.5275         estimate D2E/DX2                !
 ! R33   R(26,31)                1.1041         estimate D2E/DX2                !
 ! R34   R(26,36)                1.4116         estimate D2E/DX2                !
 ! R35   R(27,28)                1.5358         estimate D2E/DX2                !
 ! R36   R(27,32)                1.1014         estimate D2E/DX2                !
 ! R37   R(28,29)                1.5314         estimate D2E/DX2                !
 ! R38   R(28,33)                1.1048         estimate D2E/DX2                !
 ! R39   R(28,35)                1.4388         estimate D2E/DX2                !
 ! R40   R(29,34)                1.1076         estimate D2E/DX2                !
 ! R41   R(29,38)                1.526          estimate D2E/DX2                !
 ! R42   R(35,43)                0.9901         estimate D2E/DX2                !
 ! R43   R(35,63)                1.8236         estimate D2E/DX2                !
 ! R44   R(36,44)                0.9855         estimate D2E/DX2                !
 ! R45   R(37,49)                1.437          estimate D2E/DX2                !
 ! R46   R(38,39)                1.0997         estimate D2E/DX2                !
 ! R47   R(38,40)                1.1054         estimate D2E/DX2                !
 ! R48   R(38,41)                1.4202         estimate D2E/DX2                !
 ! R49   R(41,42)                0.9747         estimate D2E/DX2                !
 ! R50   R(44,56)                1.9077         estimate D2E/DX2                !
 ! R51   R(45,46)                1.4445         estimate D2E/DX2                !
 ! R52   R(45,50)                1.4394         estimate D2E/DX2                !
 ! R53   R(46,47)                1.5326         estimate D2E/DX2                !
 ! R54   R(46,51)                1.1113         estimate D2E/DX2                !
 ! R55   R(46,58)                1.3923         estimate D2E/DX2                !
 ! R56   R(47,48)                1.5277         estimate D2E/DX2                !
 ! R57   R(47,52)                1.1081         estimate D2E/DX2                !
 ! R58   R(47,57)                1.423          estimate D2E/DX2                !
 ! R59   R(48,49)                1.5269         estimate D2E/DX2                !
 ! R60   R(48,53)                1.1056         estimate D2E/DX2                !
 ! R61   R(48,56)                1.4367         estimate D2E/DX2                !
 ! R62   R(49,50)                1.5397         estimate D2E/DX2                !
 ! R63   R(49,55)                1.0991         estimate D2E/DX2                !
 ! R64   R(50,54)                1.1087         estimate D2E/DX2                !
 ! R65   R(50,59)                1.5263         estimate D2E/DX2                !
 ! R66   R(56,64)                0.9745         estimate D2E/DX2                !
 ! R67   R(57,65)                0.9742         estimate D2E/DX2                !
 ! R68   R(58,66)                1.4508         estimate D2E/DX2                !
 ! R69   R(59,60)                1.1004         estimate D2E/DX2                !
 ! R70   R(59,61)                1.0959         estimate D2E/DX2                !
 ! R71   R(59,62)                1.4378         estimate D2E/DX2                !
 ! R72   R(62,63)                0.9934         estimate D2E/DX2                !
 ! R73   R(62,82)                1.6715         estimate D2E/DX2                !
 ! R74   R(66,67)                1.0991         estimate D2E/DX2                !
 ! R75   R(66,68)                1.103          estimate D2E/DX2                !
 ! R76   R(66,69)                1.5313         estimate D2E/DX2                !
 ! R77   R(69,70)                1.0997         estimate D2E/DX2                !
 ! R78   R(69,71)                1.1015         estimate D2E/DX2                !
 ! R79   R(69,72)                1.5392         estimate D2E/DX2                !
 ! R80   R(72,73)                1.1019         estimate D2E/DX2                !
 ! R81   R(72,74)                1.1013         estimate D2E/DX2                !
 ! R82   R(72,75)                1.5364         estimate D2E/DX2                !
 ! R83   R(75,76)                1.1004         estimate D2E/DX2                !
 ! R84   R(75,77)                1.1015         estimate D2E/DX2                !
 ! R85   R(75,78)                1.5255         estimate D2E/DX2                !
 ! R86   R(78,79)                1.0977         estimate D2E/DX2                !
 ! R87   R(78,80)                1.0991         estimate D2E/DX2                !
 ! R88   R(78,81)                1.5064         estimate D2E/DX2                !
 ! R89   R(81,82)                1.0639         estimate D2E/DX2                !
 ! R90   R(81,83)                1.0581         estimate D2E/DX2                !
 ! R91   R(81,84)                1.0277         estimate D2E/DX2                !
 ! A1    A(2,1,6)              116.5292         estimate D2E/DX2                !
 ! A2    A(2,1,43)             101.7989         estimate D2E/DX2                !
 ! A3    A(6,1,43)              95.4464         estimate D2E/DX2                !
 ! A4    A(1,2,3)              111.4712         estimate D2E/DX2                !
 ! A5    A(1,2,7)              104.3925         estimate D2E/DX2                !
 ! A6    A(1,2,15)             112.4889         estimate D2E/DX2                !
 ! A7    A(3,2,7)              108.5422         estimate D2E/DX2                !
 ! A8    A(3,2,15)             108.6847         estimate D2E/DX2                !
 ! A9    A(7,2,15)             111.1676         estimate D2E/DX2                !
 ! A10   A(2,3,4)              112.4572         estimate D2E/DX2                !
 ! A11   A(2,3,8)              106.6196         estimate D2E/DX2                !
 ! A12   A(2,3,14)             111.8606         estimate D2E/DX2                !
 ! A13   A(4,3,8)              107.6866         estimate D2E/DX2                !
 ! A14   A(4,3,14)             111.607          estimate D2E/DX2                !
 ! A15   A(8,3,14)             106.1872         estimate D2E/DX2                !
 ! A16   A(3,4,5)              110.3549         estimate D2E/DX2                !
 ! A17   A(3,4,9)              109.7829         estimate D2E/DX2                !
 ! A18   A(3,4,13)             110.8433         estimate D2E/DX2                !
 ! A19   A(5,4,9)              108.4903         estimate D2E/DX2                !
 ! A20   A(5,4,13)             106.5125         estimate D2E/DX2                !
 ! A21   A(9,4,13)             110.785          estimate D2E/DX2                !
 ! A22   A(4,5,6)              110.1385         estimate D2E/DX2                !
 ! A23   A(4,5,10)             108.7951         estimate D2E/DX2                !
 ! A24   A(4,5,12)             111.302          estimate D2E/DX2                !
 ! A25   A(6,5,10)             107.8825         estimate D2E/DX2                !
 ! A26   A(6,5,12)             108.983          estimate D2E/DX2                !
 ! A27   A(10,5,12)            109.6741         estimate D2E/DX2                !
 ! A28   A(1,6,5)              112.4737         estimate D2E/DX2                !
 ! A29   A(1,6,11)             109.5214         estimate D2E/DX2                !
 ! A30   A(1,6,16)             105.9461         estimate D2E/DX2                !
 ! A31   A(5,6,11)             107.3764         estimate D2E/DX2                !
 ! A32   A(5,6,16)             113.5893         estimate D2E/DX2                !
 ! A33   A(11,6,16)            107.8166         estimate D2E/DX2                !
 ! A34   A(5,12,21)            106.4512         estimate D2E/DX2                !
 ! A35   A(4,13,22)            107.2308         estimate D2E/DX2                !
 ! A36   A(3,14,23)            107.0993         estimate D2E/DX2                !
 ! A37   A(2,15,27)            118.7051         estimate D2E/DX2                !
 ! A38   A(6,16,17)            109.951          estimate D2E/DX2                !
 ! A39   A(6,16,18)            108.7859         estimate D2E/DX2                !
 ! A40   A(6,16,19)            113.1506         estimate D2E/DX2                !
 ! A41   A(17,16,18)           107.5073         estimate D2E/DX2                !
 ! A42   A(17,16,19)           106.7882         estimate D2E/DX2                !
 ! A43   A(18,16,19)           110.5006         estimate D2E/DX2                !
 ! A44   A(16,19,20)           105.8395         estimate D2E/DX2                !
 ! A45   A(16,19,83)           113.0422         estimate D2E/DX2                !
 ! A46   A(20,19,83)           122.4692         estimate D2E/DX2                !
 ! A47   A(25,24,29)           113.3052         estimate D2E/DX2                !
 ! A48   A(24,25,26)           112.6388         estimate D2E/DX2                !
 ! A49   A(24,25,30)           109.6808         estimate D2E/DX2                !
 ! A50   A(24,25,37)           107.3621         estimate D2E/DX2                !
 ! A51   A(26,25,30)           109.0027         estimate D2E/DX2                !
 ! A52   A(26,25,37)           113.2212         estimate D2E/DX2                !
 ! A53   A(30,25,37)           104.6012         estimate D2E/DX2                !
 ! A54   A(25,26,27)           112.6288         estimate D2E/DX2                !
 ! A55   A(25,26,31)           106.3041         estimate D2E/DX2                !
 ! A56   A(25,26,36)           111.3869         estimate D2E/DX2                !
 ! A57   A(27,26,31)           105.984          estimate D2E/DX2                !
 ! A58   A(27,26,36)           109.1174         estimate D2E/DX2                !
 ! A59   A(31,26,36)           111.283          estimate D2E/DX2                !
 ! A60   A(15,27,26)           113.6603         estimate D2E/DX2                !
 ! A61   A(15,27,28)           110.8146         estimate D2E/DX2                !
 ! A62   A(15,27,32)           103.4075         estimate D2E/DX2                !
 ! A63   A(26,27,28)           110.8281         estimate D2E/DX2                !
 ! A64   A(26,27,32)           109.2467         estimate D2E/DX2                !
 ! A65   A(28,27,32)           108.5168         estimate D2E/DX2                !
 ! A66   A(27,28,29)           108.0591         estimate D2E/DX2                !
 ! A67   A(27,28,33)           108.6612         estimate D2E/DX2                !
 ! A68   A(27,28,35)           112.7184         estimate D2E/DX2                !
 ! A69   A(29,28,33)           110.0737         estimate D2E/DX2                !
 ! A70   A(29,28,35)           107.6771         estimate D2E/DX2                !
 ! A71   A(33,28,35)           109.625          estimate D2E/DX2                !
 ! A72   A(24,29,28)           108.3516         estimate D2E/DX2                !
 ! A73   A(24,29,34)           109.8037         estimate D2E/DX2                !
 ! A74   A(24,29,38)           106.2663         estimate D2E/DX2                !
 ! A75   A(28,29,34)           109.4751         estimate D2E/DX2                !
 ! A76   A(28,29,38)           114.6783         estimate D2E/DX2                !
 ! A77   A(34,29,38)           108.1687         estimate D2E/DX2                !
 ! A78   A(28,35,43)           107.4526         estimate D2E/DX2                !
 ! A79   A(28,35,63)           120.9673         estimate D2E/DX2                !
 ! A80   A(43,35,63)            98.7007         estimate D2E/DX2                !
 ! A81   A(26,36,44)           107.9442         estimate D2E/DX2                !
 ! A82   A(25,37,49)           120.4226         estimate D2E/DX2                !
 ! A83   A(29,38,39)           109.2309         estimate D2E/DX2                !
 ! A84   A(29,38,40)           109.4798         estimate D2E/DX2                !
 ! A85   A(29,38,41)           111.7487         estimate D2E/DX2                !
 ! A86   A(39,38,40)           107.8839         estimate D2E/DX2                !
 ! A87   A(39,38,41)           106.4431         estimate D2E/DX2                !
 ! A88   A(40,38,41)           111.9104         estimate D2E/DX2                !
 ! A89   A(38,41,42)           107.3987         estimate D2E/DX2                !
 ! A90   A(36,44,56)           164.9513         estimate D2E/DX2                !
 ! A91   A(46,45,50)           112.6391         estimate D2E/DX2                !
 ! A92   A(45,46,47)           108.8484         estimate D2E/DX2                !
 ! A93   A(45,46,51)           109.0887         estimate D2E/DX2                !
 ! A94   A(45,46,58)           109.2322         estimate D2E/DX2                !
 ! A95   A(47,46,51)           111.8156         estimate D2E/DX2                !
 ! A96   A(47,46,58)           106.4082         estimate D2E/DX2                !
 ! A97   A(51,46,58)           111.3717         estimate D2E/DX2                !
 ! A98   A(46,47,48)           112.0055         estimate D2E/DX2                !
 ! A99   A(46,47,52)           106.3535         estimate D2E/DX2                !
 ! A100  A(46,47,57)           112.7738         estimate D2E/DX2                !
 ! A101  A(48,47,52)           108.1866         estimate D2E/DX2                !
 ! A102  A(48,47,57)           106.4757         estimate D2E/DX2                !
 ! A103  A(52,47,57)           111.0178         estimate D2E/DX2                !
 ! A104  A(47,48,49)           111.9106         estimate D2E/DX2                !
 ! A105  A(47,48,53)           109.2223         estimate D2E/DX2                !
 ! A106  A(47,48,56)           110.0104         estimate D2E/DX2                !
 ! A107  A(49,48,53)           108.8428         estimate D2E/DX2                !
 ! A108  A(49,48,56)           107.1475         estimate D2E/DX2                !
 ! A109  A(53,48,56)           109.6663         estimate D2E/DX2                !
 ! A110  A(37,49,48)           106.7657         estimate D2E/DX2                !
 ! A111  A(37,49,50)           113.378          estimate D2E/DX2                !
 ! A112  A(37,49,55)           112.0431         estimate D2E/DX2                !
 ! A113  A(48,49,50)           111.3581         estimate D2E/DX2                !
 ! A114  A(48,49,55)           107.6318         estimate D2E/DX2                !
 ! A115  A(50,49,55)           105.5919         estimate D2E/DX2                !
 ! A116  A(45,50,49)           107.5062         estimate D2E/DX2                !
 ! A117  A(45,50,54)           110.3271         estimate D2E/DX2                !
 ! A118  A(45,50,59)           106.8504         estimate D2E/DX2                !
 ! A119  A(49,50,54)           110.0994         estimate D2E/DX2                !
 ! A120  A(49,50,59)           114.6439         estimate D2E/DX2                !
 ! A121  A(54,50,59)           107.355          estimate D2E/DX2                !
 ! A122  A(44,56,48)           122.4461         estimate D2E/DX2                !
 ! A123  A(44,56,64)           127.9073         estimate D2E/DX2                !
 ! A124  A(48,56,64)           107.5911         estimate D2E/DX2                !
 ! A125  A(47,57,65)           107.8641         estimate D2E/DX2                !
 ! A126  A(46,58,66)           116.9789         estimate D2E/DX2                !
 ! A127  A(50,59,60)           107.8947         estimate D2E/DX2                !
 ! A128  A(50,59,61)           109.3453         estimate D2E/DX2                !
 ! A129  A(50,59,62)           113.2675         estimate D2E/DX2                !
 ! A130  A(60,59,61)           108.7772         estimate D2E/DX2                !
 ! A131  A(60,59,62)           107.7218         estimate D2E/DX2                !
 ! A132  A(61,59,62)           109.7199         estimate D2E/DX2                !
 ! A133  A(59,62,63)           111.1935         estimate D2E/DX2                !
 ! A134  A(59,62,82)           127.0749         estimate D2E/DX2                !
 ! A135  A(63,62,82)           118.3718         estimate D2E/DX2                !
 ! A136  A(35,63,62)           154.1166         estimate D2E/DX2                !
 ! A137  A(58,66,67)           103.652          estimate D2E/DX2                !
 ! A138  A(58,66,68)           109.2516         estimate D2E/DX2                !
 ! A139  A(58,66,69)           113.5382         estimate D2E/DX2                !
 ! A140  A(67,66,68)           108.1266         estimate D2E/DX2                !
 ! A141  A(67,66,69)           111.166          estimate D2E/DX2                !
 ! A142  A(68,66,69)           110.7663         estimate D2E/DX2                !
 ! A143  A(66,69,70)           108.8541         estimate D2E/DX2                !
 ! A144  A(66,69,71)           107.9035         estimate D2E/DX2                !
 ! A145  A(66,69,72)           112.7869         estimate D2E/DX2                !
 ! A146  A(70,69,71)           106.4943         estimate D2E/DX2                !
 ! A147  A(70,69,72)           109.3487         estimate D2E/DX2                !
 ! A148  A(71,69,72)           111.2318         estimate D2E/DX2                !
 ! A149  A(69,72,73)           106.6507         estimate D2E/DX2                !
 ! A150  A(69,72,74)           110.752          estimate D2E/DX2                !
 ! A151  A(69,72,75)           113.3076         estimate D2E/DX2                !
 ! A152  A(73,72,74)           105.8223         estimate D2E/DX2                !
 ! A153  A(73,72,75)           109.9075         estimate D2E/DX2                !
 ! A154  A(74,72,75)           110.0766         estimate D2E/DX2                !
 ! A155  A(72,75,76)           110.6695         estimate D2E/DX2                !
 ! A156  A(72,75,77)           109.5888         estimate D2E/DX2                !
 ! A157  A(72,75,78)           114.0297         estimate D2E/DX2                !
 ! A158  A(76,75,77)           105.9796         estimate D2E/DX2                !
 ! A159  A(76,75,78)           107.7925         estimate D2E/DX2                !
 ! A160  A(77,75,78)           108.4418         estimate D2E/DX2                !
 ! A161  A(75,78,79)           111.4572         estimate D2E/DX2                !
 ! A162  A(75,78,80)           112.1725         estimate D2E/DX2                !
 ! A163  A(75,78,81)           111.583          estimate D2E/DX2                !
 ! A164  A(79,78,80)           107.8348         estimate D2E/DX2                !
 ! A165  A(79,78,81)           106.2096         estimate D2E/DX2                !
 ! A166  A(80,78,81)           107.2803         estimate D2E/DX2                !
 ! A167  A(78,81,82)           110.9498         estimate D2E/DX2                !
 ! A168  A(78,81,83)           110.1029         estimate D2E/DX2                !
 ! A169  A(78,81,84)           110.4059         estimate D2E/DX2                !
 ! A170  A(82,81,83)           110.2874         estimate D2E/DX2                !
 ! A171  A(82,81,84)           105.9457         estimate D2E/DX2                !
 ! A172  A(83,81,84)           109.0583         estimate D2E/DX2                !
 ! A173  L(1,43,35,17,-1)      183.945          estimate D2E/DX2                !
 ! A174  L(62,82,81,1,-1)      180.7678         estimate D2E/DX2                !
 ! A175  L(19,83,81,7,-1)      191.4842         estimate D2E/DX2                !
 ! A176  L(1,43,35,17,-2)      182.3855         estimate D2E/DX2                !
 ! A177  L(62,82,81,1,-2)      179.7353         estimate D2E/DX2                !
 ! A178  L(19,83,81,7,-2)      173.5932         estimate D2E/DX2                !
 ! D1    D(6,1,2,3)            -49.9154         estimate D2E/DX2                !
 ! D2    D(6,1,2,7)           -166.8982         estimate D2E/DX2                !
 ! D3    D(6,1,2,15)            72.4569         estimate D2E/DX2                !
 ! D4    D(43,1,2,3)          -152.1934         estimate D2E/DX2                !
 ! D5    D(43,1,2,7)            90.8237         estimate D2E/DX2                !
 ! D6    D(43,1,2,15)          -29.8212         estimate D2E/DX2                !
 ! D7    D(2,1,6,5)             52.697          estimate D2E/DX2                !
 ! D8    D(2,1,6,11)           -66.6152         estimate D2E/DX2                !
 ! D9    D(2,1,6,16)           177.3494         estimate D2E/DX2                !
 ! D10   D(43,1,6,5)           158.7887         estimate D2E/DX2                !
 ! D11   D(43,1,6,11)           39.4765         estimate D2E/DX2                !
 ! D12   D(43,1,6,16)          -76.5588         estimate D2E/DX2                !
 ! D13   D(2,1,35,28)           14.7821         estimate D2E/DX2                !
 ! D14   D(2,1,35,63)         -111.2225         estimate D2E/DX2                !
 ! D15   D(6,1,35,28)         -103.5566         estimate D2E/DX2                !
 ! D16   D(6,1,35,63)          130.4388         estimate D2E/DX2                !
 ! D17   D(1,2,3,4)             49.9826         estimate D2E/DX2                !
 ! D18   D(1,2,3,8)            -67.8213         estimate D2E/DX2                !
 ! D19   D(1,2,3,14)           176.5064         estimate D2E/DX2                !
 ! D20   D(7,2,3,4)            164.417          estimate D2E/DX2                !
 ! D21   D(7,2,3,8)             46.6131         estimate D2E/DX2                !
 ! D22   D(7,2,3,14)           -69.0592         estimate D2E/DX2                !
 ! D23   D(15,2,3,4)           -74.5527         estimate D2E/DX2                !
 ! D24   D(15,2,3,8)           167.6434         estimate D2E/DX2                !
 ! D25   D(15,2,3,14)           51.9711         estimate D2E/DX2                !
 ! D26   D(1,2,15,27)           76.532          estimate D2E/DX2                !
 ! D27   D(3,2,15,27)         -159.5363         estimate D2E/DX2                !
 ! D28   D(7,2,15,27)          -40.1341         estimate D2E/DX2                !
 ! D29   D(2,3,4,5)            -53.606          estimate D2E/DX2                !
 ! D30   D(2,3,4,9)             65.9271         estimate D2E/DX2                !
 ! D31   D(2,3,4,13)          -171.3573         estimate D2E/DX2                !
 ! D32   D(8,3,4,5)             63.565          estimate D2E/DX2                !
 ! D33   D(8,3,4,9)           -176.9019         estimate D2E/DX2                !
 ! D34   D(8,3,4,13)           -54.1863         estimate D2E/DX2                !
 ! D35   D(14,3,4,5)           179.734          estimate D2E/DX2                !
 ! D36   D(14,3,4,9)           -60.7329         estimate D2E/DX2                !
 ! D37   D(14,3,4,13)           61.9827         estimate D2E/DX2                !
 ! D38   D(2,3,14,23)          -40.9122         estimate D2E/DX2                !
 ! D39   D(4,3,14,23)           86.0722         estimate D2E/DX2                !
 ! D40   D(8,3,14,23)         -156.8478         estimate D2E/DX2                !
 ! D41   D(3,4,5,6)             54.6199         estimate D2E/DX2                !
 ! D42   D(3,4,5,10)           172.6729         estimate D2E/DX2                !
 ! D43   D(3,4,5,12)           -66.3686         estimate D2E/DX2                !
 ! D44   D(9,4,5,6)            -65.6924         estimate D2E/DX2                !
 ! D45   D(9,4,5,10)            52.3605         estimate D2E/DX2                !
 ! D46   D(9,4,5,12)           173.319          estimate D2E/DX2                !
 ! D47   D(13,4,5,6)           175.0058         estimate D2E/DX2                !
 ! D48   D(13,4,5,10)          -66.9412         estimate D2E/DX2                !
 ! D49   D(13,4,5,12)           54.0173         estimate D2E/DX2                !
 ! D50   D(3,4,13,22)          -46.2758         estimate D2E/DX2                !
 ! D51   D(5,4,13,22)         -166.3466         estimate D2E/DX2                !
 ! D52   D(9,4,13,22)           75.8567         estimate D2E/DX2                !
 ! D53   D(4,5,6,1)            -53.6253         estimate D2E/DX2                !
 ! D54   D(4,5,6,11)            66.9298         estimate D2E/DX2                !
 ! D55   D(4,5,6,16)          -173.9606         estimate D2E/DX2                !
 ! D56   D(10,5,6,1)          -172.2393         estimate D2E/DX2                !
 ! D57   D(10,5,6,11)          -51.6842         estimate D2E/DX2                !
 ! D58   D(10,5,6,16)           67.4254         estimate D2E/DX2                !
 ! D59   D(12,5,6,1)            68.7418         estimate D2E/DX2                !
 ! D60   D(12,5,6,11)         -170.7032         estimate D2E/DX2                !
 ! D61   D(12,5,6,16)          -51.5936         estimate D2E/DX2                !
 ! D62   D(4,5,12,21)          -46.8932         estimate D2E/DX2                !
 ! D63   D(6,5,12,21)         -168.5563         estimate D2E/DX2                !
 ! D64   D(10,5,12,21)          73.5488         estimate D2E/DX2                !
 ! D65   D(1,6,16,17)           65.1357         estimate D2E/DX2                !
 ! D66   D(1,6,16,18)         -177.3791         estimate D2E/DX2                !
 ! D67   D(1,6,16,19)          -54.1654         estimate D2E/DX2                !
 ! D68   D(5,6,16,17)         -170.907          estimate D2E/DX2                !
 ! D69   D(5,6,16,18)          -53.4218         estimate D2E/DX2                !
 ! D70   D(5,6,16,19)           69.7919         estimate D2E/DX2                !
 ! D71   D(11,6,16,17)         -52.0495         estimate D2E/DX2                !
 ! D72   D(11,6,16,18)          65.4357         estimate D2E/DX2                !
 ! D73   D(11,6,16,19)        -171.3506         estimate D2E/DX2                !
 ! D74   D(2,15,27,26)          28.1548         estimate D2E/DX2                !
 ! D75   D(2,15,27,28)         -97.4269         estimate D2E/DX2                !
 ! D76   D(2,15,27,32)         146.476          estimate D2E/DX2                !
 ! D77   D(6,16,19,20)         -46.5504         estimate D2E/DX2                !
 ! D78   D(6,16,19,83)          90.0929         estimate D2E/DX2                !
 ! D79   D(17,16,19,20)       -167.6561         estimate D2E/DX2                !
 ! D80   D(17,16,19,83)        -31.0128         estimate D2E/DX2                !
 ! D81   D(18,16,19,20)         75.7113         estimate D2E/DX2                !
 ! D82   D(18,16,19,83)       -147.6454         estimate D2E/DX2                !
 ! D83   D(16,19,81,78)        108.6352         estimate D2E/DX2                !
 ! D84   D(16,19,81,82)        -10.0668         estimate D2E/DX2                !
 ! D85   D(16,19,81,84)       -130.9897         estimate D2E/DX2                !
 ! D86   D(20,19,81,78)       -118.7878         estimate D2E/DX2                !
 ! D87   D(20,19,81,82)        122.5102         estimate D2E/DX2                !
 ! D88   D(20,19,81,84)          1.5873         estimate D2E/DX2                !
 ! D89   D(29,24,25,26)        -54.6309         estimate D2E/DX2                !
 ! D90   D(29,24,25,30)         66.9601         estimate D2E/DX2                !
 ! D91   D(29,24,25,37)       -179.9398         estimate D2E/DX2                !
 ! D92   D(25,24,29,28)         64.9624         estimate D2E/DX2                !
 ! D93   D(25,24,29,34)        -54.5618         estimate D2E/DX2                !
 ! D94   D(25,24,29,38)       -171.3251         estimate D2E/DX2                !
 ! D95   D(24,25,26,27)         44.7503         estimate D2E/DX2                !
 ! D96   D(24,25,26,31)        -70.8928         estimate D2E/DX2                !
 ! D97   D(24,25,26,36)        167.7279         estimate D2E/DX2                !
 ! D98   D(30,25,26,27)        -77.2249         estimate D2E/DX2                !
 ! D99   D(30,25,26,31)        167.1321         estimate D2E/DX2                !
 ! D100  D(30,25,26,36)         45.7527         estimate D2E/DX2                !
 ! D101  D(37,25,26,27)        166.8068         estimate D2E/DX2                !
 ! D102  D(37,25,26,31)         51.1637         estimate D2E/DX2                !
 ! D103  D(37,25,26,36)        -70.2157         estimate D2E/DX2                !
 ! D104  D(24,25,37,49)         85.5731         estimate D2E/DX2                !
 ! D105  D(26,25,37,49)        -39.3857         estimate D2E/DX2                !
 ! D106  D(30,25,37,49)       -157.9344         estimate D2E/DX2                !
 ! D107  D(25,26,27,15)       -172.0976         estimate D2E/DX2                !
 ! D108  D(25,26,27,28)        -46.523          estimate D2E/DX2                !
 ! D109  D(25,26,27,32)         72.997          estimate D2E/DX2                !
 ! D110  D(31,26,27,15)        -56.2623         estimate D2E/DX2                !
 ! D111  D(31,26,27,28)         69.3123         estimate D2E/DX2                !
 ! D112  D(31,26,27,32)       -171.1677         estimate D2E/DX2                !
 ! D113  D(36,26,27,15)         63.6648         estimate D2E/DX2                !
 ! D114  D(36,26,27,28)       -170.7607         estimate D2E/DX2                !
 ! D115  D(36,26,27,32)        -51.2406         estimate D2E/DX2                !
 ! D116  D(25,26,36,44)         62.4572         estimate D2E/DX2                !
 ! D117  D(27,26,36,44)       -172.5776         estimate D2E/DX2                !
 ! D118  D(31,26,36,44)        -55.9752         estimate D2E/DX2                !
 ! D119  D(15,27,28,29)       -176.7786         estimate D2E/DX2                !
 ! D120  D(15,27,28,33)        -57.3615         estimate D2E/DX2                !
 ! D121  D(15,27,28,35)         64.3551         estimate D2E/DX2                !
 ! D122  D(26,27,28,29)         56.0664         estimate D2E/DX2                !
 ! D123  D(26,27,28,33)        175.4836         estimate D2E/DX2                !
 ! D124  D(26,27,28,35)        -62.7998         estimate D2E/DX2                !
 ! D125  D(32,27,28,29)        -63.8906         estimate D2E/DX2                !
 ! D126  D(32,27,28,33)         55.5265         estimate D2E/DX2                !
 ! D127  D(32,27,28,35)        177.2431         estimate D2E/DX2                !
 ! D128  D(27,28,29,24)        -64.3371         estimate D2E/DX2                !
 ! D129  D(27,28,29,34)         55.3933         estimate D2E/DX2                !
 ! D130  D(27,28,29,38)        177.1606         estimate D2E/DX2                !
 ! D131  D(33,28,29,24)        177.1427         estimate D2E/DX2                !
 ! D132  D(33,28,29,34)        -63.1269         estimate D2E/DX2                !
 ! D133  D(33,28,29,38)         58.6404         estimate D2E/DX2                !
 ! D134  D(35,28,29,24)         57.6859         estimate D2E/DX2                !
 ! D135  D(35,28,29,34)        177.4163         estimate D2E/DX2                !
 ! D136  D(35,28,29,38)        -60.8164         estimate D2E/DX2                !
 ! D137  D(27,28,35,43)        -28.6416         estimate D2E/DX2                !
 ! D138  D(27,28,35,63)         83.2958         estimate D2E/DX2                !
 ! D139  D(29,28,35,43)       -147.7303         estimate D2E/DX2                !
 ! D140  D(29,28,35,63)        -35.7929         estimate D2E/DX2                !
 ! D141  D(33,28,35,43)         92.5278         estimate D2E/DX2                !
 ! D142  D(33,28,35,63)       -155.5348         estimate D2E/DX2                !
 ! D143  D(24,29,38,39)       -177.5084         estimate D2E/DX2                !
 ! D144  D(24,29,38,40)        -59.5794         estimate D2E/DX2                !
 ! D145  D(24,29,38,41)         64.9798         estimate D2E/DX2                !
 ! D146  D(28,29,38,39)        -57.8378         estimate D2E/DX2                !
 ! D147  D(28,29,38,40)         60.0912         estimate D2E/DX2                !
 ! D148  D(28,29,38,41)       -175.3496         estimate D2E/DX2                !
 ! D149  D(34,29,38,39)         64.6388         estimate D2E/DX2                !
 ! D150  D(34,29,38,40)       -177.4322         estimate D2E/DX2                !
 ! D151  D(34,29,38,41)        -52.873          estimate D2E/DX2                !
 ! D152  D(28,35,63,62)       -152.6914         estimate D2E/DX2                !
 ! D153  D(43,35,63,62)        -36.2247         estimate D2E/DX2                !
 ! D154  D(26,36,44,56)         25.627          estimate D2E/DX2                !
 ! D155  D(25,37,49,48)        130.0395         estimate D2E/DX2                !
 ! D156  D(25,37,49,50)       -106.9621         estimate D2E/DX2                !
 ! D157  D(25,37,49,55)         12.4408         estimate D2E/DX2                !
 ! D158  D(29,38,41,42)        -56.41           estimate D2E/DX2                !
 ! D159  D(39,38,41,42)       -175.5849         estimate D2E/DX2                !
 ! D160  D(40,38,41,42)         66.7814         estimate D2E/DX2                !
 ! D161  D(36,44,56,48)        -40.0576         estimate D2E/DX2                !
 ! D162  D(36,44,56,64)        158.3302         estimate D2E/DX2                !
 ! D163  D(50,45,46,47)        -64.8768         estimate D2E/DX2                !
 ! D164  D(50,45,46,51)         57.3763         estimate D2E/DX2                !
 ! D165  D(50,45,46,58)        179.3239         estimate D2E/DX2                !
 ! D166  D(46,45,50,49)         66.4517         estimate D2E/DX2                !
 ! D167  D(46,45,50,54)        -53.6222         estimate D2E/DX2                !
 ! D168  D(46,45,50,59)       -170.0182         estimate D2E/DX2                !
 ! D169  D(45,46,47,48)         53.071          estimate D2E/DX2                !
 ! D170  D(45,46,47,52)        -64.9256         estimate D2E/DX2                !
 ! D171  D(45,46,47,57)        173.1652         estimate D2E/DX2                !
 ! D172  D(51,46,47,48)        -67.5173         estimate D2E/DX2                !
 ! D173  D(51,46,47,52)        174.4861         estimate D2E/DX2                !
 ! D174  D(51,46,47,57)         52.5769         estimate D2E/DX2                !
 ! D175  D(58,46,47,48)        170.6753         estimate D2E/DX2                !
 ! D176  D(58,46,47,52)         52.6787         estimate D2E/DX2                !
 ! D177  D(58,46,47,57)        -69.2305         estimate D2E/DX2                !
 ! D178  D(45,46,58,66)        -77.9041         estimate D2E/DX2                !
 ! D179  D(47,46,58,66)        164.7462         estimate D2E/DX2                !
 ! D180  D(51,46,58,66)         42.6571         estimate D2E/DX2                !
 ! D181  D(46,47,48,49)        -46.9133         estimate D2E/DX2                !
 ! D182  D(46,47,48,53)         73.6781         estimate D2E/DX2                !
 ! D183  D(46,47,48,56)       -165.9049         estimate D2E/DX2                !
 ! D184  D(52,47,48,49)         69.986          estimate D2E/DX2                !
 ! D185  D(52,47,48,53)       -169.4226         estimate D2E/DX2                !
 ! D186  D(52,47,48,56)        -49.0056         estimate D2E/DX2                !
 ! D187  D(57,47,48,49)       -170.618          estimate D2E/DX2                !
 ! D188  D(57,47,48,53)        -50.0265         estimate D2E/DX2                !
 ! D189  D(57,47,48,56)         70.3905         estimate D2E/DX2                !
 ! D190  D(46,47,57,65)         63.2026         estimate D2E/DX2                !
 ! D191  D(48,47,57,65)       -173.5716         estimate D2E/DX2                !
 ! D192  D(52,47,57,65)        -56.0354         estimate D2E/DX2                !
 ! D193  D(47,48,49,37)        173.0466         estimate D2E/DX2                !
 ! D194  D(47,48,49,50)         48.7982         estimate D2E/DX2                !
 ! D195  D(47,48,49,55)        -66.4867         estimate D2E/DX2                !
 ! D196  D(53,48,49,37)         52.2347         estimate D2E/DX2                !
 ! D197  D(53,48,49,50)        -72.0137         estimate D2E/DX2                !
 ! D198  D(53,48,49,55)        172.7014         estimate D2E/DX2                !
 ! D199  D(56,48,49,37)        -66.2834         estimate D2E/DX2                !
 ! D200  D(56,48,49,50)        169.4682         estimate D2E/DX2                !
 ! D201  D(56,48,49,55)         54.1833         estimate D2E/DX2                !
 ! D202  D(47,48,56,44)        134.0964         estimate D2E/DX2                !
 ! D203  D(47,48,56,64)        -61.0389         estimate D2E/DX2                !
 ! D204  D(49,48,56,44)         12.2277         estimate D2E/DX2                !
 ! D205  D(49,48,56,64)        177.0924         estimate D2E/DX2                !
 ! D206  D(53,48,56,44)       -105.755          estimate D2E/DX2                !
 ! D207  D(53,48,56,64)         59.1097         estimate D2E/DX2                !
 ! D208  D(37,49,50,45)       -177.2029         estimate D2E/DX2                !
 ! D209  D(37,49,50,54)        -56.9847         estimate D2E/DX2                !
 ! D210  D(37,49,50,59)         64.1696         estimate D2E/DX2                !
 ! D211  D(48,49,50,45)        -56.7734         estimate D2E/DX2                !
 ! D212  D(48,49,50,54)         63.4448         estimate D2E/DX2                !
 ! D213  D(48,49,50,59)       -175.4009         estimate D2E/DX2                !
 ! D214  D(55,49,50,45)         59.7642         estimate D2E/DX2                !
 ! D215  D(55,49,50,54)        179.9824         estimate D2E/DX2                !
 ! D216  D(55,49,50,59)        -58.8633         estimate D2E/DX2                !
 ! D217  D(45,50,59,60)         56.1382         estimate D2E/DX2                !
 ! D218  D(45,50,59,61)        174.2929         estimate D2E/DX2                !
 ! D219  D(45,50,59,62)        -63.0073         estimate D2E/DX2                !
 ! D220  D(49,50,59,60)        175.1342         estimate D2E/DX2                !
 ! D221  D(49,50,59,61)        -66.711          estimate D2E/DX2                !
 ! D222  D(49,50,59,62)         55.9888         estimate D2E/DX2                !
 ! D223  D(54,50,59,60)        -62.2167         estimate D2E/DX2                !
 ! D224  D(54,50,59,61)         55.9381         estimate D2E/DX2                !
 ! D225  D(54,50,59,62)        178.6379         estimate D2E/DX2                !
 ! D226  D(46,58,66,67)       -164.7848         estimate D2E/DX2                !
 ! D227  D(46,58,66,68)        -49.7003         estimate D2E/DX2                !
 ! D228  D(46,58,66,69)         74.4784         estimate D2E/DX2                !
 ! D229  D(50,59,62,63)       -104.0758         estimate D2E/DX2                !
 ! D230  D(50,59,62,82)         54.6378         estimate D2E/DX2                !
 ! D231  D(60,59,62,63)        136.6793         estimate D2E/DX2                !
 ! D232  D(60,59,62,82)        -64.6071         estimate D2E/DX2                !
 ! D233  D(61,59,62,63)         18.4161         estimate D2E/DX2                !
 ! D234  D(61,59,62,82)        177.1297         estimate D2E/DX2                !
 ! D235  D(59,62,63,35)        172.6724         estimate D2E/DX2                !
 ! D236  D(82,62,63,35)         11.8916         estimate D2E/DX2                !
 ! D237  D(59,62,81,78)         74.1502         estimate D2E/DX2                !
 ! D238  D(59,62,81,83)       -163.4407         estimate D2E/DX2                !
 ! D239  D(59,62,81,84)        -45.4158         estimate D2E/DX2                !
 ! D240  D(63,62,81,78)       -128.3969         estimate D2E/DX2                !
 ! D241  D(63,62,81,83)         -5.9878         estimate D2E/DX2                !
 ! D242  D(63,62,81,84)        112.0371         estimate D2E/DX2                !
 ! D243  D(58,66,69,70)        -73.2398         estimate D2E/DX2                !
 ! D244  D(58,66,69,71)        171.5713         estimate D2E/DX2                !
 ! D245  D(58,66,69,72)         48.3068         estimate D2E/DX2                !
 ! D246  D(67,66,69,70)        170.3539         estimate D2E/DX2                !
 ! D247  D(67,66,69,71)         55.1651         estimate D2E/DX2                !
 ! D248  D(67,66,69,72)        -68.0994         estimate D2E/DX2                !
 ! D249  D(68,66,69,70)         50.1139         estimate D2E/DX2                !
 ! D250  D(68,66,69,71)        -65.0749         estimate D2E/DX2                !
 ! D251  D(68,66,69,72)        171.6606         estimate D2E/DX2                !
 ! D252  D(66,69,72,73)        -27.486          estimate D2E/DX2                !
 ! D253  D(66,69,72,74)         87.2005         estimate D2E/DX2                !
 ! D254  D(66,69,72,75)       -148.5393         estimate D2E/DX2                !
 ! D255  D(70,69,72,73)         93.7801         estimate D2E/DX2                !
 ! D256  D(70,69,72,74)       -151.5334         estimate D2E/DX2                !
 ! D257  D(70,69,72,75)        -27.2732         estimate D2E/DX2                !
 ! D258  D(71,69,72,73)       -148.8809         estimate D2E/DX2                !
 ! D259  D(71,69,72,74)        -34.1944         estimate D2E/DX2                !
 ! D260  D(71,69,72,75)         90.0658         estimate D2E/DX2                !
 ! D261  D(69,72,75,76)        -81.5969         estimate D2E/DX2                !
 ! D262  D(69,72,75,77)         34.9265         estimate D2E/DX2                !
 ! D263  D(69,72,75,78)        156.6821         estimate D2E/DX2                !
 ! D264  D(73,72,75,76)        159.2041         estimate D2E/DX2                !
 ! D265  D(73,72,75,77)        -84.2725         estimate D2E/DX2                !
 ! D266  D(73,72,75,78)         37.4831         estimate D2E/DX2                !
 ! D267  D(74,72,75,76)         43.0299         estimate D2E/DX2                !
 ! D268  D(74,72,75,77)        159.5532         estimate D2E/DX2                !
 ! D269  D(74,72,75,78)        -78.6911         estimate D2E/DX2                !
 ! D270  D(72,75,78,79)        174.9424         estimate D2E/DX2                !
 ! D271  D(72,75,78,80)         53.9089         estimate D2E/DX2                !
 ! D272  D(72,75,78,81)        -66.5            estimate D2E/DX2                !
 ! D273  D(76,75,78,79)         51.6463         estimate D2E/DX2                !
 ! D274  D(76,75,78,80)        -69.3872         estimate D2E/DX2                !
 ! D275  D(76,75,78,81)        170.2039         estimate D2E/DX2                !
 ! D276  D(77,75,78,79)        -62.6711         estimate D2E/DX2                !
 ! D277  D(77,75,78,80)        176.2954         estimate D2E/DX2                !
 ! D278  D(77,75,78,81)         55.8865         estimate D2E/DX2                !
 ! D279  D(75,78,81,82)        -60.5922         estimate D2E/DX2                !
 ! D280  D(75,78,81,83)        177.0308         estimate D2E/DX2                !
 ! D281  D(75,78,81,84)         56.5563         estimate D2E/DX2                !
 ! D282  D(79,78,81,82)         61.0542         estimate D2E/DX2                !
 ! D283  D(79,78,81,83)        -61.3229         estimate D2E/DX2                !
 ! D284  D(79,78,81,84)        178.2027         estimate D2E/DX2                !
 ! D285  D(80,78,81,82)        176.171          estimate D2E/DX2                !
 ! D286  D(80,78,81,83)         53.794          estimate D2E/DX2                !
 ! D287  D(80,78,81,84)        -66.6804         estimate D2E/DX2                !
 --------------------------------------------------------------------------------
 Trust Radius=3.00D-01 FncErr=1.00D-07 GrdErr=1.00D-06
 Number of steps in this run=    504 maximum allowed number of steps=    504.
 GradGradGradGradGradGradGradGradGradGradGradGradGradGradGradGradGradGrad

 Leave Link  103 at Wed Apr  6 15:55:05 2016, MaxMem= 10737418240 cpu:         1.0
 (Enter /share/apps//g09/l202.exe)
 Stoichiometry    C23H44NO16(1+)
 Framework group  C1[X(C23H44NO16)]
 Deg. of freedom   246
 Full point group                 C1      NOp   1
 Largest Abelian subgroup         C1      NOp   1
 Largest concise Abelian subgroup C1      NOp   1
                         Standard orientation:                         
 ---------------------------------------------------------------------
 Center     Atomic      Atomic             Coordinates (Angstroms)
 Number     Number       Type             X           Y           Z
 ---------------------------------------------------------------------
      1          8           0        2.229553   -1.015709   -0.142939
      2          6           0        2.735387   -0.260819    0.985832
      3          6           0        3.784939   -1.059064    1.770334
      4          6           0        4.871277   -1.646586    0.863760
      5          6           0        4.238385   -2.465300   -0.263559
      6          6           0        3.224955   -1.616821   -1.023300
      7          1           0        1.858907   -0.111008    1.628509
      8          1           0        3.252883   -1.899613    2.242969
      9          1           0        5.465879   -0.828357    0.412509
     10          1           0        5.031260   -2.765466   -0.974617
     11          1           0        3.786720   -0.819399   -1.544987
     12          8           0        3.579056   -3.634772    0.247528
     13          8           0        5.710126   -2.539467    1.590932
     14          8           0        4.344134   -0.297928    2.830900
     15          8           0        3.300617    0.971632    0.600482
     16          6           0        2.437552   -2.399534   -2.075306
     17          1           0        1.847052   -1.707710   -2.693694
     18          1           0        3.149798   -2.914641   -2.741562
     19          8           0        1.512350   -3.339150   -1.504944
     20          1           0        2.013404   -3.818997   -0.805177
     21          1           0        4.202049   -4.052034    0.874392
     22          1           0        5.944454   -2.097796    2.429582
     23          1           0        4.485297    0.608015    2.491266
     24          8           0        0.041898    3.165711   -0.997711
     25          6           0        0.055018    3.084155    0.431684
     26          6           0        1.052647    2.019816    0.960006
     27          6           0        2.404815    2.078989    0.251883
     28          6           0        2.220616    2.173594   -1.269924
     29          6           0        1.344128    3.393691   -1.567090
     30          1           0        0.319883    4.068847    0.858315
     31          1           0        0.619569    1.036307    0.706691
     32          1           0        2.954965    2.969817    0.593678
     33          1           0        3.213236    2.296419   -1.739198
     34          1           0        1.799795    4.295219   -1.112666
     35          8           0        1.564135    1.018900   -1.823047
     36          8           0        1.253403    2.148249    2.351324
     37          8           0       -1.272606    2.859609    0.852752
     38          6           0        1.119378    3.670566   -3.050870
     39          1           0        2.092088    3.808416   -3.545015
     40          1           0        0.622121    2.800362   -3.517039
     41          8           0        0.389758    4.871337   -3.257499
     42          1           0       -0.447574    4.792000   -2.764995
     43          1           0        1.779994    0.247445   -1.241199
     44          1           0        0.390038    1.988142    2.798725
     45          8           0       -3.309898   -0.111511   -0.001216
     46          6           0       -4.094957   -0.227228    1.205781
     47          6           0       -3.188316    0.035457    2.413227
     48          6           0       -2.435972    1.359043    2.286938
     49          6           0       -1.802750    1.525122    0.907536
     50          6           0       -2.813804    1.222872   -0.213689
     51          1           0       -4.940407    0.492543    1.159822
     52          1           0       -2.444031   -0.785282    2.428929
     53          1           0       -3.138451    2.195042    2.460381
     54          1           0       -3.647356    1.953242   -0.182147
     55          1           0       -1.015745    0.764217    0.808683
     56          8           0       -1.371995    1.413662    3.250800
     57          8           0       -3.907697    0.095570    3.639468
     58          8           0       -4.549949   -1.536890    1.333137
     59          6           0       -2.230199    1.258666   -1.623606
     60          1           0       -3.018331    0.943548   -2.323868
     61          1           0       -1.931649    2.284660   -1.866993
     62          8           0       -1.110687    0.373444   -1.797537
     63          1           0       -0.253766    0.875861   -1.807687
     64          1           0       -1.773810    1.355085    4.136652
     65          1           0       -4.312986   -0.777189    3.791265
     66          6           0       -5.682540   -1.922865    0.512787
     67          1           0       -6.028349   -2.859514    0.972163
     68          1           0       -6.482875   -1.171588    0.621097
     69          6           0       -5.327201   -2.128783   -0.962401
     70          1           0       -5.154789   -1.147021   -1.426791
     71          1           0       -6.206094   -2.562475   -1.465049
     72          6           0       -4.081367   -3.011251   -1.157931
     73          1           0       -3.460220   -2.884729   -0.256642
     74          1           0       -4.358246   -4.076812   -1.184625
     75          6           0       -3.268099   -2.646143   -2.409252
     76          1           0       -3.712140   -3.101042   -3.307492
     77          1           0       -3.306838   -1.557130   -2.570115
     78          6           0       -1.804852   -3.072788   -2.345458
     79          1           0       -1.286586   -2.872636   -3.292180
     80          1           0       -1.694238   -4.143016   -2.120852
     81          7           0       -1.051823   -2.312865   -1.285005
     82          1           0       -1.065521   -1.267752   -1.483838
     83          1           0       -0.054772   -2.662084   -1.226180
     84          1           0       -1.503682   -2.432075   -0.369730
 ---------------------------------------------------------------------
 Rotational constants (GHZ):      0.1037063      0.0679890      0.0591379
 Leave Link  202 at Wed Apr  6 15:55:07 2016, MaxMem= 10737418240 cpu:         3.8
 (Enter /share/apps//g09/l301.exe)
 Standard basis: 6-311+G(d,p) (5D, 7F)
 Ernie: Thresh=  0.10000D-02 Tol=  0.10000D-05 Strict=F.
 There are  1184 symmetry adapted cartesian basis functions of A   symmetry.
 There are  1144 symmetry adapted basis functions of A   symmetry.
  1144 basis functions,  1792 primitive gaussians,  1184 cartesian basis functions
   158 alpha electrons      158 beta electrons
       nuclear repulsion energy      5865.8626751106 Hartrees.
 IExCor= 1009 DFT=T Ex+Corr=PBE1PBE ExCW=0 ScaHFX=  0.250000
 ScaDFX=  0.750000  0.750000  1.000000  1.000000 ScalE2=  1.000000  1.000000
 IRadAn=      0 IRanWt=     -1 IRanGd=            0 ICorTp=0 IEmpDi=131
 NAtoms=   84 NActive=   84 NUniq=   84 SFac= 1.00D+00 NAtFMM=   60 NAOKFM=T Big=T
 Integral buffers will be    131072 words long.
 Raffenetti 2 integral format.
 Two-electron integral symmetry is turned on.
 R6Disp:  Grimme-D3 Dispersion energy=       -0.0838379378 Hartrees.
 Nuclear repulsion after empirical dispersion term =     5865.7788371729 Hartrees.
 Leave Link  301 at Wed Apr  6 15:55:08 2016, MaxMem= 10737418240 cpu:         3.0
 (Enter /share/apps//g09/l302.exe)
 NPDir=0 NMtPBC=     1 NCelOv=     1 NCel=       1 NClECP=     1 NCelD=      1
         NCelK=      1 NCelE2=     1 NClLst=     1 CellRange=     0.0.
 One-electron integrals computed using PRISM.
 NBasis=  1144 RedAO= T EigKep=  1.19D-06  NBF=  1144
 NBsUse=  1144 1.00D-06 EigRej= -1.00D+00 NBFU=  1144
 Precomputing XC quadrature grid using
 IXCGrd= 4 IRadAn=           0 IRanWt=          -1 IRanGd=           0 AccXCQ= 0.00D+00.
 Generated NRdTot=       0 NPtTot=           0 NUsed=           0 NTot=          32
 NSgBfM=  1086  1086  1092  1092  1092 MxSgAt=    84 MxSgA2=    84.
 Leave Link  302 at Wed Apr  6 15:55:15 2016, MaxMem= 10737418240 cpu:        74.2
 (Enter /share/apps//g09/l303.exe)
 DipDrv:  MaxL=1.
 Leave Link  303 at Wed Apr  6 15:55:17 2016, MaxMem= 10737418240 cpu:        25.1
 (Enter /share/apps//g09/l401.exe)
 ExpMin= 4.38D-02 ExpMax= 8.59D+03 ExpMxC= 1.30D+03 IAcc=2 IRadAn=         4 AccDes= 0.00D+00
 Harris functional with IExCor= 1009 and IRadAn=       4 diagonalized for initial guess.
 HarFok:  IExCor= 1009 AccDes= 0.00D+00 IRadAn=         4 IDoV= 1 UseB2=F ITyADJ=14
 ICtDFT=  3500011 ScaDFX=  1.000000  1.000000  1.000000  1.000000
 FoFCou: FMM=F IPFlag=           0 FMFlag=      100000 FMFlg1=        2001
         NFxFlg=           0 DoJE=T BraDBF=F KetDBF=T FulRan=T
         wScrn=  0.000000 ICntrl=     500 IOpCl=  0 I1Cent=   200000004 NGrid=           0
         NMat0=    1 NMatS0=      1 NMatT0=    0 NMatD0=    1 NMtDS0=    0 NMtDT0=    0
 Petite list used in FoFCou.
 Harris En= -2159.71006155370    
 JPrj=0 DoOrth=F DoCkMO=F.
 Leave Link  401 at Wed Apr  6 15:55:25 2016, MaxMem= 10737418240 cpu:       125.4
 (Enter /share/apps//g09/l502.exe)
 Closed shell SCF:
 Using DIIS extrapolation, IDIIS=  1040.
 Integral symmetry usage will be decided dynamically.
 IVT=     4256630 IEndB=     4256630 NGot= 10737418240 MDV= 10734581291
 LenX= 10734581291 LenY= 10733178251
 Requested convergence on RMS density matrix=1.00D-08 within 128 cycles.
 Requested convergence on MAX density matrix=1.00D-06.
 Requested convergence on             energy=1.00D-06.
 No special actions if energy rises.
 Fock matrices will be formed incrementally for  20 cycles.

 Cycle   1  Pass 1  IDiag  1:
 FoFJK:  IHMeth= 1 ICntrl=       0 DoSepK=F KAlg= 0 I1Cent=   0 FoldK=F
 IRaf= 790000000 NMat=   1 IRICut=       1 DoRegI=T DoRafI=F ISym2E= 0.
 FoFCou: FMM=T IPFlag=           0 FMFlag=      100000 FMFlg1=        2001
         NFxFlg=           0 DoJE=F BraDBF=F KetDBF=F FulRan=T
         wScrn=  0.000000 ICntrl=       0 IOpCl=  0 I1Cent=           0 NGrid=           0
         NMat0=    1 NMatS0=      1 NMatT0=    0 NMatD0=    1 NMtDS0=    0 NMtDT0=    0
 Symmetry not used in FoFCou.
 FMM levels:  10  Number of levels for PrismC:   9
 E= -2158.68717301460    
 DIIS: error= 1.29D-02 at cycle   1 NSaved=   1.
 NSaved= 1 IEnMin= 1 EnMin= -2158.68717301460     IErMin= 1 ErrMin= 1.29D-02
 ErrMax= 1.29D-02  0.00D+00 EMaxC= 1.00D-01 BMatC= 1.02D+00 BMatP= 1.02D+00
 IDIUse=3 WtCom= 8.71D-01 WtEn= 1.29D-01
 Coeff-Com:  0.100D+01
 Coeff-En:   0.100D+01
 Coeff:      0.100D+01
 Gap=     0.263 Goal=   None    Shift=    0.000
 GapD=    0.263 DampG=1.000 DampE=0.500 DampFc=0.5000 IDamp=-1.
 Damping current iteration by 5.00D-01
 RMSDP=1.51D-02 MaxDP=5.11D+00              OVMax= 1.47D-01

 Cycle   2  Pass 1  IDiag  1:
 RMSU=  7.00D-03    CP:  1.06D+00
 E= -2158.96877797365     Delta-E=       -0.281604959056 Rises=F Damp=T
 DIIS: error= 3.38D-03 at cycle   2 NSaved=   2.
 NSaved= 2 IEnMin= 2 EnMin= -2158.96877797365     IErMin= 2 ErrMin= 3.38D-03
 ErrMax= 3.38D-03  0.00D+00 EMaxC= 1.00D-01 BMatC= 8.22D-02 BMatP= 1.02D+00
 IDIUse=3 WtCom= 9.66D-01 WtEn= 3.38D-02
 Coeff-Com:  0.636D-01 0.936D+00
 Coeff-En:   0.162D+00 0.838D+00
 Coeff:      0.670D-01 0.933D+00
 Gap=     0.284 Goal=   None    Shift=    0.000
 RMSDP=7.36D-03 MaxDP=2.79D+00 DE=-2.82D-01 OVMax= 8.69D-02

 Cycle   3  Pass 1  IDiag  1:
 RMSU=  3.05D-03    CP:  9.26D-01  6.53D-01
 E= -2159.33992814537     Delta-E=       -0.371150171720 Rises=F Damp=F
 DIIS: error= 3.44D-03 at cycle   3 NSaved=   3.
 NSaved= 3 IEnMin= 3 EnMin= -2159.33992814537     IErMin= 2 ErrMin= 3.38D-03
 ErrMax= 3.44D-03  0.00D+00 EMaxC= 1.00D-01 BMatC= 4.63D-02 BMatP= 8.22D-02
 IDIUse=3 WtCom= 9.66D-01 WtEn= 3.44D-02
 Coeff-Com: -0.651D-01 0.412D+00 0.654D+00
 Coeff-En:   0.000D+00 0.000D+00 0.100D+01
 Coeff:     -0.629D-01 0.397D+00 0.666D+00
 Gap=     0.277 Goal=   None    Shift=    0.000
 RMSDP=1.66D-03 MaxDP=5.06D-01 DE=-3.71D-01 OVMax= 1.86D-02

 Cycle   4  Pass 1  IDiag  1:
 RMSU=  1.16D-03    CP:  9.43D-01  7.70D-01  9.12D-01
 E= -2159.36868442392     Delta-E=       -0.028756278552 Rises=F Damp=F
 DIIS: error= 9.62D-04 at cycle   4 NSaved=   4.
 NSaved= 4 IEnMin= 4 EnMin= -2159.36868442392     IErMin= 4 ErrMin= 9.62D-04
 ErrMax= 9.62D-04  0.00D+00 EMaxC= 1.00D-01 BMatC= 6.27D-03 BMatP= 4.63D-02
 IDIUse=3 WtCom= 9.90D-01 WtEn= 9.62D-03
 Coeff-Com: -0.359D-01 0.123D+00 0.341D+00 0.571D+00
 Coeff-En:   0.000D+00 0.000D+00 0.849D-01 0.915D+00
 Coeff:     -0.355D-01 0.122D+00 0.339D+00 0.575D+00
 Gap=     0.268 Goal=   None    Shift=    0.000
 RMSDP=1.27D-03 MaxDP=4.62D-01 DE=-2.88D-02 OVMax= 6.71D-03

 Cycle   5  Pass 1  IDiag  1:
 RMSU=  3.81D-04    CP:  9.20D-01  7.26D-01  9.38D-01  6.33D-01
 E= -2159.37405583795     Delta-E=       -0.005371414025 Rises=F Damp=F
 DIIS: error= 2.64D-04 at cycle   5 NSaved=   5.
 NSaved= 5 IEnMin= 5 EnMin= -2159.37405583795     IErMin= 5 ErrMin= 2.64D-04
 ErrMax= 2.64D-04  0.00D+00 EMaxC= 1.00D-01 BMatC= 2.35D-04 BMatP= 6.27D-03
 IDIUse=3 WtCom= 9.97D-01 WtEn= 2.64D-03
 Coeff-Com: -0.109D-01 0.250D-01 0.987D-01 0.240D+00 0.647D+00
 Coeff-En:   0.000D+00 0.000D+00 0.000D+00 0.000D+00 0.100D+01
 Coeff:     -0.109D-01 0.250D-01 0.985D-01 0.240D+00 0.648D+00
 Gap=     0.266 Goal=   None    Shift=    0.000
 RMSDP=1.75D-04 MaxDP=5.65D-02 DE=-5.37D-03 OVMax= 1.47D-03

 Cycle   6  Pass 1  IDiag  1:
 RMSU=  8.31D-05    CP:  9.22D-01  7.33D-01  9.47D-01  6.32D-01  7.53D-01
 E= -2159.37422700391     Delta-E=       -0.000171165958 Rises=F Damp=F
 DIIS: error= 9.55D-05 at cycle   6 NSaved=   6.
 NSaved= 6 IEnMin= 6 EnMin= -2159.37422700391     IErMin= 6 ErrMin= 9.55D-05
 ErrMax= 9.55D-05  0.00D+00 EMaxC= 1.00D-01 BMatC= 3.01D-05 BMatP= 2.35D-04
 IDIUse=1 WtCom= 1.00D+00 WtEn= 0.00D+00
 Coeff-Com: -0.420D-02 0.750D-02 0.370D-01 0.103D+00 0.355D+00 0.501D+00
 Coeff:     -0.420D-02 0.750D-02 0.370D-01 0.103D+00 0.355D+00 0.501D+00
 Gap=     0.267 Goal=   None    Shift=    0.000
 RMSDP=4.67D-05 MaxDP=9.02D-03 DE=-1.71D-04 OVMax= 4.69D-04

 Cycle   7  Pass 1  IDiag  1:
 RMSU=  2.12D-05    CP:  9.23D-01  7.32D-01  9.46D-01  6.50D-01  7.69D-01
                    CP:  6.46D-01
 E= -2159.37424935267     Delta-E=       -0.000022348766 Rises=F Damp=F
 DIIS: error= 2.81D-05 at cycle   7 NSaved=   7.
 NSaved= 7 IEnMin= 7 EnMin= -2159.37424935267     IErMin= 7 ErrMin= 2.81D-05
[...]
 978,-0.00011617,-0.00006039,-0.00016797,-0.00009096,0.00029302,-0.0002
 9427,0.00006745,-0.00006565,-0.00000615,0.00000556,0.00001873,-0.00001
 279,-0.00001565,0.00001663,0.00001470,-0.00006801,0.00002319,-0.000045
 42,0.00001606,-0.00003826,0.00001798,0.00071221,0.00021997,0.00036965,
 0.00002755,-0.00002201,0.00015856,-0.00007712,0.00041036,0.00039054,0.
 00027401,-0.00015246,-0.00034136,0.00010304,-0.00003092,-0.00006151,0.
 00016526,-0.00010805,0.00002411,0.00002650,-0.00024076,0.00011476,-0.0
 0004107,-0.00033311,0.00011812,-0.00001824,0.00003145,0.00006754,0.000
 04258,-0.00001295,0.00001549,-0.00001753,0.00000518,-0.00001122,-0.000
 01686,0.00006304,0.00004419,0.00006869,-0.00004583,0.00003640,-0.00020
 545,0.00013372,-0.00011577,-0.00017697,0.00007452,0.00007086,-0.000149
 36,0.00015914,0.00014938,-0.00016927,0.00002525,-0.00055840,-0.0000239
 4,-0.00000966,0.00002892,0.00006720,0.00002754,0.00012412,0.00029181,0
 .00067329,0.00077150,0.00018364,-0.00055155,0.00035518,0.00002903,-0.0
 0001843,0.00000877,0.00008181,-0.00001342,-0.00000923,0.00016307,-0.00
 003055,-0.00009715,-0.00001578,-0.00001020,-0.00001085,-0.00002878,0.0
 0004195,0.00005292,0.00003205,-0.00027325,-0.00001179,0.00000588,0.000
 02132,0.00001808,0.00006012,0.00004838,0.00015815,-0.00032986,0.000300
 13,0.00050073,0.00074428,-0.00031396,-0.00021018,0.00016046,-0.0001636
 6,0.00006119,-0.00266089,0.00314182,0.00084074,-0.00011290,0.00003303,
 -0.00098027,0.00014791,0.00008639,0.00036219,-0.00933339,0.00066712,-0
 .01952445,-0.00037642,-0.00059890,-0.00004746,0.00108304,-0.00066143,0
 .00050603,-0.09962794,-0.00445228,-0.09141336,-0.00590197,0.00084317,-
 0.01286918,0.10882309,-0.00082248,0.00122568,-0.00110218,0.00055555,-0
 .00101109,-0.00049855,0.00009226,0.00015920,0.00013044,0.00005058,0.00
 000332,0.00012152,0.00013941,0.00034830,-0.00019579,-0.00068939,-0.000
 02303,0.00178779,0.00003489,-0.00005180,-0.00004070,0.00000422,0.00001
 627,0.00000926,0.00001013,-0.00001979,-0.00000213,-0.00008127,-0.00007
 619,-0.00004806,0.00020685,-0.00017562,-0.00022724,0.00014688,-0.00037
 135,0.00014545,-0.00008185,-0.00007964,-0.00010921,-0.00019562,0.00004
 078,-0.00013519,0.00001360,0.00052413,-0.00007186,0.00230134,0.0022093
 9,0.00358550,-0.00073300,-0.00008739,0.00035945,-0.00028826,-0.0007535
 7,0.00031917,-0.00292373,-0.00869459,-0.00046347,-0.00007919,-0.000478
 97,-0.00055773,-0.00000857,0.00000455,0.00001531,0.00001584,0.00000810
 ,0.00003224,0.00005486,-0.00002585,0.00004248,0.00004804,0.00000110,0.
 00006731,-0.00008977,0.00002419,-0.00014792,0.00013204,-0.00018346,0.0
 0000845,-0.00008939,-0.00005721,-0.00009422,0.00009137,-0.00028253,0.0
 0003744,-0.00002533,-0.00000672,-0.00007880,0.00001839,0.00000886,0.00
 002006,-0.00001930,0.00001630,-0.00006966,-0.00000225,0.00002784,0.000
 00955,-0.00001223,0.00006297,-0.00001855,0.00000814,0.00001201,0.00002
 433,0.00014319,0.00051442,-0.00001779,-0.00009425,0.00011126,0.0001217
 4,0.00003846,-0.00005214,0.00012621,-0.00006301,-0.00003433,-0.0000055
 3,-0.00000450,0.00000098,0.00000148,-0.00001012,0.00000411,-0.00000312
 ,0.00007248,0.00003851,0.00003989,-0.00002122,-0.00000092,-0.00001302,
 -0.00023636,-0.00077289,0.00041607,0.00001594,-0.00000487,-0.00009362,
 0.00004010,-0.00011814,-0.00015139,-0.00008088,-0.00004695,0.00001894,
 0.00000431,0.00001776,-0.00004887,-0.00000286,0.00002029,-0.00001304,-
 0.00004018,0.00002190,-0.00008756,0.00003157,0.00018722,0.00001069,0.0
 0001782,-0.00000176,-0.00002115,0.00000698,0.00001345,0.00000396,-0.00
 000252,0.00000116,0.00001139,-0.00000350,-0.00002652,0.00001111,-0.000
 00342,0.00000599,-0.00001963,-0.00000180,-0.00002093,0.00006077,-0.000
 00867,-0.00002630,0.00004070,-0.00001699,0.00000355,0.00001419,0.00005
 577,0.00006399,-0.00011158,0.00003519,0.00000787,0.00002881,-0.0000173
 8,-0.00000623,0.00000207,-0.00015221,-0.00196964,0.00151115,-0.0004765
 1,-0.00043429,-0.00057792,0.00001639,0.00000182,-0.00000830,0.00000630
 ,0.00000859,-0.00000396,0.00003500,0.00000954,-0.00001182,-0.00000555,
 -0.00000408,0.00000535,-0.00000756,0.00000252,0.00001042,-0.00006144,-
 0.00000148,0.00002934,0.00000947,-0.00001362,-0.00000887,0.00000459,0.
 00002018,-0.00002029,0.00025529,0.00005847,-0.00046648,-0.00006375,0.0
 0003824,-0.00008341,0.00002619,-0.00006405,0.00005627,0.00341056,-0.00
 484461,-0.00071507,0.00058951,0.00019409,0.00146239,-0.00002471,0.0001
 6914,-0.00028089,0.00858571,0.00206070,0.02639289,-0.00009728,0.000968
 81,-0.00037362,-0.00053729,-0.00053604,0.00076288,-0.00542571,-0.06276
 995,-0.00756978,-0.00733776,0.00655844,-0.02915922,0.00199493,0.069757
 73,0.00130915,-0.00269282,-0.00219357,-0.00101136,0.00232504,0.0006959
 9,-0.00024624,0.00026384,0.00034733,-0.00041730,0.00047915,-0.00002208
 ,-0.00002342,0.00084536,-0.00106197,-0.00205452,0.00090226,0.00211206,
 0.00023696,-0.00023716,-0.00004894,-0.00009099,0.00002712,0.00007976,0
 .00007745,-0.00006332,-0.00001708,-0.00014817,-0.00015674,-0.00010596,
 0.00057056,-0.00068608,-0.00013755,0.00256076,-0.00111365,0.00107161,0
 .00080602,-0.00046493,0.00004756,0.00047833,-0.00066390,-0.00036644,-0
 .00047427,-0.00165878,-0.00066562,0.00561069,0.01078818,-0.00626643,-0
 .00041019,-0.00074341,0.00000147,-0.00063057,-0.00204708,0.00221825,0.
 00654432,-0.00074685,0.00695256,-0.00692299,-0.00126323,0.00373325,-0.
 00039064,-0.00047738,0.00020532,-0.00013944,0.00006212,0.00007563,0.00
 001088,0.00016546,0.00013422,0.00000840,0.00038072,-0.00076067,0.00021
 354,-0.00029458,0.00097106,0.00001845,-0.00033339,-0.00012547,0.000644
 19,0.00064645,0.00088986,-0.00018803,0.00022435,-0.00011307,-0.0000490
 7,-0.00009719,0.00070649,-0.00002529,0.00006718,-0.00007251,0.00011158
 ,0.00002421,0.00019877,-0.00004243,-0.00006821,-0.00010581,0.00004351,
 0.00009728,-0.00006404,-0.00003305,0.00003877,-0.00009086,-0.00062949,
 -0.00066216,-0.00142043,-0.00016277,0.00000461,-0.00048727,-0.00010112
 ,0.00088261,-0.00083466,0.00016485,-0.00002526,0.00004099,0.00002436,0
 .00006734,-0.00004205,-0.00001736,0.00001358,0.00007490,-0.00016239,-0
 .00003376,-0.00020167,0.00000953,-0.00008904,0.00007226,0.00078984,0.0
 0097240,0.00111891,0.00003805,-0.00014439,0.00039101,-0.00022445,0.000
 80853,0.00069222,0.00046519,-0.00033763,-0.00065093,0.00017847,-0.0001
 4992,-0.00030876,0.00038521,-0.00025585,0.00005854,-0.00008392,-0.0007
 7813,0.00015740,-0.00011333,-0.00075811,0.00012050,-0.00000595,0.00006
 025,0.00014383,0.00010487,0.00000516,0.00006602,-0.00004088,0.00003035
 ,-0.00000829,-0.00002590,0.00010693,0.00010910,0.00015578,-0.00012815,
 0.00010238,-0.00044051,0.00039643,-0.00024321,-0.00037646,0.00019695,0
 .00026373,-0.00030390,0.00044935,0.00033286,-0.00018094,0.00000843,-0.
 00137689,-0.00012121,-0.00006072,0.00007302,0.00016765,0.00012123,0.00
 037134,0.00154208,0.00425929,0.00016835,0.00051174,-0.00068975,0.00190
 767,0.00006987,-0.00008664,-0.00000773,0.00016442,-0.00003736,-0.00007
 082,0.00040758,-0.00012088,-0.00014330,-0.00005295,-0.00001424,-0.0000
 3151,-0.00007732,0.00011620,0.00013495,-0.00030433,-0.00020838,-0.0000
 7084,0.00001255,0.00000380,-0.00002373,0.00007560,0.00000254,0.0001461
 4,0.00002285,0.00052685,0.00003540,0.00043274,-0.00015990,-0.00034205,
 0.00001802,-0.00012037,0.00007941,0.00188709,-0.00248896,-0.00008734,0
 .00061105,-0.00038443,0.00114858,-0.00032330,0.00004759,-0.00020750,-0
 .00545698,0.00794054,0.00309839,0.00140582,-0.00090396,0.00065485,0.00
 073943,-0.00099906,0.00040046,-0.08458373,-0.00316451,-0.29064920,-0.0
 0231876,-0.00835794,0.00061341,0.08634313,0.00163194,0.29310699,-0.000
 28848,-0.00001446,0.00019039,0.00014655,0.00011417,-0.00017947,0.00002
 435,0.00010568,-0.00004353,0.00001286,-0.00004805,-0.00001762,0.000073
 39,0.00009111,0.00001142,0.00013320,-0.00007586,-0.00014419,0.00000078
 ,0.00008059,0.00004216,-0.00004122,-0.00001307,-0.00002700,-0.00000459
 ,-0.00000829,0.00001989,-0.00000727,-0.00000885,0.00002476,-0.00002602
 ,0.00001661,0.00003758,-0.00021068,-0.00004163,0.00007641,-0.00004532,
 -0.00000074,0.00003353,-0.00002635,-0.00005184,0.00003383,-0.00016323,
 -0.00014586,0.00003111,-0.00006646,-0.00025148,0.00028534,-0.00004862,
 -0.00003604,0.00008089,-0.00001086,0.00002776,-0.00004143,-0.00136148,
 -0.00035891,-0.00138718,0.00035610,0.00005257,-0.00050225,0.00001563,0
 .00002834,-0.00005510,0.00000013,0.00001028,-0.00002489,0.00001709,0.0
 0000980,0.00000174,-0.00008346,0.00007998,-0.00002891,0.00011829,-0.00
 004087,0.00003523,0.00006855,-0.00001993,-0.00006273,0.00009559,0.0000
 6428,0.00006876,0.00003026,-0.00011378,-0.00000555,-0.00001805,-0.0000
 0079,0.00004564,-0.00001198,0.00000868,-0.00001176,0.00004897,0.000003
 80,0.00001050,-0.00001277,-0.00000530,-0.00000262,-0.00000551,0.000021
 06,-0.00000910,-0.00000072,0.00001477,-0.00000339,-0.00012607,0.000128
 91,-0.00012318,-0.00012912,-0.00004397,0.00002089,-0.00010836,0.000064
 60,-0.00005305,0.00001451,-0.00003610,-0.00000635,-0.00000144,0.000005
 26,-0.00000322,-0.00001085,0.00001008,0.00000590,-0.00001229,0.0000226
 2,-0.00000267,0.00000493,-0.00002013,0.00000350,0.00015671,-0.00002670
 ,0.00006527,0.00004518,0.00004841,0.00000717,-0.00035446,0.00033732,0.
 00068611,0.00059111,0.00008600,-0.00043144,0.00026664,0.00016595,0.000
 41249,0.00008848,-0.00000424,-0.00007047,0.00012255,-0.00004505,0.0000
 7260,-0.00008707,-0.00037094,0.00008431,-0.00010598,0.00002331,0.00008
 365,-0.00011326,-0.00000998,-0.00009091,-0.00002040,-0.00004299,-0.000
 00108,-0.00000134,0.00008304,0.00002108,0.00006446,-0.00001422,-0.0000
 2718,-0.00015721,-0.00002516,-0.00003369,-0.00018384,-0.00001595,-0.00
 017104,-0.00037479,0.00013879,-0.00000848,-0.00008544,-0.00021609,-0.0
 0026627,-0.00004559,-0.00000159,0.00003171,0.00002433,0.00002052,0.000
 02697,0.00025939,0.00034035,-0.00049901,0.00017655,-0.00014598,0.00027
 302,0.00001584,0.00003977,0.00001526,0.00008804,-0.00000795,0.00007467
 ,0.00030704,-0.00016298,-0.00006213,-0.00001696,-0.00001201,0.00000614
 ,-0.00006541,0.00005042,0.00003382,0.00001949,-0.00023379,-0.00000376,
 -0.00001285,0.00000785,-0.00000274,0.00004506,0.00003927,0.00014398,-0
 .00021100,-0.00001198,-0.00030728,0.00125965,0.00002587,-0.00075223,0.
 00024800,-0.00031253,0.00021517,-0.00054066,-0.00054918,0.00064436,0.0
 0024912,-0.00016267,0.00025098,-0.00010129,0.00000899,-0.00009818,-0.0
 1896926,-0.00044234,0.01388245,-0.00109404,0.00372202,-0.00148110,0.00
 145246,-0.00056592,-0.00013344,-0.26628623,-0.02479546,0.17706690,-0.0
 1258486,-0.00027613,0.01110654,0.01487453,0.00161890,-0.00656660,0.282
 71737,0.00009595,-0.00002327,-0.00045744,0.00003028,-0.00011334,0.0002
 0492,0.00006214,0.00000024,0.00001902,0.00001595,0.00003354,0.00005491
 ,0.00006272,0.00007340,-0.00005842,-0.00013393,0.00017539,0.00027281,0
 .00007186,-0.00008018,-0.00002920,0.00000818,0.00001472,0.00001511,0.0
 0000361,-0.00000767,-0.00000081,-0.00002116,-0.00002188,-0.00001422,0.
 00002711,-0.00001295,-0.00005762,-0.00002224,-0.00014664,0.00001935,-0
 .00003899,-0.00004467,-0.00006413,-0.00004507,-0.00000242,-0.00006569,
 0.00002415,0.00006576,-0.00013032,-0.00005822,0.00016453,-0.00008475,0
 .00004061,0.00001423,-0.00002513,0.00002982,-0.00002829,0.00002672,-0.
 00018167,-0.00033666,-0.00002733,-0.00003316,0.00020568,-0.00013543,0.
 00000003,0.00003796,-0.00000199,0.00001434,0.00000593,0.00002088,0.000
 02634,-0.00000669,0.00003250,0.00014189,0.00002613,-0.00013636,-0.0001
 8788,-0.00006567,0.00023309,0.00010529,-0.00023314,-0.00001969,-0.0000
 4266,0.00003194,0.00007436,-0.00003027,0.00003532,0.00001559,-0.000008
 62,-0.00005034,0.00008853,0.00002292,0.00002545,-0.00001135,-0.0000465
 1,0.00001880,0.00004688,0.00000728,0.00001125,-0.00002704,0.00000889,-
 0.00000707,-0.00001416,-0.00000712,0.00000224,-0.00000924,0.00008163,-
 0.00007270,-0.00008310,-0.00004497,0.00011645,-0.00001871,0.00012716,0
 .00035158,-0.00006069,-0.00003770,0.00000064,-0.00001013,0.00000539,0.
 00000394,-0.00000347,0.00000129,-0.00000019,0.00000575,0.00004700,0.00
 000884,0.00000378,-0.00003073,-0.00000523,0.00000061,-0.00013465,0.000
 02892,0.00006786,0.00002745,-0.00007221,-0.00000007,0.00030511,-0.0000
 0329,0.00106087,0.00049580,0.00087745,-0.00078089,-0.00009336,-0.00021
 039,-0.00043942,0.00016691,-0.00006609,0.00000580,-0.00024396,-0.00035
 327,-0.00041021,-0.00035469,-0.00045466,0.00001954,-0.00007624,-0.0000
 3791,0.00016656,0.00018703,0.00009219,0.00006749,-0.00002559,0.0000363
 6,0.00004075,0.00009826,0.00010204,0.00003457,0.00014362,-0.00016017,0
 .00014679,-0.00007968,0.00007594,0.00004716,-0.00013151,0.00000003,0.0
 0036755,0.00017688,-0.00090483,0.00012471,-0.00013314,-0.00035954,0.00
 011502,0.00004275,0.00003187,0.00003151,-0.00000599,-0.00002039,-0.000
 08185,0.00033018,-0.00109330,-0.00160604,0.00003940,0.00003670,0.00017
 221,0.00003896,-0.00002110,-0.00002260,-0.00000219,0.00007979,-0.00004
 737,-0.00038446,0.00039813,0.00001435,0.00002003,-0.00004369,0.0000508
 0,0.00007257,-0.00006253,-0.00003569,-0.00046696,0.00052934,0.00027436
 ,-0.00014155,-0.00007014,-0.00015291,-0.00008139,-0.00014147,-0.000276
 81,0.00095367,-0.00117564,-0.00041702,-0.00091228,0.00130841,0.0011774
 6,0.00014517,-0.00024821,0.00014125,-0.00036192,0.00083182,-0.00006148
 ,-0.00031280,-0.00003085,-0.00008146,-0.00019189,-0.00007783,0.0000383
 1,0.02325667,0.00362504,-0.02050181,0.00348980,-0.00449240,0.00147686,
 -0.00033045,0.00009402,-0.00087702,-0.02491954,-0.05807025,0.02033460,
 -0.02388269,0.00181620,0.02425644,0.00111579,-0.00142519,-0.00102216,0
 .02207000,0.05946612,0.00007631,-0.00050667,0.00030009,-0.00021143,0.0
 0065568,0.00003853,-0.00006382,0.00010369,-0.00001662,-0.00006900,0.00
 001984,-0.00006087,0.00001762,0.00011517,-0.00005304,0.00005486,-0.000
 10786,-0.00018489,-0.00001284,0.00006814,0.00004963,-0.00005421,-0.000
 00510,-0.00000509,0.00000595,-0.00000977,0.00001189,-0.00000165,-0.000
 01313,0.00002326,-0.00000394,-0.00002400,0.00006967,0.00002909,-0.0000
 9585,0.00014913,0.00009903,-0.00003651,0.00006315,0.00011162,-0.000149
 99,-0.00000162,-0.00013928,-0.00041803,-0.00004594,0.00016393,0.000325
 93,0.00004365,-0.00000783,-0.00006020,0.00007725,-0.00000892,-0.000092
 26,0.00011697,-0.00182496,-0.00073195,-0.00019946,0.00004937,-0.000007
 33,-0.00083739,-0.00005258,-0.00000447,-0.00002299,-0.00002928,0.00001
 392,-0.00001549,-0.00001030,0.00003496,0.00001251,0.00005663,-0.000028
 43,-0.00019991,-0.00002886,-0.00006899,0.00043278,-0.00009691,0.000116
 23,-0.00005125,0.00013029,0.00010524,0.00016911,-0.00004959,0.00015295
 ,-0.00002423,0.00000354,0.00000828,0.00011471,-0.00000567,0.00000602,-
 0.00004560,0.00002342,-0.00000134,0.00005560,-0.00000540,-0.00002306,-
 0.00001364,0.00001428,-0.00002018,-0.00000106,-0.00000410,-0.00000488,
 -0.00001442,-0.00010271,-0.00026059,-0.00003712,0.00006288,-0.00008067
 ,-0.00019313,-0.00001434,0.00035643,-0.00039098,0.00004258,0.00004459,
 0.00001573,0.00000791,0.00000411,-0.00000724,0.00000960,-0.00000682,0.
 00000664,-0.00005217,-0.00004148,-0.00005723,0.00000807,-0.00000116,0.
 00002311,0.00019325,0.00020648,-0.00000858,-0.00000331,-0.00003913,0.0
 0019917,0.00053318,0.00094059,0.00007786,0.00004640,-0.00066818,-0.000
 41285,0.00002083,-0.00015668,-0.00028025,0.00010625,-0.00023005,0.0001
 3433,0.00004696,-0.00016454,0.00016700,-0.00035244,-0.00084859,0.00038
 633,0.00002776,0.00007105,0.00011553,0.00017296,-0.00003377,0.00009540
 ,0.00000339,0.00003045,-0.00002921,0.00007900,0.00017653,-0.00004281,-
 0.00000194,-0.00002250,0.00007468,-0.00014341,0.00021843,-0.00018304,-
 0.00018100,0.00017379,0.00016585,-0.00006984,0.00044354,0.00044058,0.0
 0011074,-0.00003628,0.00079550,-0.00008340,0.00000621,-0.00004847,-0.0
 0003076,-0.00005336,-0.00018124,-0.00054150,-0.00123974,-0.00118791,0.
 00004732,0.00000750,0.00000393,0.00002829,-0.00006210,0.00001483,0.000
 10703,-0.00003055,-0.00005309,0.00012122,0.00009305,-0.00036637,-0.000
 01074,-0.00001656,-0.00003175,0.00000136,0.00004366,0.00008843,0.00069
 010,-0.00118379,-0.00008369,0.00004679,0.00010226,0.00009254,0.0001919
 0,0.00019212,0.00045374,-0.00313704,0.00234204,0.00024861,0.00180431,-
 0.00009374,-0.00226806,0.00041922,-0.00042229,0.00014201,-0.00134376,-
 0.00007596,0.00065550,0.00038361,-0.00002659,-0.00047277,0.00004842,0.
 00003434,-0.00014506,-0.00369163,-0.00366402,0.00636689,-0.00186163,0.
 00111033,0.00017067,0.00016353,-0.00030862,0.00003938,0.17707379,0.020
 39581,-0.20744809,-0.00568246,0.00222408,0.00534883,0.02907189,0.00424
 075,-0.01669855,-0.19252185,-0.02300640,0.21437000\\-0.00000837,0.0000
 2327,0.00000465,0.00001463,-0.00001350,-0.00000518,-0.00000563,-0.0000
 0127,-0.00000312,0.00000217,-0.00000019,0.00000907,0.00000284,-0.00000
 357,0.00000534,-0.00000649,-0.00000862,-0.00000506,-0.00000425,-0.0000
 0045,0.00000008,0.00000064,-0.00000153,0.00000066,-0.00000462,-0.00000
 572,0.00000042,0.00000154,-0.00000273,0.00000230,-0.00000050,-0.000002
 41,0.00000080,0.00000083,-0.00000053,-0.00000048,-0.00000675,0.0000038
 9,-0.00000570,0.00000407,0.00000037,-0.00000147,-0.00001115,-0.0000144
 8,0.00000018,-0.00000063,-0.00000108,-0.00000158,-0.00000152,-0.000002
 75,-0.00000128,-0.00000266,-0.00000166,0.00000179,-0.00000955,0.000005
 00,-0.00000061,0.00000969,-0.00000418,0.00000125,0.00000231,-0.0000005
 3,0.00000496,0.00000036,-0.00000826,0.00000267,-0.00000610,-0.00000672
 ,0.00000228,-0.00000682,-0.00000478,0.00000875,-0.00000522,0.00000261,
 0.00000012,0.00000997,-0.00000480,-0.00001112,0.00001558,0.00000653,0.
 00001179,-0.00000814,-0.00000695,-0.00000500,0.00000378,0.00000170,-0.
 00001465,-0.00000147,-0.00000124,-0.00000301,-0.00000196,0.00000514,-0
 .00000060,-0.00000311,-0.00000327,-0.00000032,-0.00000382,-0.00000257,
 -0.00000062,0.00000052,-0.00000279,0.00000018,-0.00000550,0.00001324,-
 0.00001386,0.00001160,0.00002078,0.00002327,0.00000964,0.00000148,-0.0
 0000824,-0.00000578,-0.00000241,-0.00000621,-0.00000164,-0.00000026,0.
 00000015,-0.00000194,0.00000367,-0.00000110,-0.00000132,0.00000209,0.0
 0000628,0.00000060,0.00000279,-0.00000747,0.00000821,-0.00000390,0.000
 00381,-0.00002669,-0.00002294,-0.00002904,-0.00000107,-0.00000861,-0.0
 0000006,-0.00001046,-0.00000483,0.00000474,0.00001684,0.00000270,-0.00
 000680,0.00000452,-0.00000223,0.00000029,-0.00000870,-0.00001136,0.000
 00872,0.00000380,0.00002269,-0.00000417,0.00000169,0.00000058,-0.00000
 222,0.00000067,0.00000339,0.00000170,0.00000079,0.00000208,-0.00000520
 ,-0.00000389,-0.00000095,-0.00000102,0.00000252,0.00000269,0.00000264,
 -0.00000157,0.00000467,0.00001284,-0.00000608,-0.00000386,0.00000509,0
 .00000085,0.00001425,-0.00000285,0.00001129,0.00000108,0.00000564,-0.0
 0000347,0.00000164,-0.00000180,0.00000002,-0.00000065,-0.00000342,-0.0
 0001757,0.00000679,-0.00003311,0.00000159,-0.00000153,0.00002344,0.000
 00403,0.00000041,-0.00000263,0.00000444,0.00000546,0.00000047,0.000012
 71,-0.00000902,0.00000751,0.00000289,0.00000493,0.00000155,0.00000011,
 0.00000256,-0.00000161,-0.00000241,0.00000243,0.00000211,-0.00000039,0
 .00000087,0.00000124,0.00000368,0.00000256,-0.00000184,0.00000347,0.00
 000225,0.00000325,0.00000323,-0.00000244,0.00000243,0.00000195,0.00000
 335,0.00000218,0.00000387,0.00000039,0.00000028,0.00000123,0.00000313,
 0.00000054,0.00000188,0.00000066,-0.00000081,-0.00000481,0.00000338,-0
 .00000167,0.00000055,-0.00000032,0.00000141,0.00000330,0.00000118,0.00
 000104,0.00000044,-0.00000445,-0.00000165,-0.00000238,-0.00000416,0.00
 000910,0.00000740,-0.00000147,0.00000427,0.00000565,0.00000333,0.00000
 333\\\@


 IT WAS AN ACT OF DESPARATION. FOR SIX YEARS I HAD STRUGGLED WITH THE
 BLACKBODY THEORY. I KNEW THE PROBLEM WAS FUNDAMENTAL, AND I KNEW
 THE ANSWER. I HAD TO FIND A THEORETICAL EXPLANATION AT ANY COST,
 EXCEPT FOR THE INVIOLABLITY OF THE TWO LAWS OF THERMODYNAMICS.
   -- MAX PLANCK, 1931
 Job cpu time:      19 days  1 hours  4 minutes 35.9 seconds.
 File lengths (MBytes):  RWF=  17386 Int=      0 D2E=      0 Chk=     98 Scr=      1
 Normal termination of Gaussian 09 at Fri Apr  8 16:35:34 2016.
