 Entering Gaussian System, Link 0=g09
 Initial command:
 /share/apps//g09/l1.exe "/scratch/Gau-6164.inp" -scrdir="/scratch/"
 Entering Link 1 = /share/apps//g09/l1.exe PID=      6165.
  
 Copyright (c) 1988,1990,1992,1993,1995,1998,2003,2009,2013,
            Gaussian, Inc.  All Rights Reserved.
  
 This is part of the Gaussian(R) 09 program.  It is based on
 the Gaussian(R) 03 system (copyright 2003, Gaussian, Inc.),
 the Gaussian(R) 98 system (copyright 1998, Gaussian, Inc.),
 the Gaussian(R) 94 system (copyright 1995, Gaussian, Inc.),
 the Gaussian 92(TM) system (copyright 1992, Gaussian, Inc.),
 the Gaussian 90(TM) system (copyright 1990, Gaussian, Inc.),
 the Gaussian 88(TM) system (copyright 1988, Gaussian, Inc.),
 the Gaussian 86(TM) system (copyright 1986, Carnegie Mellon
 University), and the Gaussian 82(TM) system (copyright 1983,
 Carnegie Mellon University). Gaussian is a federally registered
 trademark of Gaussian, Inc.
  
 This software contains proprietary and confidential information,
 including trade secrets, belonging to Gaussian, Inc.
  
 This software is provided under written license and may be
 used, copied, transmitted, or stored only in accord with that
 written license.
  
 The following legend is applicable only to US Government
 contracts under FAR:
  
                    RESTRICTED RIGHTS LEGEND
  
 Use, reproduction and disclosure by the US Government is
 subject to restrictions as set forth in subparagraphs (a)
 and (c) of the Commercial Computer Software - Restricted
 Rights clause in FAR 52.227-19.
  
 Gaussian, Inc.
 340 Quinnipiac St., Bldg. 40, Wallingford CT 06492
  
  
 ---------------------------------------------------------------
 Warning -- This program may not be used in any manner that
 competes with the business of Gaussian, Inc. or will provide
 assistance to any competitor of Gaussian, Inc.  The licensee
 of this program is prohibited from giving any competitor of
 Gaussian, Inc. access to this program.  By using this program,
 the user acknowledges that Gaussian, Inc. is engaged in the
 business of creating and licensing software in the field of
 computational chemistry and represents and warrants to the
 licensee that it is not a competitor of Gaussian, Inc. and that
 it will not use this program in any manner prohibited above.
 ---------------------------------------------------------------
  

 Cite this work as:
 Gaussian 09, Revision D.01,
 M. J. Frisch, G. W. Trucks, H. B. Schlegel, G. E. Scuseria, 
 M. A. Robb, J. R. Cheeseman, G. Scalmani, V. Barone, B. Mennucci, 
 G. A. Petersson, H. Nakatsuji, M. Caricato, X. Li, H. P. Hratchian, 
 A. F. Izmaylov, J. Bloino, G. Zheng, J. L. Sonnenberg, M. Hada, 
 M. Ehara, K. Toyota, R. Fukuda, J. Hasegawa, M. Ishida, T. Nakajima, 
 Y. Honda, O. Kitao, H. Nakai, T. Vreven, J. A. Montgomery, Jr., 
 J. E. Peralta, F. Ogliaro, M. Bearpark, J. J. Heyd, E. Brothers, 
 K. N. Kudin, V. N. Staroverov, T. Keith, R. Kobayashi, J. Normand, 
 K. Raghavachari, A. Rendell, J. C. Burant, S. S. Iyengar, J. Tomasi, 
 M. Cossi, N. Rega, J. M. Millam, M. Klene, J. E. Knox, J. B. Cross, 
 V. Bakken, C. Adamo, J. Jaramillo, R. Gomperts, R. E. Stratmann, 
 O. Yazyev, A. J. Austin, R. Cammi, C. Pomelli, J. W. Ochterski, 
 R. L. Martin, K. Morokuma, V. G. Zakrzewski, G. A. Voth, 
 P. Salvador, J. J. Dannenberg, S. Dapprich, A. D. Daniels, 
 O. Farkas, J. B. Foresman, J. V. Ortiz, J. Cioslowski, 
 and D. J. Fox, Gaussian, Inc., Wallingford CT, 2013.
 
 ******************************************
 Gaussian 09:  EM64L-G09RevD.01 24-Apr-2013
                 6-Apr-2016 
 ******************************************
 %nproc=20
 Will use up to   20 processors via shared memory.
 %mem=80GB
 %chk=Tri_A131_of.chk
 ----------------------------------------------------------------------
 #P PBE1PBE/6-311+G(d,p) opt=ModRedundant freq optcyc=999 EmpiricalDisp
 ersion=GD3
 ----------------------------------------------------------------------
 1/6=999,14=-1,18=120,19=15,26=3,38=1/1,3;
 2/9=110,12=2,17=6,18=5,40=1/2;
 3/5=4,6=6,7=111,11=2,16=1,25=1,30=1,71=1,74=-13,124=31/1,2,3;
 4//1;
 5/5=2,38=5/2;
 6/7=2,8=2,9=2,10=2,28=1/1;
 7//1,2,3,16;
 1/6=999,14=-1,18=20,19=15,26=3/3(2);
 2/9=110/2;
 99//99;
 2/9=110/2;
 3/5=4,6=6,7=111,11=2,16=1,25=1,30=1,71=1,74=-13,124=31/1,2,3;
 4/5=5,16=3,69=1/1;
 5/5=2,38=5/2;
 7//1,2,3,16;
 1/6=999,14=-1,18=20,19=15,26=3/3(-5);
 2/9=110/2;
 6/7=2,8=2,9=2,10=2,19=2,28=1/1;
 99/9=1/99;
 Leave Link    1 at Wed Apr  6 23:25:17 2016, MaxMem= 10737418240 cpu:         1.8
 (Enter /share/apps//g09/l101.exe)
 -------
 disacch
 -------
 Symbolic Z-matrix:
 Charge =  1 Multiplicity = 1
 O                    -0.12034  -2.36653   10.365 
 C                     0.85384  -3.40656   10.49471 
 C                     0.37613  -4.41733   11.55436 
 C                    -1.02134  -4.94877   11.22094 
 C                    -2.0141   -3.7913    11.02037 
 C                    -1.4565   -2.83346   9.97279 
 H                     1.76801  -2.88238   10.82643 
 H                     0.30629  -3.85783   12.50175 
 H                    -0.96805  -5.5374    10.28428 
 H                    -2.95422  -4.21924   10.6178 
 H                    -1.37243  -3.39641   9.02698 
 O                    -2.25595  -3.08537   12.22873 
 O                    -1.53056  -5.74811   12.28283 
 O                     1.24458  -5.54571   11.67829 
 O                     1.10196  -4.08446   9.27654 
 C                    -2.30831  -1.58906   9.7254 
 H                    -3.36839  -1.87432   9.73888 
 H                    -2.14402  -0.86003   10.53311 
 O                    -2.08429  -0.98119   8.43847 
 H                    -1.14821  -0.68504   8.37085 
 H                    -2.46762  -3.75922   12.9026 
 H                    -0.83726  -6.39353   12.51464 
 H                     1.92076  -5.35243   12.34959 
 O                     2.09159  -3.06402   5.37075 
 C                     1.50756  -1.97023   6.10925 
 C                     0.95379  -2.3959    7.47921 
 C                     1.84457  -3.37702   8.25507 
 C                     2.39216  -4.49135   7.35645 
 C                     3.0042   -3.92478   6.07146 
 H                     2.25435  -1.16965   6.25415 
 H                    -0.01159  -2.89737   7.29001 
 H                     2.68734  -2.83159   8.7207 
 H                     3.18892  -5.02537   7.90646 
 H                     3.9121   -3.35642   6.35772 
 O                     1.34308  -5.411     7.00961 
 O                     0.77811  -1.1597    8.18189 
 O                     0.50698  -1.3903    5.30327 
 C                     3.44667  -5.01524   5.08705 
 H                     3.91005  -4.54758   4.20653 
 H                     4.21726  -5.63339   5.57978 
 O                     2.37471  -5.84137   4.60802 
 H                     1.83517  -6.06531   5.40247 
 H                     0.89716  -5.64748   7.84582 
 H                     0.53679  -1.41141   9.11029 
 O                    -1.03742  -2.9514    2.39151 
 C                    -2.45802  -3.03366   2.68609 
 C                    -2.67838  -3.21958   4.1897 
 C                    -1.84025  -2.27247   5.08156 
 C                    -0.37893  -2.29609   4.60246 
 C                    -0.38222  -1.89862   3.11039 
 H                    -2.94653  -2.10398   2.32668 
 H                    -2.34943  -4.25267   4.42977 
 H                    -2.23293  -1.24314   4.99297 
 H                    -0.946    -0.95032   2.98943 
 H                     0.004    -3.32322   4.6956 
 O                    -2.03122  -2.76309   6.40517 
 O                    -4.0612   -3.05918   4.44698 
 O                    -2.93435  -4.16329   2.03953 
 C                     0.98597  -1.6588    2.48458 
 H                     0.85576  -1.48827   1.40747 
 H                     1.43373  -0.75817   2.9285 
 O                     1.89261  -2.77149   2.61465 
 H                     2.12893  -2.83108   3.5725 
 H                    -2.12437  -2.01232   7.05243 
 H                    -4.16595  -3.14462   5.4134 
 C                    -2.98722  -4.06278   0.59573 
 H                    -3.96322  -3.64323   0.30098 
 H                    -2.19623  -3.38058   0.2468 
 C                    -2.80699  -5.46239   0.01471 
 H                    -2.79618  -5.37789  -1.08423 
 H                    -3.68852  -6.06896   0.27183 
 C                    -1.55176  -6.18994   0.51926 
 H                    -1.6248   -6.22838   1.61947 
 H                    -1.58289  -7.23783   0.18331 
 C                    -0.21064  -5.56965   0.08578 
 H                     0.03167  -5.87991  -0.94152 
 H                    -0.26924  -4.46949   0.06531 
 C                     0.95019  -5.97521   0.99318 
 H                     1.92385  -5.71648   0.55735 
 H                     0.94254  -7.05573   1.19435 
 N                     0.86083  -5.25927   2.31145 
 H                     1.22218  -4.25844   2.26059 
 H                     1.41506  -5.68954   3.08912 
 H                    -0.12134  -5.1657    2.60985 
 
 The following ModRedundant input section has been read:
 B      62      82 B                                                           
 B      41      83 B                                                           
 B      20      36 B                                                           
 B      19      64 B                                                           
 B       1      44 B                                                           
 
 NAtoms=     84 NQM=       84 NQMF=       0 NMMI=      0 NMMIF=      0
                NMic=       0 NMicF=      0.
                    Isotopes and Nuclear Properties:
 (Nuclear quadrupole moments (NQMom) in fm**2, nuclear magnetic moments (NMagM)
  in nuclear magnetons)

  Atom         1           2           3           4           5           6           7           8           9          10
 IAtWgt=          16          12          12          12          12          12           1           1           1           1
 AtmWgt=  15.9949146  12.0000000  12.0000000  12.0000000  12.0000000  12.0000000   1.0078250   1.0078250   1.0078250   1.0078250
 NucSpn=           0           0           0           0           0           0           1           1           1           1
 AtZEff=   0.0000000   0.0000000   0.0000000   0.0000000   0.0000000   0.0000000   0.0000000   0.0000000   0.0000000   0.0000000
 NQMom=    0.0000000   0.0000000   0.0000000   0.0000000   0.0000000   0.0000000   0.0000000   0.0000000   0.0000000   0.0000000
 NMagM=    0.0000000   0.0000000   0.0000000   0.0000000   0.0000000   0.0000000   2.7928460   2.7928460   2.7928460   2.7928460
 AtZNuc=   8.0000000   6.0000000   6.0000000   6.0000000   6.0000000   6.0000000   1.0000000   1.0000000   1.0000000   1.0000000

  Atom        11          12          13          14          15          16          17          18          19          20
 IAtWgt=           1          16          16          16          16          12           1           1          16           1
 AtmWgt=   1.0078250  15.9949146  15.9949146  15.9949146  15.9949146  12.0000000   1.0078250   1.0078250  15.9949146   1.0078250
 NucSpn=           1           0           0           0           0           0           1           1           0           1
 AtZEff=   0.0000000   0.0000000   0.0000000   0.0000000   0.0000000   0.0000000   0.0000000   0.0000000   0.0000000   0.0000000
 NQMom=    0.0000000   0.0000000   0.0000000   0.0000000   0.0000000   0.0000000   0.0000000   0.0000000   0.0000000   0.0000000
 NMagM=    2.7928460   0.0000000   0.0000000   0.0000000   0.0000000   0.0000000   2.7928460   2.7928460   0.0000000   2.7928460
 AtZNuc=   1.0000000   8.0000000   8.0000000   8.0000000   8.0000000   6.0000000   1.0000000   1.0000000   8.0000000   1.0000000

  Atom        21          22          23          24          25          26          27          28          29          30
 IAtWgt=           1           1           1          16          12          12          12          12          12           1
 AtmWgt=   1.0078250   1.0078250   1.0078250  15.9949146  12.0000000  12.0000000  12.0000000  12.0000000  12.0000000   1.0078250
 NucSpn=           1           1           1           0           0           0           0           0           0           1
 AtZEff=   0.0000000   0.0000000   0.0000000   0.0000000   0.0000000   0.0000000   0.0000000   0.0000000   0.0000000   0.0000000
 NQMom=    0.0000000   0.0000000   0.0000000   0.0000000   0.0000000   0.0000000   0.0000000   0.0000000   0.0000000   0.0000000
 NMagM=    2.7928460   2.7928460   2.7928460   0.0000000   0.0000000   0.0000000   0.0000000   0.0000000   0.0000000   2.7928460
 AtZNuc=   1.0000000   1.0000000   1.0000000   8.0000000   6.0000000   6.0000000   6.0000000   6.0000000   6.0000000   1.0000000

  Atom        31          32          33          34          35          36          37          38          39          40
 IAtWgt=           1           1           1           1          16          16          16          12           1           1
 AtmWgt=   1.0078250   1.0078250   1.0078250   1.0078250  15.9949146  15.9949146  15.9949146  12.0000000   1.0078250   1.0078250
 NucSpn=           1           1           1           1           0           0           0           0           1           1
 AtZEff=   0.0000000   0.0000000   0.0000000   0.0000000   0.0000000   0.0000000   0.0000000   0.0000000   0.0000000   0.0000000
 NQMom=    0.0000000   0.0000000   0.0000000   0.0000000   0.0000000   0.0000000   0.0000000   0.0000000   0.0000000   0.0000000
 NMagM=    2.7928460   2.7928460   2.7928460   2.7928460   0.0000000   0.0000000   0.0000000   0.0000000   2.7928460   2.7928460
 AtZNuc=   1.0000000   1.0000000   1.0000000   1.0000000   8.0000000   8.0000000   8.0000000   6.0000000   1.0000000   1.0000000

  Atom        41          42          43          44          45          46          47          48          49          50
 IAtWgt=          16           1           1           1          16          12          12          12          12          12
 AtmWgt=  15.9949146   1.0078250   1.0078250   1.0078250  15.9949146  12.0000000  12.0000000  12.0000000  12.0000000  12.0000000
 NucSpn=           0           1           1           1           0           0           0           0           0           0
 AtZEff=   0.0000000   0.0000000   0.0000000   0.0000000   0.0000000   0.0000000   0.0000000   0.0000000   0.0000000   0.0000000
 NQMom=    0.0000000   0.0000000   0.0000000   0.0000000   0.0000000   0.0000000   0.0000000   0.0000000   0.0000000   0.0000000
 NMagM=    0.0000000   2.7928460   2.7928460   2.7928460   0.0000000   0.0000000   0.0000000   0.0000000   0.0000000   0.0000000
 AtZNuc=   8.0000000   1.0000000   1.0000000   1.0000000   8.0000000   6.0000000   6.0000000   6.0000000   6.0000000   6.0000000

  Atom        51          52          53          54          55          56          57          58          59          60
 IAtWgt=           1           1           1           1           1          16          16          16          12           1
 AtmWgt=   1.0078250   1.0078250   1.0078250   1.0078250   1.0078250  15.9949146  15.9949146  15.9949146  12.0000000   1.0078250
 NucSpn=           1           1           1           1           1           0           0           0           0           1
 AtZEff=   0.0000000   0.0000000   0.0000000   0.0000000   0.0000000   0.0000000   0.0000000   0.0000000   0.0000000   0.0000000
 NQMom=    0.0000000   0.0000000   0.0000000   0.0000000   0.0000000   0.0000000   0.0000000   0.0000000   0.0000000   0.0000000
 NMagM=    2.7928460   2.7928460   2.7928460   2.7928460   2.7928460   0.0000000   0.0000000   0.0000000   0.0000000   2.7928460
 AtZNuc=   1.0000000   1.0000000   1.0000000   1.0000000   1.0000000   8.0000000   8.0000000   8.0000000   6.0000000   1.0000000

  Atom        61          62          63          64          65          66          67          68          69          70
 IAtWgt=           1          16           1           1           1          12           1           1          12           1
 AtmWgt=   1.0078250  15.9949146   1.0078250   1.0078250   1.0078250  12.0000000   1.0078250   1.0078250  12.0000000   1.0078250
 NucSpn=           1           0           1           1           1           0           1           1           0           1
 AtZEff=   0.0000000   0.0000000   0.0000000   0.0000000   0.0000000   0.0000000   0.0000000   0.0000000   0.0000000   0.0000000
 NQMom=    0.0000000   0.0000000   0.0000000   0.0000000   0.0000000   0.0000000   0.0000000   0.0000000   0.0000000   0.0000000
 NMagM=    2.7928460   0.0000000   2.7928460   2.7928460   2.7928460   0.0000000   2.7928460   2.7928460   0.0000000   2.7928460
 AtZNuc=   1.0000000   8.0000000   1.0000000   1.0000000   1.0000000   6.0000000   1.0000000   1.0000000   6.0000000   1.0000000

  Atom        71          72          73          74          75          76          77          78          79          80
 IAtWgt=           1          12           1           1          12           1           1          12           1           1
 AtmWgt=   1.0078250  12.0000000   1.0078250   1.0078250  12.0000000   1.0078250   1.0078250  12.0000000   1.0078250   1.0078250
 NucSpn=           1           0           1           1           0           1           1           0           1           1
 AtZEff=   0.0000000   0.0000000   0.0000000   0.0000000   0.0000000   0.0000000   0.0000000   0.0000000   0.0000000   0.0000000
 NQMom=    0.0000000   0.0000000   0.0000000   0.0000000   0.0000000   0.0000000   0.0000000   0.0000000   0.0000000   0.0000000
 NMagM=    2.7928460   0.0000000   2.7928460   2.7928460   0.0000000   2.7928460   2.7928460   0.0000000   2.7928460   2.7928460
 AtZNuc=   1.0000000   6.0000000   1.0000000   1.0000000   6.0000000   1.0000000   1.0000000   6.0000000   1.0000000   1.0000000

  Atom        81          82          83          84
 IAtWgt=          14           1           1           1
 AtmWgt=  14.0030740   1.0078250   1.0078250   1.0078250
 NucSpn=           2           1           1           1
 AtZEff=   0.0000000   0.0000000   0.0000000   0.0000000
 NQMom=    2.0440000   0.0000000   0.0000000   0.0000000
 NMagM=    0.4037610   2.7928460   2.7928460   2.7928460
 AtZNuc=   7.0000000   1.0000000   1.0000000   1.0000000
 Leave Link  101 at Wed Apr  6 23:25:18 2016, MaxMem= 10737418240 cpu:         4.3
 (Enter /share/apps//g09/l103.exe)

 GradGradGradGradGradGradGradGradGradGradGradGradGradGradGradGradGradGrad
 Berny optimization.
 Initialization pass.
                           ----------------------------
                           !    Initial Parameters    !
                           ! (Angstroms and Degrees)  !
 --------------------------                            --------------------------
 ! Name  Definition              Value          Derivative Info.                !
 --------------------------------------------------------------------------------
 ! R1    R(1,2)                  1.4309         estimate D2E/DX2                !
 ! R2    R(1,6)                  1.4687         estimate D2E/DX2                !
 ! R3    R(1,44)                 1.7083         estimate D2E/DX2                !
 ! R4    R(2,3)                  1.5404         estimate D2E/DX2                !
 ! R5    R(2,7)                  1.1048         estimate D2E/DX2                !
 ! R6    R(2,15)                 1.416          estimate D2E/DX2                !
 ! R7    R(3,4)                  1.5318         estimate D2E/DX2                !
 ! R8    R(3,8)                  1.1025         estimate D2E/DX2                !
 ! R9    R(3,14)                 1.4293         estimate D2E/DX2                !
 ! R10   R(4,5)                  1.538          estimate D2E/DX2                !
 ! R11   R(4,9)                  1.1075         estimate D2E/DX2                !
 ! R12   R(4,13)                 1.4233         estimate D2E/DX2                !
 ! R13   R(5,6)                  1.5251         estimate D2E/DX2                !
 ! R14   R(5,10)                 1.1086         estimate D2E/DX2                !
 ! R15   R(5,12)                 1.4202         estimate D2E/DX2                !
 ! R16   R(6,11)                 1.1039         estimate D2E/DX2                !
 ! R17   R(6,16)                 1.5282         estimate D2E/DX2                !
 ! R18   R(12,21)                0.9762         estimate D2E/DX2                !
 ! R19   R(13,22)                0.9752         estimate D2E/DX2                !
 ! R20   R(14,23)                0.9722         estimate D2E/DX2                !
 ! R21   R(15,27)                1.4475         estimate D2E/DX2                !
 ! R22   R(16,17)                1.0979         estimate D2E/DX2                !
 ! R23   R(16,18)                1.1004         estimate D2E/DX2                !
 ! R24   R(16,19)                1.4408         estimate D2E/DX2                !
 ! R25   R(19,20)                0.9841         estimate D2E/DX2                !
 ! R26   R(19,64)                1.728          estimate D2E/DX2                !
 ! R27   R(20,36)                1.9929         estimate D2E/DX2                !
 ! R28   R(24,25)                1.4432         estimate D2E/DX2                !
 ! R29   R(24,29)                1.4369         estimate D2E/DX2                !
 ! R30   R(25,26)                1.5377         estimate D2E/DX2                !
 ! R31   R(25,30)                1.1044         estimate D2E/DX2                !
 ! R32   R(25,37)                1.4096         estimate D2E/DX2                !
 ! R33   R(26,27)                1.5356         estimate D2E/DX2                !
 ! R34   R(26,31)                1.1042         estimate D2E/DX2                !
 ! R35   R(26,36)                1.4328         estimate D2E/DX2                !
 ! R36   R(27,28)                1.5327         estimate D2E/DX2                !
 ! R37   R(27,32)                1.1066         estimate D2E/DX2                !
 ! R38   R(28,29)                1.5319         estimate D2E/DX2                !
 ! R39   R(28,33)                1.1057         estimate D2E/DX2                !
 ! R40   R(28,35)                1.4376         estimate D2E/DX2                !
 ! R41   R(29,34)                1.1087         estimate D2E/DX2                !
 ! R42   R(29,38)                1.5343         estimate D2E/DX2                !
 ! R43   R(35,43)                0.9767         estimate D2E/DX2                !
 ! R44   R(36,44)                0.9917         estimate D2E/DX2                !
 ! R45   R(37,49)                1.4479         estimate D2E/DX2                !
 ! R46   R(38,39)                1.0994         estimate D2E/DX2                !
 ! R47   R(38,40)                1.1039         estimate D2E/DX2                !
 ! R48   R(38,41)                1.4356         estimate D2E/DX2                !
 ! R49   R(41,42)                0.9861         estimate D2E/DX2                !
 ! R50   R(41,83)                1.8031         estimate D2E/DX2                !
 ! R51   R(45,46)                1.4532         estimate D2E/DX2                !
 ! R52   R(45,50)                1.4333         estimate D2E/DX2                !
 ! R53   R(46,47)                1.531          estimate D2E/DX2                !
 ! R54   R(46,51)                1.11           estimate D2E/DX2                !
 ! R55   R(46,58)                1.386          estimate D2E/DX2                !
 ! R56   R(47,48)                1.5475         estimate D2E/DX2                !
 ! R57   R(47,52)                1.1105         estimate D2E/DX2                !
 ! R58   R(47,57)                1.4157         estimate D2E/DX2                !
 ! R59   R(48,49)                1.538          estimate D2E/DX2                !
 ! R60   R(48,53)                1.1052         estimate D2E/DX2                !
 ! R61   R(48,56)                1.4245         estimate D2E/DX2                !
 ! R62   R(49,50)                1.5441         estimate D2E/DX2                !
 ! R63   R(49,55)                1.1001         estimate D2E/DX2                !
 ! R64   R(50,54)                1.1098         estimate D2E/DX2                !
 ! R65   R(50,59)                1.5235         estimate D2E/DX2                !
 ! R66   R(56,64)                0.9956         estimate D2E/DX2                !
 ! R67   R(57,65)                0.9758         estimate D2E/DX2                !
 ! R68   R(58,66)                1.4483         estimate D2E/DX2                !
 ! R69   R(59,60)                1.0983         estimate D2E/DX2                !
 ! R70   R(59,61)                1.0994         estimate D2E/DX2                !
 ! R71   R(59,62)                1.4412         estimate D2E/DX2                !
 ! R72   R(62,63)                0.9884         estimate D2E/DX2                !
 ! R73   R(62,82)                1.6691         estimate D2E/DX2                !
 ! R74   R(66,67)                1.1025         estimate D2E/DX2                !
 ! R75   R(66,68)                1.1013         estimate D2E/DX2                !
 ! R76   R(66,69)                1.5261         estimate D2E/DX2                !
 ! R77   R(69,70)                1.1022         estimate D2E/DX2                !
 ! R78   R(69,71)                1.1005         estimate D2E/DX2                !
 ! R79   R(69,72)                1.5361         estimate D2E/DX2                !
 ! R80   R(72,73)                1.1033         estimate D2E/DX2                !
 ! R81   R(72,74)                1.1009         estimate D2E/DX2                !
 ! R82   R(72,75)                1.5399         estimate D2E/DX2                !
 ! R83   R(75,76)                1.1001         estimate D2E/DX2                !
 ! R84   R(75,77)                1.1019         estimate D2E/DX2                !
 ! R85   R(75,78)                1.5282         estimate D2E/DX2                !
 ! R86   R(78,79)                1.0977         estimate D2E/DX2                !
 ! R87   R(78,80)                1.0991         estimate D2E/DX2                !
 ! R88   R(78,81)                1.5028         estimate D2E/DX2                !
 ! R89   R(81,82)                1.0653         estimate D2E/DX2                !
 ! R90   R(81,83)                1.0474         estimate D2E/DX2                !
 ! R91   R(81,84)                1.0308         estimate D2E/DX2                !
 ! A1    A(2,1,6)              114.3617         estimate D2E/DX2                !
 ! A2    A(2,1,44)             102.1847         estimate D2E/DX2                !
 ! A3    A(6,1,44)             109.3632         estimate D2E/DX2                !
 ! A4    A(1,2,3)              109.157          estimate D2E/DX2                !
 ! A5    A(1,2,7)              104.224          estimate D2E/DX2                !
 ! A6    A(1,2,15)             112.9095         estimate D2E/DX2                !
 ! A7    A(3,2,7)              111.1868         estimate D2E/DX2                !
 ! A8    A(3,2,15)             109.3908         estimate D2E/DX2                !
 ! A9    A(7,2,15)             109.9053         estimate D2E/DX2                !
 ! A10   A(2,3,4)              111.152          estimate D2E/DX2                !
 ! A11   A(2,3,8)              106.128          estimate D2E/DX2                !
 ! A12   A(2,3,14)             112.9084         estimate D2E/DX2                !
 ! A13   A(4,3,8)              107.777          estimate D2E/DX2                !
 ! A14   A(4,3,14)             107.4155         estimate D2E/DX2                !
 ! A15   A(8,3,14)             111.3852         estimate D2E/DX2                !
 ! A16   A(3,4,5)              110.8641         estimate D2E/DX2                !
 ! A17   A(3,4,9)              108.9393         estimate D2E/DX2                !
 ! A18   A(3,4,13)             111.0286         estimate D2E/DX2                !
 ! A19   A(5,4,9)              108.7076         estimate D2E/DX2                !
 ! A20   A(5,4,13)             106.7983         estimate D2E/DX2                !
 ! A21   A(9,4,13)             110.4683         estimate D2E/DX2                !
 ! A22   A(4,5,6)              109.0407         estimate D2E/DX2                !
 ! A23   A(4,5,10)             107.7116         estimate D2E/DX2                !
 ! A24   A(4,5,12)             111.9031         estimate D2E/DX2                !
 ! A25   A(6,5,10)             107.6416         estimate D2E/DX2                !
 ! A26   A(6,5,12)             109.5436         estimate D2E/DX2                !
 ! A27   A(10,5,12)            110.881          estimate D2E/DX2                !
 ! A28   A(1,6,5)              110.4177         estimate D2E/DX2                !
 ! A29   A(1,6,11)             108.7625         estimate D2E/DX2                !
 ! A30   A(1,6,16)             106.9443         estimate D2E/DX2                !
 ! A31   A(5,6,11)             107.2234         estimate D2E/DX2                !
 ! A32   A(5,6,16)             114.7614         estimate D2E/DX2                !
 ! A33   A(11,6,16)            108.6038         estimate D2E/DX2                !
 ! A34   A(5,12,21)            106.3285         estimate D2E/DX2                !
 ! A35   A(4,13,22)            107.1388         estimate D2E/DX2                !
 ! A36   A(3,14,23)            108.997          estimate D2E/DX2                !
 ! A37   A(2,15,27)            117.5807         estimate D2E/DX2                !
 ! A38   A(6,16,17)            108.9442         estimate D2E/DX2                !
 ! A39   A(6,16,18)            109.7211         estimate D2E/DX2                !
 ! A40   A(6,16,19)            113.6711         estimate D2E/DX2                !
 ! A41   A(17,16,18)           107.896          estimate D2E/DX2                !
 ! A42   A(17,16,19)           105.7072         estimate D2E/DX2                !
 ! A43   A(18,16,19)           110.665          estimate D2E/DX2                !
 ! A44   A(16,19,20)           109.647          estimate D2E/DX2                !
 ! A45   A(16,19,64)           117.4575         estimate D2E/DX2                !
 ! A46   A(20,19,64)            98.4251         estimate D2E/DX2                !
 ! A47   A(19,20,36)           148.6745         estimate D2E/DX2                !
 ! A48   A(25,24,29)           117.4826         estimate D2E/DX2                !
 ! A49   A(24,25,26)           113.0673         estimate D2E/DX2                !
 ! A50   A(24,25,30)           110.0538         estimate D2E/DX2                !
 ! A51   A(24,25,37)           107.8463         estimate D2E/DX2                !
 ! A52   A(26,25,30)           109.1049         estimate D2E/DX2                !
 ! A53   A(26,25,37)           111.5704         estimate D2E/DX2                !
 ! A54   A(30,25,37)           104.8785         estimate D2E/DX2                !
 ! A55   A(25,26,27)           114.7138         estimate D2E/DX2                !
 ! A56   A(25,26,31)           106.7331         estimate D2E/DX2                !
 ! A57   A(25,26,36)           104.019          estimate D2E/DX2                !
 ! A58   A(27,26,31)           107.6723         estimate D2E/DX2                !
 ! A59   A(27,26,36)           111.9995         estimate D2E/DX2                !
 ! A60   A(31,26,36)           111.6342         estimate D2E/DX2                !
 ! A61   A(15,27,26)           111.7894         estimate D2E/DX2                !
 ! A62   A(15,27,28)           103.987          estimate D2E/DX2                !
 ! A63   A(15,27,32)           109.5523         estimate D2E/DX2                !
 ! A64   A(26,27,28)           112.058          estimate D2E/DX2                !
 ! A65   A(26,27,32)           109.8445         estimate D2E/DX2                !
 ! A66   A(28,27,32)           109.4485         estimate D2E/DX2                !
 ! A67   A(27,28,29)           111.4474         estimate D2E/DX2                !
 ! A68   A(27,28,33)           108.4788         estimate D2E/DX2                !
 ! A69   A(27,28,35)           110.2331         estimate D2E/DX2                !
 ! A70   A(29,28,33)           107.9378         estimate D2E/DX2                !
 ! A71   A(29,28,35)           109.0125         estimate D2E/DX2                !
 ! A72   A(33,28,35)           109.6889         estimate D2E/DX2                !
 ! A73   A(24,29,28)           112.1383         estimate D2E/DX2                !
 ! A74   A(24,29,34)           109.81           estimate D2E/DX2                !
 ! A75   A(24,29,38)           107.2195         estimate D2E/DX2                !
 ! A76   A(28,29,34)           107.4683         estimate D2E/DX2                !
 ! A77   A(28,29,38)           112.989          estimate D2E/DX2                !
 ! A78   A(34,29,38)           107.0884         estimate D2E/DX2                !
 ! A79   A(28,35,43)           106.3493         estimate D2E/DX2                !
 ! A80   A(20,36,26)           111.7476         estimate D2E/DX2                !
 ! A81   A(20,36,44)            74.7214         estimate D2E/DX2                !
 ! A82   A(26,36,44)           105.6623         estimate D2E/DX2                !
 ! A83   A(25,37,49)           116.9799         estimate D2E/DX2                !
 ! A84   A(29,38,39)           109.4565         estimate D2E/DX2                !
 ! A85   A(29,38,40)           108.2345         estimate D2E/DX2                !
 ! A86   A(29,38,41)           114.0632         estimate D2E/DX2                !
 ! A87   A(39,38,40)           107.5444         estimate D2E/DX2                !
 ! A88   A(39,38,41)           106.9925         estimate D2E/DX2                !
 ! A89   A(40,38,41)           110.3599         estimate D2E/DX2                !
 ! A90   A(38,41,42)           105.6881         estimate D2E/DX2                !
 ! A91   A(38,41,83)           129.0526         estimate D2E/DX2                !
 ! A92   A(42,41,83)           113.9908         estimate D2E/DX2                !
 ! A93   A(1,44,36)            157.38           estimate D2E/DX2                !
 ! A94   A(46,45,50)           112.7546         estimate D2E/DX2                !
 ! A95   A(45,46,47)           110.284          estimate D2E/DX2                !
 ! A96   A(45,46,51)           108.4929         estimate D2E/DX2                !
 ! A97   A(45,46,58)           106.711          estimate D2E/DX2                !
 ! A98   A(47,46,51)           110.8769         estimate D2E/DX2                !
 ! A99   A(47,46,58)           108.0416         estimate D2E/DX2                !
 ! A100  A(51,46,58)           112.3539         estimate D2E/DX2                !
 ! A101  A(46,47,48)           114.439          estimate D2E/DX2                !
 ! A102  A(46,47,52)           106.4191         estimate D2E/DX2                !
 ! A103  A(46,47,57)           107.7774         estimate D2E/DX2                !
 ! A104  A(48,47,52)           106.5196         estimate D2E/DX2                !
 ! A105  A(48,47,57)           110.7899         estimate D2E/DX2                !
 ! A106  A(52,47,57)           110.8226         estimate D2E/DX2                !
 ! A107  A(47,48,49)           109.0052         estimate D2E/DX2                !
 ! A108  A(47,48,53)           109.3513         estimate D2E/DX2                !
 ! A109  A(47,48,56)           104.602          estimate D2E/DX2                !
 ! A110  A(49,48,53)           109.0808         estimate D2E/DX2                !
 ! A111  A(49,48,56)           114.3011         estimate D2E/DX2                !
 ! A112  A(53,48,56)           110.3414         estimate D2E/DX2                !
 ! A113  A(37,49,48)           114.8952         estimate D2E/DX2                !
 ! A114  A(37,49,50)           107.9373         estimate D2E/DX2                !
 ! A115  A(37,49,55)           109.2761         estimate D2E/DX2                !
 ! A116  A(48,49,50)           107.1591         estimate D2E/DX2                !
 ! A117  A(48,49,55)           108.583          estimate D2E/DX2                !
 ! A118  A(50,49,55)           108.8371         estimate D2E/DX2                !
 ! A119  A(45,50,49)           107.2505         estimate D2E/DX2                !
 ! A120  A(45,50,54)           109.9208         estimate D2E/DX2                !
 ! A121  A(45,50,59)           108.6699         estimate D2E/DX2                !
 ! A122  A(49,50,54)           109.0469         estimate D2E/DX2                !
 ! A123  A(49,50,59)           115.8191         estimate D2E/DX2                !
 ! A124  A(54,50,59)           106.0767         estimate D2E/DX2                !
 ! A125  A(48,56,64)           110.9097         estimate D2E/DX2                !
 ! A126  A(47,57,65)           105.9572         estimate D2E/DX2                !
 ! A127  A(46,58,66)           114.9003         estimate D2E/DX2                !
 ! A128  A(50,59,60)           108.7127         estimate D2E/DX2                !
 ! A129  A(50,59,61)           109.1987         estimate D2E/DX2                !
 ! A130  A(50,59,62)           113.976          estimate D2E/DX2                !
 ! A131  A(60,59,61)           108.4871         estimate D2E/DX2                !
 ! A132  A(60,59,62)           106.4381         estimate D2E/DX2                !
 ! A133  A(61,59,62)           109.866          estimate D2E/DX2                !
 ! A134  A(59,62,63)           106.5249         estimate D2E/DX2                !
 ! A135  A(59,62,82)           114.5811         estimate D2E/DX2                !
 ! A136  A(63,62,82)           104.3536         estimate D2E/DX2                !
 ! A137  A(58,66,67)           108.981          estimate D2E/DX2                !
 ! A138  A(58,66,68)           109.4288         estimate D2E/DX2                !
 ! A139  A(58,66,69)           108.1551         estimate D2E/DX2                !
 ! A140  A(67,66,68)           108.385          estimate D2E/DX2                !
 ! A141  A(67,66,69)           110.5957         estimate D2E/DX2                !
 ! A142  A(68,66,69)           111.264          estimate D2E/DX2                !
 ! A143  A(66,69,70)           108.0854         estimate D2E/DX2                !
 ! A144  A(66,69,71)           108.7801         estimate D2E/DX2                !
 ! A145  A(66,69,72)           113.9437         estimate D2E/DX2                !
 ! A146  A(70,69,71)           106.4421         estimate D2E/DX2                !
 ! A147  A(70,69,72)           110.8414         estimate D2E/DX2                !
 ! A148  A(71,69,72)           108.4675         estimate D2E/DX2                !
 ! A149  A(69,72,73)           106.8551         estimate D2E/DX2                !
 ! A150  A(69,72,74)           109.1175         estimate D2E/DX2                !
 ! A151  A(69,72,75)           115.3683         estimate D2E/DX2                !
 ! A152  A(73,72,74)           105.6213         estimate D2E/DX2                !
 ! A153  A(73,72,75)           110.6343         estimate D2E/DX2                !
 ! A154  A(74,72,75)           108.7931         estimate D2E/DX2                !
 ! A155  A(72,75,76)           109.9428         estimate D2E/DX2                !
 ! A156  A(72,75,77)           111.167          estimate D2E/DX2                !
 ! A157  A(72,75,78)           112.7996         estimate D2E/DX2                !
 ! A158  A(76,75,77)           106.0178         estimate D2E/DX2                !
 ! A159  A(76,75,78)           108.1983         estimate D2E/DX2                !
 ! A160  A(77,75,78)           108.4448         estimate D2E/DX2                !
 ! A161  A(75,78,79)           112.0538         estimate D2E/DX2                !
 ! A162  A(75,78,80)           111.3637         estimate D2E/DX2                !
 ! A163  A(75,78,81)           110.4424         estimate D2E/DX2                !
 ! A164  A(79,78,80)           108.0932         estimate D2E/DX2                !
 ! A165  A(79,78,81)           106.7829         estimate D2E/DX2                !
 ! A166  A(80,78,81)           107.9012         estimate D2E/DX2                !
 ! A167  A(78,81,82)           112.6768         estimate D2E/DX2                !
 ! A168  A(78,81,83)           115.0958         estimate D2E/DX2                !
 ! A169  A(78,81,84)           110.7234         estimate D2E/DX2                !
 ! A170  A(82,81,83)           103.9987         estimate D2E/DX2                !
 ! A171  A(82,81,84)           104.5813         estimate D2E/DX2                !
 ! A172  A(83,81,84)           109.0595         estimate D2E/DX2                !
 ! A173  A(62,82,81)           164.3867         estimate D2E/DX2                !
 ! A174  A(41,83,81)           160.3344         estimate D2E/DX2                !
 ! A175  L(19,64,56,4,-1)      166.2586         estimate D2E/DX2                !
 ! A176  L(19,64,56,4,-2)      183.8374         estimate D2E/DX2                !
 ! D1    D(6,1,2,3)            -59.0613         estimate D2E/DX2                !
 ! D2    D(6,1,2,7)           -177.9269         estimate D2E/DX2                !
 ! D3    D(6,1,2,15)            62.8351         estimate D2E/DX2                !
 ! D4    D(44,1,2,3)          -177.1038         estimate D2E/DX2                !
 ! D5    D(44,1,2,7)            64.0306         estimate D2E/DX2                !
 ! D6    D(44,1,2,15)          -55.2074         estimate D2E/DX2                !
 ! D7    D(2,1,6,5)             61.0113         estimate D2E/DX2                !
 ! D8    D(2,1,6,11)           -56.3843         estimate D2E/DX2                !
 ! D9    D(2,1,6,16)          -173.4951         estimate D2E/DX2                !
 ! D10   D(44,1,6,5)           174.8849         estimate D2E/DX2                !
 ! D11   D(44,1,6,11)           57.4892         estimate D2E/DX2                !
 ! D12   D(44,1,6,16)          -59.6215         estimate D2E/DX2                !
 ! D13   D(2,1,44,36)           75.968          estimate D2E/DX2                !
 ! D14   D(6,1,44,36)          -45.5784         estimate D2E/DX2                !
 ! D15   D(1,2,3,4)             54.8595         estimate D2E/DX2                !
 ! D16   D(1,2,3,8)            -62.0552         estimate D2E/DX2                !
 ! D17   D(1,2,3,14)           175.6502         estimate D2E/DX2                !
 ! D18   D(7,2,3,4)            169.2925         estimate D2E/DX2                !
 ! D19   D(7,2,3,8)             52.3779         estimate D2E/DX2                !
 ! D20   D(7,2,3,14)           -69.9167         estimate D2E/DX2                !
 ! D21   D(15,2,3,4)           -69.1378         estimate D2E/DX2                !
 ! D22   D(15,2,3,8)           173.9476         estimate D2E/DX2                !
 ! D23   D(15,2,3,14)           51.653          estimate D2E/DX2                !
 ! D24   D(1,2,15,27)           72.1581         estimate D2E/DX2                !
 ! D25   D(3,2,15,27)         -166.0772         estimate D2E/DX2                !
 ! D26   D(7,2,15,27)          -43.7375         estimate D2E/DX2                !
 ! D27   D(2,3,4,5)            -54.0298         estimate D2E/DX2                !
 ! D28   D(2,3,4,9)             65.553          estimate D2E/DX2                !
 ! D29   D(2,3,4,13)          -172.5766         estimate D2E/DX2                !
 ! D30   D(8,3,4,5)             61.8726         estimate D2E/DX2                !
 ! D31   D(8,3,4,9)           -178.5447         estimate D2E/DX2                !
 ! D32   D(8,3,4,13)           -56.6743         estimate D2E/DX2                !
 ! D33   D(14,3,4,5)          -178.0024         estimate D2E/DX2                !
 ! D34   D(14,3,4,9)           -58.4196         estimate D2E/DX2                !
 ! D35   D(14,3,4,13)           63.4507         estimate D2E/DX2                !
 ! D36   D(2,3,14,23)           90.1408         estimate D2E/DX2                !
 ! D37   D(4,3,14,23)         -146.9631         estimate D2E/DX2                !
 ! D38   D(8,3,14,23)          -29.1572         estimate D2E/DX2                !
 ! D39   D(3,4,5,6)             54.0853         estimate D2E/DX2                !
 ! D40   D(3,4,5,10)           170.6222         estimate D2E/DX2                !
 ! D41   D(3,4,5,12)           -67.259          estimate D2E/DX2                !
 ! D42   D(9,4,5,6)            -65.6362         estimate D2E/DX2                !
 ! D43   D(9,4,5,10)            50.9007         estimate D2E/DX2                !
 ! D44   D(9,4,5,12)           173.0195         estimate D2E/DX2                !
 ! D45   D(13,4,5,6)           175.1625         estimate D2E/DX2                !
 ! D46   D(13,4,5,10)          -68.3006         estimate D2E/DX2                !
 ! D47   D(13,4,5,12)           53.8183         estimate D2E/DX2                !
 ! D48   D(3,4,13,22)          -49.7379         estimate D2E/DX2                !
 ! D49   D(5,4,13,22)         -170.7105         estimate D2E/DX2                !
 ! D50   D(9,4,13,22)           71.2361         estimate D2E/DX2                !
 ! D51   D(4,5,6,1)            -55.9056         estimate D2E/DX2                !
 ! D52   D(4,5,6,11)            62.4354         estimate D2E/DX2                !
 ! D53   D(4,5,6,16)          -176.8473         estimate D2E/DX2                !
 ! D54   D(10,5,6,1)          -172.4872         estimate D2E/DX2                !
 ! D55   D(10,5,6,11)          -54.1462         estimate D2E/DX2                !
 ! D56   D(10,5,6,16)           66.5712         estimate D2E/DX2                !
 ! D57   D(12,5,6,1)            66.8642         estimate D2E/DX2                !
 ! D58   D(12,5,6,11)         -174.7948         estimate D2E/DX2                !
 ! D59   D(12,5,6,16)          -54.0774         estimate D2E/DX2                !
 ! D60   D(4,5,12,21)          -49.8249         estimate D2E/DX2                !
 ! D61   D(6,5,12,21)         -170.8784         estimate D2E/DX2                !
 ! D62   D(10,5,12,21)          70.4616         estimate D2E/DX2                !
 ! D63   D(1,6,16,17)         -162.5484         estimate D2E/DX2                !
 ! D64   D(1,6,16,18)          -44.6328         estimate D2E/DX2                !
 ! D65   D(1,6,16,19)           79.8718         estimate D2E/DX2                !
 ! D66   D(5,6,16,17)          -39.7186         estimate D2E/DX2                !
 ! D67   D(5,6,16,18)           78.197          estimate D2E/DX2                !
 ! D68   D(5,6,16,19)         -157.2984         estimate D2E/DX2                !
 ! D69   D(11,6,16,17)          80.2362         estimate D2E/DX2                !
 ! D70   D(11,6,16,18)        -161.8481         estimate D2E/DX2                !
 ! D71   D(11,6,16,19)         -37.3436         estimate D2E/DX2                !
 ! D72   D(2,15,27,26)         -79.8722         estimate D2E/DX2                !
 ! D73   D(2,15,27,28)         159.0386         estimate D2E/DX2                !
 ! D74   D(2,15,27,32)          42.1285         estimate D2E/DX2                !
 ! D75   D(6,16,19,20)         -61.6935         estimate D2E/DX2                !
 ! D76   D(6,16,19,64)          49.4579         estimate D2E/DX2                !
 ! D77   D(17,16,19,20)        178.8672         estimate D2E/DX2                !
 ! D78   D(17,16,19,64)        -69.9813         estimate D2E/DX2                !
 ! D79   D(18,16,19,20)         62.3012         estimate D2E/DX2                !
 ! D80   D(18,16,19,64)        173.4526         estimate D2E/DX2                !
 ! D81   D(16,19,20,36)         71.826          estimate D2E/DX2                !
 ! D82   D(64,19,20,36)        -51.3912         estimate D2E/DX2                !
 ! D83   D(16,19,56,48)        178.8877         estimate D2E/DX2                !
 ! D84   D(20,19,56,48)        -65.9578         estimate D2E/DX2                !
 ! D85   D(19,20,36,26)         28.1393         estimate D2E/DX2                !
 ! D86   D(19,20,36,44)        -72.9498         estimate D2E/DX2                !
 ! D87   D(29,24,25,26)        -47.4118         estimate D2E/DX2                !
 ! D88   D(29,24,25,30)         74.8748         estimate D2E/DX2                !
 ! D89   D(29,24,25,37)       -171.2537         estimate D2E/DX2                !
 ! D90   D(25,24,29,28)         53.8709         estimate D2E/DX2                !
 ! D91   D(25,24,29,34)        -65.5357         estimate D2E/DX2                !
 ! D92   D(25,24,29,38)        178.4479         estimate D2E/DX2                !
 ! D93   D(24,25,26,27)         41.6769         estimate D2E/DX2                !
 ! D94   D(24,25,26,31)        -77.4881         estimate D2E/DX2                !
 ! D95   D(24,25,26,36)        164.3565         estimate D2E/DX2                !
 ! D96   D(30,25,26,27)        -81.1385         estimate D2E/DX2                !
 ! D97   D(30,25,26,31)        159.6965         estimate D2E/DX2                !
 ! D98   D(30,25,26,36)         41.5411         estimate D2E/DX2                !
 ! D99   D(37,25,26,27)        163.4488         estimate D2E/DX2                !
 ! D100  D(37,25,26,31)         44.2839         estimate D2E/DX2                !
 ! D101  D(37,25,26,36)        -73.8716         estimate D2E/DX2                !
 ! D102  D(24,25,37,49)         43.7047         estimate D2E/DX2                !
 ! D103  D(26,25,37,49)        -81.0382         estimate D2E/DX2                !
 ! D104  D(30,25,37,49)        160.9803         estimate D2E/DX2                !
 ! D105  D(25,26,27,15)       -160.1747         estimate D2E/DX2                !
 ! D106  D(25,26,27,28)        -43.8896         estimate D2E/DX2                !
 ! D107  D(25,26,27,32)         77.9925         estimate D2E/DX2                !
 ! D108  D(31,26,27,15)        -41.5365         estimate D2E/DX2                !
 ! D109  D(31,26,27,28)         74.7486         estimate D2E/DX2                !
 ! D110  D(31,26,27,32)       -163.3693         estimate D2E/DX2                !
 ! D111  D(36,26,27,15)         81.56           estimate D2E/DX2                !
 ! D112  D(36,26,27,28)       -162.1549         estimate D2E/DX2                !
 ! D113  D(36,26,27,32)        -40.2728         estimate D2E/DX2                !
 ! D114  D(25,26,36,20)        107.8928         estimate D2E/DX2                !
 ! D115  D(25,26,36,44)       -172.6401         estimate D2E/DX2                !
 ! D116  D(27,26,36,20)       -127.6607         estimate D2E/DX2                !
 ! D117  D(27,26,36,44)        -48.1936         estimate D2E/DX2                !
 ! D118  D(31,26,36,20)         -6.8325         estimate D2E/DX2                !
 ! D119  D(31,26,36,44)         72.6346         estimate D2E/DX2                !
 ! D120  D(15,27,28,29)        169.9329         estimate D2E/DX2                !
 ! D121  D(15,27,28,33)        -71.3706         estimate D2E/DX2                !
 ! D122  D(15,27,28,35)         48.7462         estimate D2E/DX2                !
 ! D123  D(26,27,28,29)         49.0237         estimate D2E/DX2                !
 ! D124  D(26,27,28,33)        167.7202         estimate D2E/DX2                !
 ! D125  D(26,27,28,35)        -72.163          estimate D2E/DX2                !
 ! D126  D(32,27,28,29)        -73.0847         estimate D2E/DX2                !
 ! D127  D(32,27,28,33)         45.6118         estimate D2E/DX2                !
 ! D128  D(32,27,28,35)        165.7286         estimate D2E/DX2                !
 ! D129  D(27,28,29,24)        -53.3762         estimate D2E/DX2                !
 ! D130  D(27,28,29,34)         67.3938         estimate D2E/DX2                !
 ! D131  D(27,28,29,38)       -174.6928         estimate D2E/DX2                !
 ! D132  D(33,28,29,24)       -172.3956         estimate D2E/DX2                !
 ! D133  D(33,28,29,34)        -51.6256         estimate D2E/DX2                !
 ! D134  D(33,28,29,38)         66.2878         estimate D2E/DX2                !
 ! D135  D(35,28,29,24)         68.5196         estimate D2E/DX2                !
 ! D136  D(35,28,29,34)       -170.7105         estimate D2E/DX2                !
 ! D137  D(35,28,29,38)        -52.7971         estimate D2E/DX2                !
 ! D138  D(27,28,35,43)        -49.3612         estimate D2E/DX2                !
 ! D139  D(29,28,35,43)       -171.9892         estimate D2E/DX2                !
 ! D140  D(33,28,35,43)         70.0231         estimate D2E/DX2                !
 ! D141  D(24,29,38,39)         58.0737         estimate D2E/DX2                !
 ! D142  D(24,29,38,40)        175.0092         estimate D2E/DX2                !
 ! D143  D(24,29,38,41)        -61.741          estimate D2E/DX2                !
 ! D144  D(28,29,38,39)       -177.8671         estimate D2E/DX2                !
 ! D145  D(28,29,38,40)        -60.9316         estimate D2E/DX2                !
 ! D146  D(28,29,38,41)         62.3182         estimate D2E/DX2                !
 ! D147  D(34,29,38,39)        -59.7317         estimate D2E/DX2                !
 ! D148  D(34,29,38,40)         57.2038         estimate D2E/DX2                !
 ! D149  D(34,29,38,41)       -179.5464         estimate D2E/DX2                !
 ! D150  D(20,36,44,1)          79.9033         estimate D2E/DX2                !
 ! D151  D(26,36,44,1)         -28.8997         estimate D2E/DX2                !
 ! D152  D(25,37,49,48)        112.6763         estimate D2E/DX2                !
 ! D153  D(25,37,49,50)       -127.8455         estimate D2E/DX2                !
 ! D154  D(25,37,49,55)         -9.6331         estimate D2E/DX2                !
 ! D155  D(29,38,41,42)        -44.8197         estimate D2E/DX2                !
 ! D156  D(29,38,41,83)         95.687          estimate D2E/DX2                !
 ! D157  D(39,38,41,42)       -166.0116         estimate D2E/DX2                !
 ! D158  D(39,38,41,83)        -25.5049         estimate D2E/DX2                !
 ! D159  D(40,38,41,42)         77.2695         estimate D2E/DX2                !
 ! D160  D(40,38,41,83)       -142.2238         estimate D2E/DX2                !
 ! D161  D(38,41,83,81)        -44.3632         estimate D2E/DX2                !
 ! D162  D(42,41,83,81)         93.5548         estimate D2E/DX2                !
 ! D163  D(50,45,46,47)        -56.9551         estimate D2E/DX2                !
 ! D164  D(50,45,46,51)         64.6608         estimate D2E/DX2                !
 ! D165  D(50,45,46,58)       -174.0653         estimate D2E/DX2                !
 ! D166  D(46,45,50,49)         68.4788         estimate D2E/DX2                !
 ! D167  D(46,45,50,54)        -49.9452         estimate D2E/DX2                !
 ! D168  D(46,45,50,59)       -165.6264         estimate D2E/DX2                !
 ! D169  D(45,46,47,48)         46.2328         estimate D2E/DX2                !
 ! D170  D(45,46,47,52)        -71.1232         estimate D2E/DX2                !
 ! D171  D(45,46,47,57)        169.9525         estimate D2E/DX2                !
 ! D172  D(51,46,47,48)        -73.958          estimate D2E/DX2                !
 ! D173  D(51,46,47,52)        168.686          estimate D2E/DX2                !
 ! D174  D(51,46,47,57)         49.7617         estimate D2E/DX2                !
 ! D175  D(58,46,47,48)        162.515          estimate D2E/DX2                !
 ! D176  D(58,46,47,52)         45.159          estimate D2E/DX2                !
 ! D177  D(58,46,47,57)        -73.7653         estimate D2E/DX2                !
 ! D178  D(45,46,58,66)        -70.4012         estimate D2E/DX2                !
 ! D179  D(47,46,58,66)        171.0135         estimate D2E/DX2                !
 ! D180  D(51,46,58,66)         48.3851         estimate D2E/DX2                !
 ! D181  D(46,47,48,49)        -48.038          estimate D2E/DX2                !
 ! D182  D(46,47,48,53)         71.1328         estimate D2E/DX2                !
 ! D183  D(46,47,48,56)       -170.6888         estimate D2E/DX2                !
 ! D184  D(52,47,48,49)         69.2606         estimate D2E/DX2                !
 ! D185  D(52,47,48,53)       -171.5686         estimate D2E/DX2                !
 ! D186  D(52,47,48,56)        -53.3902         estimate D2E/DX2                !
 ! D187  D(57,47,48,49)       -170.1285         estimate D2E/DX2                !
 ! D188  D(57,47,48,53)        -50.9577         estimate D2E/DX2                !
 ! D189  D(57,47,48,56)         67.2207         estimate D2E/DX2                !
 ! D190  D(46,47,57,65)       -177.6458         estimate D2E/DX2                !
 ! D191  D(48,47,57,65)        -51.7397         estimate D2E/DX2                !
 ! D192  D(52,47,57,65)         66.2811         estimate D2E/DX2                !
 ! D193  D(47,48,49,37)        176.5651         estimate D2E/DX2                !
 ! D194  D(47,48,49,50)         56.6554         estimate D2E/DX2                !
 ! D195  D(47,48,49,55)        -60.7523         estimate D2E/DX2                !
 ! D196  D(53,48,49,37)         57.226          estimate D2E/DX2                !
 ! D197  D(53,48,49,50)        -62.6838         estimate D2E/DX2                !
 ! D198  D(53,48,49,55)        179.9086         estimate D2E/DX2                !
 ! D199  D(56,48,49,37)        -66.814          estimate D2E/DX2                !
 ! D200  D(56,48,49,50)        173.2762         estimate D2E/DX2                !
 ! D201  D(56,48,49,55)         55.8686         estimate D2E/DX2                !
 ! D202  D(47,48,56,64)       -140.2992         estimate D2E/DX2                !
 ! D203  D(49,48,56,64)        100.5654         estimate D2E/DX2                !
 ! D204  D(53,48,56,64)        -22.7974         estimate D2E/DX2                !
 ! D205  D(37,49,50,45)        168.5811         estimate D2E/DX2                !
 ! D206  D(37,49,50,54)        -72.4303         estimate D2E/DX2                !
 ! D207  D(37,49,50,59)         47.0741         estimate D2E/DX2                !
 ! D208  D(48,49,50,45)        -67.1534         estimate D2E/DX2                !
 ! D209  D(48,49,50,54)         51.8353         estimate D2E/DX2                !
 ! D210  D(48,49,50,59)        171.3396         estimate D2E/DX2                !
 ! D211  D(55,49,50,45)         50.0877         estimate D2E/DX2                !
 ! D212  D(55,49,50,54)        169.0764         estimate D2E/DX2                !
 ! D213  D(55,49,50,59)        -71.4193         estimate D2E/DX2                !
 ! D214  D(45,50,59,60)         53.4207         estimate D2E/DX2                !
 ! D215  D(45,50,59,61)        171.6143         estimate D2E/DX2                !
 ! D216  D(45,50,59,62)        -65.1098         estimate D2E/DX2                !
 ! D217  D(49,50,59,60)        174.1657         estimate D2E/DX2                !
 ! D218  D(49,50,59,61)        -67.6407         estimate D2E/DX2                !
 ! D219  D(49,50,59,62)         55.6352         estimate D2E/DX2                !
 ! D220  D(54,50,59,60)        -64.7216         estimate D2E/DX2                !
 ! D221  D(54,50,59,61)         53.472          estimate D2E/DX2                !
 ! D222  D(54,50,59,62)        176.7479         estimate D2E/DX2                !
 ! D223  D(46,58,66,67)        -88.788          estimate D2E/DX2                !
 ! D224  D(46,58,66,68)         29.5712         estimate D2E/DX2                !
 ! D225  D(46,58,66,69)        150.9287         estimate D2E/DX2                !
 ! D226  D(50,59,62,63)        -69.3843         estimate D2E/DX2                !
 ! D227  D(50,59,62,82)         45.4549         estimate D2E/DX2                !
 ! D228  D(60,59,62,63)        170.7947         estimate D2E/DX2                !
 ! D229  D(60,59,62,82)        -74.3661         estimate D2E/DX2                !
 ! D230  D(61,59,62,63)         53.5284         estimate D2E/DX2                !
 ! D231  D(61,59,62,82)        168.3676         estimate D2E/DX2                !
 ! D232  D(59,62,82,81)       -118.1962         estimate D2E/DX2                !
 ! D233  D(63,62,82,81)         -2.0979         estimate D2E/DX2                !
 ! D234  D(58,66,69,70)       -177.1745         estimate D2E/DX2                !
 ! D235  D(58,66,69,71)         67.6401         estimate D2E/DX2                !
 ! D236  D(58,66,69,72)        -53.4963         estimate D2E/DX2                !
 ! D237  D(67,66,69,70)         63.5576         estimate D2E/DX2                !
 ! D238  D(67,66,69,71)        -51.6278         estimate D2E/DX2                !
 ! D239  D(67,66,69,72)       -172.7642         estimate D2E/DX2                !
 ! D240  D(68,66,69,70)        -56.9594         estimate D2E/DX2                !
 ! D241  D(68,66,69,71)       -172.1447         estimate D2E/DX2                !
 ! D242  D(68,66,69,72)         66.7188         estimate D2E/DX2                !
 ! D243  D(66,69,72,73)         57.2489         estimate D2E/DX2                !
 ! D244  D(66,69,72,74)        171.0025         estimate D2E/DX2                !
 ! D245  D(66,69,72,75)        -66.1984         estimate D2E/DX2                !
 ! D246  D(70,69,72,73)        179.4228         estimate D2E/DX2                !
 ! D247  D(70,69,72,74)        -66.8236         estimate D2E/DX2                !
 ! D248  D(70,69,72,75)         55.9755         estimate D2E/DX2                !
 ! D249  D(71,69,72,73)        -64.0614         estimate D2E/DX2                !
 ! D250  D(71,69,72,74)         49.6922         estimate D2E/DX2                !
 ! D251  D(71,69,72,75)        172.4913         estimate D2E/DX2                !
 ! D252  D(69,72,75,76)        -80.5615         estimate D2E/DX2                !
 ! D253  D(69,72,75,77)         36.521          estimate D2E/DX2                !
 ! D254  D(69,72,75,78)        158.5807         estimate D2E/DX2                !
 ! D255  D(73,72,75,76)        158.0096         estimate D2E/DX2                !
 ! D256  D(73,72,75,77)        -84.9079         estimate D2E/DX2                !
 ! D257  D(73,72,75,78)         37.1518         estimate D2E/DX2                !
 ! D258  D(74,72,75,76)         42.41           estimate D2E/DX2                !
 ! D259  D(74,72,75,77)        159.4924         estimate D2E/DX2                !
 ! D260  D(74,72,75,78)        -78.4479         estimate D2E/DX2                !
 ! D261  D(72,75,78,79)        167.3675         estimate D2E/DX2                !
 ! D262  D(72,75,78,80)         46.1511         estimate D2E/DX2                !
 ! D263  D(72,75,78,81)        -73.7193         estimate D2E/DX2                !
 ! D264  D(76,75,78,79)         45.5198         estimate D2E/DX2                !
 ! D265  D(76,75,78,80)        -75.6966         estimate D2E/DX2                !
 ! D266  D(76,75,78,81)        164.4329         estimate D2E/DX2                !
 ! D267  D(77,75,78,79)        -69.0524         estimate D2E/DX2                !
 ! D268  D(77,75,78,80)        169.7312         estimate D2E/DX2                !
 ! D269  D(77,75,78,81)         49.8607         estimate D2E/DX2                !
 ! D270  D(75,78,81,82)        -79.6949         estimate D2E/DX2                !
 ! D271  D(75,78,81,83)        161.2806         estimate D2E/DX2                !
 ! D272  D(75,78,81,84)         37.0361         estimate D2E/DX2                !
 ! D273  D(79,78,81,82)         42.3751         estimate D2E/DX2                !
 ! D274  D(79,78,81,83)        -76.6494         estimate D2E/DX2                !
 ! D275  D(79,78,81,84)        159.1061         estimate D2E/DX2                !
 ! D276  D(80,78,81,82)        158.3707         estimate D2E/DX2                !
 ! D277  D(80,78,81,83)         39.3462         estimate D2E/DX2                !
 ! D278  D(80,78,81,84)        -84.8983         estimate D2E/DX2                !
 ! D279  D(78,81,82,62)       -150.1124         estimate D2E/DX2                !
 ! D280  D(83,81,82,62)        -24.8091         estimate D2E/DX2                !
 ! D281  D(84,81,82,62)         89.559          estimate D2E/DX2                !
 ! D282  D(78,81,83,41)        151.4899         estimate D2E/DX2                !
 ! D283  D(82,81,83,41)         27.744          estimate D2E/DX2                !
 ! D284  D(84,81,83,41)        -83.3954         estimate D2E/DX2                !
 --------------------------------------------------------------------------------
 Trust Radius=3.00D-01 FncErr=1.00D-07 GrdErr=1.00D-06
 Number of steps in this run=    504 maximum allowed number of steps=    504.
 GradGradGradGradGradGradGradGradGradGradGradGradGradGradGradGradGradGrad

 Leave Link  103 at Wed Apr  6 23:25:18 2016, MaxMem= 10737418240 cpu:         0.4
 (Enter /share/apps//g09/l202.exe)
 Stoichiometry    C23H44NO16(1+)
 Framework group  C1[X(C23H44NO16)]
 Deg. of freedom   246
 Full point group                 C1      NOp   1
 Largest Abelian subgroup         C1      NOp   1
 Largest concise Abelian subgroup C1      NOp   1
                         Standard orientation:                         
 ---------------------------------------------------------------------
 Center     Atomic      Atomic             Coordinates (Angstroms)
 Number     Number       Type             X           Y           Z
 ---------------------------------------------------------------------
      1          8           0        4.357462   -0.370018    0.881510
      2          6           0        4.464723    0.861492    0.160821
      3          6           0        5.428651    0.670674   -1.025413
      4          6           0        4.991209   -0.500783   -1.910203
      5          6           0        4.820353   -1.782395   -1.077247
      6          6           0        3.868836   -1.500076    0.080643
      7          1           0        4.876021    1.573092    0.899042
      8          1           0        6.407058    0.414179   -0.586782
      9          1           0        4.020706   -0.251897   -2.382259
     10          1           0        4.343672   -2.544950   -1.725557
     11          1           0        2.892476   -1.229014   -0.357288
     12          8           0        6.060180   -2.253344   -0.569312
     13          8           0        5.970096   -0.783549   -2.904025
     14          8           0        5.518940    1.827077   -1.860509
     15          8           0        3.217326    1.330520   -0.317785
     16          6           0        3.664187   -2.671038    1.040998
     17          1           0        3.605787   -3.601496    0.461204
     18          1           0        4.526469   -2.749357    1.720120
     19          8           0        2.433973   -2.598740    1.787473
     20          1           0        2.433011   -1.788502    2.346075
     21          1           0        6.675645   -2.277550   -1.326673
     22          1           0        6.191842    0.061339   -3.337570
     23          1           0        6.234462    2.398403   -1.533651
     24          8           0       -0.556696    2.086874    1.250829
     25          6           0        0.224173    1.188543    2.066977
     26          6           0        1.533092    0.745483    1.392383
     27          6           0        2.284076    1.862126    0.652669
     28          6           0        1.340455    2.736064   -0.180948
     29          6           0        0.128619    3.191311    0.638195
     30          1           0        0.459691    1.664573    3.035247
     31          1           0        1.262808   -0.025660    0.649745
     32          1           0        2.826709    2.495546    1.379921
     33          1           0        1.891939    3.638486   -0.503462
     34          1           0        0.497292    3.885272    1.420345
     35          8           0        0.880675    2.011437   -1.334266
     36          8           0        2.308135    0.196921    2.465322
     37          8           0       -0.589382    0.084965    2.394585
     38          6           0       -0.904088    3.960164   -0.196268
     39          1           0       -1.726931    4.290966    0.453533
     40          1           0       -0.416665    4.863733   -0.602079
     41          8           0       -1.490406    3.190014   -1.256531
     42          1           0       -0.740634    2.717597   -1.689044
     43          1           0        1.675854    1.631024   -1.754968
     44          1           0        3.204294    0.013992    2.081973
     45          8           0       -3.672963   -0.854624    0.688933
     46          6           0       -3.455405   -2.196833    0.176298
     47          6           0       -1.980575   -2.394904   -0.183719
     48          6           0       -0.986295   -1.895086    0.891680
     49          6           0       -1.392860   -0.477901    1.329676
     50          6           0       -2.852981   -0.555752    1.825914
     51          1           0       -3.774938   -2.925443    0.950345
     52          1           0       -1.794861   -1.785310   -1.093127
     53          1           0       -1.024476   -2.568709    1.767088
     54          1           0       -2.937377   -1.368375    2.577096
     55          1           0       -1.350480    0.185633    0.453187
     56          8           0        0.290033   -1.971058    0.263718
     57          8           0       -1.781914   -3.770846   -0.450981
     58          8           0       -4.199647   -2.304266   -0.987985
     59          6           0       -3.392553    0.699518    2.499898
     60          1           0       -4.460803    0.555113    2.710111
     61          1           0       -2.867131    0.852157    3.453481
     62          8           0       -3.293192    1.887676    1.690330
     63          1           0       -2.331024    2.104422    1.626074
     64          1           0        0.981136   -2.297382    0.901814
     65          1           0       -0.829862   -3.872843   -0.639219
     66          6           0       -5.634195   -2.344107   -0.793201
     67          1           0       -5.947939   -3.391522   -0.651918
     68          1           0       -5.896579   -1.777539    0.113975
     69          6           0       -6.298825   -1.746835   -2.030339
     70          1           0       -7.387651   -1.730691   -1.859685
     71          1           0       -6.127305   -2.419502   -2.884289
     72          6           0       -5.782992   -0.348330   -2.401286
     73          1           0       -4.692872   -0.437454   -2.546097
     74          1           0       -6.190122   -0.062658   -3.383397
     75          6           0       -6.106539    0.764583   -1.387377
     76          1           0       -7.139180    1.115365   -1.532034
     77          1           0       -6.055491    0.387752   -0.353164
     78          6           0       -5.172193    1.967605   -1.510312
     79          1           0       -5.540734    2.834917   -0.947418
     80          1           0       -5.045134    2.270351   -2.559241
     81          7           0       -3.814606    1.636459   -0.957417
     82          1           0       -3.779735    1.690951    0.105896
     83          1           0       -3.041276    2.270403   -1.269104
     84          1           0       -3.559624    0.661911   -1.175812
 ---------------------------------------------------------------------
 Rotational constants (GHZ):      0.1440570      0.0536637      0.0484208
 Leave Link  202 at Wed Apr  6 23:25:18 2016, MaxMem= 10737418240 cpu:         0.5
 (Enter /share/apps//g09/l301.exe)
 Standard basis: 6-311+G(d,p) (5D, 7F)
 Ernie: Thresh=  0.10000D-02 Tol=  0.10000D-05 Strict=F.
 There are  1184 symmetry adapted cartesian basis functions of A   symmetry.
 There are  1144 symmetry adapted basis functions of A   symmetry.
  1144 basis functions,  1792 primitive gaussians,  1184 cartesian basis functions
   158 alpha electrons      158 beta electrons
       nuclear repulsion energy      5792.7117887141 Hartrees.
 IExCor= 1009 DFT=T Ex+Corr=PBE1PBE ExCW=0 ScaHFX=  0.250000
 ScaDFX=  0.750000  0.750000  1.000000  1.000000 ScalE2=  1.000000  1.000000
 IRadAn=      0 IRanWt=     -1 IRanGd=            0 ICorTp=0 IEmpDi=131
 NAtoms=   84 NActive=   84 NUniq=   84 SFac= 1.00D+00 NAtFMM=   60 NAOKFM=T Big=T
 Integral buffers will be    131072 words long.
 Raffenetti 2 integral format.
 Two-electron integral symmetry is turned on.
 R6Disp:  Grimme-D3 Dispersion energy=       -0.0828556847 Hartrees.
 Nuclear repulsion after empirical dispersion term =     5792.6289330294 Hartrees.
 Leave Link  301 at Wed Apr  6 23:25:18 2016, MaxMem= 10737418240 cpu:         1.6
 (Enter /share/apps//g09/l302.exe)
 NPDir=0 NMtPBC=     1 NCelOv=     1 NCel=       1 NClECP=     1 NCelD=      1
         NCelK=      1 NCelE2=     1 NClLst=     1 CellRange=     0.0.
 One-electron integrals computed using PRISM.
 NBasis=  1144 RedAO= T EigKep=  1.31D-06  NBF=  1144
 NBsUse=  1143 1.00D-06 EigRej=  7.70D-07 NBFU=  1143
 Precomputing XC quadrature grid using
 IXCGrd= 4 IRadAn=           0 IRanWt=          -1 IRanGd=           0 AccXCQ= 0.00D+00.
 Generated NRdTot=       0 NPtTot=           0 NUsed=           0 NTot=          32
 NSgBfM=  1068  1074  1088  1094  1099 MxSgAt=    84 MxSgA2=    84.
 Leave Link  302 at Wed Apr  6 23:25:21 2016, MaxMem= 10737418240 cpu:        45.8
 (Enter /share/apps//g09/l303.exe)
 DipDrv:  MaxL=1.
 Leave Link  303 at Wed Apr  6 23:25:24 2016, MaxMem= 10737418240 cpu:        27.9
 (Enter /share/apps//g09/l401.exe)
 ExpMin= 4.38D-02 ExpMax= 8.59D+03 ExpMxC= 1.30D+03 IAcc=2 IRadAn=         4 AccDes= 0.00D+00
 Harris functional with IExCor= 1009 and IRadAn=       4 diagonalized for initial guess.
 HarFok:  IExCor= 1009 AccDes= 0.00D+00 IRadAn=         4 IDoV= 1 UseB2=F ITyADJ=14
 ICtDFT=  3500011 ScaDFX=  1.000000  1.000000  1.000000  1.000000
 FoFCou: FMM=F IPFlag=           0 FMFlag=      100000 FMFlg1=        2001
         NFxFlg=           0 DoJE=T BraDBF=F KetDBF=T FulRan=T
         wScrn=  0.000000 ICntrl=     500 IOpCl=  0 I1Cent=   200000004 NGrid=           0
         NMat0=    1 NMatS0=      1 NMatT0=    0 NMatD0=    1 NMtDS0=    0 NMtDT0=    0
 Petite list used in FoFCou.
 Harris En= -2159.70894229240    
 JPrj=0 DoOrth=F DoCkMO=F.
 Leave Link  401 at Wed Apr  6 23:25:36 2016, MaxMem= 10737418240 cpu:       216.6
 (Enter /share/apps//g09/l502.exe)
 Closed shell SCF:
 Using DIIS extrapolation, IDIIS=  1040.
 Integral symmetry usage will be decided dynamically.
 IVT=     4256630 IEndB=     4256630 NGot= 10737418240 MDV= 10734581291
 LenX= 10734581291 LenY= 10733178251
 Requested convergence on RMS density matrix=1.00D-08 within 128 cycles.
 Requested convergence on MAX density matrix=1.00D-06.
 Requested convergence on             energy=1.00D-06.
 No special actions if energy rises.
 Fock matrices will be formed incrementally for  20 cycles.

 Cycle   1  Pass 1  IDiag  1:
 FoFJK:  IHMeth= 1 ICntrl=       0 DoSepK=F KAlg= 0 I1Cent=   0 FoldK=F
 IRaf= 750000000 NMat=   1 IRICut=       1 DoRegI=T DoRafI=F ISym2E= 0.
 FoFCou: FMM=T IPFlag=           0 FMFlag=      100000 FMFlg1=        2001
         NFxFlg=           0 DoJE=F BraDBF=F KetDBF=F FulRan=T
         wScrn=  0.000000 ICntrl=       0 IOpCl=  0 I1Cent=           0 NGrid=           0
         NMat0=    1 NMatS0=      1 NMatT0=    0 NMatD0=    1 NMtDS0=    0 NMtDT0=    0
 Symmetry not used in FoFCou.
 FMM levels:  10  Number of levels for PrismC:   9
 E= -2158.68841734769    
 DIIS: error= 1.16D-02 at cycle   1 NSaved=   1.
 NSaved= 1 IEnMin= 1 EnMin= -2158.68841734769     IErMin= 1 ErrMin= 1.16D-02
 ErrMax= 1.16D-02  0.00D+00 EMaxC= 1.00D-01 BMatC= 1.02D+00 BMatP= 1.02D+00
 IDIUse=3 WtCom= 8.84D-01 WtEn= 1.16D-01
 Coeff-Com:  0.100D+01
 Coeff-En:   0.100D+01
 Coeff:      0.100D+01
 Gap=     0.257 Goal=   None    Shift=    0.000
 GapD=    0.257 DampG=1.000 DampE=0.500 DampFc=0.5000 IDamp=-1.
 Damping current iteration by 5.00D-01
 RMSDP=1.05D-02 MaxDP=2.12D+00              OVMax= 1.53D-01

 Cycle   2  Pass 1  IDiag  1:
 RMSU=  5.21D-03    CP:  9.89D-01
 E= -2158.96970451909     Delta-E=       -0.281287171403 Rises=F Damp=T
 DIIS: error= 3.51D-03 at cycle   2 NSaved=   2.
 NSaved= 2 IEnMin= 2 EnMin= -2158.96970451909     IErMin= 2 ErrMin= 3.51D-03
 ErrMax= 3.51D-03  0.00D+00 EMaxC= 1.00D-01 BMatC= 8.16D-02 BMatP= 1.02D+00
 IDIUse=3 WtCom= 9.65D-01 WtEn= 3.51D-02
 Coeff-Com:  0.621D-01 0.938D+00
 Coeff-En:   0.161D+00 0.839D+00
 Coeff:      0.656D-01 0.934D+00
 Gap=     0.291 Goal=   None    Shift=    0.000
 RMSDP=5.23D-03 MaxDP=1.71D+00 DE=-2.81D-01 OVMax= 8.28D-02

 Cycle   3  Pass 1  IDiag  1:
 RMSU=  2.69D-03    CP:  8.92D-01  7.90D-01
 E= -2159.33982778811     Delta-E=       -0.370123269016 Rises=F Damp=F
 DIIS: error= 2.52D-03 at cycle   3 NSaved=   3.
 NSaved= 3 IEnMin= 3 EnMin= -2159.33982778811     IErMin= 3 ErrMin= 2.52D-03
 ErrMax= 2.52D-03  0.00D+00 EMaxC= 1.00D-01 BMatC= 4.55D-02 BMatP= 8.16D-02
 IDIUse=3 WtCom= 9.75D-01 WtEn= 2.52D-02
 Coeff-Com: -0.659D-01 0.410D+00 0.656D+00
 Coeff-En:   0.000D+00 0.000D+00 0.100D+01
 Coeff:     -0.642D-01 0.399D+00 0.665D+00
 Gap=     0.270 Goal=   None    Shift=    0.000
 RMSDP=1.77D-03 MaxDP=6.37D-01 DE=-3.70D-01 OVMax= 1.66D-02

 Cycle   4  Pass 1  IDiag  1:
 RMSU=  1.24D-03    CP:  9.16D-01  9.20D-01  9.61D-01
 E= -2159.36822114337     Delta-E=       -0.028393355256 Rises=F Damp=F
 DIIS: error= 1.09D-03 at cycle   4 NSaved=   4.
 NSaved= 4 IEnMin= 4 EnMin= -2159.36822114337     IErMin= 4 ErrMin= 1.09D-03
 ErrMax= 1.09D-03  0.00D+00 EMaxC= 1.00D-01 BMatC= 5.99D-03 BMatP= 4.55D-02
 IDIUse=3 WtCom= 9.89D-01 WtEn= 1.09D-02
 Coeff-Com: -0.369D-01 0.126D+00 0.340D+00 0.571D+00
 Coeff-En:   0.000D+00 0.000D+00 0.728D-01 0.927D+00
 Coeff:     -0.365D-01 0.125D+00 0.337D+00 0.575D+00
 Gap=     0.262 Goal=   None    Shift=    0.000
 RMSDP=1.31D-03 MaxDP=5.68D-01 DE=-2.84D-02 OVMax= 5.62D-03

 Cycle   5  Pass 1  IDiag  1:
 RMSU=  3.16D-04    CP:  8.91D-01  8.89D-01  9.13D-01  5.92D-01
 E= -2159.37329668154     Delta-E=       -0.005075538174 Rises=F Damp=F
 DIIS: error= 4.63D-04 at cycle   5 NSaved=   5.
 NSaved= 5 IEnMin= 5 EnMin= -2159.37329668154     IErMin= 5 ErrMin= 4.63D-04
 ErrMax= 4.63D-04  0.00D+00 EMaxC= 1.00D-01 BMatC= 2.90D-04 BMatP= 5.99D-03
 IDIUse=3 WtCom= 9.95D-01 WtEn= 4.63D-03
 Coeff-Com: -0.122D-01 0.285D-01 0.105D+00 0.256D+00 0.622D+00
 Coeff-En:   0.000D+00 0.000D+00 0.000D+00 0.000D+00 0.100D+01
 Coeff:     -0.121D-01 0.284D-01 0.105D+00 0.255D+00 0.624D+00
 Gap=     0.262 Goal=   None    Shift=    0.000
 RMSDP=1.81D-04 MaxDP=4.88D-02 DE=-5.08D-03 OVMax= 1.43D-03

 Cycle   6  Pass 1  IDiag  1:
 RMSU=  8.80D-05    CP:  8.93D-01  8.96D-01  9.39D-01  5.92D-01  7.37D-01
 E= -2159.37350253549     Delta-E=       -0.000205853950 Rises=F Damp=F
 DIIS: error= 1.06D-04 at cycle   6 NSaved=   6.
 NSaved= 6 IEnMin= 6 EnMin= -2159.37350253549     IErMin= 6 ErrMin= 1.06D-04
 ErrMax= 1.06D-04  0.00D+00 EMaxC= 1.00D-01 BMatC= 3.49D-05 BMatP= 2.90D-04
 IDIUse=3 WtCom= 9.99D-01 WtEn= 1.06D-03
 Coeff-Com: -0.452D-02 0.819D-02 0.377D-01 0.107D+00 0.342D+00 0.510D+00
 Coeff-En:   0.000D+00 0.000D+00 0.000D+00 0.000D+00 0.000D+00 0.100D+01
 Coeff:     -0.451D-02 0.818D-02 0.376D-01 0.107D+00 0.342D+00 0.510D+00
 Gap=     0.262 Goal=   None    Shift=    0.000
 RMSDP=4.04D-05 MaxDP=9.76D-03 DE=-2.06D-04 OVMax= 5.41D-04

 Cycle   7  Pass 1  IDiag  1:
 RMSU=  1.99D-05    CP:  8.93D-01  8.95D-01  9.38D-01  6.05D-01  7.57D-01
                    CP:  7.03D-01
 E= -2159.37352691484     Delta-E=       -0.000024379348 Rises=F Damp=F
 DIIS: error= 2.86D-05 at cycle   7 NSaved=   7.
 NSaved= 7 IEnMin= 7 EnMin= -2159.37352691484     IErMin= 7 ErrMin= 2.86D-05
 ErrMax= 2.86D-05  0.00D+00 EMaxC= 1.00D-01 BMatC= 2.35D-06 BMatP= 3.49D-05
 IDIUse=1 WtCom= 1.00D+00 WtEn= 0.00D+00
 Coeff-Com: -0.125D-02 0.179D-02 0.106D-01 0.343D-01 0.126D+00 0.264D+00
 Coeff-Com:  0.564D+00
 Coeff:     -0.125D-02 0.179D-02 0.106D-01 0.343D-01 0.126D+00 0.264D+00
 Coeff:      0.564D+00
 Gap=     0.262 Goal=   None    Shift=    0.000
[...]
 6733,0.00021551,0.00015440,-0.00022584,0.00035940,0.00005206,0.0000253
 7,-0.00008008,0.00028933,0.00033400,0.00054753,0.00025949,0.00014893,0
 .00055498,0.00031056,0.00003536,-0.00005633,0.00001588,0.00003885,-0.0
 0015172,0.00007086,0.00000983,-0.00001643,-0.00004551,0.00000251,-0.00
 006011,-0.00002165,0.00026308,-0.00012085,0.00018267,-0.00015762,-0.00
 006549,-0.00046084,0.00016090,-0.00018562,-0.00017869,-0.00000787,-0.0
 0029146,-0.00028203,0.00001957,0.00022304,0.00004531,0.00000356,0.0001
 0017,-0.00004645,-0.00000365,-0.00008227,0.00000430,-0.00199056,-0.001
 09232,-0.00162295,0.00052017,-0.00097426,0.00066931,0.00006150,0.00010
 247,0.00018383,0.00001262,0.00005799,0.00007905,-0.00003278,0.00003172
 ,0.00019954,0.00005815,-0.00003150,-0.00005191,-0.00001876,0.00006980,
 -0.00002061,-0.00008439,0.00017265,0.00001599,-0.00000664,-0.00006459,
 0.00003108,0.00009955,-0.00003963,-0.00001218,0.00020737,-0.00004394,-
 0.00027073,0.00000852,0.00014961,0.00021864,0.00007936,-0.00000218,-0.
 00003348,-0.00090193,0.00113971,0.00195961,0.00076215,-0.00009874,0.00
 064750,-0.00019818,0.00007680,-0.00016291,0.00607472,-0.00784791,0.001
 95207,-0.00029114,-0.00020232,0.00106309,0.00047659,0.00010337,0.00003
 359,-0.15519721,0.07505071,-0.11232844,0.00958728,-0.00119602,0.010834
 06,0.15850703,0.00001685,-0.00005250,0.00004439,-0.00003965,0.00003967
 ,-0.00001212,-0.00002018,0.00002223,-0.00001412,0.00000127,0.00002695,
 0.00001235,0.00000271,0.00001709,-0.00000951,-0.00000106,-0.00000576,-
 0.00000999,0.00000133,-0.00000137,-0.00000148,-0.00000037,-0.00000394,
 -0.00000114,-0.00000099,0.00000148,-0.00000471,-0.00000091,0.00000190,
 0.00000031,-0.00000213,0.00001365,-0.00000609,0.00000604,-0.00001953,0
 .00001099,0.00000050,-0.00003329,0.00000523,0.00002300,-0.00003314,0.0
 0000701,0.00001924,-0.00007970,0.00002602,0.00001178,0.00003866,-0.000
 05883,-0.00000172,-0.00000267,-0.00000045,0.00000100,-0.00000308,0.000
 00823,-0.00002029,-0.00000807,0.00009206,0.00000800,-0.00000115,-0.000
 02063,-0.00000384,0.00000673,-0.00000107,-0.00000017,0.00001184,0.0000
 0641,-0.00000341,0.00000562,-0.00000048,0.00024376,-0.00004330,0.00049
 349,-0.00004205,-0.00004407,-0.00020594,-0.00000978,0.00002379,-0.0000
 4437,-0.00004047,0.00006699,-0.00004597,0.00010270,0.00009095,0.000099
 57,-0.00116824,0.00006189,-0.00054784,0.00000457,0.00003007,0.00002621
 ,-0.00000694,0.00000538,-0.00001426,0.00001032,-0.00000779,0.00000304,
 -0.00001101,-0.00003067,0.00002481,0.00014492,-0.00020392,-0.00010049,
 -0.00002321,-0.00019474,-0.00010115,0.00000690,-0.00002672,0.00011606,
 0.00011975,0.00010576,0.00024681,0.00145603,0.00000699,-0.00161422,-0.
 00030257,-0.00000012,-0.00000789,0.00008267,0.00000080,0.00010135,-0.0
 0190502,-0.00535169,0.00257013,0.00033429,0.00035535,0.00077479,-0.000
 00989,0.00005558,0.00002861,0.00000718,0.00003318,-0.00005126,0.000288
 34,-0.00027822,-0.00022735,0.00010112,-0.00022686,-0.00008333,0.000108
 34,0.00001555,0.00002692,0.00012033,0.00013922,-0.00016195,-0.00002667
 ,-0.00044994,-0.00002512,0.00015174,0.00014581,0.00014124,0.00003376,0
 .00001119,-0.00000748,0.00000372,0.00003980,-0.00002446,-0.00005297,-0
 .00000452,0.00002163,-0.00009125,-0.00002893,-0.00003786,0.00000467,0.
 00003552,-0.00023320,-0.00005310,-0.00002860,0.00021818,-0.00011990,-0
 .00002419,0.00002504,-0.00012580,0.00004217,0.00004481,0.00089741,-0.0
 0030801,0.00030374,-0.00006603,0.00009239,-0.00005362,-0.00015478,0.00
 021603,-0.00001756,-0.00101345,0.00187802,-0.00134587,-0.00056742,-0.0
 0116784,-0.00072279,0.00000498,-0.00005049,-0.00008543,0.00002415,0.00
 002916,-0.00001703,0.00002824,-0.00002196,-0.00001656,-0.00001654,0.00
 001385,0.00000471,0.00000013,-0.00002827,-0.00000068,-0.00004322,-0.00
 008946,0.00008104,0.00004047,-0.00000388,0.00001560,-0.00007183,0.0000
 2742,0.00000378,0.00037433,0.00016741,-0.00010722,0.00002006,0.0001223
 7,0.00010300,-0.00001779,-0.00002493,-0.00014894,0.00136964,-0.0024194
 0,-0.00424744,-0.00108869,0.00049681,-0.00087161,0.00017615,0.00012947
 ,0.00019000,-0.01398993,0.01083715,-0.01086279,0.00027733,0.00003731,0
 .00023606,-0.00069089,0.00003950,-0.00038570,0.07902528,-0.12100605,0.
 09930983,0.02092305,-0.01480935,0.02596842,-0.08255566,0.13230612,-0.0
 0042631,0.00017404,0.00008589,0.00036294,-0.00047822,-0.00057517,0.000
 01259,0.00006594,-0.00003276,0.00008687,0.00003185,-0.00014422,0.00007
 056,-0.00004471,-0.00004929,0.00022817,0.00005035,0.00000019,-0.000014
 07,0.00003843,0.00003523,-0.00000566,-0.00001833,0.00003498,0.00002315
 ,0.00003443,0.00002793,-0.00002365,-0.00000579,0.00000892,0.00003203,-
 0.00002696,0.00001481,-0.00011019,0.00005564,0.00008609,-0.00010888,-0
 .00007688,0.00012757,-0.00007359,-0.00003246,0.00011178,-0.00041351,0.
 00041064,0.00088968,0.00002002,-0.00008863,0.00007990,-0.00001525,0.00
 000046,0.00000030,0.00000638,0.00001239,-0.00001551,-0.00012271,0.0000
 4099,-0.00013879,0.00016297,-0.00006741,-0.00000798,0.00005017,-0.0000
 1186,-0.00002552,0.00003070,0.00003116,-0.00004016,0.00000287,0.000023
 68,-0.00006433,-0.00136426,0.00210628,-0.00031101,0.00142289,-0.001617
 24,0.00007205,0.00010094,-0.00016759,-0.00006924,0.00023107,-0.0002305
 3,-0.00033138,-0.00050084,-0.00033724,-0.00078300,0.00225957,-0.000841
 46,0.00037492,-0.00010508,0.00012525,0.00005480,0.00012894,-0.00001222
 ,0.00005758,-0.00005999,0.00002902,0.00002990,0.00007622,0.00011597,-0
 .00006661,-0.00026903,0.00063898,0.00032583,-0.00072649,0.00065463,0.0
 0181111,-0.00033809,0.00042931,0.00023890,-0.00117980,0.00027514,-0.00
 101795,-0.00642859,-0.00642638,0.00149846,0.00050963,0.00055694,-0.000
 02800,0.00173402,0.00103884,0.00113070,0.00656537,0.00617961,-0.000713
 13,0.00230134,0.00072593,-0.00322651,0.00035673,0.00016828,-0.00006849
 ,0.00012099,-0.00001288,-0.00008852,0.00056619,-0.00179442,-0.00093655
 ,-0.00078326,0.00051300,0.00065412,-0.00004738,0.00006920,0.00025147,0
 .00004609,0.00000269,0.00038274,0.00063274,0.00003270,0.00052423,0.000
 68268,0.00082641,0.00092676,0.00014421,-0.00012769,-0.00006088,0.00003
 560,-0.00001373,0.00009307,-0.00005530,0.00003882,-0.00002199,-0.00000
 813,-0.00016397,-0.00019533,0.00020541,-0.00020317,0.00012458,-0.00023
 913,0.00002071,-0.00067444,0.00004809,-0.00009813,-0.00035673,0.000485
 47,-0.00053030,-0.00037022,-0.00058179,0.00046203,-0.00030766,0.000048
 90,0.00010873,-0.00006912,0.00007080,-0.00026126,0.00004259,-0.0014143
 0,-0.00252564,-0.00170984,0.00049926,-0.00091392,0.00165638,0.00008728
 ,0.00010774,0.00017159,0.00006616,0.00003051,0.00009032,-0.00015568,0.
 00007064,0.00001681,0.00009643,-0.00005656,-0.00002719,-0.00003272,0.0
 0010549,-0.00003391,-0.00011358,0.00015830,0.00001033,0.00006409,-0.00
 009156,0.00005756,0.00013281,-0.00004117,0.00001123,0.00011401,-0.0001
 1271,-0.00009391,-0.00036260,-0.00023545,0.00038230,0.00004658,0.00003
 389,0.00016686,0.00155437,-0.00166999,-0.00323848,-0.00078958,0.000304
 49,-0.00006038,0.00028323,-0.00005462,0.00009763,-0.01166529,0.0099012
 5,-0.01725094,0.00030319,0.00051165,-0.00006176,-0.00050378,0.00013264
 ,0.00209803,-0.11781537,0.09896183,-0.21614389,0.00136205,0.00699829,0
 .00051909,0.11689596,-0.10667018,0.22092031,-0.00013977,0.00003515,0.0
 0000607,0.00010338,-0.00011935,-0.00012116,0.00001676,0.00000772,-0.00
 000206,0.00002107,-0.00000007,-0.00002025,0.00001799,-0.00000785,0.000
 00754,0.00008111,0.00002747,0.00001923,-0.00000780,0.00000808,0.000006
 51,-0.00000174,-0.00000380,0.00000729,0.00000773,0.00000442,0.00000401
 ,-0.00001220,-0.00000499,0.00000287,0.00001513,-0.00001163,0.00000342,
 -0.00003033,0.00001118,-0.00000372,-0.00003046,-0.00000704,0.00001237,
 -0.00003469,0.00000512,0.00001694,-0.00010636,0.00007652,0.00020021,0.
 00000260,-0.00003682,0.00004808,-0.00000692,0.00000207,0.00000499,0.00
 000068,0.00000381,-0.00001114,-0.00004073,-0.00001982,-0.00010245,0.00
 006301,-0.00000669,-0.00000442,0.00001468,-0.00000406,0.00000014,0.000
 01062,0.00000433,-0.00000494,0.00000532,0.00000284,-0.00001176,-0.0002
 5981,0.00038415,0.00028752,0.00040519,-0.00048491,-0.00008789,0.000023
 10,-0.00000920,-0.00003508,0.00005238,-0.00003800,-0.00009004,-0.00005
 016,-0.00003688,-0.00010296,0.00012348,-0.00004917,-0.00001991,-0.0000
 3779,0.00003991,0.00000536,0.00005781,-0.00000743,0.00002859,-0.000014
 24,0.00000378,0.00000216,0.00000672,0.00001325,-0.00000163,-0.00000868
 ,0.00005438,0.00003428,-0.00011016,0.00010388,0.00026216,-0.00011788,0
 .00009000,0.00009248,-0.00050512,0.00011413,-0.00021273,-0.00057202,-0
 .00054032,-0.00013639,0.00001022,0.00003134,0.00001194,0.00014721,0.00
 007370,0.00011692,0.00123953,0.00034795,0.00048795,-0.00007027,0.00009
 657,-0.00060696,0.00008863,-0.00000031,-0.00002441,0.00004458,0.000008
 56,-0.00002797,-0.00319390,0.00019653,-0.00025743,0.00054027,0.0030625
 6,0.00100920,-0.00056635,0.00082367,-0.00007912,0.00035628,0.00009550,
 0.00026465,0.00038035,-0.00038119,0.00021086,0.00076248,0.00022312,0.0
 0062838,-0.00020356,-0.00035819,0.00000864,0.00014147,-0.00040777,0.00
 032521,-0.00011032,-0.00004804,-0.00005061,-0.00015495,-0.00008447,-0.
 00011460,0.00012871,0.00005557,-0.00020872,-0.00021681,-0.00010811,-0.
 00034841,0.00029465,-0.00037443,-0.00024766,0.00169718,-0.00179601,0.0
 0054750,0.00070685,-0.00102983,0.00004648,-0.00002107,0.00004936,-0.00
 003423,-0.00016614,0.00014599,0.00001662,0.00055497,0.00173235,0.00025
 311,-0.00016454,-0.00015203,-0.00027639,0.00002396,0.00009388,0.000130
 41,0.00000130,0.00006608,0.00011793,-0.00008295,0.00015833,-0.00138612
 ,0.00007187,-0.00011188,0.00030434,-0.00004612,-0.00008567,0.00018911,
 -0.00031779,-0.00008084,0.00066701,0.00024427,-0.00009566,0.00018342,-
 0.00005622,0.00003950,-0.00003118,0.00114875,0.00090037,-0.00287805,-0
 .00054625,-0.00142719,0.00089615,0.00007449,-0.00000820,0.00076477,0.0
 0087855,-0.00000829,-0.00175784,-0.00062808,-0.00003372,-0.00010551,0.
 00027218,0.00001681,-0.00005884,0.00233397,0.00146463,0.00559274,0.001
 01420,0.00024839,-0.00158099,-0.00000785,-0.00009313,-0.00030353,-0.38
 218311,0.00937966,0.09179824,-0.01180714,-0.00120212,0.00203160,-0.014
 91964,-0.00221825,0.00548515,0.40336424,0.00002940,-0.00006343,0.00007
 369,-0.00005200,0.00004293,-0.00004560,-0.00002674,0.00002940,-0.00002
 340,0.00000308,0.00004362,0.00000295,0.00001616,0.00002237,-0.00002554
 ,-0.00001062,-0.00001745,-0.00002562,0.00000389,-0.00000086,-0.0000008
 0,-0.00000097,-0.00000484,-0.00000012,0.00000014,0.00000406,-0.0000027
 1,-0.00000034,0.00000455,0.00000014,-0.00000610,0.00002407,-0.00001025
 ,0.00000005,-0.00002349,0.00003584,-0.00000451,-0.00005435,0.00002349,
 0.00002852,-0.00004601,0.00002109,0.00001776,-0.00009573,0.00006315,0.
 00002863,0.00007543,-0.00011744,-0.00000231,-0.00000582,-0.00000376,0.
 00000227,-0.00000630,0.00001990,-0.00003479,0.00001162,0.00020744,-0.0
 0000106,-0.00001085,-0.00003659,-0.00000134,0.00000852,-0.00000666,0.0
 0000200,0.00001636,0.00000289,-0.00000484,0.00000781,-0.00000688,0.000
 41808,-0.00039373,0.00005608,-0.00060098,0.00043219,-0.00032109,0.0000
 2035,-0.00006813,-0.00002297,-0.00004770,0.00010172,-0.00004695,0.0001
 0395,0.00008386,0.00003790,-0.00024994,0.00025611,-0.00016342,0.000065
 75,-0.00002572,0.00003586,-0.00002719,0.00002225,-0.00004744,0.0000160
 4,-0.00001608,0.00000444,-0.00001259,-0.00002970,0.00001513,0.00004379
 ,-0.00003968,0.00002027,-0.00006360,-0.00022458,-0.00007210,0.00004505
 ,-0.00002443,0.00011326,0.00066175,0.00031024,0.00077405,0.00018459,0.
 00026102,0.00013979,-0.00001253,-0.00000725,-0.00000516,-0.00004086,-0
 .00004541,-0.00004852,-0.00055272,-0.00055549,0.00014841,0.00023824,0.
 00026382,0.00034103,-0.00000525,0.00007422,0.00003077,0.00000729,0.000
 02836,-0.00007471,-0.00092683,0.00248659,-0.00001848,0.00417483,0.0001
 8945,0.00007393,0.00016826,-0.00016030,-0.00034538,0.00016719,0.000021
 91,-0.00052070,-0.00003809,-0.00060462,-0.00035185,-0.00181438,-0.0018
 8589,-0.00124554,-0.00055782,0.00006814,0.00008659,-0.00002286,0.00024
 058,0.00004248,-0.00005285,-0.00000485,0.00002541,0.00020667,0.0005887
 0,0.00027353,-0.00013845,0.00026428,-0.00019911,-0.00005806,-0.0000076
 9,0.00059590,-0.00047753,-0.00002662,0.00039237,-0.00142522,-0.0007564
 7,-0.00133746,-0.00107101,0.00002138,-0.00013185,-0.00001712,-0.000024
 19,0.00004118,0.00028959,-0.00017384,0.00002249,0.00110123,-0.00260744
 ,-0.00072094,-0.00023467,-0.00003949,-0.00003742,0.00000872,-0.0001432
 4,-0.00021052,-0.00000355,0.00006764,-0.00005248,0.00037497,0.00032164
 ,0.00130834,-0.00005191,-0.00007126,-0.00020423,-0.00000560,-0.0000547
 9,0.00003700,-0.00045196,0.00019537,0.00089925,0.00033390,-0.00030267,
 0.00007168,0.00000228,-0.00004758,-0.00002343,0.00114371,0.00051157,-0
 .00234301,-0.00113771,0.00011856,0.00104888,0.00004603,-0.00014781,0.0
 0037763,-0.00026868,0.00146197,0.00064035,0.00011996,-0.00043424,0.000
 29427,-0.00020759,-0.00027836,0.00037365,0.01562028,-0.00015537,-0.005
 15844,-0.00023422,-0.00098695,-0.00174895,0.00069005,-0.00054013,-0.00
 019100,0.01084264,-0.05258456,-0.00233510,-0.03409749,0.00669292,0.010
 58370,0.01663471,-0.00072672,-0.00734393,-0.00880923,0.04914916,-0.000
 00055,0.00000472,0.00004979,0.00000479,-0.00002510,-0.00008447,-0.0000
 1912,0.00001880,-0.00001481,0.00000960,0.00001286,-0.00004493,0.000014
 71,-0.00000559,-0.00003628,-0.00000326,-0.00002393,-0.00003458,0.00000
 362,0.00000541,0.00000539,0.00000146,-0.00000198,0.00000481,-0.0000022
 9,0.00000992,0.00000868,0.00000639,0.00000217,-0.00000003,-0.00000412,
 0.00000549,-0.00000092,-0.00001582,0.00000990,0.00005108,-0.00000876,-
 0.00002542,0.00004600,0.00001714,-0.00002307,0.00002571,0.00000295,0.0
 0001016,0.00008913,0.00001959,0.00001996,-0.00004196,0.00000122,-0.000
 00583,-0.00000385,0.00000177,0.00000044,0.00001026,-0.00002486,0.00004
 256,0.00009962,0.00000867,-0.00002476,-0.00001550,0.00000631,-0.000000
 07,-0.00001176,-0.00000093,0.00000658,-0.00001259,-0.00000620,0.000006
 67,-0.00001145,0.00021006,-0.00000196,-0.00004148,-0.00018895,0.000004
 71,-0.00013689,-0.00002737,-0.00007546,-0.00003551,0.00001205,0.000041
 66,-0.00004235,-0.00016853,-0.00014670,0.00000038,-0.00015163,0.000073
 99,-0.00005402,0.00002565,0.00000651,0.00002060,0.00000181,-0.00000475
 ,-0.00003476,0.00000291,0.00000788,0.00001995,0.00004123,0.00001135,0.
 00001949,0.00003025,-0.00000713,0.00000383,0.00029663,0.00007315,0.000
 04837,0.00001663,0.00005800,0.00006940,0.00017818,0.00041546,0.0000652
 9,0.00005681,-0.00013008,0.00002123,0.00008052,0.00005287,0.00004568,0
 .00003933,0.00002258,0.00001808,0.00083212,0.00018402,-0.00152084,-0.0
 0082726,0.00008537,-0.00043228,-0.00002417,-0.00001033,-0.00007516,0.0
 0000436,0.00000064,-0.00003569,-0.00022421,-0.00016690,-0.00155020,0.0
 0029961,0.00064647,0.00127066,0.00081595,-0.00141184,0.00044626,0.0000
 0299,0.00019966,-0.00027617,0.00017122,-0.00095675,0.00014615,0.000361
 05,-0.00013222,0.00040202,-0.00000610,-0.00008813,-0.00014506,0.000023
 62,0.00073994,-0.00037643,-0.00004605,0.00011120,0.00010487,-0.0000308
 5,-0.00002827,-0.00013462,-0.00025368,0.00010531,-0.00019831,-0.000035
 70,0.00009721,0.00010973,-0.00066231,0.00043644,-0.00008302,0.00066170
 ,-0.00098153,-0.00115368,-0.00017418,0.00006808,0.00000906,0.00005254,
 0.00002470,-0.00004519,-0.00000494,-0.00004158,0.00000255,0.00003880,-
 0.00043662,-0.00023441,-0.00015012,0.00000068,0.00027199,0.00000048,-0
 .00006639,-0.00015689,0.00007737,-0.00006309,-0.00008821,-0.00037342,0
 .00032849,0.00023687,0.00009125,-0.00006359,-0.00011147,-0.00003118,0.
 00013054,-0.00007483,-0.00039539,0.00014517,0.00027801,0.00019690,-0.0
 0016674,0.00007618,0.00008901,-0.00002404,0.00000486,-0.00054866,0.000
 45922,-0.00125598,-0.00143033,-0.00126092,0.00110276,0.00032067,0.0000
 3745,0.00068301,0.00115419,0.00037020,0.00063447,0.00011972,0.00026831
 ,0.00062117,-0.00026072,0.00059668,-0.00054381,0.03286237,0.00057082,-
 0.01192119,-0.00040238,-0.00377077,-0.00518364,-0.00021568,-0.00005100
 ,0.00050861,0.09247166,-0.00121837,-0.08565333,0.00264981,0.00080286,-
 0.00102709,-0.02587454,-0.00216370,0.01311528,-0.10179344,0.00627132,0
 .09218833\\0.00000096,-0.00000763,0.00000888,0.00000047,-0.00000114,0.
 00000352,0.00000289,-0.00000305,0.00000061,0.00000085,0.00000041,-0.00
 000235,-0.00000248,-0.00000241,0.00000066,0.00000586,0.00000457,-0.000
 00330,0.00000020,-0.00000076,-0.00000075,-0.00000030,-0.00000168,0.000
 00087,0.00000104,-0.00000145,-0.00000043,0.00000042,-0.00000126,-0.000
 00010,-0.00000067,-0.00000218,0.00000061,0.00000108,0.00000223,-0.0000
 0081,-0.00000003,-0.00000086,0.00000225,-0.00000473,-0.00000288,-0.000
 00125,0.00000222,-0.00000194,-0.00000561,0.00000188,-0.00000733,-0.000
 00335,0.00000020,-0.00000287,0.00000039,-0.00000066,-0.00000001,0.0000
 0075,-0.00000092,0.00001008,0.00000280,0.00000352,0.00000499,0.0000009
 4,0.00000112,-0.00000323,0.00000010,0.00000055,-0.00000361,-0.00000106
 ,0.00000206,-0.00000042,-0.00000041,-0.00000138,0.00000288,-0.00000234
 ,0.00000639,-0.00000305,0.00000764,0.00000382,0.00000069,0.00000070,-0
 .00000141,-0.00000358,0.00000307,0.00000160,0.00000146,0.,0.00000144,-
 0.00000088,-0.00000030,-0.00000021,0.00000002,0.00000064,0.00000039,0.
 00000002,0.00000024,0.00000149,-0.00000069,-0.00000040,0.00000022,-0.0
 0000115,-0.00000023,0.00000040,-0.00000079,-0.00000076,-0.00000198,-0.
 00000114,-0.00000072,-0.00000516,-0.00001230,-0.00000243,-0.00000383,0
 .00000002,-0.00000741,-0.00000325,0.00000148,-0.00000011,-0.00000012,-
 0.00000069,-0.00000113,0.00000019,-0.00000061,0.00000059,0.00001142,-0
 .00000291,-0.00000021,-0.00000525,0.00000010,-0.00000114,-0.00000097,-
 0.00000094,0.00000167,0.00000077,0.00001151,-0.00000344,-0.00000570,-0
 .00000387,-0.00000363,0.00000749,0.00000893,0.00000247,-0.00000405,-0.
 00000003,-0.00000167,-0.00000136,-0.00000082,-0.00000309,0.00000552,0.
 00000545,0.00000769,-0.00000169,0.00000204,0.00000230,-0.00000140,0.00
 000120,0.00000068,0.00000019,0.00000049,0.00000039,0.00000097,0.000000
 55,0.00000110,0.00000022,0.00000019,0.00000028,-0.00000045,-0.00000096
 ,-0.00000161,0.00000023,-0.00000218,0.00000282,-0.00000061,0.00000022,
 -0.00000171,-0.00000208,-0.00000400,-0.00000540,0.00000198,-0.00000154
 ,0.00000008,-0.00000095,0.00000158,-0.00000040,0.00000052,0.00000093,0
 .00000009,-0.00000105,-0.00000157,0.00000205,0.00000199,0.00000395,0.0
 0000183,-0.00000248,-0.00000260,0.00000437,0.00000028,0.00000045,0.000
 00195,-0.00000006,0.00000222,0.00000704,-0.00000120,0.00000191,-0.0000
 0041,-0.00000027,0.00000217,-0.00000085,-0.00000023,0.00000022,-0.0000
 0150,-0.00000076,0.00000258,-0.00000029,-0.00000106,0.00000163,-0.0000
 0038,-0.00000170,0.00000060,0.00000048,-0.00000045,0.00000188,0.000000
 03,-0.00000070,0.00000116,-0.00000077,-0.00000047,0.00000208,-0.000002
 97,-0.00000111,0.00000210,-0.00000054,-0.00000102,0.00000142,0.0000008
 0,0.00000006,-0.00000016,-0.00000088,-0.00000017,0.00000020,0.00000011
 ,-0.00000118,0.00000037,-0.00000058,-0.00000293,0.00000257,-0.00000309
 ,-0.00000183,-0.00000198,0.00000064,-0.00000238,0.00000308,-0.00000427
 ,-0.00000023,0.00000054,-0.00000005\\\@


 10 WHATSOEVER THY HAND FINDETH TO DO, DO IT WITH THY  
 MIGHT. FOR THERE IS NO WORK, NOR DEVICE, NOR KNOWLEDGE, NOR  
 WISDOM, IN THE GRAVE, WHITHER THOU GOEST.                    
 11 I RETURNED AND SAW UNDER THE SUN, THAT THE RACE IS NOT TO 
 THE SWIFT, NOR THE BATTLE TO THE STRONG, NEITHER YET BREAD TO
 THE WISE, NOR YET RICHES TO MEN OF UNDERSTANDING, NOR YET    
 FAVOR TO MEN OF SKILL. BUT TIME AND CHANCE HAPPEN TO THEM ALL.
 12 FOR MAN ALSO KNOWETH NOT HIS TIME. AS THE FISHES   
 THAT ARE TAKEN IN AN EVIL NET, AND AS THE BIRDS THAT ARE     
 CAUGHT IN THE SNARE. SO ARE THE SONS OF MEN SNARED IN AN EVIL
 TIME, WHEN IT FALLETH SUDDENLY UPON THEM.
                                         ECCLESIASTES 9
 Job cpu time:      17 days  8 hours 59 minutes 50.6 seconds.
 File lengths (MBytes):  RWF=  17339 Int=      0 D2E=      0 Chk=     98 Scr=      1
 Normal termination of Gaussian 09 at Sat Apr  9 03:45:17 2016.
