 Entering Gaussian System, Link 0=g09
 Initial command:
 /share/apps//g09/l1.exe "/scratch/Gau-38606.inp" -scrdir="/scratch/"
 Entering Link 1 = /share/apps//g09/l1.exe PID=     38607.
  
 Copyright (c) 1988,1990,1992,1993,1995,1998,2003,2009,2013,
            Gaussian, Inc.  All Rights Reserved.
  
 This is part of the Gaussian(R) 09 program.  It is based on
 the Gaussian(R) 03 system (copyright 2003, Gaussian, Inc.),
 the Gaussian(R) 98 system (copyright 1998, Gaussian, Inc.),
 the Gaussian(R) 94 system (copyright 1995, Gaussian, Inc.),
 the Gaussian 92(TM) system (copyright 1992, Gaussian, Inc.),
 the Gaussian 90(TM) system (copyright 1990, Gaussian, Inc.),
 the Gaussian 88(TM) system (copyright 1988, Gaussian, Inc.),
 the Gaussian 86(TM) system (copyright 1986, Carnegie Mellon
 University), and the Gaussian 82(TM) system (copyright 1983,
 Carnegie Mellon University). Gaussian is a federally registered
 trademark of Gaussian, Inc.
  
 This software contains proprietary and confidential information,
 including trade secrets, belonging to Gaussian, Inc.
  
 This software is provided under written license and may be
 used, copied, transmitted, or stored only in accord with that
 written license.
  
 The following legend is applicable only to US Government
 contracts under FAR:
  
                    RESTRICTED RIGHTS LEGEND
  
 Use, reproduction and disclosure by the US Government is
 subject to restrictions as set forth in subparagraphs (a)
 and (c) of the Commercial Computer Software - Restricted
 Rights clause in FAR 52.227-19.
  
 Gaussian, Inc.
 340 Quinnipiac St., Bldg. 40, Wallingford CT 06492
  
  
 ---------------------------------------------------------------
 Warning -- This program may not be used in any manner that
 competes with the business of Gaussian, Inc. or will provide
 assistance to any competitor of Gaussian, Inc.  The licensee
 of this program is prohibited from giving any competitor of
 Gaussian, Inc. access to this program.  By using this program,
 the user acknowledges that Gaussian, Inc. is engaged in the
 business of creating and licensing software in the field of
 computational chemistry and represents and warrants to the
 licensee that it is not a competitor of Gaussian, Inc. and that
 it will not use this program in any manner prohibited above.
 ---------------------------------------------------------------
  

 Cite this work as:
 Gaussian 09, Revision D.01,
 M. J. Frisch, G. W. Trucks, H. B. Schlegel, G. E. Scuseria, 
 M. A. Robb, J. R. Cheeseman, G. Scalmani, V. Barone, B. Mennucci, 
 G. A. Petersson, H. Nakatsuji, M. Caricato, X. Li, H. P. Hratchian, 
 A. F. Izmaylov, J. Bloino, G. Zheng, J. L. Sonnenberg, M. Hada, 
 M. Ehara, K. Toyota, R. Fukuda, J. Hasegawa, M. Ishida, T. Nakajima, 
 Y. Honda, O. Kitao, H. Nakai, T. Vreven, J. A. Montgomery, Jr., 
 J. E. Peralta, F. Ogliaro, M. Bearpark, J. J. Heyd, E. Brothers, 
 K. N. Kudin, V. N. Staroverov, T. Keith, R. Kobayashi, J. Normand, 
 K. Raghavachari, A. Rendell, J. C. Burant, S. S. Iyengar, J. Tomasi, 
 M. Cossi, N. Rega, J. M. Millam, M. Klene, J. E. Knox, J. B. Cross, 
 V. Bakken, C. Adamo, J. Jaramillo, R. Gomperts, R. E. Stratmann, 
 O. Yazyev, A. J. Austin, R. Cammi, C. Pomelli, J. W. Ochterski, 
 R. L. Martin, K. Morokuma, V. G. Zakrzewski, G. A. Voth, 
 P. Salvador, J. J. Dannenberg, S. Dapprich, A. D. Daniels, 
 O. Farkas, J. B. Foresman, J. V. Ortiz, J. Cioslowski, 
 and D. J. Fox, Gaussian, Inc., Wallingford CT, 2013.
 
 ******************************************
 Gaussian 09:  EM64L-G09RevD.01 24-Apr-2013
                 2-May-2016 
 ******************************************
 %nproc=20
 Will use up to   20 processors via shared memory.
 %mem=80GB
 %chk=Tri_A131_of.chk
 ----------------------------------------------------------------------
 #P PBE1PBE/6-311+G(d,p) opt=ModRedundant freq optcyc=999 EmpiricalDisp
 ersion=GD3
 ----------------------------------------------------------------------
 1/6=999,14=-1,18=120,19=15,26=3,38=1/1,3;
 2/9=110,12=2,17=6,18=5,40=1/2;
 3/5=4,6=6,7=111,11=2,16=1,25=1,30=1,71=1,74=-13,124=31/1,2,3;
 4//1;
 5/5=2,38=5/2;
 6/7=2,8=2,9=2,10=2,28=1/1;
 7//1,2,3,16;
 1/6=999,14=-1,18=20,19=15,26=3/3(2);
 2/9=110/2;
 99//99;
 2/9=110/2;
 3/5=4,6=6,7=111,11=2,16=1,25=1,30=1,71=1,74=-13,124=31/1,2,3;
 4/5=5,16=3,69=1/1;
 5/5=2,38=5/2;
 7//1,2,3,16;
 1/6=999,14=-1,18=20,19=15,26=3/3(-5);
 2/9=110/2;
 6/7=2,8=2,9=2,10=2,19=2,28=1/1;
 99/9=1/99;
 Leave Link    1 at Mon May  2 05:09:49 2016, MaxMem= 10737418240 cpu:         2.5
 (Enter /share/apps//g09/l101.exe)
 -----
 trich
 -----
 Symbolic Z-matrix:
 Charge =  1 Multiplicity = 1
 O                    -0.45134  -0.37936   7.47938 
 C                    -1.18739  -0.87582   6.3694 
 C                    -0.30611  -1.01573   5.11226 
 C                     0.95712  -1.82648   5.4383 
 C                     1.65325  -1.29809   6.69991 
 C                     0.64196  -1.25667   7.8444 
 H                    -1.98328  -0.1354    6.20418 
 H                    -0.00241   0.00727   4.81935 
 H                     0.6781   -2.88111   5.59015 
 H                     2.48232  -1.97209   6.96452 
 H                     0.24979  -2.27204   8.01646 
 O                     2.26507  -0.02814   6.42045 
 O                     1.8785   -1.82375   4.33278 
 O                    -1.01623  -1.61765   4.02856 
 O                    -1.74242  -2.162     6.61247 
 C                     1.20637  -0.77582   9.1753 
 H                     1.7833    0.15507   9.04795 
 H                     0.36193  -0.57785   9.85732 
 O                     2.03629  -1.84217   9.65942 
 H                     2.61357  -1.48496   10.35376 
 H                     1.5825    0.66084   6.53976 
 H                     2.37961  -0.98441   4.39108 
 H                    -1.97232  -1.61629   4.27248 
 O                    -3.37749  -4.54269   5.95239 
 C                    -3.16486  -4.76352   7.37134 
 C                    -3.10372  -3.40761   8.14618 
 C                    -3.04115  -2.17803   7.21719 
 C                    -4.1547   -2.2124    6.13257 
 C                    -4.5041   -3.66915   5.75163 
 H                    -4.03536  -5.31312   7.76863 
 H                    -2.20516  -3.41747   8.77959 
 H                    -3.16107  -1.27564   7.83826 
 H                    -5.05506  -1.74264   6.56003 
 H                    -5.325    -4.00297   6.41497 
 O                    -3.70443  -1.43089   5.01141 
 O                    -4.30531  -3.35497   8.93098 
 O                    -2.09266  -5.63878   7.53997 
 C                    -4.92623  -3.84289   4.28591 
 H                    -4.03441  -3.79702   3.64431 
 H                    -5.38926  -4.83025   4.14181 
 O                    -5.78751  -2.78354   3.84288 
 H                    -6.70049  -2.97096   4.12142 
 H                    -4.46879  -1.40026   4.39723 
 H                    -4.11493  -2.88765   9.76131 
 O                     1.01705  -5.80033   5.58454 
 C                     1.98717  -6.0141    6.63048 
 C                     1.64715  -5.11345   7.81898 
 C                     0.19272  -5.28238   8.27504 
 C                    -0.78183  -5.22517   7.09527 
 C                    -0.30155  -6.18929   5.98936 
 H                     1.96803  -7.08622   6.92402 
 H                     1.79648  -4.0743    7.47691 
 H                     0.09171  -6.27519   8.75699 
 H                    -0.28979  -7.22035   6.40008 
 H                    -0.8193   -4.1995    6.69905 
 O                    -0.14905  -4.25518   9.20691 
 O                     2.45177  -5.38419   8.96361 
 O                     3.23247  -5.63293   6.14865 
 C                    -1.16893  -6.21981   4.73844 
 H                    -0.69965  -6.88594   4.00129 
 H                    -2.16225  -6.61847   4.98831 
 O                    -1.30127  -4.93301   4.11149 
 H                    -1.935    -4.42899   4.67107 
 H                     0.61598  -4.14876   9.80542 
 H                     3.3568   -5.08219   8.76984 
 C                     3.79496  -6.52983   5.15487 
 H                     4.56135  -7.15138   5.64583 
 H                     3.00358  -7.19467   4.7763 
 C                     4.4165   -5.7132    4.02739 
 H                     4.87371  -6.42191   3.31618 
 H                     5.24458  -5.11813   4.44291 
 C                     3.45026  -4.76524   3.29963 
 H                     3.03241  -4.07149   4.04429 
 H                     4.03631  -4.15005   2.5963 
 C                     2.32345  -5.47137   2.53225 
 H                     2.75323  -6.1793    1.80451 
 H                     1.70874  -6.06605   3.22503 
 C                     1.41129  -4.53676   1.7405 
 H                     0.68496  -5.10871   1.14773 
 H                     1.98844  -3.90297   1.05159 
 N                     0.62228  -3.61802   2.63082 
 H                    -0.00021  -2.99711   2.09938 
 H                     1.23311  -2.97373   3.18786 
 H                    -0.01306  -4.14293   3.297 
 
 The following ModRedundant input section has been read:
 B      45      84 B                                                           
 B      58      84 B                                                           
 B      56      84 B                                                           
 B      41      82 B                                                           
 B      62      82 B                                                           
 B      35      82 B                                                           
 B      13      83 B                                                           
 B      19      83 B                                                           
 B      14      83 B                                                           
 
 NAtoms=     84 NQM=       84 NQMF=       0 NMMI=      0 NMMIF=      0
                NMic=       0 NMicF=      0.
                    Isotopes and Nuclear Properties:
 (Nuclear quadrupole moments (NQMom) in fm**2, nuclear magnetic moments (NMagM)
  in nuclear magnetons)

  Atom         1           2           3           4           5           6           7           8           9          10
 IAtWgt=          16          12          12          12          12          12           1           1           1           1
 AtmWgt=  15.9949146  12.0000000  12.0000000  12.0000000  12.0000000  12.0000000   1.0078250   1.0078250   1.0078250   1.0078250
 NucSpn=           0           0           0           0           0           0           1           1           1           1
 AtZEff=   0.0000000   0.0000000   0.0000000   0.0000000   0.0000000   0.0000000   0.0000000   0.0000000   0.0000000   0.0000000
 NQMom=    0.0000000   0.0000000   0.0000000   0.0000000   0.0000000   0.0000000   0.0000000   0.0000000   0.0000000   0.0000000
 NMagM=    0.0000000   0.0000000   0.0000000   0.0000000   0.0000000   0.0000000   2.7928460   2.7928460   2.7928460   2.7928460
 AtZNuc=   8.0000000   6.0000000   6.0000000   6.0000000   6.0000000   6.0000000   1.0000000   1.0000000   1.0000000   1.0000000

  Atom        11          12          13          14          15          16          17          18          19          20
 IAtWgt=           1          16          16          16          16          12           1           1          16           1
 AtmWgt=   1.0078250  15.9949146  15.9949146  15.9949146  15.9949146  12.0000000   1.0078250   1.0078250  15.9949146   1.0078250
 NucSpn=           1           0           0           0           0           0           1           1           0           1
 AtZEff=   0.0000000   0.0000000   0.0000000   0.0000000   0.0000000   0.0000000   0.0000000   0.0000000   0.0000000   0.0000000
 NQMom=    0.0000000   0.0000000   0.0000000   0.0000000   0.0000000   0.0000000   0.0000000   0.0000000   0.0000000   0.0000000
 NMagM=    2.7928460   0.0000000   0.0000000   0.0000000   0.0000000   0.0000000   2.7928460   2.7928460   0.0000000   2.7928460
 AtZNuc=   1.0000000   8.0000000   8.0000000   8.0000000   8.0000000   6.0000000   1.0000000   1.0000000   8.0000000   1.0000000

  Atom        21          22          23          24          25          26          27          28          29          30
 IAtWgt=           1           1           1          16          12          12          12          12          12           1
 AtmWgt=   1.0078250   1.0078250   1.0078250  15.9949146  12.0000000  12.0000000  12.0000000  12.0000000  12.0000000   1.0078250
 NucSpn=           1           1           1           0           0           0           0           0           0           1
 AtZEff=   0.0000000   0.0000000   0.0000000   0.0000000   0.0000000   0.0000000   0.0000000   0.0000000   0.0000000   0.0000000
 NQMom=    0.0000000   0.0000000   0.0000000   0.0000000   0.0000000   0.0000000   0.0000000   0.0000000   0.0000000   0.0000000
 NMagM=    2.7928460   2.7928460   2.7928460   0.0000000   0.0000000   0.0000000   0.0000000   0.0000000   0.0000000   2.7928460
 AtZNuc=   1.0000000   1.0000000   1.0000000   8.0000000   6.0000000   6.0000000   6.0000000   6.0000000   6.0000000   1.0000000

  Atom        31          32          33          34          35          36          37          38          39          40
 IAtWgt=           1           1           1           1          16          16          16          12           1           1
 AtmWgt=   1.0078250   1.0078250   1.0078250   1.0078250  15.9949146  15.9949146  15.9949146  12.0000000   1.0078250   1.0078250
 NucSpn=           1           1           1           1           0           0           0           0           1           1
 AtZEff=   0.0000000   0.0000000   0.0000000   0.0000000   0.0000000   0.0000000   0.0000000   0.0000000   0.0000000   0.0000000
 NQMom=    0.0000000   0.0000000   0.0000000   0.0000000   0.0000000   0.0000000   0.0000000   0.0000000   0.0000000   0.0000000
 NMagM=    2.7928460   2.7928460   2.7928460   2.7928460   0.0000000   0.0000000   0.0000000   0.0000000   2.7928460   2.7928460
 AtZNuc=   1.0000000   1.0000000   1.0000000   1.0000000   8.0000000   8.0000000   8.0000000   6.0000000   1.0000000   1.0000000

  Atom        41          42          43          44          45          46          47          48          49          50
 IAtWgt=          16           1           1           1          16          12          12          12          12          12
 AtmWgt=  15.9949146   1.0078250   1.0078250   1.0078250  15.9949146  12.0000000  12.0000000  12.0000000  12.0000000  12.0000000
 NucSpn=           0           1           1           1           0           0           0           0           0           0
 AtZEff=   0.0000000   0.0000000   0.0000000   0.0000000   0.0000000   0.0000000   0.0000000   0.0000000   0.0000000   0.0000000
 NQMom=    0.0000000   0.0000000   0.0000000   0.0000000   0.0000000   0.0000000   0.0000000   0.0000000   0.0000000   0.0000000
 NMagM=    0.0000000   2.7928460   2.7928460   2.7928460   0.0000000   0.0000000   0.0000000   0.0000000   0.0000000   0.0000000
 AtZNuc=   8.0000000   1.0000000   1.0000000   1.0000000   8.0000000   6.0000000   6.0000000   6.0000000   6.0000000   6.0000000

  Atom        51          52          53          54          55          56          57          58          59          60
 IAtWgt=           1           1           1           1           1          16          16          16          12           1
 AtmWgt=   1.0078250   1.0078250   1.0078250   1.0078250   1.0078250  15.9949146  15.9949146  15.9949146  12.0000000   1.0078250
 NucSpn=           1           1           1           1           1           0           0           0           0           1
 AtZEff=   0.0000000   0.0000000   0.0000000   0.0000000   0.0000000   0.0000000   0.0000000   0.0000000   0.0000000   0.0000000
 NQMom=    0.0000000   0.0000000   0.0000000   0.0000000   0.0000000   0.0000000   0.0000000   0.0000000   0.0000000   0.0000000
 NMagM=    2.7928460   2.7928460   2.7928460   2.7928460   2.7928460   0.0000000   0.0000000   0.0000000   0.0000000   2.7928460
 AtZNuc=   1.0000000   1.0000000   1.0000000   1.0000000   1.0000000   8.0000000   8.0000000   8.0000000   6.0000000   1.0000000

  Atom        61          62          63          64          65          66          67          68          69          70
 IAtWgt=           1          16           1           1           1          12           1           1          12           1
 AtmWgt=   1.0078250  15.9949146   1.0078250   1.0078250   1.0078250  12.0000000   1.0078250   1.0078250  12.0000000   1.0078250
 NucSpn=           1           0           1           1           1           0           1           1           0           1
 AtZEff=   0.0000000   0.0000000   0.0000000   0.0000000   0.0000000   0.0000000   0.0000000   0.0000000   0.0000000   0.0000000
 NQMom=    0.0000000   0.0000000   0.0000000   0.0000000   0.0000000   0.0000000   0.0000000   0.0000000   0.0000000   0.0000000
 NMagM=    2.7928460   0.0000000   2.7928460   2.7928460   2.7928460   0.0000000   2.7928460   2.7928460   0.0000000   2.7928460
 AtZNuc=   1.0000000   8.0000000   1.0000000   1.0000000   1.0000000   6.0000000   1.0000000   1.0000000   6.0000000   1.0000000

  Atom        71          72          73          74          75          76          77          78          79          80
 IAtWgt=           1          12           1           1          12           1           1          12           1           1
 AtmWgt=   1.0078250  12.0000000   1.0078250   1.0078250  12.0000000   1.0078250   1.0078250  12.0000000   1.0078250   1.0078250
 NucSpn=           1           0           1           1           0           1           1           0           1           1
 AtZEff=   0.0000000   0.0000000   0.0000000   0.0000000   0.0000000   0.0000000   0.0000000   0.0000000   0.0000000   0.0000000
 NQMom=    0.0000000   0.0000000   0.0000000   0.0000000   0.0000000   0.0000000   0.0000000   0.0000000   0.0000000   0.0000000
 NMagM=    2.7928460   0.0000000   2.7928460   2.7928460   0.0000000   2.7928460   2.7928460   0.0000000   2.7928460   2.7928460
 AtZNuc=   1.0000000   6.0000000   1.0000000   1.0000000   6.0000000   1.0000000   1.0000000   6.0000000   1.0000000   1.0000000

  Atom        81          82          83          84
 IAtWgt=          14           1           1           1
 AtmWgt=  14.0030740   1.0078250   1.0078250   1.0078250
 NucSpn=           2           1           1           1
 AtZEff=   0.0000000   0.0000000   0.0000000   0.0000000
 NQMom=    2.0440000   0.0000000   0.0000000   0.0000000
 NMagM=    0.4037610   2.7928460   2.7928460   2.7928460
 AtZNuc=   7.0000000   1.0000000   1.0000000   1.0000000
 Leave Link  101 at Mon May  2 05:09:49 2016, MaxMem= 10737418240 cpu:         5.0
 (Enter /share/apps//g09/l103.exe)

 GradGradGradGradGradGradGradGradGradGradGradGradGradGradGradGradGradGrad
 Berny optimization.
 Initialization pass.
                           ----------------------------
                           !    Initial Parameters    !
                           ! (Angstroms and Degrees)  !
 --------------------------                            --------------------------
 ! Name  Definition              Value          Derivative Info.                !
 --------------------------------------------------------------------------------
 ! R1    R(1,2)                  1.4214         estimate D2E/DX2                !
 ! R2    R(1,6)                  1.4485         estimate D2E/DX2                !
 ! R3    R(2,3)                  1.5416         estimate D2E/DX2                !
 ! R4    R(2,7)                  1.0995         estimate D2E/DX2                !
 ! R5    R(2,15)                 1.4218         estimate D2E/DX2                !
 ! R6    R(3,4)                  1.536          estimate D2E/DX2                !
 ! R7    R(3,8)                  1.1066         estimate D2E/DX2                !
 ! R8    R(3,14)                 1.4286         estimate D2E/DX2                !
 ! R9    R(4,5)                  1.5347         estimate D2E/DX2                !
 ! R10   R(4,9)                  1.1014         estimate D2E/DX2                !
 ! R11   R(4,13)                 1.4391         estimate D2E/DX2                !
 ! R12   R(5,6)                  1.5278         estimate D2E/DX2                !
 ! R13   R(5,10)                 1.1008         estimate D2E/DX2                !
 ! R14   R(5,12)                 1.4371         estimate D2E/DX2                !
 ! R15   R(6,11)                 1.102          estimate D2E/DX2                !
 ! R16   R(6,16)                 1.5235         estimate D2E/DX2                !
 ! R17   R(12,21)                0.9772         estimate D2E/DX2                !
 ! R18   R(13,22)                0.9793         estimate D2E/DX2                !
 ! R19   R(13,83)                1.7464         estimate D2E/DX2                !
 ! R20   R(14,23)                0.9867         estimate D2E/DX2                !
 ! R21   R(14,83)                2.7578         estimate D2E/DX2                !
 ! R22   R(15,27)                1.4327         estimate D2E/DX2                !
 ! R23   R(16,17)                1.1026         estimate D2E/DX2                !
 ! R24   R(16,18)                1.1034         estimate D2E/DX2                !
 ! R25   R(16,19)                1.4354         estimate D2E/DX2                !
 ! R26   R(19,20)                0.9711         estimate D2E/DX2                !
 ! R27   R(19,83)                6.6187         estimate D2E/DX2                !
 ! R28   R(24,25)                1.4517         estimate D2E/DX2                !
 ! R29   R(24,29)                1.4397         estimate D2E/DX2                !
 ! R30   R(25,26)                1.5629         estimate D2E/DX2                !
 ! R31   R(25,30)                1.1035         estimate D2E/DX2                !
 ! R32   R(25,37)                1.3943         estimate D2E/DX2                !
 ! R33   R(26,27)                1.5423         estimate D2E/DX2                !
 ! R34   R(26,31)                1.0994         estimate D2E/DX2                !
 ! R35   R(26,36)                1.4361         estimate D2E/DX2                !
 ! R36   R(27,28)                1.5549         estimate D2E/DX2                !
 ! R37   R(27,32)                1.102          estimate D2E/DX2                !
 ! R38   R(28,29)                1.5457         estimate D2E/DX2                !
 ! R39   R(28,33)                1.1018         estimate D2E/DX2                !
 ! R40   R(28,35)                1.4389         estimate D2E/DX2                !
 ! R41   R(29,34)                1.1069         estimate D2E/DX2                !
 ! R42   R(29,38)                1.5352         estimate D2E/DX2                !
 ! R43   R(35,43)                0.981          estimate D2E/DX2                !
 ! R44   R(35,82)                4.9653         estimate D2E/DX2                !
 ! R45   R(36,44)                0.9716         estimate D2E/DX2                !
 ! R46   R(37,49)                1.4447         estimate D2E/DX2                !
 ! R47   R(38,39)                1.0996         estimate D2E/DX2                !
 ! R48   R(38,40)                1.1            estimate D2E/DX2                !
 ! R49   R(38,41)                1.4354         estimate D2E/DX2                !
 ! R50   R(41,42)                0.9728         estimate D2E/DX2                !
 ! R51   R(41,82)                6.048          estimate D2E/DX2                !
 ! R52   R(45,46)                1.4425         estimate D2E/DX2                !
 ! R53   R(45,50)                1.4331         estimate D2E/DX2                !
 ! R54   R(45,84)                3.0068         estimate D2E/DX2                !
 ! R55   R(46,47)                1.5295         estimate D2E/DX2                !
 ! R56   R(46,51)                1.1117         estimate D2E/DX2                !
 ! R57   R(46,58)                1.3886         estimate D2E/DX2                !
 ! R58   R(47,48)                1.5336         estimate D2E/DX2                !
 ! R59   R(47,52)                1.1041         estimate D2E/DX2                !
 ! R60   R(47,57)                1.4251         estimate D2E/DX2                !
 ! R61   R(48,49)                1.5313         estimate D2E/DX2                !
 ! R62   R(48,53)                1.1082         estimate D2E/DX2                !
 ! R63   R(48,56)                1.4284         estimate D2E/DX2                !
 ! R64   R(49,50)                1.5438         estimate D2E/DX2                !
 ! R65   R(49,55)                1.1002         estimate D2E/DX2                !
 ! R66   R(50,54)                1.1099         estimate D2E/DX2                !
 ! R67   R(50,59)                1.5225         estimate D2E/DX2                !
 ! R68   R(56,64)                0.9771         estimate D2E/DX2                !
 ! R69   R(56,84)                5.9125         estimate D2E/DX2                !
 ! R70   R(57,65)                0.9736         estimate D2E/DX2                !
 ! R71   R(58,66)                1.452          estimate D2E/DX2                !
 ! R72   R(58,84)                4.5701         estimate D2E/DX2                !
 ! R73   R(59,60)                1.0988         estimate D2E/DX2                !
 ! R74   R(59,61)                1.0991         estimate D2E/DX2                !
 ! R75   R(59,62)                1.4375         estimate D2E/DX2                !
 ! R76   R(62,63)                0.9843         estimate D2E/DX2                !
 ! R77   R(62,82)                3.0804         estimate D2E/DX2                !
 ! R78   R(66,67)                1.1021         estimate D2E/DX2                !
 ! R79   R(66,68)                1.1007         estimate D2E/DX2                !
 ! R80   R(66,69)                1.5246         estimate D2E/DX2                !
 ! R81   R(69,70)                1.1032         estimate D2E/DX2                !
 ! R82   R(69,71)                1.1011         estimate D2E/DX2                !
 ! R83   R(69,72)                1.5368         estimate D2E/DX2                !
 ! R84   R(72,73)                1.1002         estimate D2E/DX2                !
 ! R85   R(72,74)                1.103          estimate D2E/DX2                !
 ! R86   R(72,75)                1.5353         estimate D2E/DX2                !
 ! R87   R(75,76)                1.1025         estimate D2E/DX2                !
 ! R88   R(75,77)                1.1007         estimate D2E/DX2                !
 ! R89   R(75,78)                1.5272         estimate D2E/DX2                !
 ! R90   R(78,79)                1.0982         estimate D2E/DX2                !
 ! R91   R(78,80)                1.0997         estimate D2E/DX2                !
 ! R92   R(78,81)                1.5031         estimate D2E/DX2                !
 ! R93   R(81,82)                1.0274         estimate D2E/DX2                !
 ! R94   R(81,83)                1.0481         estimate D2E/DX2                !
 ! R95   R(81,84)                1.0597         estimate D2E/DX2                !
 ! A1    A(2,1,6)              112.092          estimate D2E/DX2                !
 ! A2    A(1,2,3)              111.8687         estimate D2E/DX2                !
 ! A3    A(1,2,7)              104.8909         estimate D2E/DX2                !
 ! A4    A(1,2,15)             112.6203         estimate D2E/DX2                !
 ! A5    A(3,2,7)              110.6323         estimate D2E/DX2                !
 ! A6    A(3,2,15)             106.2887         estimate D2E/DX2                !
 ! A7    A(7,2,15)             110.6278         estimate D2E/DX2                !
 ! A8    A(2,3,4)              110.1782         estimate D2E/DX2                !
 ! A9    A(2,3,8)              106.7883         estimate D2E/DX2                !
 ! A10   A(2,3,14)             111.88           estimate D2E/DX2                !
 ! A11   A(4,3,8)              108.568          estimate D2E/DX2                !
 ! A12   A(4,3,14)             110.3292         estimate D2E/DX2                !
 ! A13   A(8,3,14)             108.9733         estimate D2E/DX2                !
 ! A14   A(3,4,5)              111.4562         estimate D2E/DX2                !
 ! A15   A(3,4,9)              109.0458         estimate D2E/DX2                !
 ! A16   A(3,4,13)             111.2519         estimate D2E/DX2                !
 ! A17   A(5,4,9)              109.3433         estimate D2E/DX2                !
 ! A18   A(5,4,13)             109.9025         estimate D2E/DX2                !
 ! A19   A(9,4,13)             105.6588         estimate D2E/DX2                !
 ! A20   A(4,5,6)              108.9584         estimate D2E/DX2                !
 ! A21   A(4,5,10)             109.1735         estimate D2E/DX2                !
 ! A22   A(4,5,12)             109.7244         estimate D2E/DX2                !
 ! A23   A(6,5,10)             109.5766         estimate D2E/DX2                !
 ! A24   A(6,5,12)             113.7981         estimate D2E/DX2                !
 ! A25   A(10,5,12)            105.4969         estimate D2E/DX2                !
 ! A26   A(1,6,5)              109.1014         estimate D2E/DX2                !
 ! A27   A(1,6,11)             109.1956         estimate D2E/DX2                !
 ! A28   A(1,6,16)             107.9746         estimate D2E/DX2                !
 ! A29   A(5,6,11)             109.1194         estimate D2E/DX2                !
 ! A30   A(5,6,16)             114.6914         estimate D2E/DX2                !
 ! A31   A(11,6,16)            106.6339         estimate D2E/DX2                !
 ! A32   A(5,12,21)            107.575          estimate D2E/DX2                !
 ! A33   A(4,13,22)            106.4695         estimate D2E/DX2                !
 ! A34   A(4,13,83)            105.4125         estimate D2E/DX2                !
 ! A35   A(22,13,83)           142.4225         estimate D2E/DX2                !
 ! A36   A(3,14,23)            107.0698         estimate D2E/DX2                !
 ! A37   A(3,14,83)             91.8911         estimate D2E/DX2                !
 ! A38   A(23,14,83)           150.0385         estimate D2E/DX2                !
 ! A39   A(2,15,27)            115.8591         estimate D2E/DX2                !
 ! A40   A(6,16,17)            111.0653         estimate D2E/DX2                !
 ! A41   A(6,16,18)            108.2449         estimate D2E/DX2                !
 ! A42   A(6,16,19)            105.9243         estimate D2E/DX2                !
 ! A43   A(17,16,18)           108.6859         estimate D2E/DX2                !
 ! A44   A(17,16,19)           111.3248         estimate D2E/DX2                !
 ! A45   A(18,16,19)           111.5508         estimate D2E/DX2                !
 ! A46   A(16,19,20)           108.1564         estimate D2E/DX2                !
 ! A47   A(16,19,83)            74.1608         estimate D2E/DX2                !
 ! A48   A(20,19,83)           146.5298         estimate D2E/DX2                !
 ! A49   A(25,24,29)           110.0736         estimate D2E/DX2                !
 ! A50   A(24,25,26)           110.999          estimate D2E/DX2                !
 ! A51   A(24,25,30)           108.1878         estimate D2E/DX2                !
 ! A52   A(24,25,37)           109.0466         estimate D2E/DX2                !
 ! A53   A(26,25,30)           106.527          estimate D2E/DX2                !
 ! A54   A(26,25,37)           117.0366         estimate D2E/DX2                !
 ! A55   A(30,25,37)           104.5029         estimate D2E/DX2                !
 ! A56   A(25,26,27)           113.2417         estimate D2E/DX2                !
 ! A57   A(25,26,31)           108.0487         estimate D2E/DX2                !
 ! A58   A(25,26,36)           105.6638         estimate D2E/DX2                !
 ! A59   A(27,26,31)           108.7242         estimate D2E/DX2                !
 ! A60   A(27,26,36)           109.5039         estimate D2E/DX2                !
 ! A61   A(31,26,36)           111.6735         estimate D2E/DX2                !
 ! A62   A(15,27,26)           107.4532         estimate D2E/DX2                !
 ! A63   A(15,27,28)           110.7947         estimate D2E/DX2                !
 ! A64   A(15,27,32)           109.1086         estimate D2E/DX2                !
 ! A65   A(26,27,28)           111.9309         estimate D2E/DX2                !
 ! A66   A(26,27,32)           107.9952         estimate D2E/DX2                !
 ! A67   A(28,27,32)           109.4694         estimate D2E/DX2                !
 ! A68   A(27,28,29)           110.7707         estimate D2E/DX2                !
 ! A69   A(27,28,33)           107.7685         estimate D2E/DX2                !
 ! A70   A(27,28,35)           107.9032         estimate D2E/DX2                !
 ! A71   A(29,28,33)           108.2219         estimate D2E/DX2                !
 ! A72   A(29,28,35)           112.9896         estimate D2E/DX2                !
 ! A73   A(33,28,35)           109.052          estimate D2E/DX2                !
 ! A74   A(24,29,28)           111.1358         estimate D2E/DX2                !
 ! A75   A(24,29,34)           108.2875         estimate D2E/DX2                !
 ! A76   A(24,29,38)           106.2395         estimate D2E/DX2                !
 ! A77   A(28,29,34)           107.7072         estimate D2E/DX2                !
 ! A78   A(28,29,38)           113.8354         estimate D2E/DX2                !
 ! A79   A(34,29,38)           109.5177         estimate D2E/DX2                !
 ! A80   A(28,35,43)           105.1266         estimate D2E/DX2                !
 ! A81   A(28,35,82)           121.2712         estimate D2E/DX2                !
 ! A82   A(43,35,82)           102.9405         estimate D2E/DX2                !
 ! A83   A(26,36,44)           108.7042         estimate D2E/DX2                !
 ! A84   A(25,37,49)           118.7366         estimate D2E/DX2                !
 ! A85   A(29,38,39)           109.2299         estimate D2E/DX2                !
 ! A86   A(29,38,40)           110.0232         estimate D2E/DX2                !
 ! A87   A(29,38,41)           112.096          estimate D2E/DX2                !
 ! A88   A(39,38,40)           107.6019         estimate D2E/DX2                !
 ! A89   A(39,38,41)           106.0084         estimate D2E/DX2                !
 ! A90   A(40,38,41)           111.681          estimate D2E/DX2                !
 ! A91   A(38,41,42)           109.4262         estimate D2E/DX2                !
 ! A92   A(38,41,82)            59.2523         estimate D2E/DX2                !
 ! A93   A(46,45,50)           111.9465         estimate D2E/DX2                !
 ! A94   A(46,45,84)           149.7371         estimate D2E/DX2                !
 ! A95   A(50,45,84)            92.8253         estimate D2E/DX2                !
 ! A96   A(45,46,47)           109.0662         estimate D2E/DX2                !
 ! A97   A(45,46,51)           108.8313         estimate D2E/DX2                !
 ! A98   A(45,46,58)           108.1101         estimate D2E/DX2                !
 ! A99   A(47,46,51)           111.031          estimate D2E/DX2                !
 ! A100  A(47,46,58)           107.9001         estimate D2E/DX2                !
 ! A101  A(51,46,58)           111.825          estimate D2E/DX2                !
 ! A102  A(46,47,48)           112.1513         estimate D2E/DX2                !
 ! A103  A(46,47,52)           106.4627         estimate D2E/DX2                !
 ! A104  A(46,47,57)           112.7519         estimate D2E/DX2                !
 ! A105  A(48,47,52)           108.9088         estimate D2E/DX2                !
 ! A106  A(48,47,57)           106.0027         estimate D2E/DX2                !
 ! A107  A(52,47,57)           110.565          estimate D2E/DX2                !
 ! A108  A(47,48,49)           111.7367         estimate D2E/DX2                !
 ! A109  A(47,48,53)           108.3277         estimate D2E/DX2                !
 ! A110  A(47,48,56)           109.9811         estimate D2E/DX2                !
 ! A111  A(49,48,53)           108.0903         estimate D2E/DX2                !
 ! A112  A(49,48,56)           108.8736         estimate D2E/DX2                !
 ! A113  A(53,48,56)           109.7985         estimate D2E/DX2                !
 ! A114  A(37,49,48)           109.2447         estimate D2E/DX2                !
 ! A115  A(37,49,50)           108.9047         estimate D2E/DX2                !
 ! A116  A(37,49,55)           110.2957         estimate D2E/DX2                !
 ! A117  A(48,49,50)           109.3045         estimate D2E/DX2                !
 ! A118  A(48,49,55)           109.51           estimate D2E/DX2                !
 ! A119  A(50,49,55)           109.5621         estimate D2E/DX2                !
 ! A120  A(45,50,49)           108.6085         estimate D2E/DX2                !
 ! A121  A(45,50,54)           110.2979         estimate D2E/DX2                !
 ! A122  A(45,50,59)           107.3092         estimate D2E/DX2                !
 ! A123  A(49,50,54)           108.5637         estimate D2E/DX2                !
 ! A124  A(49,50,59)           115.0783         estimate D2E/DX2                !
 ! A125  A(54,50,59)           106.9447         estimate D2E/DX2                !
 ! A126  A(48,56,64)           106.8929         estimate D2E/DX2                !
 ! A127  A(48,56,84)            49.9132         estimate D2E/DX2                !
 ! A128  A(64,56,84)           126.3106         estimate D2E/DX2                !
 ! A129  A(47,57,65)           107.8225         estimate D2E/DX2                !
 ! A130  A(46,58,66)           114.54           estimate D2E/DX2                !
 ! A131  A(46,58,84)            70.6784         estimate D2E/DX2                !
 ! A132  A(66,58,84)            92.8336         estimate D2E/DX2                !
 ! A133  A(50,59,60)           108.6652         estimate D2E/DX2                !
 ! A134  A(50,59,61)           109.5939         estimate D2E/DX2                !
 ! A135  A(50,59,62)           113.1311         estimate D2E/DX2                !
 ! A136  A(60,59,61)           108.5786         estimate D2E/DX2                !
 ! A137  A(60,59,62)           106.8224         estimate D2E/DX2                !
 ! A138  A(61,59,62)           109.9155         estimate D2E/DX2                !
 ! A139  A(59,62,63)           105.6471         estimate D2E/DX2                !
 ! A140  A(59,62,82)           143.9555         estimate D2E/DX2                !
 ! A141  A(63,62,82)           108.7526         estimate D2E/DX2                !
 ! A142  A(58,66,67)           108.2302         estimate D2E/DX2                !
 ! A143  A(58,66,68)           109.2659         estimate D2E/DX2                !
 ! A144  A(58,66,69)           109.4634         estimate D2E/DX2                !
 ! A145  A(67,66,68)           108.2111         estimate D2E/DX2                !
 ! A146  A(67,66,69)           110.366          estimate D2E/DX2                !
 ! A147  A(68,66,69)           111.2404         estimate D2E/DX2                !
 ! A148  A(66,69,70)           107.5539         estimate D2E/DX2                !
 ! A149  A(66,69,71)           108.4806         estimate D2E/DX2                !
 ! A150  A(66,69,72)           115.1049         estimate D2E/DX2                !
 ! A151  A(70,69,71)           106.1866         estimate D2E/DX2                !
 ! A152  A(70,69,72)           110.5807         estimate D2E/DX2                !
 ! A153  A(71,69,72)           108.5521         estimate D2E/DX2                !
 ! A154  A(69,72,73)           107.892          estimate D2E/DX2                !
 ! A155  A(69,72,74)           108.1758         estimate D2E/DX2                !
 ! A156  A(69,72,75)           114.4832         estimate D2E/DX2                !
 ! A157  A(73,72,74)           106.3614         estimate D2E/DX2                !
 ! A158  A(73,72,75)           110.4613         estimate D2E/DX2                !
 ! A159  A(74,72,75)           109.1332         estimate D2E/DX2                !
 ! A160  A(72,75,76)           109.8249         estimate D2E/DX2                !
 ! A161  A(72,75,77)           110.1079         estimate D2E/DX2                !
 ! A162  A(72,75,78)           114.583          estimate D2E/DX2                !
 ! A163  A(76,75,77)           106.6339         estimate D2E/DX2                !
 ! A164  A(76,75,78)           106.4741         estimate D2E/DX2                !
 ! A165  A(77,75,78)           108.8675         estimate D2E/DX2                !
 ! A166  A(75,78,79)           110.8628         estimate D2E/DX2                !
 ! A167  A(75,78,80)           111.3458         estimate D2E/DX2                !
 ! A168  A(75,78,81)           112.3646         estimate D2E/DX2                !
 ! A169  A(79,78,80)           108.0063         estimate D2E/DX2                !
 ! A170  A(79,78,81)           106.9102         estimate D2E/DX2                !
 ! A171  A(80,78,81)           107.1143         estimate D2E/DX2                !
 ! A172  A(78,81,82)           112.4001         estimate D2E/DX2                !
 ! A173  A(78,81,83)           112.6201         estimate D2E/DX2                !
 ! A174  A(78,81,84)           112.601          estimate D2E/DX2                !
 ! A175  A(82,81,83)           104.8642         estimate D2E/DX2                !
 ! A176  A(82,81,84)           105.1466         estimate D2E/DX2                !
 ! A177  A(83,81,84)           108.6505         estimate D2E/DX2                !
 ! A178  A(35,82,41)            26.6106         estimate D2E/DX2                !
 ! A179  A(35,82,62)            60.0041         estimate D2E/DX2                !
 ! A180  A(35,82,81)           109.8336         estimate D2E/DX2                !
 ! A181  A(41,82,62)            55.2313         estimate D2E/DX2                !
 ! A182  A(41,82,81)           116.8732         estimate D2E/DX2                !
 ! A183  A(62,82,81)            62.497          estimate D2E/DX2                !
 ! A184  A(13,83,14)            77.1597         estimate D2E/DX2                !
 ! A185  A(13,83,19)            37.0173         estimate D2E/DX2                !
 ! A186  A(14,83,19)            73.5509         estimate D2E/DX2                !
 ! A187  A(14,83,81)            89.3666         estimate D2E/DX2                !
 ! A188  A(19,83,81)           134.0657         estimate D2E/DX2                !
 ! A189  A(45,84,56)            40.2678         estimate D2E/DX2                !
 ! A190  A(45,84,58)            26.1384         estimate D2E/DX2                !
 ! A191  A(45,84,81)           123.0862         estimate D2E/DX2                !
 ! A192  A(56,84,58)            52.1524         estimate D2E/DX2                !
 ! A193  A(56,84,81)           130.6592         estimate D2E/DX2                !
 ! A194  A(58,84,81)            97.353          estimate D2E/DX2                !
 ! A195  L(42,41,82,38,-1)     168.6785         estimate D2E/DX2                !
 ! A196  L(13,83,81,14,-1)     166.5263         estimate D2E/DX2                !
 ! A197  L(42,41,82,38,-2)     172.6282         estimate D2E/DX2                !
 ! A198  L(13,83,81,14,-2)     185.1091         estimate D2E/DX2                !
 ! D1    D(6,1,2,3)            -60.6841         estimate D2E/DX2                !
 ! D2    D(6,1,2,7)            179.3415         estimate D2E/DX2                !
 ! D3    D(6,1,2,15)            58.9627         estimate D2E/DX2                !
 ! D4    D(2,1,6,5)             64.658          estimate D2E/DX2                !
 ! D5    D(2,1,6,11)           -54.5248         estimate D2E/DX2                !
 ! D6    D(2,1,6,16)          -170.0947         estimate D2E/DX2                !
 ! D7    D(1,2,3,4)             52.0441         estimate D2E/DX2                !
 ! D8    D(1,2,3,8)            -65.6807         estimate D2E/DX2                !
 ! D9    D(1,2,3,14)           175.1676         estimate D2E/DX2                !
 ! D10   D(7,2,3,4)            168.5958         estimate D2E/DX2                !
 ! D11   D(7,2,3,8)             50.8709         estimate D2E/DX2                !
 ! D12   D(7,2,3,14)           -68.2807         estimate D2E/DX2                !
 ! D13   D(15,2,3,4)           -71.2583         estimate D2E/DX2                !
 ! D14   D(15,2,3,8)           171.0168         estimate D2E/DX2                !
 ! D15   D(15,2,3,14)           51.8652         estimate D2E/DX2                !
 ! D16   D(1,2,15,27)           88.3414         estimate D2E/DX2                !
 ! D17   D(3,2,15,27)         -148.8283         estimate D2E/DX2                !
 ! D18   D(7,2,15,27)          -28.6795         estimate D2E/DX2                !
 ! D19   D(2,3,4,5)            -49.4032         estimate D2E/DX2                !
 ! D20   D(2,3,4,9)             71.4063         estimate D2E/DX2                !
 ! D21   D(2,3,4,13)          -172.4492         estimate D2E/DX2                !
 ! D22   D(8,3,4,5)             67.2167         estimate D2E/DX2                !
 ! D23   D(8,3,4,9)           -171.9739         estimate D2E/DX2                !
 ! D24   D(8,3,4,13)           -55.8294         estimate D2E/DX2                !
 ! D25   D(14,3,4,5)          -173.4284         estimate D2E/DX2                !
 ! D26   D(14,3,4,9)           -52.619          estimate D2E/DX2                !
 ! D27   D(14,3,4,13)           63.5255         estimate D2E/DX2                !
 ! D28   D(2,3,14,23)           12.8091         estimate D2E/DX2                !
 ! D29   D(2,3,14,83)         -143.6704         estimate D2E/DX2                !
 ! D30   D(4,3,14,23)          135.847          estimate D2E/DX2                !
 ! D31   D(4,3,14,83)          -20.6325         estimate D2E/DX2                !
 ! D32   D(8,3,14,23)         -105.0442         estimate D2E/DX2                !
 ! D33   D(8,3,14,83)           98.4762         estimate D2E/DX2                !
 ! D34   D(3,4,5,6)             53.9094         estimate D2E/DX2                !
 ! D35   D(3,4,5,10)           173.5487         estimate D2E/DX2                !
 ! D36   D(3,4,5,12)           -71.2893         estimate D2E/DX2                !
 ! D37   D(9,4,5,6)            -66.7257         estimate D2E/DX2                !
 ! D38   D(9,4,5,10)            52.9136         estimate D2E/DX2                !
 ! D39   D(9,4,5,12)           168.0755         estimate D2E/DX2                !
 ! D40   D(13,4,5,6)           177.7229         estimate D2E/DX2                !
 ! D41   D(13,4,5,10)          -62.6377         estimate D2E/DX2                !
 ! D42   D(13,4,5,12)           52.5242         estimate D2E/DX2                !
 ! D43   D(3,4,13,22)           82.1746         estimate D2E/DX2                !
 ! D44   D(3,4,13,83)          -77.671          estimate D2E/DX2                !
 ! D45   D(5,4,13,22)          -41.7578         estimate D2E/DX2                !
 ! D46   D(5,4,13,83)          158.3966         estimate D2E/DX2                !
 ! D47   D(9,4,13,22)         -159.619          estimate D2E/DX2                !
 ! D48   D(9,4,13,83)           40.5354         estimate D2E/DX2                !
 ! D49   D(4,5,6,1)            -59.9667         estimate D2E/DX2                !
 ! D50   D(4,5,6,11)            59.2635         estimate D2E/DX2                !
 ! D51   D(4,5,6,16)           178.7908         estimate D2E/DX2                !
 ! D52   D(10,5,6,1)          -179.3556         estimate D2E/DX2                !
 ! D53   D(10,5,6,11)          -60.1254         estimate D2E/DX2                !
 ! D54   D(10,5,6,16)           59.4019         estimate D2E/DX2                !
 ! D55   D(12,5,6,1)            62.8198         estimate D2E/DX2                !
 ! D56   D(12,5,6,11)         -177.95           estimate D2E/DX2                !
 ! D57   D(12,5,6,16)          -58.4227         estimate D2E/DX2                !
 ! D58   D(4,5,12,21)           85.1658         estimate D2E/DX2                !
 ! D59   D(6,5,12,21)          -37.2            estimate D2E/DX2                !
 ! D60   D(10,5,12,21)        -157.3521         estimate D2E/DX2                !
 ! D61   D(1,6,16,17)          -73.2076         estimate D2E/DX2                !
 ! D62   D(1,6,16,18)           46.0325         estimate D2E/DX2                !
 ! D63   D(1,6,16,19)          165.7854         estimate D2E/DX2                !
 ! D64   D(5,6,16,17)           48.6503         estimate D2E/DX2                !
 ! D65   D(5,6,16,18)          167.8905         estimate D2E/DX2                !
 ! D66   D(5,6,16,19)          -72.3567         estimate D2E/DX2                !
 ! D67   D(11,6,16,17)         169.5544         estimate D2E/DX2                !
 ! D68   D(11,6,16,18)         -71.2055         estimate D2E/DX2                !
 ! D69   D(11,6,16,19)          48.5473         estimate D2E/DX2                !
 ! D70   D(4,13,83,14)          42.1931         estimate D2E/DX2                !
 ! D71   D(4,13,83,19)         -37.4311         estimate D2E/DX2                !
 ! D72   D(22,13,83,14)       -104.9999         estimate D2E/DX2                !
 ! D73   D(22,13,83,19)        175.3759         estimate D2E/DX2                !
 ! D74   D(3,14,83,13)         -12.568          estimate D2E/DX2                !
 ! D75   D(3,14,83,19)          25.5645         estimate D2E/DX2                !
 ! D76   D(3,14,83,81)         162.3229         estimate D2E/DX2                !
 ! D77   D(23,14,83,13)       -142.7605         estimate D2E/DX2                !
 ! D78   D(23,14,83,19)       -104.6279         estimate D2E/DX2                !
 ! D79   D(23,14,83,81)         32.1305         estimate D2E/DX2                !
 ! D80   D(2,15,27,26)        -145.7043         estimate D2E/DX2                !
 ! D81   D(2,15,27,28)          91.7353         estimate D2E/DX2                !
 ! D82   D(2,15,27,32)         -28.8544         estimate D2E/DX2                !
 ! D83   D(6,16,19,20)         163.3599         estimate D2E/DX2                !
 ! D84   D(6,16,19,83)          18.3261         estimate D2E/DX2                !
 ! D85   D(17,16,19,20)         42.5209         estimate D2E/DX2                !
 ! D86   D(17,16,19,83)       -102.5129         estimate D2E/DX2                !
 ! D87   D(18,16,19,20)        -79.0769         estimate D2E/DX2                !
 ! D88   D(18,16,19,83)        135.8893         estimate D2E/DX2                !
 ! D89   D(16,19,83,13)         61.953          estimate D2E/DX2                !
 ! D90   D(16,19,83,14)        -28.43           estimate D2E/DX2                !
 ! D91   D(16,19,83,81)       -100.8635         estimate D2E/DX2                !
 ! D92   D(20,19,83,13)        -37.1493         estimate D2E/DX2                !
 ! D93   D(20,19,83,14)       -127.5323         estimate D2E/DX2                !
 ! D94   D(20,19,83,81)        160.0343         estimate D2E/DX2                !
 ! D95   D(29,24,25,26)        -51.1827         estimate D2E/DX2                !
 ! D96   D(29,24,25,30)         65.3583         estimate D2E/DX2                !
 ! D97   D(29,24,25,37)        178.4555         estimate D2E/DX2                !
 ! D98   D(25,24,29,28)         73.1192         estimate D2E/DX2                !
 ! D99   D(25,24,29,34)        -44.9926         estimate D2E/DX2                !
 ! D100  D(25,24,29,38)       -162.5573         estimate D2E/DX2                !
 ! D101  D(24,25,26,27)         -9.7311         estimate D2E/DX2                !
 ! D102  D(24,25,26,31)       -130.2212         estimate D2E/DX2                !
 ! D103  D(24,25,26,36)        110.1233         estimate D2E/DX2                !
 ! D104  D(30,25,26,27)       -127.2888         estimate D2E/DX2                !
 ! D105  D(30,25,26,31)        112.2211         estimate D2E/DX2                !
 ! D106  D(30,25,26,36)         -7.4344         estimate D2E/DX2                !
 ! D107  D(37,25,26,27)        116.3071         estimate D2E/DX2                !
 ! D108  D(37,25,26,31)         -4.183          estimate D2E/DX2                !
 ! D109  D(37,25,26,36)       -123.8385         estimate D2E/DX2                !
 ! D110  D(24,25,37,49)         63.608          estimate D2E/DX2                !
 ! D111  D(26,25,37,49)        -63.3911         estimate D2E/DX2                !
 ! D112  D(30,25,37,49)        179.0999         estimate D2E/DX2                !
 ! D113  D(25,26,27,15)        -71.2026         estimate D2E/DX2                !
 ! D114  D(25,26,27,28)         50.6523         estimate D2E/DX2                !
 ! D115  D(25,26,27,32)        171.2209         estimate D2E/DX2                !
 ! D116  D(31,26,27,15)         48.9032         estimate D2E/DX2                !
 ! D117  D(31,26,27,28)        170.7581         estimate D2E/DX2                !
 ! D118  D(31,26,27,32)        -68.6733         estimate D2E/DX2                !
 ! D119  D(36,26,27,15)        171.1623         estimate D2E/DX2                !
 ! D120  D(36,26,27,28)        -66.9828         estimate D2E/DX2                !
 ! D121  D(36,26,27,32)         53.5858         estimate D2E/DX2                !
 ! D122  D(25,26,36,44)        146.6724         estimate D2E/DX2                !
 ! D123  D(27,26,36,44)        -91.0449         estimate D2E/DX2                !
 ! D124  D(31,26,36,44)         29.4342         estimate D2E/DX2                !
 ! D125  D(15,27,28,29)         89.0513         estimate D2E/DX2                !
 ! D126  D(15,27,28,33)       -152.7371         estimate D2E/DX2                !
 ! D127  D(15,27,28,35)        -35.1081         estimate D2E/DX2                !
 ! D128  D(26,27,28,29)        -30.8662         estimate D2E/DX2                !
 ! D129  D(26,27,28,33)         87.3454         estimate D2E/DX2                !
 ! D130  D(26,27,28,35)       -155.0256         estimate D2E/DX2                !
 ! D131  D(32,27,28,29)       -150.5736         estimate D2E/DX2                !
 ! D132  D(32,27,28,33)        -32.362          estimate D2E/DX2                !
 ! D133  D(32,27,28,35)         85.267          estimate D2E/DX2                !
 ! D134  D(27,28,29,24)        -27.697          estimate D2E/DX2                !
 ! D135  D(27,28,29,34)         90.7651         estimate D2E/DX2                !
 ! D136  D(27,28,29,38)       -147.6024         estimate D2E/DX2                !
 ! D137  D(33,28,29,24)       -145.6324         estimate D2E/DX2                !
 ! D138  D(33,28,29,34)        -27.1704         estimate D2E/DX2                !
 ! D139  D(33,28,29,38)         94.4621         estimate D2E/DX2                !
 ! D140  D(35,28,29,24)         93.5051         estimate D2E/DX2                !
 ! D141  D(35,28,29,34)       -148.0329         estimate D2E/DX2                !
 ! D142  D(35,28,29,38)        -26.4003         estimate D2E/DX2                !
 ! D143  D(27,28,35,43)       -174.148          estimate D2E/DX2                !
 ! D144  D(27,28,35,82)         70.03           estimate D2E/DX2                !
 ! D145  D(29,28,35,43)         63.0398         estimate D2E/DX2                !
 ! D146  D(29,28,35,82)        -52.7822         estimate D2E/DX2                !
 ! D147  D(33,28,35,43)        -57.3498         estimate D2E/DX2                !
 ! D148  D(33,28,35,82)       -173.1718         estimate D2E/DX2                !
 ! D149  D(24,29,38,39)        -46.839          estimate D2E/DX2                !
 ! D150  D(24,29,38,40)         71.0653         estimate D2E/DX2                !
 ! D151  D(24,29,38,41)       -164.0223         estimate D2E/DX2                !
 ! D152  D(28,29,38,39)         75.7947         estimate D2E/DX2                !
 ! D153  D(28,29,38,40)       -166.301          estimate D2E/DX2                !
 ! D154  D(28,29,38,41)        -41.3886         estimate D2E/DX2                !
 ! D155  D(34,29,38,39)       -163.5824         estimate D2E/DX2                !
 ! D156  D(34,29,38,40)        -45.6782         estimate D2E/DX2                !
 ! D157  D(34,29,38,41)         79.2342         estimate D2E/DX2                !
 ! D158  D(28,35,82,41)         83.8874         estimate D2E/DX2                !
 ! D159  D(28,35,82,62)         12.4174         estimate D2E/DX2                !
 ! D160  D(28,35,82,81)        -26.7735         estimate D2E/DX2                !
 ! D161  D(43,35,82,41)        -33.0367         estimate D2E/DX2                !
 ! D162  D(43,35,82,62)       -104.5067         estimate D2E/DX2                !
 ! D163  D(43,35,82,81)       -143.6976         estimate D2E/DX2                !
 ! D164  D(25,37,49,48)        122.7264         estimate D2E/DX2                !
 ! D165  D(25,37,49,50)       -117.954          estimate D2E/DX2                !
 ! D166  D(25,37,49,55)          2.311          estimate D2E/DX2                !
 ! D167  D(29,38,41,42)        -82.1983         estimate D2E/DX2                !
 ! D168  D(29,38,41,82)        105.1735         estimate D2E/DX2                !
 ! D169  D(39,38,41,42)        158.7051         estimate D2E/DX2                !
 ! D170  D(39,38,41,82)        -13.9231         estimate D2E/DX2                !
 ! D171  D(40,38,41,42)         41.7936         estimate D2E/DX2                !
 ! D172  D(40,38,41,82)       -130.8346         estimate D2E/DX2                !
 ! D173  D(38,41,82,35)        -96.3119         estimate D2E/DX2                !
 ! D174  D(38,41,82,62)         -4.7671         estimate D2E/DX2                !
 ! D175  D(38,41,82,81)        -15.6522         estimate D2E/DX2                !
 ! D176  D(50,45,46,47)        -63.8538         estimate D2E/DX2                !
 ! D177  D(50,45,46,51)         57.4145         estimate D2E/DX2                !
 ! D178  D(50,45,46,58)        179.0696         estimate D2E/DX2                !
 ! D179  D(84,45,46,47)         78.8981         estimate D2E/DX2                !
 ! D180  D(84,45,46,51)       -159.8336         estimate D2E/DX2                !
 ! D181  D(84,45,46,58)        -38.1785         estimate D2E/DX2                !
 ! D182  D(46,45,50,49)         67.4636         estimate D2E/DX2                !
 ! D183  D(46,45,50,54)        -51.3982         estimate D2E/DX2                !
 ! D184  D(46,45,50,59)       -167.55           estimate D2E/DX2                !
 ! D185  D(84,45,50,49)        -94.7537         estimate D2E/DX2                !
 ! D186  D(84,45,50,54)        146.3845         estimate D2E/DX2                !
 ! D187  D(84,45,50,59)         30.2327         estimate D2E/DX2                !
 ! D188  D(46,45,84,56)        -80.6252         estimate D2E/DX2                !
 ! D189  D(46,45,84,58)         23.9038         estimate D2E/DX2                !
 ! D190  D(46,45,84,81)         35.0947         estimate D2E/DX2                !
 ! D191  D(50,45,84,56)         65.1743         estimate D2E/DX2                !
 ! D192  D(50,45,84,58)        169.7034         estimate D2E/DX2                !
 ! D193  D(50,45,84,81)       -179.1058         estimate D2E/DX2                !
 ! D194  D(45,46,47,48)         52.8186         estimate D2E/DX2                !
 ! D195  D(45,46,47,52)        -66.2034         estimate D2E/DX2                !
 ! D196  D(45,46,47,57)        172.3892         estimate D2E/DX2                !
 ! D197  D(51,46,47,48)        -67.1005         estimate D2E/DX2                !
 ! D198  D(51,46,47,52)        173.8775         estimate D2E/DX2                !
 ! D199  D(51,46,47,57)         52.4701         estimate D2E/DX2                !
 ! D200  D(58,46,47,48)        170.0283         estimate D2E/DX2                !
 ! D201  D(58,46,47,52)         51.0064         estimate D2E/DX2                !
 ! D202  D(58,46,47,57)        -70.4011         estimate D2E/DX2                !
 ! D203  D(45,46,58,66)        -71.5733         estimate D2E/DX2                !
 ! D204  D(45,46,58,84)         12.5439         estimate D2E/DX2                !
 ! D205  D(47,46,58,66)        170.5997         estimate D2E/DX2                !
 ! D206  D(47,46,58,84)       -105.2831         estimate D2E/DX2                !
 ! D207  D(51,46,58,66)         48.2153         estimate D2E/DX2                !
 ! D208  D(51,46,58,84)        132.3324         estimate D2E/DX2                !
 ! D209  D(46,47,48,49)        -48.0757         estimate D2E/DX2                !
 ! D210  D(46,47,48,53)         70.8854         estimate D2E/DX2                !
 ! D211  D(46,47,48,56)       -169.1073         estimate D2E/DX2                !
 ! D212  D(52,47,48,49)         69.4975         estimate D2E/DX2                !
 ! D213  D(52,47,48,53)       -171.5414         estimate D2E/DX2                !
 ! D214  D(52,47,48,56)        -51.5341         estimate D2E/DX2                !
 ! D215  D(57,47,48,49)       -171.5216         estimate D2E/DX2                !
 ! D216  D(57,47,48,53)        -52.5605         estimate D2E/DX2                !
 ! D217  D(57,47,48,56)         67.4468         estimate D2E/DX2                !
 ! D218  D(46,47,57,65)         70.2252         estimate D2E/DX2                !
 ! D219  D(48,47,57,65)       -166.7073         estimate D2E/DX2                !
 ! D220  D(52,47,57,65)        -48.824          estimate D2E/DX2                !
 ! D221  D(47,48,49,37)        169.2243         estimate D2E/DX2                !
 ! D222  D(47,48,49,50)         50.1525         estimate D2E/DX2                !
 ! D223  D(47,48,49,55)        -69.8804         estimate D2E/DX2                !
 ! D224  D(53,48,49,37)         50.1226         estimate D2E/DX2                !
 ! D225  D(53,48,49,50)        -68.9492         estimate D2E/DX2                !
 ! D226  D(53,48,49,55)        171.0178         estimate D2E/DX2                !
 ! D227  D(56,48,49,37)        -69.1029         estimate D2E/DX2                !
 ! D228  D(56,48,49,50)        171.8253         estimate D2E/DX2                !
 ! D229  D(56,48,49,55)         51.7923         estimate D2E/DX2                !
 ! D230  D(47,48,56,64)        -41.677          estimate D2E/DX2                !
 ! D231  D(47,48,56,84)         81.9162         estimate D2E/DX2                !
 ! D232  D(49,48,56,64)       -164.4119         estimate D2E/DX2                !
 ! D233  D(49,48,56,84)        -40.8187         estimate D2E/DX2                !
 ! D234  D(53,48,56,64)         77.4341         estimate D2E/DX2                !
 ! D235  D(53,48,56,84)       -158.9727         estimate D2E/DX2                !
 ! D236  D(37,49,50,45)       -178.0868         estimate D2E/DX2                !
 ! D237  D(37,49,50,54)        -58.1395         estimate D2E/DX2                !
 ! D238  D(37,49,50,59)         61.6361         estimate D2E/DX2                !
 ! D239  D(48,49,50,45)        -58.8044         estimate D2E/DX2                !
 ! D240  D(48,49,50,54)         61.1429         estimate D2E/DX2                !
 ! D241  D(48,49,50,59)       -179.0816         estimate D2E/DX2                !
 ! D242  D(55,49,50,45)         61.1965         estimate D2E/DX2                !
 ! D243  D(55,49,50,54)       -178.8562         estimate D2E/DX2                !
 ! D244  D(55,49,50,59)        -59.0806         estimate D2E/DX2                !
 ! D245  D(45,50,59,60)         55.4364         estimate D2E/DX2                !
 ! D246  D(45,50,59,61)        173.9396         estimate D2E/DX2                !
 ! D247  D(45,50,59,62)        -63.0193         estimate D2E/DX2                !
 ! D248  D(49,50,59,60)        176.4248         estimate D2E/DX2                !
 ! D249  D(49,50,59,61)        -65.072          estimate D2E/DX2                !
 ! D250  D(49,50,59,62)         57.969          estimate D2E/DX2                !
 ! D251  D(54,50,59,60)        -62.9097         estimate D2E/DX2                !
 ! D252  D(54,50,59,61)         55.5936         estimate D2E/DX2                !
 ! D253  D(54,50,59,62)        178.6346         estimate D2E/DX2                !
 ! D254  D(48,56,84,45)        -16.8063         estimate D2E/DX2                !
 ! D255  D(48,56,84,58)        -49.4937         estimate D2E/DX2                !
 ! D256  D(48,56,84,81)       -112.5111         estimate D2E/DX2                !
 ! D257  D(64,56,84,45)         64.7302         estimate D2E/DX2                !
 ! D258  D(64,56,84,58)         32.0428         estimate D2E/DX2                !
 ! D259  D(64,56,84,81)        -30.9746         estimate D2E/DX2                !
 ! D260  D(46,58,66,67)       -102.3162         estimate D2E/DX2                !
 ! D261  D(46,58,66,68)         15.3084         estimate D2E/DX2                !
 ! D262  D(46,58,66,69)        137.3515         estimate D2E/DX2                !
 ! D263  D(84,58,66,67)       -172.3436         estimate D2E/DX2                !
 ! D264  D(84,58,66,68)        -54.7189         estimate D2E/DX2                !
 ! D265  D(84,58,66,69)         67.3242         estimate D2E/DX2                !
 ! D266  D(46,58,84,45)        -12.991          estimate D2E/DX2                !
 ! D267  D(46,58,84,56)         39.4165         estimate D2E/DX2                !
 ! D268  D(46,58,84,81)        176.4456         estimate D2E/DX2                !
 ! D269  D(66,58,84,45)        102.0522         estimate D2E/DX2                !
 ! D270  D(66,58,84,56)        154.4597         estimate D2E/DX2                !
 ! D271  D(66,58,84,81)        -68.5112         estimate D2E/DX2                !
 ! D272  D(50,59,62,63)        -75.8474         estimate D2E/DX2                !
 ! D273  D(50,59,62,82)         86.3782         estimate D2E/DX2                !
 ! D274  D(60,59,62,63)        164.6325         estimate D2E/DX2                !
 ! D275  D(60,59,62,82)        -33.1419         estimate D2E/DX2                !
 ! D276  D(61,59,62,63)         47.0155         estimate D2E/DX2                !
 ! D277  D(61,59,62,82)       -150.7589         estimate D2E/DX2                !
 ! D278  D(59,62,82,35)       -168.5672         estimate D2E/DX2                !
 ! D279  D(59,62,82,41)        160.3008         estimate D2E/DX2                !
 ! D280  D(59,62,82,81)        -30.6467         estimate D2E/DX2                !
 ! D281  D(63,62,82,35)         -6.6528         estimate D2E/DX2                !
 ! D282  D(63,62,82,41)        -37.7847         estimate D2E/DX2                !
 ! D283  D(63,62,82,81)        131.2678         estimate D2E/DX2                !
 ! D284  D(58,66,69,70)        177.428          estimate D2E/DX2                !
 ! D285  D(58,66,69,71)         62.9713         estimate D2E/DX2                !
 ! D286  D(58,66,69,72)        -58.8356         estimate D2E/DX2                !
 ! D287  D(67,66,69,70)         58.4083         estimate D2E/DX2                !
 ! D288  D(67,66,69,71)        -56.0484         estimate D2E/DX2                !
 ! D289  D(67,66,69,72)       -177.8553         estimate D2E/DX2                !
 ! D290  D(68,66,69,70)        -61.7203         estimate D2E/DX2                !
 ! D291  D(68,66,69,71)       -176.177          estimate D2E/DX2                !
 ! D292  D(68,66,69,72)         62.0161         estimate D2E/DX2                !
 ! D293  D(66,69,72,73)         58.6781         estimate D2E/DX2                !
 ! D294  D(66,69,72,74)        173.358          estimate D2E/DX2                !
 ! D295  D(66,69,72,75)        -64.7332         estimate D2E/DX2                !
 ! D296  D(70,69,72,73)       -179.2011         estimate D2E/DX2                !
 ! D297  D(70,69,72,74)        -64.5212         estimate D2E/DX2                !
 ! D298  D(70,69,72,75)         57.3876         estimate D2E/DX2                !
 ! D299  D(71,69,72,73)        -63.0902         estimate D2E/DX2                !
 ! D300  D(71,69,72,74)         51.5898         estimate D2E/DX2                !
 ! D301  D(71,69,72,75)        173.4986         estimate D2E/DX2                !
 ! D302  D(69,72,75,76)        -56.7725         estimate D2E/DX2                !
 ! D303  D(69,72,75,77)         60.3586         estimate D2E/DX2                !
 ! D304  D(69,72,75,78)       -176.536          estimate D2E/DX2                !
 ! D305  D(73,72,75,76)       -178.7926         estimate D2E/DX2                !
 ! D306  D(73,72,75,77)        -61.6615         estimate D2E/DX2                !
 ! D307  D(73,72,75,78)         61.4439         estimate D2E/DX2                !
 ! D308  D(74,72,75,76)         64.6119         estimate D2E/DX2                !
 ! D309  D(74,72,75,77)       -178.2571         estimate D2E/DX2                !
 ! D310  D(74,72,75,78)        -55.1516         estimate D2E/DX2                !
 ! D311  D(72,75,78,79)        175.0453         estimate D2E/DX2                !
 ! D312  D(72,75,78,80)         54.7724         estimate D2E/DX2                !
 ! D313  D(72,75,78,81)        -65.3897         estimate D2E/DX2                !
 ! D314  D(76,75,78,79)         53.4306         estimate D2E/DX2                !
 ! D315  D(76,75,78,80)        -66.8422         estimate D2E/DX2                !
 ! D316  D(76,75,78,81)        172.9957         estimate D2E/DX2                !
 ! D317  D(77,75,78,79)        -61.1845         estimate D2E/DX2                !
 ! D318  D(77,75,78,80)        178.5426         estimate D2E/DX2                !
 ! D319  D(77,75,78,81)         58.3805         estimate D2E/DX2                !
 ! D320  D(75,78,81,82)       -179.2846         estimate D2E/DX2                !
 ! D321  D(75,78,81,83)         62.5298         estimate D2E/DX2                !
 ! D322  D(75,78,81,84)        -60.7492         estimate D2E/DX2                !
 ! D323  D(79,78,81,82)        -57.4419         estimate D2E/DX2                !
 ! D324  D(79,78,81,83)       -175.6275         estimate D2E/DX2                !
 ! D325  D(79,78,81,84)         61.0935         estimate D2E/DX2                !
 ! D326  D(80,78,81,82)         58.1318         estimate D2E/DX2                !
 ! D327  D(80,78,81,83)        -60.0538         estimate D2E/DX2                !
 ! D328  D(80,78,81,84)        176.6673         estimate D2E/DX2                !
 ! D329  D(78,81,82,35)        157.328          estimate D2E/DX2                !
 ! D330  D(78,81,82,41)        129.303          estimate D2E/DX2                !
 ! D331  D(78,81,82,62)        119.2307         estimate D2E/DX2                !
 ! D332  D(83,81,82,35)        -80.0014         estimate D2E/DX2                !
 ! D333  D(83,81,82,41)       -108.0264         estimate D2E/DX2                !
 ! D334  D(83,81,82,62)       -118.0987         estimate D2E/DX2                !
 ! D335  D(84,81,82,35)         34.4939         estimate D2E/DX2                !
 ! D336  D(84,81,82,41)          6.4689         estimate D2E/DX2                !
 ! D337  D(84,81,82,62)         -3.6033         estimate D2E/DX2                !
 ! D338  D(78,81,83,14)        171.7785         estimate D2E/DX2                !
 ! D339  D(78,81,83,19)       -122.1004         estimate D2E/DX2                !
 ! D340  D(82,81,83,14)         49.2505         estimate D2E/DX2                !
 ! D341  D(82,81,83,19)        115.3716         estimate D2E/DX2                !
 ! D342  D(84,81,83,14)        -62.7676         estimate D2E/DX2                !
 ! D343  D(84,81,83,19)          3.3535         estimate D2E/DX2                !
 ! D344  D(78,81,84,45)         69.1016         estimate D2E/DX2                !
 ! D345  D(78,81,84,56)        119.2433         estimate D2E/DX2                !
 ! D346  D(78,81,84,58)         74.0471         estimate D2E/DX2                !
 ! D347  D(82,81,84,45)       -168.1935         estimate D2E/DX2                !
 ! D348  D(82,81,84,56)       -118.0519         estimate D2E/DX2                !
 ! D349  D(82,81,84,58)       -163.2481         estimate D2E/DX2                !
 ! D350  D(83,81,84,45)        -56.3635         estimate D2E/DX2                !
 ! D351  D(83,81,84,56)         -6.2218         estimate D2E/DX2                !
 ! D352  D(83,81,84,58)        -51.418          estimate D2E/DX2                !
 --------------------------------------------------------------------------------
 Trust Radius=3.00D-01 FncErr=1.00D-07 GrdErr=1.00D-06
 Number of steps in this run=    504 maximum allowed number of steps=    504.
 GradGradGradGradGradGradGradGradGradGradGradGradGradGradGradGradGradGrad

 Leave Link  103 at Mon May  2 05:09:50 2016, MaxMem= 10737418240 cpu:         0.5
 (Enter /share/apps//g09/l202.exe)
 Stoichiometry    C23H44NO16(1+)
 Framework group  C1[X(C23H44NO16)]
 Deg. of freedom   246
 Full point group                 C1      NOp   1
 Largest Abelian subgroup         C1      NOp   1
 Largest concise Abelian subgroup C1      NOp   1
                         Standard orientation:                         
 ---------------------------------------------------------------------
 Center     Atomic      Atomic             Coordinates (Angstroms)
 Number     Number       Type             X           Y           Z
 ---------------------------------------------------------------------
      1          8           0        1.245042    2.629346    1.940305
      2          6           0        1.635012    1.262627    1.957641
      3          6           0        0.574486    0.371413    2.634139
      4          6           0       -0.805223    0.620381    2.006615
      5          6           0       -1.125790    2.119422    1.932018
      6          6           0        0.012881    2.835037    1.207033
      7          1           0        2.576041    1.244489    2.526055
      8          1           0        0.536767    0.671428    3.698623
      9          1           0       -0.820829    0.193018    0.991591
     10          1           0       -2.064466    2.261090    1.374820
     11          1           0        0.118620    2.412073    0.194957
     12          8           0       -1.382399    2.626787    3.251839
     13          8           0       -1.840366   -0.066408    2.733198
     14          8           0        0.913586   -1.014061    2.553774
     15          8           0        1.827824    0.732382    0.652626
     16          6           0       -0.186365    4.335514    1.033997
     17          1           0       -0.484569    4.807908    1.984544
     18          1           0        0.770713    4.775473    0.705576
     19          8           0       -1.205750    4.484755    0.034586
     20          1           0       -1.546926    5.392588    0.083562
     21          1           0       -0.521213    2.857156    3.651987
     22          1           0       -2.065530    0.501169    3.498809
     23          1           0        1.855092   -1.065417    2.263023
     24          8           0        2.595477   -1.354846   -1.304676
     25          6           0        2.541181   -0.194690   -2.175587
     26          6           0        2.986660    1.096795   -1.416493
     27          6           0        3.142128    0.886297    0.103482
     28          6           0        4.025587   -0.350531    0.431097
     29          6           0        3.882425   -1.431984   -0.664019
     30          1           0        3.266518   -0.343897   -2.993690
     31          1           0        2.227166    1.872656   -1.589481
     32          1           0        3.606244    1.791706    0.526858
     33          1           0        5.075760   -0.017713    0.451463
     34          1           0        4.662067   -1.243830   -1.426967
     35          8           0        3.657212   -0.823220    1.739289
     36          8           0        4.255377    1.461002   -1.982364
     37          8           0        1.300481   -0.160309   -2.810889
     38          6           0        4.015025   -2.868318   -0.138590
     39          1           0        3.088963   -3.150059    0.383069
     40          1           0        4.149017   -3.565796   -0.978598
     41          8           0        5.068176   -2.994396    0.828508
     42          1           0        5.919911   -3.090753    0.368609
     43          1           0        4.298482   -1.536981    1.943543
     44          1           0        4.332118    2.429593   -1.977688
     45          8           0       -1.979004   -1.050280   -1.406242
     46          6           0       -2.803538    0.001844   -1.948459
     47          6           0       -2.047512    1.328044   -1.853940
     48          6           0       -0.651673    1.244074   -2.483605
     49          6           0        0.112362    0.005922   -2.005999
     50          6           0       -0.782376   -1.241199   -2.171426
     51          1           0       -3.049148   -0.242991   -3.004728
     52          1           0       -1.941770    1.551944   -0.777914
     53          1           0       -0.769147    1.172985   -3.583286
     54          1           0       -1.028106   -1.359593   -3.247304
     55          1           0        0.383031    0.127195   -0.946554
     56          8           0        0.104249    2.409854   -2.152143
     57          8           0       -2.717096    2.393092   -2.523433
     58          8           0       -3.944428    0.104068   -1.163510
     59          6           0       -0.155464   -2.550652   -1.712740
     60          1           0       -0.899760   -3.352258   -1.816633
     61          1           0        0.707536   -2.789331   -2.350167
     62          8           0        0.245644   -2.531715   -0.332454
     63          1           0        1.072835   -1.999075   -0.303668
     64          1           0       -0.500704    3.172963   -2.232806
     65          1           0       -3.515912    2.611394   -2.011507
     66          6           0       -4.881104   -0.995083   -1.314926
     67          1           0       -5.711883   -0.654543   -1.954112
     68          1           0       -4.378639   -1.833296   -1.821423
     69          6           0       -5.402465   -1.410764    0.056132
     70          1           0       -6.143695   -2.213045   -0.098964
     71          1           0       -5.954186   -0.563079    0.491465
     72          6           0       -4.324073   -1.857458    1.055841
     73          1           0       -3.619429   -1.022976    1.188213
     74          1           0       -4.806718   -2.014876    2.035055
     75          6           0       -3.573553   -3.134988    0.653559
     76          1           0       -4.291045   -3.958355    0.502720
     77          1           0       -3.059466   -2.984928   -0.308030
     78          6           0       -2.559657   -3.627388    1.684072
     79          1           0       -2.123884   -4.587297    1.376281
     80          1           0       -3.026411   -3.766510    2.670061
     81          7           0       -1.417642   -2.667334    1.866799
     82          1           0       -0.729251   -3.003538    2.551296
     83          1           0       -1.728655   -1.736024    2.233471
     84          1           0       -0.867977   -2.513621    0.973925
 ---------------------------------------------------------------------
 Rotational constants (GHZ):      0.1144512      0.0811506      0.0738521
 Leave Link  202 at Mon May  2 05:09:50 2016, MaxMem= 10737418240 cpu:         2.2
 (Enter /share/apps//g09/l301.exe)
 Standard basis: 6-311+G(d,p) (5D, 7F)
 Ernie: Thresh=  0.10000D-02 Tol=  0.10000D-05 Strict=F.
 There are  1184 symmetry adapted cartesian basis functions of A   symmetry.
 There are  1144 symmetry adapted basis functions of A   symmetry.
  1144 basis functions,  1792 primitive gaussians,  1184 cartesian basis functions
   158 alpha electrons      158 beta electrons
       nuclear repulsion energy      6112.9832644564 Hartrees.
 IExCor= 1009 DFT=T Ex+Corr=PBE1PBE ExCW=0 ScaHFX=  0.250000
[...]
 01375,-0.00001250,-0.00001694,0.00001535,0.00001351,-0.00004126,0.0000
 1987,0.00000169,-0.00001116,0.00020405,-0.00002719,-0.00028272,-0.0000
 2105,-0.00002647,-0.00003681,-0.00012191,-0.00003112,-0.00009805,-0.00
 010358,0.00001835,0.00006821,0.00000477,0.00000825,-0.00002279,-0.0000
 0034,-0.00000488,-0.00000842,0.00007754,-0.00004176,-0.00002885,-0.000
 01709,0.00000708,0.00000578,-0.00002570,0.00002858,0.00001460,0.000009
 35,0.00000169,0.00001277,-0.00064482,0.00001349,-0.00047852,0.00089405
 ,0.00020927,0.00013412,0.00000704,0.00019850,-0.00004022,0.00011511,0.
 00007765,0.00009216,0.00000168,0.00005430,0.00005314,0.00015400,0.0000
 1598,0.00007694,-0.00007911,-0.00004654,-0.00005533,0.00001129,-0.0000
 4159,-0.00000840,-0.00002789,-0.00002480,-0.00000287,-0.00002870,0.000
 01146,-0.00004138,0.00003642,0.00004665,0.00006992,-0.00012528,-0.0001
 6899,-0.00005408,-0.00008863,-0.00011683,-0.00004005,-0.00042769,-0.00
 026162,0.00028885,0.00018705,-0.00063742,0.00046864,-0.00001042,0.0000
 0066,-0.00001998,-0.00000448,0.00013564,-0.00008243,0.00069864,0.00072
 229,-0.00036393,-0.00028366,0.00006421,0.00029245,0.00004835,0.0000688
 3,-0.00003421,0.00000607,0.00005739,-0.00003291,0.00028186,0.00008680,
 -0.00007137,-0.00006185,-0.00005842,0.00007575,-0.00005608,-0.00009091
 ,0.00002369,-0.00029842,-0.00054201,-0.00092675,0.00029024,-0.00031283
 ,0.00019192,-0.00010183,0.00008162,-0.00006200,0.00021104,0.00081356,0
 .00159016,-0.00142016,0.00078171,-0.00211639,-0.00041255,0.00004923,0.
 00025367,0.00095647,0.00023607,0.00060770,-0.00039442,-0.00019663,-0.0
 0036109,-0.00018202,-0.00020785,-0.00007495,0.02078870,0.01067240,0.01
 000782,-0.00291783,0.00394247,0.00374728,0.00024750,-0.00010835,0.0004
 7685,-0.18152751,-0.10535727,-0.09765463,-0.01497677,-0.01257561,-0.01
 050134,0.19256067,-0.00056848,-0.00017625,0.00008609,0.00044238,0.0009
 3831,-0.00097294,0.00068693,-0.00012595,0.00104767,0.00712572,0.002579
 89,-0.00678442,-0.00172193,-0.00001114,0.00102963,0.00112568,0.0004648
 8,0.00027165,-0.00018908,-0.00003695,0.00026854,0.00009517,-0.00035445
 ,-0.00003748,-0.00072553,-0.00024247,0.00087156,0.00002126,0.00000713,
 -0.00020393,-0.00000847,0.00013919,-0.00003129,-0.00019945,0.00018493,
 0.00102384,0.00033888,0.00159705,0.00331670,-0.00168883,-0.00150328,-0
 .00099253,-0.00101428,-0.00084740,0.00045029,-0.00056547,0.00020835,-0
 .00009508,0.00002199,-0.00006408,-0.00005982,0.00003608,0.00001920,0.0
 0022027,0.00012660,-0.00029436,0.00030850,-0.00003956,0.00003517,-0.00
 008195,0.00004978,-0.00025708,-0.00013813,-0.00124469,-0.00209884,0.00
 299431,0.00051041,0.00040241,0.00027216,0.00022477,-0.00028195,-0.0003
 1998,-0.00011661,0.00032434,0.00025104,-0.00000057,0.00011797,-0.00008
 807,0.00064264,0.00000130,-0.00012874,0.00001789,0.00018417,-0.0000511
 6,-0.00008124,0.00024077,-0.00002885,0.00000548,-0.00002341,-0.0000324
 8,-0.00000159,0.00002897,-0.00002597,-0.00002850,-0.00002136,-0.000007
 10,-0.00004190,-0.00003460,-0.00000624,0.00002314,-0.00004180,-0.00001
 817,-0.00034932,-0.00024470,-0.00000785,-0.00010554,-0.00015431,0.0000
 7966,0.00025281,-0.00030776,-0.00020743,-0.00014846,0.00005451,0.00011
 269,0.00001215,0.00006574,-0.00000264,-0.00003177,-0.00002911,-0.00001
 620,0.00004968,-0.00015929,-0.00008852,0.00000360,0.00000349,0.0000295
 1,0.00005263,0.00009928,0.00013296,0.00002331,0.00002169,-0.00002916,0
 .00001474,0.00012290,-0.00103543,0.00026028,-0.00001044,0.00082739,0.0
 0006244,0.00048844,-0.00001717,0.00000617,0.00024061,0.00025356,-0.000
 19505,0.00027572,0.00010802,-0.00048063,0.00004682,0.00024452,-0.00001
 828,0.00001037,-0.00013503,-0.00003154,-0.00004858,0.00002572,-0.00002
 000,-0.00007711,0.00001480,0.00003472,0.00002030,-0.00011032,0.0000658
 5,0.00014190,0.00005113,-0.00002524,-0.00054502,-0.00020295,0.00000783
 ,-0.00035175,-0.00022171,0.00016224,-0.00015060,-0.00067383,0.00020935
 ,-0.00071838,0.00033921,-0.00004873,-0.00006220,-0.00006043,0.00003000
 ,0.00016841,-0.00006636,0.00113945,0.00080241,-0.00096116,-0.00031061,
 0.00051344,0.00043755,0.00004051,0.00019073,-0.00003346,-0.00002646,0.
 00019415,0.00009160,-0.00016807,0.00011536,0.00043607,-0.00000259,0.00
 000888,-0.00013494,-0.00000012,-0.00014237,0.00004081,-0.00013405,-0.0
 0007651,0.00056151,-0.00008784,0.00015790,-0.00013936,-0.00020907,0.00
 009764,-0.00015812,0.00053982,-0.00005581,-0.00084669,0.00098230,0.001
 02044,0.00121730,-0.00024143,0.00007756,0.00031043,-0.00042687,-0.0012
 2109,0.00031022,-0.00038982,0.00047357,-0.00006259,0.00007526,-0.00034
 539,0.00003844,-0.00746516,-0.01175472,-0.01057221,0.00137152,-0.00008
 298,-0.00084300,-0.00038014,0.00119887,0.00099096,-0.11094669,-0.15752
 572,-0.09019281,0.01668538,0.01728184,0.01457749,0.10796606,0.15925201
 ,-0.00060556,-0.00006346,-0.00007293,0.00034384,0.00071581,-0.00066181
 ,0.00125032,0.00000842,0.00167685,0.00446889,-0.00183691,-0.00725561,-
 0.00082126,0.00017848,-0.00025145,0.00085416,0.00012063,0.00007090,-0.
 00017369,-0.00000747,0.00025206,-0.00008639,-0.00011790,-0.00007029,0.
 00020065,0.00015244,-0.00077055,-0.00003090,-0.00001539,-0.00014476,0.
 00001723,0.00013030,-0.00005918,-0.00002902,0.00075724,0.00120908,0.00
 299546,0.00481859,-0.00607573,-0.00090683,-0.00096980,-0.00179462,-0.0
 0091763,-0.00063613,0.00027401,-0.00036482,0.00015045,-0.00011072,0.00
 002611,-0.00004330,-0.00004855,0.00001095,0.00001275,0.00016979,0.0000
 6607,-0.00018492,0.00026063,-0.00003257,0.00002684,-0.00007807,0.00011
 295,-0.00024174,-0.00006085,-0.00187147,-0.00059010,0.00467416,0.00022
 597,0.00023389,-0.00009681,0.00016646,-0.00016218,-0.00048510,0.000154
 32,0.00009922,0.00039190,0.00001754,0.00008740,-0.00009516,0.00057624,
 0.00002994,-0.00008699,0.00000404,0.00009910,0.00004910,-0.00002379,0.
 00017614,-0.00003754,-0.00001710,-0.00000718,-0.00004630,0.00001550,0.
 00001068,-0.00003352,-0.00003305,-0.00001160,-0.00000273,-0.00002923,-
 0.00001948,-0.00002211,0.00002630,-0.00003031,-0.00001367,-0.00019900,
 -0.00015715,-0.00014031,-0.00012516,-0.00010292,0.00006571,-0.00015356
 ,-0.00020887,-0.00010058,-0.00012660,0.00003053,0.00013100,0.00000893,
 0.00005841,-0.00001554,-0.00002352,-0.00002139,-0.00001673,0.00003568,
 -0.00011048,-0.00010011,0.00000451,0.00000174,0.00002908,0.00003685,0.
 00006153,0.00011252,0.00002882,0.00000901,-0.00002314,-0.00042144,-0.0
 0053973,-0.00044203,0.00010511,0.00022882,0.00023036,0.00002027,0.0005
 1216,-0.00017941,0.00010878,0.00012094,0.00010140,-0.00004588,0.000318
 18,-0.00000309,0.00038953,0.00025938,0.00011330,0.00000559,-0.00008558
 ,-0.00002293,-0.00003650,-0.00013809,-0.00001583,-0.00003433,-0.000064
 19,0.00002574,-0.00011355,-0.00005859,-0.00005746,0.00009909,0.0000628
 9,0.00005374,-0.00011641,-0.00035768,-0.00005642,0.00005722,-0.0003025
 4,0.00003008,0.00017933,-0.00041541,-0.00029506,0.00059672,-0.00103909
 ,0.00043747,-0.00005798,-0.00005396,-0.00001403,-0.00002113,0.00029550
 ,-0.00015361,0.00226693,0.00139717,-0.00315844,-0.00004272,0.00075799,
 0.00025419,0.00004623,0.00013318,-0.00007426,-0.00005697,0.00013873,0.
 00001031,-0.00025419,0.00036974,0.00036069,0.00002448,-0.00002816,-0.0
 0009000,-0.00002624,-0.00011304,0.00000839,0.00017814,-0.00021725,-0.0
 0036324,0.00011523,-0.00010209,0.00002141,-0.00014267,0.00006646,-0.00
 007921,-0.00007852,0.00062536,0.00099816,-0.00120340,0.00074450,-0.000
 08119,0.00037287,-0.00009609,-0.00024819,0.00027602,0.00054218,0.00160
 306,-0.00048200,0.00030321,-0.00040328,-0.00004604,0.00002043,0.000037
 96,-0.00884683,-0.01321168,-0.01265125,0.00192012,-0.00078952,-0.00082
 022,-0.00061750,0.00062814,-0.00019349,-0.09612618,-0.08413782,-0.1409
 0689,-0.01372505,-0.01011475,-0.00998078,0.09951377,0.09083402,0.15384
 298,-0.00057812,-0.00021663,-0.00012558,0.00079773,0.00097579,-0.00027
 021,0.00051883,0.00005647,0.00046522,0.00131588,-0.00033611,-0.0013608
 6,-0.00022220,0.00009978,-0.00018764,0.00045287,0.00004360,-0.00000851
 ,-0.00006771,-0.00005028,0.00009158,-0.00015029,-0.00014743,-0.0001307
 8,0.00039354,0.00003498,-0.00045478,-0.00001604,-0.00000623,-0.0000792
 4,0.00004182,0.00008046,-0.00000767,-0.00009723,0.00015281,0.00043303,
 0.00002564,0.00125074,0.00165827,-0.00184707,-0.00132861,0.00014919,-0
 .00072600,-0.00094687,0.00008026,-0.00007438,0.00005624,0.00000252,-0.
 00000910,-0.00003144,-0.00002667,0.00000112,0.00002132,0.00007545,-0.0
 0010389,-0.00007991,0.00006363,0.00003316,0.00001211,-0.00002876,0.000
 09255,-0.00002092,-0.00007210,-0.00019563,-0.00015472,0.00018051,0.000
 24255,0.00118954,0.00009196,0.00144541,-0.00045367,-0.00185496,0.00035
 122,-0.00000850,0.00144526,-0.00014440,0.00017995,0.00005096,0.0003134
 7,0.00006234,0.00004169,0.00002395,0.00030574,-0.00003041,-0.00071094,
 0.00075204,-0.00023479,-0.00000792,0.00003963,-0.00019588,0.00004728,-
 0.00003263,-0.00002868,-0.00000895,-0.00006336,-0.00003473,-0.00001148
 ,-0.00010020,-0.00001746,0.00021168,-0.00012613,-0.00005505,-0.0001654
 9,-0.00052996,0.00008875,0.00009712,-0.00019079,-0.00022211,-0.0004192
 0,-0.00016548,-0.00041572,-0.00071325,0.00023050,0.00014895,-0.0000330
 9,0.00022242,-0.00023920,-0.00002757,-0.00004087,-0.00003883,0.0005837
 2,-0.00042767,0.00013368,-0.00009660,-0.00002963,-0.00004826,-0.000005
 01,0.00021404,-0.00001803,-0.00000767,0.00001124,0.00006097,-0.0026417
 5,-0.00092329,0.00064415,0.00126253,0.00016936,0.00000193,0.00028119,0
 .00018122,-0.00010330,0.00054508,0.00021080,0.00023274,-0.00024875,0.0
 0015139,0.00030751,0.00269557,0.00157072,-0.00024957,-0.00000474,-0.00
 015080,0.00006325,-0.00001612,-0.00008107,-0.00001715,-0.00007906,-0.0
 0005868,-0.00003455,-0.00076300,-0.00010445,-0.00037370,0.00012008,0.0
 0025289,0.00028861,-0.00042393,-0.00034533,-0.00028729,-0.00035175,-0.
 00006224,0.00001441,-0.00116526,-0.00018684,0.00092553,0.00692668,-0.0
 0855657,0.00164250,-0.00031043,0.00080632,0.00005969,-0.00028470,0.002
 60775,-0.00134081,-0.00313564,0.00705584,-0.00492456,-0.00219739,0.003
 72847,0.00147208,0.00014476,0.00007931,-0.00005061,0.00003445,0.000018
 40,-0.00008882,0.00037719,-0.00021212,-0.00058449,-0.00001272,-0.00000
 124,0.00017048,0.00001340,0.00010846,-0.00007834,-0.00003630,0.0002223
 8,-0.00020921,0.00001345,-0.00012195,0.00007707,0.00012644,-0.00008888
 ,0.00013844,-0.00041918,-0.00017208,0.00015205,-0.00018581,-0.00019224
 ,-0.00039881,0.00012870,-0.00005362,-0.00002469,-0.00051637,-0.0006694
 3,-0.00060858,0.00077866,-0.00026102,-0.00002432,-0.00004559,0.0010764
 6,-0.00035465,-0.00919129,-0.00132824,0.01021779,0.00099643,-0.0006559
 2,-0.00126560,0.00062184,0.00056344,-0.00001766,-0.14794072,-0.0814297
 6,0.09844101,0.01711971,0.01281833,-0.01685141,-0.01218630,-0.01106326
 ,0.01114343,0.14942033,-0.00021174,-0.00018161,0.00050905,0.00083728,0
 .00068526,-0.00068057,-0.00108148,-0.00082142,-0.00113284,0.00029482,-
 0.00043543,-0.00049473,-0.00007690,-0.00001584,-0.00041648,0.00013424,
 0.00020719,-0.00012809,-0.00002924,-0.00006517,0.00005339,0.00010227,0
 .00019710,0.00018721,0.00000458,0.00029432,-0.00048206,0.00008028,0.00
 003310,0.00003346,0.00001888,0.00008487,-0.00002334,0.00008687,0.00020
 349,0.00041727,0.00040461,0.00065172,0.00049648,-0.00115813,0.00217721
 ,0.00137599,-0.00073240,-0.00075828,0.00049854,-0.00013066,0.00008739,
 -0.00009168,0.00000255,-0.00003399,-0.00001753,0.00001033,0.00000787,0
 .00005547,0.00002232,-0.00015992,0.00013966,0.00000839,0.00001394,-0.0
 0002733,0.00001067,-0.00006316,-0.00011221,-0.00016217,-0.00010260,0.0
 0015618,0.00111939,0.00036002,-0.00018921,0.00130977,-0.00057728,-0.00
 134918,0.00003150,0.00027021,0.00084064,-0.00008658,0.00020170,-0.0000
 1937,0.00048023,0.00007436,-0.00010913,0.00008392,0.00038643,-0.000289
 15,-0.00061162,0.00068678,-0.00023319,0.00001620,0.00000696,-0.0001329
 7,0.00000636,-0.00001198,-0.00001735,-0.00004826,-0.00004602,-0.000000
 44,-0.00005435,-0.00011259,0.00002945,0.00016950,-0.00012310,-0.000014
 87,-0.00050623,-0.00041259,0.00042268,0.00003692,-0.00021911,-0.000075
 29,0.00014050,-0.00033646,-0.00036417,-0.00036407,0.00016394,0.0000073
 8,-0.00000409,0.00019583,-0.00013177,-0.00007187,-0.00004540,-0.000008
 70,0.00030874,-0.00033734,0.00009855,-0.00004240,-0.00001942,-0.000022
 06,0.00008493,0.00014775,0.00002425,-0.00000100,0.00002161,0.00001089,
 -0.00189553,-0.00021758,-0.00126750,0.00196150,0.00027437,0.00052034,0
 .00008229,0.00036520,0.00001536,0.00027924,0.00022844,0.00031492,-0.00
 037245,0.00032850,0.00025781,0.00061893,0.00037496,0.00064587,-0.00012
 798,-0.00003485,-0.00016500,-0.00003359,-0.00007126,-0.00001423,-0.000
 04304,-0.00006139,-0.00000406,-0.00026046,0.00003346,-0.00030987,0.000
 08621,0.00024136,0.00011600,-0.00019398,-0.00045850,-0.00033296,-0.000
 25027,-0.00021611,-0.00026381,-0.00097617,-0.00016596,0.00048888,0.000
 05948,-0.00583453,0.00263978,-0.00029868,-0.00004207,-0.00013679,0.000
 11564,0.00090875,-0.00057058,0.00605428,-0.00803827,-0.00464598,0.0012
 2195,0.00613565,0.00028378,0.00008622,0.00011211,-0.00002085,0.0000402
 3,0.00008271,0.00000365,0.00041392,-0.00013793,-0.00032345,-0.00006012
 ,-0.00000657,0.00007051,-0.00001193,-0.00002173,-0.00003801,0.00000502
 ,0.00009521,-0.00006048,0.00000833,-0.00006158,0.00004717,0.00003632,-
 0.00005250,0.00005985,-0.00010935,-0.00030359,0.00055196,-0.00008499,0
 .00007857,-0.00019377,-0.00030390,-0.00014433,-0.00006197,0.00002294,0
 .00198959,-0.00147808,-0.00019055,-0.00029796,0.00034323,0.00008626,-0
 .00102337,0.00103705,0.01390767,0.01974102,-0.01492880,-0.00019886,0.0
 0013868,-0.00042410,0.00330356,-0.00422967,-0.00414617,-0.07625120,-0.
 13505261,0.08619072,-0.01298125,-0.01245939,0.01333416,-0.00877237,-0.
 01013979,0.01107542,0.07459378,0.14566257,0.00029128,0.00022651,-0.000
 05453,-0.00055816,-0.00078266,0.00024524,0.00055134,-0.00027524,-0.000
 11215,-0.00182651,-0.00143319,0.00185534,0.00016805,-0.00005498,-0.000
 43508,-0.00024118,-0.00018188,-0.00002809,0.00003182,0.00006869,-0.000
 03061,-0.00007709,0.00015501,-0.00002707,-0.00020889,-0.00011662,-0.00
 084797,-0.00001691,-0.00000044,0.00006117,-0.00000415,-0.00004968,-0.0
 0002667,0.00023879,0.00031391,-0.00019549,0.00000132,-0.00138506,-0.00
 337547,0.00020109,0.00062633,-0.00136497,0.00026454,0.00073367,-0.0000
 6875,0.00007362,-0.00005480,-0.00001452,0.00001374,0.00003428,0.000021
 88,-0.00000974,-0.00001381,-0.00004272,0.00005720,0.00010409,-0.000030
 13,-0.00003145,-0.00000822,0.00000676,-0.00002349,-0.00000518,0.000060
 32,0.00014294,0.00008453,-0.00022942,-0.00015165,-0.00052602,0.0001906
 1,-0.00112577,0.00043057,0.00100244,0.00016684,-0.00027057,-0.00069429
 ,0.00013893,-0.00013255,-0.00009122,-0.00003243,-0.00000383,-0.0000131
 9,-0.00004570,-0.00024004,0.00014505,0.00067730,-0.00059309,0.00018518
 ,-0.00003741,-0.00000909,0.00011060,-0.00001429,0.00000825,-0.00000342
 ,-0.00002402,0.00005010,0.00002470,0.00001172,0.00008047,-0.00000986,-
 0.00016058,0.00009272,0.00001338,0.00011647,0.00036253,-0.00028692,-0.
 00014262,0.00015858,0.00016921,-0.00032889,0.00018551,0.00046196,0.000
 35025,-0.00014601,0.00005233,0.00001987,-0.00013645,0.00018815,0.00003
 636,0.00002219,0.00001401,-0.00037337,0.00026785,-0.00019838,0.0000634
 6,0.00002161,0.00005344,-0.00001068,-0.00011684,0.00008340,0.00001762,
 -0.00001692,-0.00004562,0.00222629,-0.00041106,0.00114097,-0.00255800,
 -0.00038102,-0.00060985,-0.00015663,-0.00013161,-0.00015186,-0.0003039
 0,-0.00028738,-0.00036680,0.00036440,0.00013473,-0.00045866,-0.0001721
 4,0.00017284,-0.00073664,0.00022728,-0.00001241,0.00024808,-0.00000848
 ,-0.00000259,0.00001434,0.00006398,0.00003105,0.00004607,0.00021835,-0
 .00013686,0.00034207,-0.00001206,-0.00035797,-0.00031219,0.00020111,0.
 00036398,0.00036383,0.00038321,0.00008522,0.00032994,0.00139890,0.0000
 2307,-0.00088133,-0.00299990,0.00620540,-0.00249490,0.00024248,-0.0007
 3742,0.00021221,0.00005442,-0.00173104,0.00084050,-0.00506298,-0.00478
 120,-0.00026035,0.00182545,-0.00239464,-0.00200661,-0.00009318,-0.0000
 7939,-0.00001509,-0.00008532,-0.00003567,0.00002028,-0.00057323,0.0004
 0222,0.00067254,0.00006880,-0.00002384,-0.00014597,-0.00001195,-0.0000
 5339,0.00005703,0.00003776,-0.00024910,0.00008354,0.00003257,0.0000741
 2,-0.00006679,-0.00010881,0.00009244,-0.00012413,0.00008214,0.00050428
 ,-0.00020434,0.00006608,-0.00015130,0.00026427,0.00013525,-0.00002427,
 -0.00014635,-0.00077036,-0.00015126,0.00223909,-0.00060673,0.00042153,
 -0.00036973,0.00020192,-0.00007875,0.00017783,0.01202281,0.00458902,-0
 .01436089,-0.00057186,0.00074577,-0.00014422,0.00024582,-0.00173735,-0
 .00026061,0.09294866,0.08652173,-0.16821551,0.00965422,0.01106483,-0.0
 1152901,-0.00961641,-0.00755412,0.02156567,-0.09717956,-0.08740283,0.1
 7852493\\0.00000263,0.00000014,0.00000082,-0.00000835,-0.00002058,0.00
 001766,0.00001394,-0.00000630,0.00000527,-0.00000219,-0.00001275,-0.00
 002607,-0.00000459,-0.00000670,0.00002424,0.00000848,0.00000635,0.0000
 0508,-0.00000441,0.00000428,-0.00000017,0.00000507,0.00000028,0.000001
 92,-0.00000317,-0.00000088,-0.00000068,0.00000683,-0.00000187,-0.00000
 577,-0.00000042,-0.00000208,0.00000450,0.00000035,0.00000569,0.0000004
 4,0.00002180,0.00003859,0.00001032,-0.00001992,0.00004047,0.00001334,0
 .00001463,0.00002356,-0.00001271,-0.00000711,-0.00000248,-0.00000293,0
 .00000615,-0.00000747,0.00000201,0.00000272,-0.00000638,0.00000362,0.0
 0001247,-0.00000335,0.00000253,0.00000035,-0.00001076,0.00000600,0.000
 00642,0.00000078,0.00000582,0.00000018,0.00000294,0.00000966,0.0000112
 5,-0.00002096,-0.00001013,0.00002100,-0.00000547,-0.00000414,0.0000029
 2,-0.00001018,-0.00000122,-0.00000754,-0.00001059,0.00001395,-0.000024
 35,-0.00000230,-0.00000160,0.00002739,-0.00000883,-0.00000633,-0.00001
 252,0.00002122,-0.00000490,-0.00000223,-0.00000238,0.00000571,0.000003
 52,-0.00000105,0.00000442,0.00000725,0.00000061,0.00000501,-0.00000410
 ,0.00000280,0.00001312,-0.00000212,0.00000354,0.00000647,-0.00000082,0
 .00000556,0.00000986,0.00001120,-0.00000088,-0.00000262,-0.00001478,0.
 00000135,-0.00000498,-0.00000035,-0.00001523,0.00001102,0.00000018,0.0
 0000904,-0.00000036,-0.00000397,0.00000747,0.00000082,0.00000304,0.000
 00903,-0.00000269,-0.00000251,0.00000716,0.00000712,0.00000179,0.00000
 574,0.00000271,-0.00000096,-0.00000417,0.00000351,0.00000262,-0.000006
 78,0.00001125,0.00001094,0.00002021,-0.00001673,-0.00000848,-0.0000145
 4,-0.00000324,0.00001189,-0.00000629,-0.00000264,0.00002521,-0.0000056
 0,-0.00000803,-0.00001787,0.00001697,-0.00000333,-0.00000108,-0.000008
 41,-0.00000457,-0.00000592,0.,-0.00000093,-0.00000721,-0.00000342,-0.0
 0000346,-0.00000416,-0.00000645,-0.00000410,-0.00000152,0.00000144,0.0
 0000085,-0.00000422,-0.00001324,0.00001656,0.00000206,0.00000287,0.000
 00207,-0.00001104,-0.00001262,0.00000518,-0.00000393,-0.00000449,-0.00
 001256,0.00000371,-0.00000204,-0.00000007,-0.00000458,0.00000129,-0.00
 000537,-0.00001691,0.00002338,0.00001772,-0.00000033,-0.00000273,0.000
 00380,0.00000518,0.00000551,-0.00000898,0.00000093,-0.00001186,-0.0000
 0703,0.00000204,-0.00000084,-0.00001070,-0.00000041,-0.00000117,-0.000
 00653,-0.00000434,-0.00000069,-0.00000367,-0.00000546,-0.00000082,-0.0
 0000035,-0.00000068,-0.00000006,-0.00000836,0.00000155,-0.00000207,-0.
 00000338,0.00000080,0.00000045,-0.00000397,0.00000069,0.00000032,-0.00
 000231,-0.00000125,0.00000540,-0.00000150,-0.00000238,0.00000203,-0.00
 000576,-0.00000228,0.00000217,-0.00000384,-0.00000364,0.00000142,-0.00
 000227,-0.00000642,0.00001077,-0.00000195,-0.00000338,0.00000294,-0.00
 000212,-0.00000029,0.00000186,-0.00000497,-0.00002207,0.00000052,0.000
 01026,0.00002929,0.00001470,-0.00002880,-0.00003961,-0.00004711,-0.000
 00612,0.00001739,0.00000406,0.00000032\\\@


 THERE ARE PEOPLE SO ADDICTED TO EXAGERATING THEY
 CAN'T TELL THE TRUTH WITHOUT LYING. -- FORTUNE COOKIE
 Job cpu time:      21 days 10 hours 27 minutes 43.0 seconds.
 File lengths (MBytes):  RWF=  17311 Int=      0 D2E=      0 Chk=    104 Scr=      1
 Normal termination of Gaussian 09 at Wed May  4 07:20:31 2016.
