 Entering Gaussian System, Link 0=g16
 Input=input.com
 Output=input.log
 Initial command:
 /home/matma/Programs/gaussian/G16_x86_SSE4/tar/g16/l1.exe "/scratch-data/gaussian/Gau-4160.inp" -scrdir="/scratch-data/gaussian/"
 Entering Link 1 = /home/matma/Programs/gaussian/G16_x86_SSE4/tar/g16/l1.exe PID=      4162.
  
 Copyright (c) 1988-2017, Gaussian, Inc.  All Rights Reserved.
  
 This is part of the Gaussian(R) 16 program.  It is based on
 the Gaussian(R) 09 system (copyright 2009, Gaussian, Inc.),
 the Gaussian(R) 03 system (copyright 2003, Gaussian, Inc.),
 the Gaussian(R) 98 system (copyright 1998, Gaussian, Inc.),
 the Gaussian(R) 94 system (copyright 1995, Gaussian, Inc.),
 the Gaussian 92(TM) system (copyright 1992, Gaussian, Inc.),
 the Gaussian 90(TM) system (copyright 1990, Gaussian, Inc.),
 the Gaussian 88(TM) system (copyright 1988, Gaussian, Inc.),
 the Gaussian 86(TM) system (copyright 1986, Carnegie Mellon
 University), and the Gaussian 82(TM) system (copyright 1983,
 Carnegie Mellon University). Gaussian is a federally registered
 trademark of Gaussian, Inc.
  
 This software contains proprietary and confidential information,
 including trade secrets, belonging to Gaussian, Inc.
  
 This software is provided under written license and may be
 used, copied, transmitted, or stored only in accord with that
 written license.
  
 The following legend is applicable only to US Government
 contracts under FAR:
  
                    RESTRICTED RIGHTS LEGEND
  
 Use, reproduction and disclosure by the US Government is
 subject to restrictions as set forth in subparagraphs (a)
 and (c) of the Commercial Computer Software - Restricted
 Rights clause in FAR 52.227-19.
  
 Gaussian, Inc.
 340 Quinnipiac St., Bldg. 40, Wallingford CT 06492
  
  
 ---------------------------------------------------------------
 Warning -- This program may not be used in any manner that
 competes with the business of Gaussian, Inc. or will provide
 assistance to any competitor of Gaussian, Inc.  The licensee
 of this program is prohibited from giving any competitor of
 Gaussian, Inc. access to this program.  By using this program,
 the user acknowledges that Gaussian, Inc. is engaged in the
 business of creating and licensing software in the field of
 computational chemistry and represents and warrants to the
 licensee that it is not a competitor of Gaussian, Inc. and that
 it will not use this program in any manner prohibited above.
 ---------------------------------------------------------------
  

 Cite this work as:
 Gaussian 16, Revision B.01,
 M. J. Frisch, G. W. Trucks, H. B. Schlegel, G. E. Scuseria, 
 M. A. Robb, J. R. Cheeseman, G. Scalmani, V. Barone, 
 G. A. Petersson, H. Nakatsuji, X. Li, M. Caricato, A. V. Marenich, 
 J. Bloino, B. G. Janesko, R. Gomperts, B. Mennucci, H. P. Hratchian, 
 J. V. Ortiz, A. F. Izmaylov, J. L. Sonnenberg, D. Williams-Young, 
 F. Ding, F. Lipparini, F. Egidi, J. Goings, B. Peng, A. Petrone, 
 T. Henderson, D. Ranasinghe, V. G. Zakrzewski, J. Gao, N. Rega, 
 G. Zheng, W. Liang, M. Hada, M. Ehara, K. Toyota, R. Fukuda, 
 J. Hasegawa, M. Ishida, T. Nakajima, Y. Honda, O. Kitao, H. Nakai, 
 T. Vreven, K. Throssell, J. A. Montgomery, Jr., J. E. Peralta, 
 F. Ogliaro, M. J. Bearpark, J. J. Heyd, E. N. Brothers, K. N. Kudin, 
 V. N. Staroverov, T. A. Keith, R. Kobayashi, J. Normand, 
 K. Raghavachari, A. P. Rendell, J. C. Burant, S. S. Iyengar, 
 J. Tomasi, M. Cossi, J. M. Millam, M. Klene, C. Adamo, R. Cammi, 
 J. W. Ochterski, R. L. Martin, K. Morokuma, O. Farkas, 
 J. B. Foresman, and D. J. Fox, Gaussian, Inc., Wallingford CT, 2016.
 
 ******************************************
 Gaussian 16:  ES64L-G16RevB.01 20-Dec-2017
                22-Jun-2021 
 ******************************************
 %nproc=12
 Will use up to   12 processors via shared memory.
 %mem=16GB
 --------------------------------------
 #P pm6 opt=loose freq int=(grid=99590)
 --------------------------------------
 1/7=-1,18=20,19=15,26=1,38=1/1,3;
 2/9=110,12=2,17=6,18=5,40=1/2;
 3/5=2,25=1,41=3900000,71=1,75=99590/1,2,3;
 4/35=1/1;
 5/5=2,35=1,38=5/2;
 6/7=2,8=2,9=2,10=2,28=1/1;
 7//1,2,3,16;
 1/7=-1,18=20,19=15,26=1/3(2);
 2/9=110/2;
 99//99;
 2/9=110/2;
 3/5=2,25=1,41=3900000,71=1,75=99590,135=20/1,2,3;
 4/5=5,16=3,35=1/1;
 5/5=2,35=1,38=5/2;
 7//1,2,3,16;
 1/7=-1,18=20,19=15,26=1/3(-5);
 2/9=110/2;
 6/7=2,8=2,9=2,10=2,19=2,28=1/1;
 99/9=1/99;
 Leave Link    1 at Tue Jun 22 14:18:51 2021, MaxMem=  2147483648 cpu:               0.3 elap:               0.0
 (Enter /home/matma/Programs/gaussian/G16_x86_SSE4/tar/g16/l101.exe)
 ----------
 initial-06
 ----------
 Symbolic Z-matrix:
 Charge =  0 Multiplicity = 1
 O                     2.661     2.109    -0.056 
 C                     2.764     2.782     1.222 
 C                     2.872     1.758     2.371 
 O                     4.068     0.978     2.209 
 C                     1.619     0.848     2.368 
 C                     0.271     1.661     2.255 
 O                     0.31      2.703     1.263 
 C                     1.452     3.57      1.443 
 C                     1.301     4.725     0.434 
 O                     2.491     5.522     0.544 
 O                    -3.054     1.85     -1.979 
 C                    -3.035     1.149    -0.711 
 C                    -1.868     1.445     0.272 
 C                    -2.104     0.659     1.585 
 C                    -3.509     0.944     2.178 
 O                    -4.54      0.717     1.211 
 C                    -4.395     1.463    -0.002 
 C                    -5.611     0.999    -0.817 
 O                    -5.554    -0.439    -0.984 
 O                    -3.745    -0.019     3.186 
 O                    -1.048     1.038     2.472 
 O                    -0.63      1.002    -0.3 
 O                     1.668     0.084     3.58 
 H                     3.63      3.467     1.225 
 H                     2.898     2.316     3.329 
 H                     4.006     0.293     2.935 
 H                     1.708     0.189     1.487 
 H                     0.056     2.101     3.254 
 H                     1.459     3.985     2.471 
 H                     1.184     4.296    -0.58 
 H                     0.384     5.29      0.681 
 H                     2.266     6.39      0.11 
 H                    -3.004     0.064    -0.915 
 H                    -1.849     2.53      0.502 
 H                    -2.066    -0.424     1.346 
 H                    -3.553     1.988     2.564 
 H                    -4.459     2.555     0.168 
 H                    -6.533     1.216    -0.256 
 H                    -5.649     1.525    -1.784 
 H                    -4.915    -0.6      -1.734 
 H                    -0.45      1.756    -0.761 
 H                    -3.179     1.109    -2.852 
 H                     1.086    -0.708     3.393 
 H                    -4.484     0.218     3.752 
 H                     3.47      1.657    -0.308 
 
 Add virtual bond connecting atoms H42        and O11        Dist= 2.18D+00.
 ITRead=  0  0  0  0  0  0  0  0  0  0  0  0  0  0  0  0  0  0  0  0
 ITRead=  0  0  0  0  0  0  0  0  0  0  0  0  0  0  0  0  0  0  0  0
 ITRead=  0  0  0  0  0
 MicOpt= -1 -1 -1 -1 -1 -1 -1 -1 -1 -1 -1 -1 -1 -1 -1 -1 -1 -1 -1 -1
 MicOpt= -1 -1 -1 -1 -1 -1 -1 -1 -1 -1 -1 -1 -1 -1 -1 -1 -1 -1 -1 -1
 MicOpt= -1 -1 -1 -1 -1
 NAtoms=     45 NQM=       45 NQMF=       0 NMMI=      0 NMMIF=      0
                NMic=       0 NMicF=      0.
                    Isotopes and Nuclear Properties:
 (Nuclear quadrupole moments (NQMom) in fm**2, nuclear magnetic moments (NMagM)
  in nuclear magnetons)

  Atom         1           2           3           4           5           6           7           8           9          10
 IAtWgt=          16          12          12          16          12          12          16          12          12          16
 AtmWgt=  15.9949146  12.0000000  12.0000000  15.9949146  12.0000000  12.0000000  15.9949146  12.0000000  12.0000000  15.9949146
 NucSpn=           0           0           0           0           0           0           0           0           0           0
 AtZEff=  -0.0000000  -0.0000000  -0.0000000  -0.0000000  -0.0000000  -0.0000000  -0.0000000  -0.0000000  -0.0000000  -0.0000000
 NQMom=    0.0000000   0.0000000   0.0000000   0.0000000   0.0000000   0.0000000   0.0000000   0.0000000   0.0000000   0.0000000
 NMagM=    0.0000000   0.0000000   0.0000000   0.0000000   0.0000000   0.0000000   0.0000000   0.0000000   0.0000000   0.0000000
 AtZNuc=   8.0000000   6.0000000   6.0000000   8.0000000   6.0000000   6.0000000   8.0000000   6.0000000   6.0000000   8.0000000

  Atom        11          12          13          14          15          16          17          18          19          20
 IAtWgt=          16          12          12          12          12          16          12          12          16          16
 AtmWgt=  15.9949146  12.0000000  12.0000000  12.0000000  12.0000000  15.9949146  12.0000000  12.0000000  15.9949146  15.9949146
 NucSpn=           0           0           0           0           0           0           0           0           0           0
 AtZEff=  -0.0000000  -0.0000000  -0.0000000  -0.0000000  -0.0000000  -0.0000000  -0.0000000  -0.0000000  -0.0000000  -0.0000000
 NQMom=    0.0000000   0.0000000   0.0000000   0.0000000   0.0000000   0.0000000   0.0000000   0.0000000   0.0000000   0.0000000
 NMagM=    0.0000000   0.0000000   0.0000000   0.0000000   0.0000000   0.0000000   0.0000000   0.0000000   0.0000000   0.0000000
 AtZNuc=   8.0000000   6.0000000   6.0000000   6.0000000   6.0000000   8.0000000   6.0000000   6.0000000   8.0000000   8.0000000

  Atom        21          22          23          24          25          26          27          28          29          30
 IAtWgt=          16          16          16           1           1           1           1           1           1           1
 AtmWgt=  15.9949146  15.9949146  15.9949146   1.0078250   1.0078250   1.0078250   1.0078250   1.0078250   1.0078250   1.0078250
 NucSpn=           0           0           0           1           1           1           1           1           1           1
 AtZEff=  -0.0000000  -0.0000000  -0.0000000  -0.0000000  -0.0000000  -0.0000000  -0.0000000  -0.0000000  -0.0000000  -0.0000000
 NQMom=    0.0000000   0.0000000   0.0000000   0.0000000   0.0000000   0.0000000   0.0000000   0.0000000   0.0000000   0.0000000
 NMagM=    0.0000000   0.0000000   0.0000000   2.7928460   2.7928460   2.7928460   2.7928460   2.7928460   2.7928460   2.7928460
 AtZNuc=   8.0000000   8.0000000   8.0000000   1.0000000   1.0000000   1.0000000   1.0000000   1.0000000   1.0000000   1.0000000

  Atom        31          32          33          34          35          36          37          38          39          40
 IAtWgt=           1           1           1           1           1           1           1           1           1           1
 AtmWgt=   1.0078250   1.0078250   1.0078250   1.0078250   1.0078250   1.0078250   1.0078250   1.0078250   1.0078250   1.0078250
 NucSpn=           1           1           1           1           1           1           1           1           1           1
 AtZEff=  -0.0000000  -0.0000000  -0.0000000  -0.0000000  -0.0000000  -0.0000000  -0.0000000  -0.0000000  -0.0000000  -0.0000000
 NQMom=    0.0000000   0.0000000   0.0000000   0.0000000   0.0000000   0.0000000   0.0000000   0.0000000   0.0000000   0.0000000
 NMagM=    2.7928460   2.7928460   2.7928460   2.7928460   2.7928460   2.7928460   2.7928460   2.7928460   2.7928460   2.7928460
 AtZNuc=   1.0000000   1.0000000   1.0000000   1.0000000   1.0000000   1.0000000   1.0000000   1.0000000   1.0000000   1.0000000

  Atom        41          42          43          44          45
 IAtWgt=           1           1           1           1           1
 AtmWgt=   1.0078250   1.0078250   1.0078250   1.0078250   1.0078250
 NucSpn=           1           1           1           1           1
 AtZEff=  -0.0000000  -0.0000000  -0.0000000  -0.0000000  -0.0000000
 NQMom=    0.0000000   0.0000000   0.0000000   0.0000000   0.0000000
 NMagM=    2.7928460   2.7928460   2.7928460   2.7928460   2.7928460
 AtZNuc=   1.0000000   1.0000000   1.0000000   1.0000000   1.0000000
 Leave Link  101 at Tue Jun 22 14:18:51 2021, MaxMem=  2147483648 cpu:               3.0 elap:               0.2
 (Enter /home/matma/Programs/gaussian/G16_x86_SSE4/tar/g16/l103.exe)

 GradGradGradGradGradGradGradGradGradGradGradGradGradGradGradGradGradGrad
 Berny optimization.
 Initialization pass.
                           ----------------------------
                           !    Initial Parameters    !
                           ! (Angstroms and Degrees)  !
 --------------------------                            --------------------------
 ! Name  Definition              Value          Derivative Info.                !
 --------------------------------------------------------------------------------
 ! R1    R(1,2)                  1.448          estimate D2E/DX2                !
 ! R2    R(1,45)                 0.9604         estimate D2E/DX2                !
 ! R3    R(2,3)                  1.5429         estimate D2E/DX2                !
 ! R4    R(2,8)                  1.5463         estimate D2E/DX2                !
 ! R5    R(2,24)                 1.1042         estimate D2E/DX2                !
 ! R6    R(3,4)                  1.437          estimate D2E/DX2                !
 ! R7    R(3,5)                  1.5486         estimate D2E/DX2                !
 ! R8    R(3,25)                 1.109          estimate D2E/DX2                !
 ! R9    R(4,26)                 1.0001         estimate D2E/DX2                !
 ! R10   R(5,6)                  1.5782         estimate D2E/DX2                !
 ! R11   R(5,23)                 1.4335         estimate D2E/DX2                !
 ! R12   R(5,27)                 1.1038         estimate D2E/DX2                !
 ! R13   R(6,7)                  1.4392         estimate D2E/DX2                !
 ! R14   R(6,21)                 1.4748         estimate D2E/DX2                !
 ! R15   R(6,28)                 1.1126         estimate D2E/DX2                !
 ! R16   R(7,8)                  1.4451         estimate D2E/DX2                !
 ! R17   R(8,9)                  1.5411         estimate D2E/DX2                !
 ! R18   R(8,29)                 1.1086         estimate D2E/DX2                !
 ! R19   R(9,10)                 1.4365         estimate D2E/DX2                !
 ! R20   R(9,30)                 1.1072         estimate D2E/DX2                !
 ! R21   R(9,31)                 1.105          estimate D2E/DX2                !
 ! R22   R(10,32)                0.9962         estimate D2E/DX2                !
 ! R23   R(11,12)                1.449          estimate D2E/DX2                !
 ! R24   R(11,42)                1.1519         estimate D2E/DX2                !
 ! R25   R(12,13)                1.5543         estimate D2E/DX2                !
 ! R26   R(12,17)                1.5655         estimate D2E/DX2                !
 ! R27   R(12,33)                1.1044         estimate D2E/DX2                !
 ! R28   R(13,14)                1.5484         estimate D2E/DX2                !
 ! R29   R(13,22)                1.4339         estimate D2E/DX2                !
 ! R30   R(13,34)                1.1093         estimate D2E/DX2                !
 ! R31   R(14,15)                1.5514         estimate D2E/DX2                !
 ! R32   R(14,21)                1.4302         estimate D2E/DX2                !
 ! R33   R(14,35)                1.1097         estimate D2E/DX2                !
 ! R34   R(15,16)                1.4316         estimate D2E/DX2                !
 ! R35   R(15,20)                1.4139         estimate D2E/DX2                !
 ! R36   R(15,36)                1.1139         estimate D2E/DX2                !
 ! R37   R(16,17)                1.4314         estimate D2E/DX2                !
 ! R38   R(17,18)                1.5356         estimate D2E/DX2                !
 ! R39   R(17,37)                1.107          estimate D2E/DX2                !
 ! R40   R(18,19)                1.4488         estimate D2E/DX2                !
 ! R41   R(18,38)                1.1009         estimate D2E/DX2                !
 ! R42   R(18,39)                1.1015         estimate D2E/DX2                !
 ! R43   R(19,40)                0.9984         estimate D2E/DX2                !
 ! R44   R(20,44)                0.9605         estimate D2E/DX2                !
 ! R45   R(22,41)                0.9019         estimate D2E/DX2                !
 ! R46   R(23,43)                1.0005         estimate D2E/DX2                !
 ! A1    A(2,1,45)             112.9803         estimate D2E/DX2                !
 ! A2    A(1,2,3)              110.7187         estimate D2E/DX2                !
 ! A3    A(1,2,8)              107.6155         estimate D2E/DX2                !
 ! A4    A(1,2,24)             110.2743         estimate D2E/DX2                !
 ! A5    A(3,2,8)              106.9283         estimate D2E/DX2                !
 ! A6    A(3,2,24)             110.7823         estimate D2E/DX2                !
 ! A7    A(8,2,24)             110.4213         estimate D2E/DX2                !
 ! A8    A(2,3,4)              109.5452         estimate D2E/DX2                !
 ! A9    A(2,3,5)              109.386          estimate D2E/DX2                !
 ! A10   A(2,3,25)             108.121          estimate D2E/DX2                !
 ! A11   A(4,3,5)              110.7465         estimate D2E/DX2                !
 ! A12   A(4,3,25)             110.5477         estimate D2E/DX2                !
 ! A13   A(5,3,25)             108.4408         estimate D2E/DX2                !
 ! A14   A(3,4,26)             103.789          estimate D2E/DX2                !
 ! A15   A(3,5,6)              112.8623         estimate D2E/DX2                !
 ! A16   A(3,5,23)             106.492          estimate D2E/DX2                !
 ! A17   A(3,5,27)             106.6869         estimate D2E/DX2                !
 ! A18   A(6,5,23)             111.3624         estimate D2E/DX2                !
 ! A19   A(6,5,27)             108.6188         estimate D2E/DX2                !
 ! A20   A(23,5,27)            110.724          estimate D2E/DX2                !
 ! A21   A(5,6,7)              113.5258         estimate D2E/DX2                !
 ! A22   A(5,6,21)             122.3949         estimate D2E/DX2                !
 ! A23   A(5,6,28)             107.7273         estimate D2E/DX2                !
 ! A24   A(7,6,21)             115.5627         estimate D2E/DX2                !
 ! A25   A(7,6,28)             109.7434         estimate D2E/DX2                !
 ! A26   A(21,6,28)             82.0743         estimate D2E/DX2                !
 ! A27   A(6,7,8)              111.7118         estimate D2E/DX2                !
 ! A28   A(2,8,7)              110.3021         estimate D2E/DX2                !
 ! A29   A(2,8,9)              111.8076         estimate D2E/DX2                !
 ! A30   A(2,8,29)             108.5376         estimate D2E/DX2                !
 ! A31   A(7,8,9)              106.8983         estimate D2E/DX2                !
 ! A32   A(7,8,29)             110.1867         estimate D2E/DX2                !
 ! A33   A(9,8,29)             109.0978         estimate D2E/DX2                !
 ! A34   A(8,9,10)             106.5306         estimate D2E/DX2                !
 ! A35   A(8,9,30)             108.6375         estimate D2E/DX2                !
 ! A36   A(8,9,31)             108.5519         estimate D2E/DX2                !
 ! A37   A(10,9,30)            111.879          estimate D2E/DX2                !
 ! A38   A(10,9,31)            112.7465         estimate D2E/DX2                !
 ! A39   A(30,9,31)            108.3679         estimate D2E/DX2                !
 ! A40   A(9,10,32)            105.2463         estimate D2E/DX2                !
 ! A41   A(12,11,42)           110.6972         estimate D2E/DX2                !
 ! A42   A(11,12,13)           118.1096         estimate D2E/DX2                !
 ! A43   A(11,12,17)           106.7316         estimate D2E/DX2                !
 ! A44   A(11,12,33)           108.3003         estimate D2E/DX2                !
 ! A45   A(13,12,17)           109.1254         estimate D2E/DX2                !
 ! A46   A(13,12,33)           106.4293         estimate D2E/DX2                !
 ! A47   A(17,12,33)           107.7626         estimate D2E/DX2                !
 ! A48   A(12,13,14)           108.9772         estimate D2E/DX2                !
 ! A49   A(12,13,22)           109.7017         estimate D2E/DX2                !
 ! A50   A(12,13,34)           109.2851         estimate D2E/DX2                !
 ! A51   A(14,13,22)           108.2422         estimate D2E/DX2                !
 ! A52   A(14,13,34)           108.8631         estimate D2E/DX2                !
 ! A53   A(22,13,34)           111.7224         estimate D2E/DX2                !
 ! A54   A(13,14,15)           111.6482         estimate D2E/DX2                !
 ! A55   A(13,14,21)           106.1916         estimate D2E/DX2                !
 ! A56   A(13,14,35)           107.9122         estimate D2E/DX2                !
 ! A57   A(15,14,21)           112.5153         estimate D2E/DX2                !
 ! A58   A(15,14,35)           107.0146         estimate D2E/DX2                !
 ! A59   A(21,14,35)           111.5247         estimate D2E/DX2                !
 ! A60   A(14,15,16)           111.4004         estimate D2E/DX2                !
 ! A61   A(14,15,20)           107.37           estimate D2E/DX2                !
 ! A62   A(14,15,36)           109.9006         estimate D2E/DX2                !
 ! A63   A(16,15,20)           104.6755         estimate D2E/DX2                !
 ! A64   A(16,15,36)           110.7453         estimate D2E/DX2                !
 ! A65   A(20,15,36)           112.6249         estimate D2E/DX2                !
 ! A66   A(15,16,17)           114.633          estimate D2E/DX2                !
 ! A67   A(12,17,16)           111.5462         estimate D2E/DX2                !
 ! A68   A(12,17,18)           112.7641         estimate D2E/DX2                !
 ! A69   A(12,17,37)           108.5193         estimate D2E/DX2                !
 ! A70   A(16,17,18)           102.2431         estimate D2E/DX2                !
 ! A71   A(16,17,37)           112.2167         estimate D2E/DX2                !
 ! A72   A(18,17,37)           109.4985         estimate D2E/DX2                !
 ! A73   A(17,18,19)           109.2644         estimate D2E/DX2                !
 ! A74   A(17,18,38)           109.4619         estimate D2E/DX2                !
 ! A75   A(17,18,39)           110.4239         estimate D2E/DX2                !
 ! A76   A(19,18,38)           106.699          estimate D2E/DX2                !
 ! A77   A(19,18,39)           111.972          estimate D2E/DX2                !
 ! A78   A(38,18,39)           108.9271         estimate D2E/DX2                !
 ! A79   A(18,19,40)           105.7736         estimate D2E/DX2                !
 ! A80   A(15,20,44)           112.3618         estimate D2E/DX2                !
 ! A81   A(6,21,14)            132.9251         estimate D2E/DX2                !
 ! A82   A(13,22,41)            96.7725         estimate D2E/DX2                !
 ! A83   A(5,23,43)            104.1217         estimate D2E/DX2                !
 ! D1    D(45,1,2,3)           -68.6105         estimate D2E/DX2                !
 ! D2    D(45,1,2,8)           174.8559         estimate D2E/DX2                !
 ! D3    D(45,1,2,24)           54.3547         estimate D2E/DX2                !
 ! D4    D(1,2,3,4)             62.2123         estimate D2E/DX2                !
 ! D5    D(1,2,3,5)            -59.3488         estimate D2E/DX2                !
 ! D6    D(1,2,3,25)          -177.2527         estimate D2E/DX2                !
 ! D7    D(8,2,3,4)            179.1698         estimate D2E/DX2                !
 ! D8    D(8,2,3,5)             57.6087         estimate D2E/DX2                !
 ! D9    D(8,2,3,25)           -60.2952         estimate D2E/DX2                !
 ! D10   D(24,2,3,4)           -60.458          estimate D2E/DX2                !
 ! D11   D(24,2,3,5)           177.9809         estimate D2E/DX2                !
 ! D12   D(24,2,3,25)           60.077          estimate D2E/DX2                !
 ! D13   D(1,2,8,7)             52.0281         estimate D2E/DX2                !
 ! D14   D(1,2,8,9)            -66.7778         estimate D2E/DX2                !
 ! D15   D(1,2,8,29)           172.8338         estimate D2E/DX2                !
 ! D16   D(3,2,8,7)            -66.9606         estimate D2E/DX2                !
 ! D17   D(3,2,8,9)            174.2334         estimate D2E/DX2                !
 ! D18   D(3,2,8,29)            53.8451         estimate D2E/DX2                !
 ! D19   D(24,2,8,7)           172.4366         estimate D2E/DX2                !
 ! D20   D(24,2,8,9)            53.6307         estimate D2E/DX2                !
 ! D21   D(24,2,8,29)          -66.7577         estimate D2E/DX2                !
 ! D22   D(2,3,4,26)          -174.594          estimate D2E/DX2                !
 ! D23   D(5,3,4,26)           -53.8552         estimate D2E/DX2                !
 ! D24   D(25,3,4,26)           66.3585         estimate D2E/DX2                !
 ! D25   D(2,3,5,6)            -47.7909         estimate D2E/DX2                !
 ! D26   D(2,3,5,23)          -170.2783         estimate D2E/DX2                !
 ! D27   D(2,3,5,27)            71.4259         estimate D2E/DX2                !
 ! D28   D(4,3,5,6)           -168.6242         estimate D2E/DX2                !
 ! D29   D(4,3,5,23)            68.8883         estimate D2E/DX2                !
 ! D30   D(4,3,5,27)           -49.4074         estimate D2E/DX2                !
 ! D31   D(25,3,5,6)            69.9127         estimate D2E/DX2                !
 ! D32   D(25,3,5,23)          -52.5747         estimate D2E/DX2                !
 ! D33   D(25,3,5,27)         -170.8705         estimate D2E/DX2                !
 ! D34   D(3,5,6,7)             44.642          estimate D2E/DX2                !
 ! D35   D(3,5,6,21)          -168.8897         estimate D2E/DX2                !
 ! D36   D(3,5,6,28)           -77.0912         estimate D2E/DX2                !
 ! D37   D(23,5,6,7)           164.3601         estimate D2E/DX2                !
 ! D38   D(23,5,6,21)          -49.1716         estimate D2E/DX2                !
 ! D39   D(23,5,6,28)           42.6269         estimate D2E/DX2                !
 ! D40   D(27,5,6,7)           -73.4496         estimate D2E/DX2                !
 ! D41   D(27,5,6,21)           73.0187         estimate D2E/DX2                !
 ! D42   D(27,5,6,28)          164.8171         estimate D2E/DX2                !
 ! D43   D(3,5,23,43)         -158.8029         estimate D2E/DX2                !
 ! D44   D(6,5,23,43)           77.7696         estimate D2E/DX2                !
 ! D45   D(27,5,23,43)         -43.1962         estimate D2E/DX2                !
 ! D46   D(5,6,7,8)            -52.1652         estimate D2E/DX2                !
 ! D47   D(21,6,7,8)           158.9689         estimate D2E/DX2                !
 ! D48   D(28,6,7,8)            68.4374         estimate D2E/DX2                !
 ! D49   D(5,6,21,14)         -106.3124         estimate D2E/DX2                !
 ! D50   D(7,6,21,14)           39.5322         estimate D2E/DX2                !
 ! D51   D(28,6,21,14)         147.6809         estimate D2E/DX2                !
 ! D52   D(6,7,8,2)             64.4501         estimate D2E/DX2                !
 ! D53   D(6,7,8,9)           -173.79           estimate D2E/DX2                !
 ! D54   D(6,7,8,29)           -55.3642         estimate D2E/DX2                !
 ! D55   D(2,8,9,10)           -54.6548         estimate D2E/DX2                !
 ! D56   D(2,8,9,30)            66.0306         estimate D2E/DX2                !
 ! D57   D(2,8,9,31)          -176.3256         estimate D2E/DX2                !
 ! D58   D(7,8,9,10)          -175.4609         estimate D2E/DX2                !
 ! D59   D(7,8,9,30)           -54.7754         estimate D2E/DX2                !
 ! D60   D(7,8,9,31)            62.8684         estimate D2E/DX2                !
 ! D61   D(29,8,9,10)           65.4058         estimate D2E/DX2                !
 ! D62   D(29,8,9,30)         -173.9087         estimate D2E/DX2                !
 ! D63   D(29,8,9,31)          -56.2649         estimate D2E/DX2                !
 ! D64   D(8,9,10,32)         -163.2281         estimate D2E/DX2                !
 ! D65   D(30,9,10,32)          78.1899         estimate D2E/DX2                !
 ! D66   D(31,9,10,32)         -44.2611         estimate D2E/DX2                !
 ! D67   D(42,11,12,13)        128.7792         estimate D2E/DX2                !
 ! D68   D(42,11,12,17)       -107.9601         estimate D2E/DX2                !
 ! D69   D(42,11,12,33)          7.8221         estimate D2E/DX2                !
 ! D70   D(11,12,13,14)        176.3672         estimate D2E/DX2                !
 ! D71   D(11,12,13,22)        -65.2898         estimate D2E/DX2                !
 ! D72   D(11,12,13,34)         57.5157         estimate D2E/DX2                !
 ! D73   D(17,12,13,14)         54.3151         estimate D2E/DX2                !
 ! D74   D(17,12,13,22)        172.6581         estimate D2E/DX2                !
 ! D75   D(17,12,13,34)        -64.5364         estimate D2E/DX2                !
 ! D76   D(33,12,13,14)        -61.7185         estimate D2E/DX2                !
 ! D77   D(33,12,13,22)         56.6246         estimate D2E/DX2                !
 ! D78   D(33,12,13,34)        179.43           estimate D2E/DX2                !
 ! D79   D(11,12,17,16)        174.5018         estimate D2E/DX2                !
 ! D80   D(11,12,17,18)         60.1124         estimate D2E/DX2                !
 ! D81   D(11,12,17,37)        -61.3747         estimate D2E/DX2                !
 ! D82   D(13,12,17,16)        -56.8176         estimate D2E/DX2                !
 ! D83   D(13,12,17,18)       -171.207          estimate D2E/DX2                !
 ! D84   D(13,12,17,37)         67.3058         estimate D2E/DX2                !
 ! D85   D(33,12,17,16)         58.3602         estimate D2E/DX2                !
 ! D86   D(33,12,17,18)        -56.0292         estimate D2E/DX2                !
 ! D87   D(33,12,17,37)       -177.5164         estimate D2E/DX2                !
 ! D88   D(12,13,14,15)        -53.4684         estimate D2E/DX2                !
 ! D89   D(12,13,14,21)       -176.442          estimate D2E/DX2                !
 ! D90   D(12,13,14,35)         63.8637         estimate D2E/DX2                !
 ! D91   D(22,13,14,15)       -172.7241         estimate D2E/DX2                !
 ! D92   D(22,13,14,21)         64.3023         estimate D2E/DX2                !
 ! D93   D(22,13,14,35)        -55.392          estimate D2E/DX2                !
 ! D94   D(34,13,14,15)         65.6465         estimate D2E/DX2                !
 ! D95   D(34,13,14,21)        -57.3271         estimate D2E/DX2                !
 ! D96   D(34,13,14,35)       -177.0214         estimate D2E/DX2                !
 ! D97   D(12,13,22,41)         86.6908         estimate D2E/DX2                !
 ! D98   D(14,13,22,41)       -154.5116         estimate D2E/DX2                !
 ! D99   D(34,13,22,41)        -34.6603         estimate D2E/DX2                !
 ! D100  D(13,14,15,16)         53.3039         estimate D2E/DX2                !
 ! D101  D(13,14,15,20)        167.3642         estimate D2E/DX2                !
 ! D102  D(13,14,15,36)        -69.8218         estimate D2E/DX2                !
 ! D103  D(21,14,15,16)        172.5979         estimate D2E/DX2                !
 ! D104  D(21,14,15,20)        -73.3418         estimate D2E/DX2                !
 ! D105  D(21,14,15,36)         49.4723         estimate D2E/DX2                !
 ! D106  D(35,14,15,16)        -64.5683         estimate D2E/DX2                !
 ! D107  D(35,14,15,20)         49.492          estimate D2E/DX2                !
 ! D108  D(35,14,15,36)        172.306          estimate D2E/DX2                !
 ! D109  D(13,14,21,6)         -18.8611         estimate D2E/DX2                !
 ! D110  D(15,14,21,6)        -141.2868         estimate D2E/DX2                !
 ! D111  D(35,14,21,6)          98.4483         estimate D2E/DX2                !
 ! D112  D(14,15,16,17)        -56.1032         estimate D2E/DX2                !
 ! D113  D(20,15,16,17)       -171.8311         estimate D2E/DX2                !
 ! D114  D(36,15,16,17)         66.5386         estimate D2E/DX2                !
 ! D115  D(14,15,20,44)        165.2959         estimate D2E/DX2                !
 ! D116  D(16,15,20,44)        -76.2059         estimate D2E/DX2                !
 ! D117  D(36,15,20,44)         44.1809         estimate D2E/DX2                !
 ! D118  D(15,16,17,12)         58.562          estimate D2E/DX2                !
 ! D119  D(15,16,17,18)        179.317          estimate D2E/DX2                !
 ! D120  D(15,16,17,37)        -63.4528         estimate D2E/DX2                !
 ! D121  D(12,17,18,19)         61.6671         estimate D2E/DX2                !
 ! D122  D(12,17,18,38)        178.1759         estimate D2E/DX2                !
 ! D123  D(12,17,18,39)        -61.9111         estimate D2E/DX2                !
 ! D124  D(16,17,18,19)        -58.2403         estimate D2E/DX2                !
 ! D125  D(16,17,18,38)         58.2685         estimate D2E/DX2                !
 ! D126  D(16,17,18,39)        178.1815         estimate D2E/DX2                !
 ! D127  D(37,17,18,19)       -177.4025         estimate D2E/DX2                !
 ! D128  D(37,17,18,38)        -60.8937         estimate D2E/DX2                !
 ! D129  D(37,17,18,39)         59.0192         estimate D2E/DX2                !
 ! D130  D(17,18,19,40)        -80.5544         estimate D2E/DX2                !
 ! D131  D(38,18,19,40)        161.1949         estimate D2E/DX2                !
 ! D132  D(39,18,19,40)         42.1034         estimate D2E/DX2                !
 --------------------------------------------------------------------------------
 Trust Radius=3.00D-01 FncErr=1.00D-07 GrdErr=1.00D-07 EigMax=2.50D+02 EigMin=1.00D-04
 Number of steps in this run=    270 maximum allowed number of steps=    270.
 GradGradGradGradGradGradGradGradGradGradGradGradGradGradGradGradGradGrad

 Leave Link  103 at Tue Jun 22 14:18:51 2021, MaxMem=  2147483648 cpu:               0.1 elap:               0.0
 (Enter /home/matma/Programs/gaussian/G16_x86_SSE4/tar/g16/l202.exe)
                          Input orientation:                          
 ---------------------------------------------------------------------
 Center     Atomic      Atomic             Coordinates (Angstroms)
 Number     Number       Type             X           Y           Z
 ---------------------------------------------------------------------
      1          8           0        2.661000    2.109000   -0.056000
      2          6           0        2.764000    2.782000    1.222000
      3          6           0        2.872000    1.758000    2.371000
      4          8           0        4.068000    0.978000    2.209000
      5          6           0        1.619000    0.848000    2.368000
      6          6           0        0.271000    1.661000    2.255000
      7          8           0        0.310000    2.703000    1.263000
      8          6           0        1.452000    3.570000    1.443000
      9          6           0        1.301000    4.725000    0.434000
     10          8           0        2.491000    5.522000    0.544000
     11          8           0       -3.054000    1.850000   -1.979000
     12          6           0       -3.035000    1.149000   -0.711000
     13          6           0       -1.868000    1.445000    0.272000
     14          6           0       -2.104000    0.659000    1.585000
     15          6           0       -3.509000    0.944000    2.178000
     16          8           0       -4.540000    0.717000    1.211000
     17          6           0       -4.395000    1.463000   -0.002000
     18          6           0       -5.611000    0.999000   -0.817000
     19          8           0       -5.554000   -0.439000   -0.984000
     20          8           0       -3.745000   -0.019000    3.186000
     21          8           0       -1.048000    1.038000    2.472000
     22          8           0       -0.630000    1.002000   -0.300000
     23          8           0        1.668000    0.084000    3.580000
     24          1           0        3.630000    3.467000    1.225000
     25          1           0        2.898000    2.316000    3.329000
     26          1           0        4.006000    0.293000    2.935000
     27          1           0        1.708000    0.189000    1.487000
     28          1           0        0.056000    2.101000    3.254000
     29          1           0        1.459000    3.985000    2.471000
     30          1           0        1.184000    4.296000   -0.580000
     31          1           0        0.384000    5.290000    0.681000
     32          1           0        2.266000    6.390000    0.110000
     33          1           0       -3.004000    0.064000   -0.915000
     34          1           0       -1.849000    2.530000    0.502000
     35          1           0       -2.066000   -0.424000    1.346000
     36          1           0       -3.553000    1.988000    2.564000
     37          1           0       -4.459000    2.555000    0.168000
     38          1           0       -6.533000    1.216000   -0.256000
     39          1           0       -5.649000    1.525000   -1.784000
     40          1           0       -4.915000   -0.600000   -1.734000
     41          1           0       -0.450000    1.756000   -0.761000
     42          1           0       -3.179000    1.109000   -2.852000
     43          1           0        1.086000   -0.708000    3.393000
     44          1           0       -4.484000    0.218000    3.752000
     45          1           0        3.470000    1.657000   -0.308000
 ---------------------------------------------------------------------
                    Distance matrix (angstroms):
                    1          2          3          4          5
     1  O    0.000000
     2  C    1.448041   0.000000
     3  C    2.461311   1.542868   0.000000
     4  O    2.896383   2.434954   1.437032   0.000000
     5  C    2.924322   2.522835   1.548586   2.457597   0.000000
     6  C    3.354627   2.922119   2.605392   3.858214   1.578240
     7  O    2.760398   2.455614   2.946953   4.241828   2.524981
     8  C    2.417272   1.546328   2.482122   3.761473   2.879722
     9  C    2.988839   2.556670   3.875964   4.984669   4.344262
    10  O    3.469506   2.835809   4.201284   5.089901   5.092508
    11  O    6.035415   6.705531   7.351764   8.307985   6.460444
    12  C    5.813350   6.327051   6.690460   7.681683   5.588431
    13  C    4.589153   4.913806   5.193397   6.261482   4.112030
    14  C    5.244102   5.323187   5.156178   6.211660   3.809139
    15  C    6.664599   6.606263   6.435605   7.577140   5.132417
    16  O    7.442940   7.590307   7.574102   8.669590   6.268101
    17  C    7.085716   7.381681   7.650323   8.760486   6.493329
    18  C    8.380764   8.802115   9.093993  10.141014   7.901894
    19  O    8.650995   9.188602   9.331683  10.236504   8.021484
    20  O    7.488377   7.353229   6.899757   7.936719   5.494844
    21  O    4.614597   4.374401   3.986854   5.123107   2.675781
    22  O    3.480757   4.123605   4.468756   5.326055   3.492841
    23  O    4.278688   3.747077   2.390308   2.904975   1.433541
    24  H    2.103351   1.104169   2.192843   2.712051   3.494243
    25  H    3.399595   2.162073   1.108965   2.100844   2.171264
    26  H    3.748728   3.266811   1.936563   1.000072   2.515409
    27  H    2.641109   2.812296   2.144321   2.591024   1.103795
    28  H    4.212148   3.453411   2.971059   4.295265   2.190428
    29  H    3.368963   2.170308   2.639337   3.989683   3.142766
    30  H    2.690553   2.834749   4.242545   5.206256   4.557262
    31  H    3.980786   3.499592   4.639102   5.873669   4.909436
    32  H    4.302388   3.808177   5.189873   6.078055   6.019214
    33  H    6.083760   6.724888   6.942248   7.785111   5.724061
    34  H    4.563848   4.675647   5.135853   6.350862   4.282301
    35  H    5.543124   5.798509   5.495052   6.351089   4.030098
    36  H    6.744838   6.506603   6.432012   7.695828   5.299774
    37  H    7.137471   7.303025   7.696231   8.908554   6.685502
    38  H    9.239431   9.543115   9.780026  10.886417   8.571809
    39  H    8.507828   9.021899   9.482919  10.519665   8.397694
    40  H    8.218889   8.896230   9.113098   9.936379   7.849603
    41  H    3.209354   3.913408   4.565645   5.462464   3.859516
    42  H    6.551581   7.397003   8.019696   8.840243   7.094880
    43  H    4.723528   4.439485   3.211765   3.624469   1.938002
    44  H    8.314311   8.093732   7.641302   8.723254   6.289592
    45  H    0.960359   2.026070   2.746788   2.674684   3.352858
                    6          7          8          9         10
     6  C    0.000000
     7  O    1.439218   0.000000
     8  C    2.387129   1.445079   0.000000
     9  C    3.710126   2.399543   1.541073   0.000000
    10  O    4.771084   3.635998   2.387054   1.436457   0.000000
    11  O    5.386845   4.749176   5.913757   5.749280   7.113096
    12  C    4.470899   4.183374   5.534810   5.735826   7.157851
    13  C    2.924768   2.703392   4.112088   4.563683   5.974679
    14  C    2.663368   3.179468   4.597741   5.426894   6.771003
    15  C    3.848171   4.303030   5.661062   6.361886   7.721919
    16  O    5.012663   5.241126   6.640595   7.126365   8.542124
    17  C    5.186985   5.027410   6.380821   6.578386   8.011903
    18  C    6.668834   6.502942   7.848797   7.951341   9.378286
    19  O    6.987972   7.021942   8.428905   8.698773  10.128688
    20  O    4.451676   5.248832   6.551929   7.452594   8.750459
    21  O    1.474781   2.465374   3.704034   4.823403   6.028927
    22  O    2.788209   2.493987   3.737298   4.257728   5.557281
    23  O    2.488808   3.751242   4.094584   5.618798   6.282234
    24  H    3.950369   3.406984   2.191305   2.762695   2.446243
    25  H    2.912667   3.334047   2.687085   4.090809   4.266182
    26  H    4.035350   4.718485   4.414489   5.763215   5.945969
    27  H    2.195809   2.885269   3.390963   4.674372   5.472040
    28  H    1.112576   2.095472   2.717811   4.048185   4.997656
    29  H    2.618965   2.103090   1.108629   2.173001   2.672213
    30  H    3.976684   2.588083   2.165971   1.107215   2.115349
    31  H    3.957257   2.652691   2.163254   1.105044   2.124157
    32  H    5.562777   4.330048   3.223645   1.951519   0.996195
    33  H    4.829589   4.763465   6.140695   6.486736   7.881210
    34  H    2.884886   2.295720   3.586598   3.839941   5.271568
    35  H    3.261146   3.928154   5.323323   6.219376   7.534213
    36  H    3.850375   4.138429   5.367438   5.965684   7.286940
    37  H    5.246685   4.895333   6.131539   6.160946   7.566172
    38  H    7.266193   7.165555   8.496361   8.611663  10.030664
    39  H    7.167874   6.795703   8.063483   7.966306   9.362435
    40  H    6.922343   6.869676   8.247479   8.467261   9.875070
    41  H    3.102438   2.360293   3.430134   3.648148   4.953308
    42  H    6.187783   5.625583   6.778621   6.629001   7.947093
    43  H    2.751623   4.095607   4.715691   6.190266   6.993120
    44  H    5.189729   5.945821   7.197464   8.049124   9.331361
    45  H    4.099096   3.680728   3.286015   3.829850   4.077079
                   11         12         13         14         15
    11  O    0.000000
    12  C    1.448995   0.000000
    13  C    2.576358   1.554282   0.000000
    14  C    3.875961   2.525565   1.548374   0.000000
    15  C    4.278844   2.934795   2.564511   1.551418   0.000000
    16  O    3.697024   2.479059   2.924259   2.465225   1.431635
    17  C    2.420037   1.565528   2.541875   2.900632   2.409721
    18  C    2.934739   2.582540   3.923632   4.264300   3.659434
    19  O    3.532640   2.990257   4.325920   4.439354   4.011603
    20  O    5.536052   4.129762   3.762688   2.390767   1.413906
    21  O    4.949220   3.753928   2.382866   1.430226   2.480281
    22  O    3.068211   2.444290   1.433903   2.417344   3.799012
    23  O    7.504567   6.454852   5.029760   4.305651   5.431992
    24  H    7.586578   7.317339   5.935040   6.394781   7.631452
    25  H    7.988637   7.272137   5.728756   5.550422   6.652581
    26  H    8.741581   7.975069   6.551530   6.268058   7.581034
    27  H    6.119536   5.314965   3.980143   3.842115   5.316446
    28  H    6.092568   5.116816   3.608938   3.087155   3.899442
    29  H    6.687892   6.193872   4.728227   4.954013   5.832200
    30  H    5.089279   5.265048   4.262489   5.359658   6.392708
    31  H    5.543378   5.547532   4.474685   5.334184   6.023635
    32  H    7.299173   7.499515   6.447420   7.356418   8.202814
    33  H    2.079517   1.104446   2.146305   2.722871   3.255161
    34  H    2.840737   2.187493   1.109273   2.176822   2.842529
    35  H    4.147631   2.764876   2.164680   1.109709   2.155434
    36  H    4.572406   3.420215   2.896090   2.196425   1.113943
    37  H    2.660951   2.185693   2.820673   3.338971   2.745527
    38  H    3.933717   3.528104   4.700367   4.828620   3.891390
    39  H    2.622532   2.850562   4.304590   4.966603   4.540331
    40  H    3.086397   2.764042   4.182137   4.527976   4.434469
    41  H    2.876313   2.655781   1.781722   3.072921   4.319091
    42  H    1.151883   2.146210   3.404555   4.587493   5.043513
    43  H    7.248541   6.105236   4.806471   3.913266   5.031834
    44  H    6.128025   4.783799   4.523205   3.248811   1.988763
    45  H    6.737363   6.537239   5.373601   5.970672   7.442782
                   16         17         18         19         20
    16  O    0.000000
    17  C    1.431401   0.000000
    18  C    2.310703   1.535636   0.000000
    19  O    2.680029   2.434175   1.448786   0.000000
    20  O    2.252631   3.575216   4.532360   4.564842   0.000000
    21  O    3.726557   4.183744   5.624945   5.867666   2.983430
    22  O    4.201481   3.804806   5.007760   5.175917   4.785171
    23  O    6.674737   7.175816   8.553051   8.559259   5.428298
    24  H    8.620417   8.361948   9.780433  10.221662   8.389776
    25  H    7.897251   8.062941   9.556510   9.880703   7.042877
    26  H    8.728463   8.976172  10.347107  10.357991   7.761337
    27  H    6.276342   6.409899   7.715716   7.696549   5.715337
    28  H    5.216562   5.551575   7.064158   7.475583   4.352772
    29  H    6.946612   6.837070   8.349374   8.982815   6.604912
    30  H    6.984347   6.283726   7.556349   8.245246   7.556257
    31  H    6.740846   6.160459   7.523078   8.417453   7.176987
    32  H    8.928425   8.285940   9.590065  10.439563   9.309628
    33  H    2.702884   2.173856   2.771331   2.600052   4.168234
    34  H    3.321315   2.806176   4.270406   4.974955   4.158855
    35  H    2.727780   3.286657   4.389820   4.194672   2.523622
    36  H    2.102432   2.751172   4.079785   4.741586   2.109928
    37  H    2.114865   1.107005   2.172203   3.389715   4.030334
    38  H    2.524508   2.167157   1.100861   2.056076   4.598427
    39  H    3.294354   2.179882   1.101458   2.122810   5.541665
    40  H    3.247790   2.743391   1.970306   0.998370   5.090468
    41  H    4.657940   4.028021   5.216522   5.560447   5.439344
    42  H    4.302784   3.118729   3.173003   3.395048   6.168483
    43  H    6.200292   6.802987   8.092451   7.957392   4.884274
    44  H    2.590139   3.956066   4.770309   4.899617   0.960545
    45  H    8.206769   7.873341   9.119024   9.288852   8.189825
                   21         22         23         24         25
    21  O    0.000000
    22  O    2.803570   0.000000
    23  O    3.084548   4.601948   0.000000
    24  H    5.416524   5.152616   4.565102   0.000000
    25  H    4.235404   5.229055   2.560806   2.507477   0.000000
    26  H    5.129553   5.697403   2.434327   3.624880   2.339963
    27  H    3.047386   3.052963   2.096014   3.808938   3.055027
    28  H    1.720555   3.782765   2.602520   4.330851   2.851108
    29  H    3.869090   4.576096   4.060956   2.556185   2.364835
    30  H    4.991101   3.770866   5.939764   3.150902   4.705154
    31  H    4.830922   4.514145   6.095514   3.762417   4.709222
    32  H    6.723507   6.130698   7.222475   3.412865   5.230570
    33  H    4.030680   2.625632   6.483287   7.756930   7.610299
    34  H    2.597800   2.112806   5.275063   5.605367   5.529171
    35  H    2.107521   2.608618   4.380819   6.899198   6.006762
    36  H    2.680670   4.209349   5.649452   7.454921   6.504476
    37  H    4.386870   4.158374   7.435571   8.208588   8.010898
    38  H    6.128531   5.907042   9.124293  10.514130  10.149186
    39  H    6.286486   5.259862   9.186265   9.946119   9.990979
    40  H    5.943666   4.794162   8.487776   9.915301   9.756023
    41  H    3.365326   0.901907   5.111339   4.849548   5.315149
    42  H    5.735083   3.608539   8.118784   8.279165   8.751659
    43  H    2.907011   4.416674   1.000478   5.348157   3.525906
    44  H    3.757246   5.646829   6.155863   9.098281   7.685991
    45  H    5.340776   4.151998   4.564874   2.377349   3.740218
                   26         27         28         29         30
    26  H    0.000000
    27  H    2.718147   0.000000
    28  H    4.355815   3.083365   0.000000
    29  H    4.509254   3.929360   2.476076   0.000000
    30  H    6.028509   4.627582   4.559601   3.079115   0.000000
    31  H    6.570343   5.331305   4.110673   2.462265   1.793922
    32  H    6.941299   6.376511   5.758850   3.465486   2.455944
    33  H    8.000940   5.290385   5.558195   6.837953   5.963337
    34  H    6.723443   4.370670   3.374399   4.115440   3.672679
    35  H    6.317293   3.826059   3.810377   5.755913   6.045691
    36  H    7.755588   5.663431   3.676105   5.395999   6.136022
    37  H    9.188534   6.735696   5.487690   6.509334   5.952649
    38  H   11.050110   8.485686   7.517862   8.886842   8.315255
    39  H   10.816922   8.161482   7.632840   8.641776   7.471141
    40  H   10.108474   7.406854   7.542306   8.906858   7.905715
    41  H    5.971325   3.487973   4.061439   4.365609   3.025610
    42  H    9.261720   6.599704   6.980868   7.623434   5.861290
    43  H    3.120603   2.196436   2.995113   4.797235   6.390176
    44  H    8.529549   6.593325   4.940171   7.151958   8.217210
    45  H    3.558770   2.912335   4.953824   4.145666   3.502014
                   31         32         33         34         35
    31  H    0.000000
    32  H    2.253434   0.000000
    33  H    6.429373   8.297096   0.000000
    34  H    3.554705   5.655660   3.069702   0.000000
    35  H    6.252561   8.168508   2.496019   3.079861   0.000000
    36  H    5.472555   7.698083   4.013305   2.729327   3.084224
    37  H    5.585521   7.741848   3.081395   2.631403   3.998571
    38  H    8.082100  10.214041   3.770308   4.923517   5.020965
    39  H    7.526522   9.481703   3.144154   4.547067   5.141341
    40  H    8.282737  10.189563   2.182562   4.919040   4.199307
    41  H    3.906927   5.441439   3.067490   2.037510   3.435594
    42  H    6.531295   8.143122   2.207854   3.877816   4.605655
    43  H    6.619951   7.908988   5.990238   5.239919   3.769081
    44  H    7.671613   9.844808   4.898470   4.780279   3.470983
    45  H    4.868286   4.901595   6.694683   5.450687   6.141138
                   36         37         38         39         40
    36  H    0.000000
    37  H    2.623574   0.000000
    38  H    4.174780   2.504830   0.000000
    39  H    4.848988   2.507450   1.792128   0.000000
    40  H    5.198614   3.712084   2.846096   2.248751   0.000000
    41  H    4.553906   4.192079   6.127766   5.303724   5.141370
    42  H    5.499598   3.584650   4.242638   2.722973   2.680355
    43  H    5.429178   7.196862   8.664072   8.783384   7.893655
    44  H    2.326157   4.278697   4.610691   5.806270   5.563370
    45  H    7.594766   7.993874  10.012851   9.238623   8.799759
                   41         42         43         44         45
    41  H    0.000000
    42  H    3.498333   0.000000
    43  H    5.068166   7.777644   0.000000
    44  H    6.245460   6.790414   5.657849   0.000000
    45  H    3.947329   7.140129   4.997408   9.045465   0.000000
 Stoichiometry    C12H22O11
 Framework group  C1[X(C12H22O11)]
 Deg. of freedom   129
 Full point group                 C1      NOp   1
 Largest Abelian subgroup         C1      NOp   1
 Largest concise Abelian subgroup C1      NOp   1
                         Standard orientation:                         
 ---------------------------------------------------------------------
 Center     Atomic      Atomic             Coordinates (Angstroms)
 Number     Number       Type             X           Y           Z
 ---------------------------------------------------------------------
      1          8           0        3.137412   -1.081530    1.429458
      2          6           0        3.667159   -0.548666    0.191618
      3          6           0        3.746252    0.991076    0.249766
      4          8           0        4.646708    1.386995    1.297376
      5          6           0        2.330902    1.569577    0.495200
      6          6           0        1.238634    0.942032   -0.455579
      7          8           0        1.335300   -0.488896   -0.575779
      8          6           0        2.671152   -0.906088   -0.935923
      9          6           0        2.613241   -2.425246   -1.188332
     10          8           0        3.962421   -2.849554   -1.439500
     11          8           0       -2.726318   -2.425569    0.943178
     12          6           0       -2.625319   -1.006603    0.667643
     13          6           0       -1.245361   -0.442348    0.228181
     14          6           0       -1.397719    1.063743   -0.097304
     15          6           0       -2.532451    1.315266   -1.124931
     16          8           0       -3.763095    0.719498   -0.700484
     17          6           0       -3.686369   -0.685494   -0.437771
     18          6           0       -5.120642   -1.013321    0.002190
     19          8           0       -5.464466   -0.203412    1.153196
     20          8           0       -2.792134    2.705081   -1.135273
     21          8           0       -0.121436    1.500069   -0.572982
     22          8           0       -0.304155   -0.576624    1.301576
     23          8           0        2.432851    2.987329    0.309122
     24          1           0        4.659725   -0.984284   -0.018711
     25          1           0        4.108460    1.355203   -0.733097
     26          1           0        4.563939    2.383404    1.318919
     27          1           0        2.067702    1.330713    1.540204
     28          1           0        1.351561    1.411860   -1.457744
     29          1           0        2.993617   -0.395913   -1.865866
     30          1           0        2.186102   -2.916702   -0.292816
     31          1           0        1.939687   -2.614094   -2.043777
     32          1           0        3.880000   -3.746125   -1.865847
     33          1           0       -2.912100   -0.454822    1.580384
     34          1           0       -0.905969   -0.973930   -0.684354
     35          1           0       -1.684558    1.587721    0.837909
     36          1           0       -2.230976    0.928197   -2.125010
     37          1           0       -3.435998   -1.267946   -1.345254
     38          1           0       -5.822442   -0.737335   -0.799809
     39          1           0       -5.222068   -2.090074    0.210820
     40          1           0       -5.054879   -0.661936    1.939794
     41          1           0       -0.037994   -1.415715    1.105309
     42          1           0       -3.210942   -2.606966    1.972289
     43          1           0        1.644010    3.355581    0.802150
     44          1           0       -3.314823    2.973541   -1.895123
     45          1           0        3.736383   -0.971042    2.171964
 ---------------------------------------------------------------------
 Rotational constants (GHZ):           0.4304129           0.1388012           0.1199151
 Leave Link  202 at Tue Jun 22 14:18:51 2021, MaxMem=  2147483648 cpu:               0.0 elap:               0.0
 (Enter /home/matma/Programs/gaussian/G16_x86_SSE4/tar/g16/l301.exe)
 Standard basis: VSTO-6G (5D, 7F)
 Ernie: Thresh=  0.10000D-02 Tol=  0.10000D-05 Strict=F.
  NNHCO=     0 NNPyr=     0 NCTC=     0               EPep=         0.000000000
    EC=      1158.400703650  ECS=         8.976774926   EG=         0.742031132
   EHC=         0.003246005  EAt=      -175.965002454  AtH=         6.138669069
 EPDDG=         0.000000000  ECC=      1168.122755713 EAtT=       182.103671523
 There are   114 symmetry adapted cartesian basis functions of A   symmetry.
 There are   114 symmetry adapted basis functions of A   symmetry.
   114 basis functions,   684 primitive gaussians,   114 cartesian basis functions
    68 alpha electrons       68 beta electrons
       nuclear repulsion energy      1350.2264272362 Hartrees.
 IExCor=    0 DFT=F Ex=HF Corr=None ExCW=0 ScaHFX=  1.000000
 ScaDFX=  1.000000  1.000000  1.000000  1.000000 ScalE2=  1.000000  1.000000
 IRadAn=  99590 IRanWt=     -1 IRanGd=            0 ICorTp=0 IEmpDi=  4
 Integral buffers will be    131072 words long.
 Regular integral format.
 Two-electron integral symmetry is turned off.
 Leave Link  301 at Tue Jun 22 14:18:51 2021, MaxMem=  2147483648 cpu:               0.2 elap:               0.0
 (Enter /home/matma/Programs/gaussian/G16_x86_SSE4/tar/g16/l302.exe)
 Do NDO integrals.
 NPDir=0 NMtPBC=     1 NCelOv=     1 NCel=       1 NClECP=     1 NCelD=      1
         NCelK=      1 NCelE2=     1 NClLst=     1 CellRange=     0.0.
 One-electron integrals computed using PRISM.
 NBasis=   114 RedAO= F EigKep=  0.00D+00  NBF=   114
 NBsUse=   114 1.00D-04 EigRej=  0.00D+00 NBFU=   114
 Leave Link  302 at Tue Jun 22 14:18:51 2021, MaxMem=  2147483648 cpu:               0.6 elap:               0.0
 (Enter /home/matma/Programs/gaussian/G16_x86_SSE4/tar/g16/l303.exe)
 DipDrv:  MaxL=1.
 Leave Link  303 at Tue Jun 22 14:18:51 2021, MaxMem=  2147483648 cpu:               0.1 elap:               0.0
 (Enter /home/matma/Programs/gaussian/G16_x86_SSE4/tar/g16/l401.exe)
 Simple Huckel Guess.
 JPrj=0 DoOrth=F DoCkMO=F.
 Leave Link  401 at Tue Jun 22 14:18:51 2021, MaxMem=  2147483648 cpu:               0.2 elap:               0.0
 (Enter /home/matma/Programs/gaussian/G16_x86_SSE4/tar/g16/l502.exe)
 Keep J ints in memory in canonical form, NReq=892272.
 FoFCou: FMM=F IPFlag=           0 FMFlag=           0 FMFlg1=           0
         NFxFlg=           0 DoJE=F BraDBF=F KetDBF=F FulRan=T
         wScrn=  0.000000 ICntrl=       600 IOpCl=  2 I1Cent=           0 NGrid=           0
         NMat0=    1 NMatS0=    252 NMatT0=    0 NMatD0=    1 NMtDS0=    0 NMtDT0=    0
 Symmetry not used in FoFCou.
 Two-electron integral symmetry not used.
 Closed shell SCF:
 Using DIIS extrapolation, IDIIS=  1040.
 Overlap will be assumed to be unity.
 NGot=  2147483648 LenX=  2147363403 LenY=  2147349966
 Requested convergence on RMS density matrix=1.00D-08 within 128 cycles.
 Requested convergence on MAX density matrix=1.00D-06.
 Requested convergence on             energy=1.00D-06.
 No special actions if energy rises.

 Cycle   1  Pass 1  IDiag  1:
 E= 0.572824226213925    
 DIIS: error= 5.55D-02 at cycle   1 NSaved=   1.
 NSaved= 1 IEnMin= 1 EnMin= 0.572824226213925     IErMin= 1 ErrMin= 5.55D-02
 ErrMax= 5.55D-02  0.00D+00 EMaxC= 1.00D-01 BMatC= 3.09D-01 BMatP= 3.09D-01
 IDIUse=3 WtCom= 4.45D-01 WtEn= 5.55D-01
 Coeff-Com:  0.100D+01
 Coeff-En:   0.100D+01
 Coeff:      0.100D+01
 GapD=    2.000 DampG=2.000 DampE=0.500 DampFc=1.0000 IDamp=-1.
 RMSDP=8.16D-03 MaxDP=1.24D-01              OVMax= 0.00D+00

 Cycle   2  Pass 1  IDiag  1:
 E=-0.412324606488028     Delta-E=       -0.985148832702 Rises=F Damp=F
 DIIS: error= 1.71D-02 at cycle   2 NSaved=   2.
 NSaved= 2 IEnMin= 2 EnMin=-0.412324606488028     IErMin= 2 ErrMin= 1.71D-02
 ErrMax= 1.71D-02  0.00D+00 EMaxC= 1.00D-01 BMatC= 4.69D-02 BMatP= 3.09D-01
 IDIUse=3 WtCom= 8.29D-01 WtEn= 1.71D-01
 Coeff-Com: -0.439D+00 0.144D+01
 Coeff-En:   0.000D+00 0.100D+01
 Coeff:     -0.364D+00 0.136D+01
 RMSDP=4.92D-03 MaxDP=5.99D-02 DE=-9.85D-01 OVMax= 0.00D+00

 Cycle   3  Pass 1  IDiag  3:
 E=-0.630496669053628     Delta-E=       -0.218172062566 Rises=F Damp=F
 DIIS: error= 5.48D-03 at cycle   3 NSaved=   3.
 NSaved= 3 IEnMin= 3 EnMin=-0.630496669053628     IErMin= 3 ErrMin= 5.48D-03
 ErrMax= 5.48D-03  0.00D+00 EMaxC= 1.00D-01 BMatC= 5.13D-03 BMatP= 4.69D-02
 IDIUse=3 WtCom= 9.45D-01 WtEn= 5.48D-02
 Coeff-Com:  0.248D+00-0.102D+01 0.177D+01
 Coeff-En:   0.000D+00 0.000D+00 0.100D+01
 Coeff:      0.234D+00-0.966D+00 0.173D+01
 Gap=     0.367 Goal=   None    Shift=    0.000
 RMSDP=2.56D-03 MaxDP=3.65D-02 DE=-2.18D-01 OVMax= 2.87D-02

 Cycle   4  Pass 1  IDiag  3:
 E=-0.664632914130607     Delta-E=       -0.034136245077 Rises=F Damp=F
 DIIS: error= 1.14D-03 at cycle   4 NSaved=   4.
 NSaved= 4 IEnMin= 4 EnMin=-0.664632914130607     IErMin= 4 ErrMin= 1.14D-03
 ErrMax= 1.14D-03  0.00D+00 EMaxC= 1.00D-01 BMatC= 2.27D-04 BMatP= 5.13D-03
 IDIUse=3 WtCom= 9.89D-01 WtEn= 1.14D-02
 Coeff-Com: -0.571D-01 0.268D+00-0.650D+00 0.144D+01
 Coeff-En:   0.000D+00 0.000D+00 0.000D+00 0.100D+01
 Coeff:     -0.564D-01 0.265D+00-0.643D+00 0.143D+01
 Gap=     0.369 Goal=   None    Shift=    0.000
 RMSDP=5.97D-04 MaxDP=8.72D-03 DE=-3.41D-02 OVMax= 9.97D-03

 Cycle   5  Pass 1  IDiag  3:
 E=-0.666262587453957     Delta-E=       -0.001629673323 Rises=F Damp=F
 DIIS: error= 3.60D-04 at cycle   5 NSaved=   5.
 NSaved= 5 IEnMin= 5 EnMin=-0.666262587453957     IErMin= 5 ErrMin= 3.60D-04
 ErrMax= 3.60D-04  0.00D+00 EMaxC= 1.00D-01 BMatC= 1.40D-05 BMatP= 2.27D-04
 IDIUse=3 WtCom= 9.96D-01 WtEn= 3.60D-03
 Coeff-Com:  0.811D-02-0.401D-01 0.132D+00-0.512D+00 0.141D+01
 Coeff-En:   0.000D+00 0.000D+00 0.000D+00 0.000D+00 0.100D+01
 Coeff:      0.808D-02-0.399D-01 0.132D+00-0.510D+00 0.141D+01
 Gap=     0.369 Goal=   None    Shift=    0.000
 RMSDP=1.39D-04 MaxDP=2.27D-03 DE=-1.63D-03 OVMax= 3.78D-03

 Cycle   6  Pass 1  IDiag  3:
 E=-0.666361145284782     Delta-E=       -0.000098557831 Rises=F Damp=F
 DIIS: error= 1.31D-04 at cycle   6 NSaved=   6.
 NSaved= 6 IEnMin= 6 EnMin=-0.666361145284782     IErMin= 6 ErrMin= 1.31D-04
 ErrMax= 1.31D-04  0.00D+00 EMaxC= 1.00D-01 BMatC= 1.30D-06 BMatP= 1.40D-05
 IDIUse=3 WtCom= 9.99D-01 WtEn= 1.31D-03
 Coeff-Com:  0.963D-03-0.290D-02-0.104D-01 0.123D+00-0.650D+00 0.154D+01
 Coeff-En:   0.000D+00 0.000D+00 0.000D+00 0.000D+00 0.000D+00 0.100D+01
 Coeff:      0.962D-03-0.290D-02-0.104D-01 0.122D+00-0.649D+00 0.154D+01
 Gap=     0.369 Goal=   None    Shift=    0.000
 RMSDP=5.01D-05 MaxDP=1.01D-03 DE=-9.86D-05 OVMax= 1.76D-03

 Cycle   7  Pass 1  IDiag  3:
 E=-0.666371479682766     Delta-E=       -0.000010334398 Rises=F Damp=F
 DIIS: error= 3.76D-05 at cycle   7 NSaved=   7.
 NSaved= 7 IEnMin= 7 EnMin=-0.666371479682766     IErMin= 7 ErrMin= 3.76D-05
 ErrMax= 3.76D-05  0.00D+00 EMaxC= 1.00D-01 BMatC= 9.69D-08 BMatP= 1.30D-06
 IDIUse=1 WtCom= 1.00D+00 WtEn= 0.00D+00
 Coeff-Com: -0.600D-03 0.246D-02-0.818D-03-0.255D-01 0.186D+00-0.631D+00
 Coeff-Com:  0.147D+01
 Coeff:     -0.600D-03 0.246D-02-0.818D-03-0.255D-01 0.186D+00-0.631D+00
 Coeff:      0.147D+01
 Gap=     0.369 Goal=   None    Shift=    0.000
 RMSDP=1.33D-05 MaxDP=3.14D-04 DE=-1.03D-05 OVMax= 5.63D-04

 Cycle   8  Pass 1  IDiag  3:
 E=-0.666372258463525     Delta-E=       -0.000000778781 Rises=F Damp=F
 DIIS: error= 1.15D-05 at cycle   8 NSaved=   8.
 NSaved= 8 IEnMin= 8 EnMin=-0.666372258463525     IErMin= 8 ErrMin= 1.15D-05
 ErrMax= 1.15D-05  0.00D+00 EMaxC= 1.00D-01 BMatC= 1.08D-08 BMatP= 9.69D-08
 IDIUse=1 WtCom= 1.00D+00 WtEn= 0.00D+00
 Coeff-Com:  0.114D-04-0.128D-03-0.184D-03 0.264D-02-0.205D-01 0.957D-01
 Coeff-Com: -0.502D+00 0.142D+01
 Coeff:      0.114D-04-0.128D-03-0.184D-03 0.264D-02-0.205D-01 0.957D-01
 Coeff:     -0.502D+00 0.142D+01
 Gap=     0.369 Goal=   None    Shift=    0.000
 RMSDP=4.59D-06 MaxDP=1.14D-04 DE=-7.79D-07 OVMax= 2.12D-04

 Cycle   9  Pass 1  IDiag  3:
 E=-0.666372347376637     Delta-E=       -0.000000088913 Rises=F Damp=F
 DIIS: error= 4.96D-06 at cycle   9 NSaved=   9.
 NSaved= 9 IEnMin= 9 EnMin=-0.666372347376637     IErMin= 9 ErrMin= 4.96D-06
 ErrMax= 4.96D-06  0.00D+00 EMaxC= 1.00D-01 BMatC= 1.41D-09 BMatP= 1.08D-08
 IDIUse=1 WtCom= 1.00D+00 WtEn= 0.00D+00
 Coeff-Com:  0.137D-04-0.216D-04 0.140D-03-0.476D-03 0.267D-02-0.106D-01
 Coeff-Com:  0.843D-01-0.515D+00 0.144D+01
 Coeff:      0.137D-04-0.216D-04 0.140D-03-0.476D-03 0.267D-02-0.106D-01
 Coeff:      0.843D-01-0.515D+00 0.144D+01
 Gap=     0.369 Goal=   None    Shift=    0.000
 RMSDP=1.59D-06 MaxDP=3.42D-05 DE=-8.89D-08 OVMax= 7.03D-05

 Cycle  10  Pass 1  IDiag  3:
 E=-0.666372358557510     Delta-E=       -0.000000011181 Rises=F Damp=F
 DIIS: error= 2.03D-06 at cycle  10 NSaved=  10.
 NSaved=10 IEnMin=10 EnMin=-0.666372358557510     IErMin=10 ErrMin= 2.03D-06
 ErrMax= 2.03D-06  0.00D+00 EMaxC= 1.00D-01 BMatC= 1.96D-10 BMatP= 1.41D-09
 IDIUse=1 WtCom= 1.00D+00 WtEn= 0.00D+00
 Coeff-Com:  0.909D-05-0.456D-04 0.541D-04-0.568D-04-0.258D-03 0.103D-02
 Coeff-Com: -0.327D-02 0.741D-01-0.551D+00 0.148D+01
 Coeff:      0.909D-05-0.456D-04 0.541D-04-0.568D-04-0.258D-03 0.103D-02
 Coeff:     -0.327D-02 0.741D-01-0.551D+00 0.148D+01
 Gap=     0.369 Goal=   None    Shift=    0.000
 RMSDP=6.03D-07 MaxDP=1.31D-05 DE=-1.12D-08 OVMax= 2.30D-05

 Cycle  11  Pass 1  IDiag  3:
 E=-0.666372360138894     Delta-E=       -0.000000001581 Rises=F Damp=F
 DIIS: error= 6.53D-07 at cycle  11 NSaved=  11.
 NSaved=11 IEnMin=11 EnMin=-0.666372360138894     IErMin=11 ErrMin= 6.53D-07
 ErrMax= 6.53D-07  0.00D+00 EMaxC= 1.00D-01 BMatC= 2.25D-11 BMatP= 1.96D-10
 IDIUse=1 WtCom= 1.00D+00 WtEn= 0.00D+00
 Coeff-Com: -0.233D-05 0.127D-04-0.204D-04 0.738D-04-0.262D-03 0.538D-03
 Coeff-Com: -0.689D-03-0.585D-02 0.935D-01-0.557D+00 0.147D+01
 Coeff:     -0.233D-05 0.127D-04-0.204D-04 0.738D-04-0.262D-03 0.538D-03
 Coeff:     -0.689D-03-0.585D-02 0.935D-01-0.557D+00 0.147D+01
 Gap=     0.369 Goal=   None    Shift=    0.000
 RMSDP=2.07D-07 MaxDP=4.83D-06 DE=-1.58D-09 OVMax= 5.51D-06

 Cycle  12  Pass 1  IDiag  3:
 E=-0.666372360337391     Delta-E=       -0.000000000198 Rises=F Damp=F
 DIIS: error= 1.78D-07 at cycle  12 NSaved=  12.
 NSaved=12 IEnMin=12 EnMin=-0.666372360337391     IErMin=12 ErrMin= 1.78D-07
 ErrMax= 1.78D-07  0.00D+00 EMaxC= 1.00D-01 BMatC= 2.07D-12 BMatP= 2.25D-11
 IDIUse=1 WtCom= 1.00D+00 WtEn= 0.00D+00
 Coeff-Com:  0.264D-06-0.250D-05 0.530D-05-0.312D-04 0.133D-03-0.309D-03
 Coeff-Com:  0.325D-03 0.145D-02-0.160D-01 0.124D+00-0.576D+00 0.147D+01
 Coeff:      0.264D-06-0.250D-05 0.530D-05-0.312D-04 0.133D-03-0.309D-03
 Coeff:      0.325D-03 0.145D-02-0.160D-01 0.124D+00-0.576D+00 0.147D+01
 Gap=     0.369 Goal=   None    Shift=    0.000
 RMSDP=5.93D-08 MaxDP=1.42D-06 DE=-1.98D-10 OVMax= 6.94D-07

 Cycle  13  Pass 1  IDiag  3:
 E=-0.666372360329660     Delta-E=        0.000000000008 Rises=F Damp=F
 DIIS: error= 5.20D-08 at cycle  13 NSaved=  13.
 NSaved=13 IEnMin=12 EnMin=-0.666372360337391     IErMin=13 ErrMin= 5.20D-08
 ErrMax= 5.20D-08  0.00D+00 EMaxC= 1.00D-01 BMatC= 1.91D-13 BMatP= 2.07D-12
 IDIUse=1 WtCom= 1.00D+00 WtEn= 0.00D+00
 Coeff-Com: -0.218D-06 0.142D-05-0.254D-05 0.108D-04-0.359D-04 0.812D-04
 Coeff-Com: -0.179D-03-0.240D-03 0.475D-02-0.327D-01 0.179D+00-0.712D+00
 Coeff-Com:  0.156D+01
 Coeff:     -0.218D-06 0.142D-05-0.254D-05 0.108D-04-0.359D-04 0.812D-04
 Coeff:     -0.179D-03-0.240D-03 0.475D-02-0.327D-01 0.179D+00-0.712D+00
 Coeff:      0.156D+01
 Gap=     0.369 Goal=   None    Shift=    0.000
 RMSDP=1.85D-08 MaxDP=4.85D-07 DE= 7.73D-12 OVMax= 2.72D-07

 Cycle  14  Pass 1  IDiag  3:
 E=-0.666372360338073     Delta-E=       -0.000000000008 Rises=F Damp=F
 DIIS: error= 1.08D-08 at cycle  14 NSaved=  14.
 NSaved=14 IEnMin=14 EnMin=-0.666372360338073     IErMin=14 ErrMin= 1.08D-08
 ErrMax= 1.08D-08  0.00D+00 EMaxC= 1.00D-01 BMatC= 1.38D-14 BMatP= 1.91D-13
 IDIUse=1 WtCom= 1.00D+00 WtEn= 0.00D+00
 Coeff-Com:  0.105D-06-0.678D-06 0.113D-05-0.439D-05 0.134D-04-0.285D-04
 Coeff-Com:  0.671D-04 0.467D-04-0.158D-02 0.108D-01-0.583D-01 0.260D+00
 Coeff-Com: -0.768D+00 0.156D+01
 Coeff:      0.105D-06-0.678D-06 0.113D-05-0.439D-05 0.134D-04-0.285D-04
 Coeff:      0.671D-04 0.467D-04-0.158D-02 0.108D-01-0.583D-01 0.260D+00
 Coeff:     -0.768D+00 0.156D+01
 Gap=     0.369 Goal=   None    Shift=    0.000
 RMSDP=4.98D-09 MaxDP=1.21D-07 DE=-8.41D-12 OVMax= 1.62D-07

 Cycle  15  Pass 2  IDiag  1:
 SCF Done:  E(RPM6) = -0.666372360338     A.U. after   15 cycles
            NFock= 14  Conv=0.50D-08     -V/T= 0.9978
 KE=-3.036118397081D+02 PE=-2.304781628887D+03 EE= 1.257500668998D+03
 Leave Link  502 at Tue Jun 22 14:18:51 2021, MaxMem=  2147483648 cpu:               0.5 elap:               0.0
 (Enter /home/matma/Programs/gaussian/G16_x86_SSE4/tar/g16/l601.exe)
 Copying SCF densities to generalized density rwf, IOpCl= 0 IROHF=0.

 **********************************************************************

            Population analysis using the SCF Density.

 **********************************************************************

 Orbital symmetries:
       Occupied  (A) (A) (A) (A) (A) (A) (A) (A) (A) (A) (A) (A)
                 (A) (A) (A) (A) (A) (A) (A) (A) (A) (A) (A) (A)
                 (A) (A) (A) (A) (A) (A) (A) (A) (A) (A) (A) (A)
                 (A) (A) (A) (A) (A) (A) (A) (A) (A) (A) (A) (A)
                 (A) (A) (A) (A) (A) (A) (A) (A) (A) (A) (A) (A)
                 (A) (A) (A) (A) (A) (A) (A) (A)
       Virtual   (A) (A) (A) (A) (A) (A) (A) (A) (A) (A) (A) (A)
                 (A) (A) (A) (A) (A) (A) (A) (A) (A) (A) (A) (A)
                 (A) (A) (A) (A) (A) (A) (A) (A) (A) (A) (A) (A)
                 (A) (A) (A) (A) (A) (A) (A) (A) (A) (A)
 The electronic state is 1-A.
 Alpha  occ. eigenvalues --   -1.16316  -1.15669  -1.14038  -1.12597  -1.12585
 Alpha  occ. eigenvalues --   -1.11324  -1.10368  -1.09385  -1.08278  -1.07957
 Alpha  occ. eigenvalues --   -1.06494  -1.02081  -1.01041  -0.98634  -0.98393
 Alpha  occ. eigenvalues --   -0.92209  -0.89312  -0.86237  -0.83692  -0.80867
 Alpha  occ. eigenvalues --   -0.78931  -0.77017  -0.76411  -0.70924  -0.69967
 Alpha  occ. eigenvalues --   -0.69286  -0.68703  -0.68195  -0.67011  -0.65721
 Alpha  occ. eigenvalues --   -0.65659  -0.64292  -0.63630  -0.61575  -0.61454
 Alpha  occ. eigenvalues --   -0.60098  -0.59288  -0.58184  -0.57563  -0.56348
 Alpha  occ. eigenvalues --   -0.56163  -0.55709  -0.54076  -0.53558  -0.52429
 Alpha  occ. eigenvalues --   -0.52065  -0.51086  -0.50204  -0.49907  -0.49393
 Alpha  occ. eigenvalues --   -0.48752  -0.47907  -0.47581  -0.46892  -0.46103
 Alpha  occ. eigenvalues --   -0.44936  -0.44215  -0.42947  -0.42368  -0.42021
 Alpha  occ. eigenvalues --   -0.40972  -0.40590  -0.40142  -0.39662  -0.39506
 Alpha  occ. eigenvalues --   -0.38730  -0.37503  -0.36455
 Alpha virt. eigenvalues --    0.00360   0.03052   0.03996   0.05936   0.06633
 Alpha virt. eigenvalues --    0.06856   0.07279   0.07905   0.07933   0.08583
 Alpha virt. eigenvalues --    0.08763   0.08952   0.09307   0.09519   0.09851
 Alpha virt. eigenvalues --    0.10432   0.11307   0.11344   0.11441   0.11726
 Alpha virt. eigenvalues --    0.12052   0.13557   0.13883   0.14337   0.15278
 Alpha virt. eigenvalues --    0.16299   0.16479   0.16754   0.17171   0.17288
 Alpha virt. eigenvalues --    0.17375   0.17798   0.17905   0.18011   0.18126
 Alpha virt. eigenvalues --    0.18729   0.18779   0.18997   0.19061   0.19123
 Alpha virt. eigenvalues --    0.19531   0.19641   0.20240   0.20498   0.21404
 Alpha virt. eigenvalues --    0.22484
          Condensed to atoms (all electrons):
               1          2          3          4          5          6
     1  O    6.543702   0.000000   0.000000   0.000000   0.000000   0.000000
     2  C    0.000000   3.906549   0.000000   0.000000   0.000000   0.000000
     3  C    0.000000   0.000000   3.936489   0.000000   0.000000   0.000000
     4  O    0.000000   0.000000   0.000000   6.522713   0.000000   0.000000
     5  C    0.000000   0.000000   0.000000   0.000000   4.041718   0.000000
     6  C    0.000000   0.000000   0.000000   0.000000   0.000000   3.611280
     7  O    0.000000   0.000000   0.000000   0.000000   0.000000   0.000000
     8  C    0.000000   0.000000   0.000000   0.000000   0.000000   0.000000
     9  C    0.000000   0.000000   0.000000   0.000000   0.000000   0.000000
    10  O    0.000000   0.000000   0.000000   0.000000   0.000000   0.000000
    11  O    0.000000   0.000000   0.000000   0.000000   0.000000   0.000000
    12  C    0.000000   0.000000   0.000000   0.000000   0.000000   0.000000
    13  C    0.000000   0.000000   0.000000   0.000000   0.000000   0.000000
    14  C    0.000000   0.000000   0.000000   0.000000   0.000000   0.000000
    15  C    0.000000   0.000000   0.000000   0.000000   0.000000   0.000000
    16  O    0.000000   0.000000   0.000000   0.000000   0.000000   0.000000
    17  C    0.000000   0.000000   0.000000   0.000000   0.000000   0.000000
    18  C    0.000000   0.000000   0.000000   0.000000   0.000000   0.000000
    19  O    0.000000   0.000000   0.000000   0.000000   0.000000   0.000000
    20  O    0.000000   0.000000   0.000000   0.000000   0.000000   0.000000
    21  O    0.000000   0.000000   0.000000   0.000000   0.000000   0.000000
    22  O    0.000000   0.000000   0.000000   0.000000   0.000000   0.000000
    23  O    0.000000   0.000000   0.000000   0.000000   0.000000   0.000000
    24  H    0.000000   0.000000   0.000000   0.000000   0.000000   0.000000
    25  H    0.000000   0.000000   0.000000   0.000000   0.000000   0.000000
    26  H    0.000000   0.000000   0.000000   0.000000   0.000000   0.000000
    27  H    0.000000   0.000000   0.000000   0.000000   0.000000   0.000000
    28  H    0.000000   0.000000   0.000000   0.000000   0.000000   0.000000
    29  H    0.000000   0.000000   0.000000   0.000000   0.000000   0.000000
    30  H    0.000000   0.000000   0.000000   0.000000   0.000000   0.000000
    31  H    0.000000   0.000000   0.000000   0.000000   0.000000   0.000000
    32  H    0.000000   0.000000   0.000000   0.000000   0.000000   0.000000
    33  H    0.000000   0.000000   0.000000   0.000000   0.000000   0.000000
    34  H    0.000000   0.000000   0.000000   0.000000   0.000000   0.000000
    35  H    0.000000   0.000000   0.000000   0.000000   0.000000   0.000000
    36  H    0.000000   0.000000   0.000000   0.000000   0.000000   0.000000
    37  H    0.000000   0.000000   0.000000   0.000000   0.000000   0.000000
    38  H    0.000000   0.000000   0.000000   0.000000   0.000000   0.000000
    39  H    0.000000   0.000000   0.000000   0.000000   0.000000   0.000000
    40  H    0.000000   0.000000   0.000000   0.000000   0.000000   0.000000
    41  H    0.000000   0.000000   0.000000   0.000000   0.000000   0.000000
    42  H    0.000000   0.000000   0.000000   0.000000   0.000000   0.000000
    43  H    0.000000   0.000000   0.000000   0.000000   0.000000   0.000000
    44  H    0.000000   0.000000   0.000000   0.000000   0.000000   0.000000
    45  H    0.000000   0.000000   0.000000   0.000000   0.000000   0.000000
               7          8          9         10         11         12
     1  O    0.000000   0.000000   0.000000   0.000000   0.000000   0.000000
     2  C    0.000000   0.000000   0.000000   0.000000   0.000000   0.000000
     3  C    0.000000   0.000000   0.000000   0.000000   0.000000   0.000000
     4  O    0.000000   0.000000   0.000000   0.000000   0.000000   0.000000
     5  C    0.000000   0.000000   0.000000   0.000000   0.000000   0.000000
     6  C    0.000000   0.000000   0.000000   0.000000   0.000000   0.000000
     7  O    6.483917   0.000000   0.000000   0.000000   0.000000   0.000000
     8  C    0.000000   3.889175   0.000000   0.000000   0.000000   0.000000
     9  C    0.000000   0.000000   4.052302   0.000000   0.000000   0.000000
    10  O    0.000000   0.000000   0.000000   6.523935   0.000000   0.000000
    11  O    0.000000   0.000000   0.000000   0.000000   6.550933   0.000000
    12  C    0.000000   0.000000   0.000000   0.000000   0.000000   3.984402
    13  C    0.000000   0.000000   0.000000   0.000000   0.000000   0.000000
    14  C    0.000000   0.000000   0.000000   0.000000   0.000000   0.000000
    15  C    0.000000   0.000000   0.000000   0.000000   0.000000   0.000000
    16  O    0.000000   0.000000   0.000000   0.000000   0.000000   0.000000
    17  C    0.000000   0.000000   0.000000   0.000000   0.000000   0.000000
    18  C    0.000000   0.000000   0.000000   0.000000   0.000000   0.000000
    19  O    0.000000   0.000000   0.000000   0.000000   0.000000   0.000000
    20  O    0.000000   0.000000   0.000000   0.000000   0.000000   0.000000
    21  O    0.000000   0.000000   0.000000   0.000000   0.000000   0.000000
    22  O    0.000000   0.000000   0.000000   0.000000   0.000000   0.000000
    23  O    0.000000   0.000000   0.000000   0.000000   0.000000   0.000000
    24  H    0.000000   0.000000   0.000000   0.000000   0.000000   0.000000
    25  H    0.000000   0.000000   0.000000   0.000000   0.000000   0.000000
    26  H    0.000000   0.000000   0.000000   0.000000   0.000000   0.000000
    27  H    0.000000   0.000000   0.000000   0.000000   0.000000   0.000000
    28  H    0.000000   0.000000   0.000000   0.000000   0.000000   0.000000
    29  H    0.000000   0.000000   0.000000   0.000000   0.000000   0.000000
    30  H    0.000000   0.000000   0.000000   0.000000   0.000000   0.000000
    31  H    0.000000   0.000000   0.000000   0.000000   0.000000   0.000000
    32  H    0.000000   0.000000   0.000000   0.000000   0.000000   0.000000
    33  H    0.000000   0.000000   0.000000   0.000000   0.000000   0.000000
    34  H    0.000000   0.000000   0.000000   0.000000   0.000000   0.000000
    35  H    0.000000   0.000000   0.000000   0.000000   0.000000   0.000000
    36  H    0.000000   0.000000   0.000000   0.000000   0.000000   0.000000
    37  H    0.000000   0.000000   0.000000   0.000000   0.000000   0.000000
    38  H    0.000000   0.000000   0.000000   0.000000   0.000000   0.000000
    39  H    0.000000   0.000000   0.000000   0.000000   0.000000   0.000000
    40  H    0.000000   0.000000   0.000000   0.000000   0.000000   0.000000
    41  H    0.000000   0.000000   0.000000   0.000000   0.000000   0.000000
    42  H    0.000000   0.000000   0.000000   0.000000   0.000000   0.000000
    43  H    0.000000   0.000000   0.000000   0.000000   0.000000   0.000000
    44  H    0.000000   0.000000   0.000000   0.000000   0.000000   0.000000
    45  H    0.000000   0.000000   0.000000   0.000000   0.000000   0.000000
              13         14         15         16         17         18
     1  O    0.000000   0.000000   0.000000   0.000000   0.000000   0.000000
     2  C    0.000000   0.000000   0.000000   0.000000   0.000000   0.000000
[...]
 5696,0.00853916,0.09857596,0.00167413,-0.00597652,0.00663690,0.0025039
 8,0.00135925,-0.00366784,-0.00059139,-0.00008202,0.00058384,0.00107799
 ,-0.00013109,0.00094190,0.00003710,0.00043463,-0.00202009,-0.00123672,
 0.00076884,0.00033482,-0.00022951,0.00007779,-0.00012315,0.00076284,0.
 00004159,-0.00004246,-0.00028273,0.00028576,-0.00024627,-0.00077689,-0
 .00037112,-0.00033184,-0.00082122,-0.00153434,0.00290651,-0.00010089,-
 0.00007396,0.00009019,-0.00000818,0.00001629,0.00002502,-0.00001630,-0
 .00001612,-0.00000253,0.00002281,0.00003499,-0.00003231,0.00005133,0.0
 0002757,-0.00000554,-0.00008233,-0.00002566,0.00004295,-0.00002593,-0.
 00003152,-0.00001060,-0.00006408,-0.00003408,-0.00003581,-0.00021116,-
 0.00014640,-0.00022651,0.00003625,-0.00004234,-0.00014363,0.00051322,-
 0.00028523,-0.00128353,-0.00001499,0.00029140,-0.00025886,0.00013604,-
 0.00002592,-0.00000707,-0.00007105,0.00006023,0.00007404,-0.00005035,0
 .00030302,0.00000520,-0.00006524,-0.00012109,0.00003460,-0.00006037,0.
 00006708,0.00005513,-0.00149877,0.00018872,0.00031351,-0.00020642,0.00
 052285,-0.00049567,0.14192216,-0.00006655,-0.00021238,-0.00006371,0.00
 000448,0.00007397,0.00007805,-0.00002365,0.00003965,-0.00001326,0.0000
 0389,-0.00009482,0.00000445,0.00000078,-0.00001204,-0.00001374,0.00008
 017,0.00017637,-0.00016536,0.00000753,-0.00022305,0.00012959,0.0000199
 6,0.00005727,0.00001827,0.00007760,0.00008790,-0.00004026,0.00014596,-
 0.00004107,0.00014124,0.02925527,-0.01964813,-0.00137793,-0.02444932,-
 0.00515259,0.02436577,-0.00020657,0.00077807,0.00057130,-0.00006944,-0
 .00026704,-0.00012406,-0.00012362,0.00012342,-0.00015046,-0.00094234,-
 0.00028935,0.00108496,0.00163080,-0.00321352,0.00278707,0.00006537,0.0
 0014536,0.00044106,0.00047310,-0.00032295,-0.00065699,-0.00001692,-0.0
 0013226,-0.00005162,-0.00009402,-0.00009725,-0.00004584,-0.00026789,-0
 .00081212,-0.00060212,-0.00000072,-0.00006280,0.00002148,-0.00000793,-
 0.00000469,-0.00000880,-0.00000297,0.00000195,-0.00000388,0.00001053,0
 .00002703,-0.00000743,0.00001220,0.00002574,0.00003579,-0.00001004,-0.
 00001559,0.00001202,-0.00000229,-0.00001587,-0.00000608,-0.00005250,0.
 00000957,0.00001432,-0.00020683,-0.00002605,-0.00011451,-0.00009490,-0
 .00001932,-0.00011197,-0.00046528,-0.00127565,0.00203059,-0.00005132,0
 .00026590,-0.00036568,-0.00002263,0.00003044,0.00006648,0.00000789,0.0
 0000474,-0.00001933,0.00025503,0.00000436,-0.00010242,-0.00004066,-0.0
 0003723,0.00000034,-0.00007519,-0.00003610,-0.00002982,-0.00071541,0.0
 0051267,0.00029148,0.00018919,0.00027866,-0.00024236,-0.00426629,0.029
 17287,0.00030296,-0.00007623,-0.00016741,0.00009476,0.00002748,0.00002
 270,-0.00016653,0.00009925,0.00005115,0.00017328,-0.00015179,0.0000010
 4,0.00009150,0.00008775,-0.00013713,-0.00060583,-0.00004565,0.00007675
 ,0.00044620,0.00024334,-0.00003392,-0.00038231,-0.00006388,0.00011307,
 0.00016945,-0.00018193,-0.00004115,0.00000307,0.00018211,-0.00006779,0
 .07351907,0.01535242,-0.08054704,0.02813223,0.00831493,-0.03728523,-0.
 00153810,0.00097917,-0.00352909,0.00000017,-0.00041948,-0.00014565,0.0
 0054824,0.00051420,-0.00025495,0.00053461,-0.00004827,-0.00034554,-0.0
 0036198,0.00334489,-0.00336303,0.00005477,-0.00007688,0.00077738,-0.00
 030797,-0.00027101,-0.00082671,-0.00012200,-0.00055320,0.00015605,0.00
 063668,0.00028304,0.00061922,0.00147265,-0.00049434,0.00010172,0.00004
 551,-0.00010384,0.00016304,-0.00004341,-0.00002719,0.00001025,-0.00000
 575,-0.00001271,-0.00003397,-0.00005454,0.00004558,-0.00004013,-0.0000
 5357,0.00000978,-0.00001835,0.00006216,-0.00004464,-0.00005907,0.00002
 171,-0.00001885,-0.00002654,-0.00004785,0.00001470,0.00008569,-0.00012
 247,-0.00003882,0.00008610,-0.00002770,-0.00006254,0.00004139,0.000283
 99,0.00075032,0.00204974,-0.00028688,-0.00040457,-0.00080351,-0.000104
 10,0.00009653,0.00011482,-0.00004082,-0.00007402,-0.00006200,-0.000161
 54,-0.00007179,0.00009658,0.00004093,0.00007198,-0.00007828,0.00007339
 ,-0.00003694,-0.00009893,0.00075318,0.00065564,0.00130651,-0.00084981,
 -0.00019059,-0.00007965,-0.10214209,-0.02787378,0.12206040,0.00002321,
 -0.00001413,-0.00058266,0.00052225,0.00007282,0.00036140,-0.00134025,0
 .00051590,-0.00069595,0.00066651,-0.00037805,0.00001786,-0.00213508,-0
 .00307394,0.00813576,0.00451933,0.00021344,-0.00258808,-0.00094120,0.0
 0121608,-0.00016567,0.00006201,-0.00023922,-0.00001422,-0.00000349,-0.
 00033652,0.00005534,-0.00013835,0.00032736,-0.00000096,-0.00012220,-0.
 00005948,0.00009666,-0.00002470,-0.00000018,-0.00001498,0.00043421,-0.
 00015932,-0.00028653,-0.00034519,0.00002935,0.00016636,-0.00044051,0.0
 0089910,-0.00111688,0.00017831,-0.00021367,0.00068980,0.00010637,0.000
 21711,-0.00031783,-0.00000358,-0.00005899,-0.00002815,-0.00003415,-0.0
 0003441,0.00012315,0.00066291,-0.00034122,0.00065616,-0.00139779,-0.00
 172875,0.00118789,-0.00083338,-0.00001770,0.00001648,-0.16848337,-0.06
 823735,0.05462487,-0.00014858,0.00004715,-0.00011964,-0.00010832,-0.00
 010279,-0.00031610,-0.00038379,0.00011657,-0.00020048,0.00092962,0.001
 56214,-0.00077766,-0.00009236,0.00002035,-0.00027797,-0.00004592,-0.00
 008009,-0.00002520,-0.00002112,-0.00000172,0.00003238,0.00005884,0.000
 03203,0.00002040,0.00011414,-0.00006931,-0.00000646,0.00000408,-0.0000
 0252,-0.00002281,0.00005769,0.00004150,0.00009004,0.00024560,0.0001209
 9,-0.00025978,-0.00013680,-0.00003440,-0.00007915,-0.00000154,0.000006
 15,0.00001668,-0.00001005,0.00000775,-0.00001410,-0.00000101,0.0000126
 7,-0.00000075,0.00003801,0.00004011,-0.00002807,0.00053754,0.00008290,
 0.00034724,0.00009273,0.00000713,-0.00001434,0.16820902,0.00005851,-0.
 00032995,-0.00023385,0.00000949,0.00010716,0.00028663,-0.00094190,0.00
 070375,0.00184284,0.00020996,-0.00107155,0.00011268,-0.01392115,-0.012
 67598,0.01118851,0.00073526,-0.00314794,0.00432542,0.00058781,0.000662
 84,-0.00121711,-0.00071476,-0.00005591,-0.00002524,0.00018467,-0.00017
 932,-0.00005736,-0.00003423,0.00019180,-0.00006302,-0.00008582,-0.0000
 2962,-0.00009306,0.00007624,-0.00002779,0.00003640,-0.00007965,-0.0000
 6770,-0.00008223,0.00041569,0.00033364,0.00089023,0.00018303,0.0009219
 1,-0.00051146,-0.00010910,-0.00020591,0.00015622,0.00004982,0.00002404
 ,-0.00011602,0.00000112,-0.00002216,0.00006227,-0.00002813,-0.00003228
 ,-0.00002465,0.00040201,-0.00097071,0.00020109,-0.00113474,-0.00018722
 ,-0.00134977,-0.00009687,-0.00017182,-0.00006966,-0.05553700,-0.028230
 32,0.03157567,-0.00005087,-0.00004910,-0.00000285,0.00001249,0.0000294
 4,-0.00002320,0.00017605,0.00059243,-0.00023716,0.00025603,0.00209199,
 -0.00129922,-0.00012070,-0.00063835,0.00018698,-0.00001342,-0.00005179
 ,0.00003248,-0.00005121,0.00003476,0.00002338,0.00001779,0.00002816,0.
 00004727,0.00003689,-0.00006586,0.00005166,-0.00001971,0.00005664,0.00
 000331,0.00004937,0.00003293,0.00004747,-0.00017311,0.00032881,-0.0001
 6760,-0.00001554,0.00000684,0.00007968,0.00000953,0.00001056,0.0000240
 5,0.00000128,0.00003089,-0.00001091,0.00000212,0.00000076,-0.00000659,
 0.00003667,0.00001984,0.00000930,0.00010604,0.00015170,0.00014062,0.00
 002589,0.00002895,0.00004837,0.06968043,0.04144104,-0.00011010,-0.0001
 5246,0.00005519,0.00096560,0.00020532,-0.00015495,0.00033677,0.0022571
 4,-0.00626990,-0.00045860,0.00004489,0.00048938,0.03893382,0.02116059,
 -0.02801370,-0.00078850,0.00288757,-0.00169564,-0.00021190,-0.00095576
 ,0.00080054,0.00040913,-0.00003464,-0.00003008,-0.00009628,0.00012804,
 0.00002143,0.00003969,-0.00015274,-0.00000732,0.00006198,-0.00005807,0
 .00014814,-0.00008019,0.00004512,-0.00011364,0.00005195,-0.00004500,-0
 .00014101,0.00012576,0.00001728,-0.00022359,-0.00056480,-0.00033906,0.
 00017726,0.00024962,0.00001201,-0.00001894,-0.00003243,0.00002455,0.00
 003369,-0.00000372,-0.00000700,-0.00004821,0.00006392,-0.00000005,0.00
 004320,0.00033689,0.00023567,-0.00030193,0.00078748,-0.00074849,0.0000
 6006,0.00004556,-0.00007030,0.00019437,0.01873453,0.02079786,-0.043362
 72,0.00000109,0.00016388,-0.00016014,-0.00035423,0.00005084,-0.0000981
 7,0.00039998,-0.00009607,-0.00009406,0.00040484,-0.00012494,-0.0015363
 2,0.00013486,0.00011335,0.00031019,-0.00000560,0.00003484,0.00002041,0
 .00002647,-0.00001202,-0.00000927,0.00000324,-0.00000203,-0.00002041,-
 0.00003353,0.00004923,0.00000270,0.00000006,-0.00001304,-0.00000842,-0
 .00003010,0.00002664,0.00001754,-0.00030130,0.00016275,-0.00021902,0.0
 0003305,0.00009916,0.00011081,-0.00001087,0.00002131,0.00000137,-0.000
 01701,-0.00001411,0.00001079,-0.00001152,0.00001044,0.00001098,-0.0000
 4815,0.00000352,-0.00002237,0.00003951,0.00006880,-0.00010253,-0.00000
 261,-0.00000089,-0.00005257,-0.05892537,-0.04584190,0.08027271,0.00008
 904,0.00006549,-0.00008048,0.00004206,-0.00001718,0.00002418,-0.000118
 23,0.00004541,0.00006146,0.00017387,-0.00000386,-0.00001155,0.00009921
 ,0.00005818,-0.00002555,-0.00047562,-0.00029680,0.00040376,0.00015884,
 0.00023457,-0.00021640,-0.00017612,-0.00002601,0.00000827,0.00006457,-
 0.00012626,-0.00000480,-0.00004345,0.00013729,-0.00000969,-0.00034598,
 0.00007134,-0.00021812,0.00033127,-0.00017193,0.00035793,-0.00033774,-
 0.00002403,0.00040909,-0.00086595,-0.00174052,0.00099590,0.00142338,0.
 00228071,0.00322938,-0.00075609,-0.00095158,0.00082327,-0.00067690,0.0
 0001824,-0.00102981,-0.00000954,-0.00012794,-0.00009227,-0.00022346,-0
 .00019383,0.00021051,-0.02907039,-0.05572813,-0.04971624,0.00049083,0.
 00067253,0.00012987,0.00005561,0.00014641,-0.00032117,0.00010922,0.000
 14465,0.00009006,-0.00003507,-0.00001114,-0.00000272,-0.00000227,-0.00
 001571,-0.00003905,-0.00010495,-0.00001151,-0.00002760,-0.00013444,-0.
 00012898,-0.00004020,0.00007429,-0.00001963,-0.00007835,-0.00000446,-0
 .00002264,-0.00001177,-0.00001923,0.00000414,0.00001362,0.00000523,0.0
 0000220,0.00001749,0.00003471,-0.00003723,0.00001135,0.00007456,-0.000
 03112,0.00003582,0.00001217,-0.00003059,-0.00005940,-0.00046999,-0.000
 72216,0.00029043,0.00011417,0.00337683,-0.00179589,0.00005042,-0.00005
 503,0.00021275,-0.00005507,0.00030853,-0.00027772,-0.00005527,0.000025
 89,-0.00003366,0.00016153,0.00012975,-0.00004100,-0.00007616,-0.000083
 76,0.00009846,0.00006631,0.00000563,0.00007388,-0.00010528,-0.00013165
 ,-0.00013502,0.03060133,0.00015222,-0.00010051,-0.00008189,0.00007398,
 0.00001981,0.00003570,-0.00020242,0.00016263,0.00007562,0.00017095,-0.
 00028462,0.00001948,0.00012820,0.00013315,-0.00018842,-0.00093485,-0.0
 0019490,0.00034533,0.00039834,0.00022860,-0.00021507,-0.00032700,-0.00
 002476,0.00005523,0.00011215,-0.00010378,-0.00003074,-0.00000106,0.000
 11591,-0.00000203,0.00015294,0.00009363,-0.00053172,-0.00002266,-0.000
 20563,0.00029931,-0.00013440,-0.00003589,0.00059054,-0.00052578,-0.000
 54439,-0.00056228,-0.01543072,-0.05705718,-0.01867286,0.00275652,-0.00
 090841,-0.00016752,-0.00083239,-0.00114810,0.00122863,0.00002238,0.000
 23666,0.00027232,-0.00011062,-0.00009875,-0.00056909,-0.03959226,-0.10
 805622,-0.05387004,0.00088393,0.00033532,-0.00007953,0.00068116,-0.000
 05799,-0.00050603,0.00009111,-0.00021761,0.00014623,-0.00003731,-0.000
 01615,0.00000009,-0.00000221,-0.00000909,-0.00003849,-0.00002678,0.000
 12000,-0.00006063,-0.00009250,0.00006778,0.00002697,0.00012306,-0.0000
 4351,-0.00008466,0.00000770,-0.00002425,-0.00001757,-0.00003747,0.0000
 1016,0.00001972,-0.00002936,-0.00000682,0.00001713,-0.00000077,-0.0000
 3640,0.00000860,-0.00002470,0.00029044,0.00009931,-0.00001255,-0.00011
 477,-0.00007198,-0.00052658,0.00024978,0.00017605,0.00055680,-0.004708
 80,0.00121231,0.00000706,-0.00003895,-0.00023952,0.00009094,0.00031045
 ,-0.00008189,0.00000561,-0.00006915,-0.00005628,0.00007507,-0.00005764
 ,0.00011304,-0.00027003,-0.00010658,-0.00000003,-0.00012682,0.00007330
 ,0.00015260,-0.00013787,0.00015581,-0.00006007,0.05301641,0.17156332,0
 .00000931,-0.00011629,-0.00008836,0.00004279,0.00004621,0.00007654,-0.
 00009189,0.00007297,0.00002019,0.00005465,-0.00013819,-0.00002276,0.00
 007168,0.00003080,-0.00005898,-0.00049998,-0.00008470,0.00018929,0.000
 23999,0.00008479,-0.00017094,-0.00017812,-0.00001011,0.00001716,0.0000
 5000,-0.00003574,-0.00001474,0.00000120,0.00003610,-0.00002413,-0.0001
 8577,-0.00024404,-0.00011791,0.00025396,0.00008092,0.00010299,0.000091
 88,0.00008084,0.00044771,-0.00019111,0.00301993,-0.00201817,0.00849829
 ,0.00908987,0.01527922,0.00029944,-0.00274381,-0.00216199,-0.00067582,
 0.00006700,0.00000989,0.00001019,-0.00004427,0.00014259,0.00008703,-0.
 00022743,-0.00003861,-0.05525388,-0.08341039,-0.09655088,0.00043476,-0
 .00015891,-0.00028078,0.00032600,-0.00031299,-0.00040642,0.00005593,-0
 .00008038,-0.00001067,-0.00001404,-0.00000940,-0.00000536,0.00000021,0
 .00000101,-0.00000997,0.00000129,0.00004593,-0.00000392,0.00000992,0.0
 0007112,0.00006021,0.00008411,-0.00001680,-0.00003671,0.00000693,-0.00
 000843,-0.00000368,-0.00001408,0.00000903,0.00001181,-0.00000384,0.000
 00570,0.00001739,-0.00000351,-0.00001369,0.00001879,0.00002599,0.00038
 250,-0.00007108,-0.00008124,-0.00001447,-0.00008316,-0.00004926,0.0005
 7716,0.00018012,0.00003476,0.00213549,-0.00156816,0.00006215,-0.000010
 63,0.00004208,-0.00017321,0.00028554,-0.00011158,-0.00006019,-0.000016
 51,0.00000446,0.00003095,0.00009434,-0.00003482,-0.00002908,0.00002767
 ,0.00000630,0.00006569,0.00006874,0.00006643,-0.00005136,0.00004880,0.
 00002104,0.04671305,0.07125805,0.08715276,-0.04160468,0.07658652,-0.01
 111783,0.00280844,-0.01125994,0.00295553,0.00210451,-0.00118512,-0.000
 27958,-0.00217080,0.00058521,-0.00006878,-0.00046127,-0.00021329,0.000
 63666,-0.00045053,0.00021219,0.00013718,-0.00000628,-0.00038417,-0.000
 04336,-0.00090524,-0.00002353,-0.00128440,-0.00017573,0.00037999,0.000
 01664,0.00000578,-0.00022699,0.00004543,0.00004898,-0.00010572,0.00022
 198,-0.00004085,0.00009905,-0.00022191,-0.00057555,0.00001722,0.000235
 18,0.00022103,0.00001649,-0.00007913,-0.00031509,-0.00021328,0.0000447
 0,0.00019080,0.00000866,0.00003109,-0.00001664,0.00002496,0.00004571,-
 0.00000356,-0.00001534,-0.00009695,0.00007194,-0.00000803,0.00010030,0
 .00012760,0.00018569,-0.00006980,0.00017501,-0.00003487,-0.00004741,0.
 00088690,-0.00061891,0.00025666,0.00014250,0.00024784,-0.00061546,-0.0
 0007794,-0.00158231,-0.00285936,-0.00006831,0.00036252,0.00017335,0.00
 028355,0.00020292,0.00087225,-0.00019524,-0.00002389,0.00051131,0.0000
 3584,-0.00000247,0.00008752,0.00028722,-0.00006093,0.00000385,0.000172
 26,-0.00006690,-0.00009246,0.00002324,-0.00001811,0.00001033,-0.000021
 10,0.00005085,-0.00002441,-0.00001967,-0.00002038,-0.00000742,0.000047
 65,0.00006969,-0.00005000,-0.00016177,0.00001237,0.00009066,0.00002722
 ,0.00004514,0.00002185,-0.00000752,0.00002261,-0.00000221,-0.00001776,
 -0.00001644,0.00000786,-0.00001298,0.00001535,0.00001219,-0.00005706,0
 .00001667,-0.00004557,0.00013308,0.00204199,-0.00045376,-0.00000102,0.
 00002300,-0.00009556,-0.00016344,-0.00006442,0.00003572,-0.00007064,-0
 .00006663,-0.00000578,0.03980728,0.06021368,-0.16969970,-0.01234719,0.
 00500867,-0.03406925,-0.01491998,-0.00037972,0.00445184,-0.00030356,-0
 .00050766,-0.00198427,-0.00357356,0.00044069,-0.00031713,-0.00035435,0
 .00088211,0.00112195,-0.00147538,-0.00170802,-0.00065150,0.00135451,0.
 00144156,-0.00084718,-0.00153383,-0.00010050,-0.00094065,0.00028247,-0
 .00041963,0.00081274,0.00002923,-0.00010957,-0.00012028,-0.00006198,0.
 00002065,-0.00001029,0.00001056,-0.00002008,-0.00015302,-0.00021009,0.
 00014552,0.00015442,0.00024318,0.00008694,0.00024709,-0.00008949,-0.00
 004467,-0.00009592,0.00000934,-0.00000208,0.00000288,-0.00007053,-0.00
 000140,-0.00001337,0.00007613,-0.00000075,-0.00003979,-0.00005283,0.00
 002593,-0.00030871,-0.00003450,-0.00068143,-0.00065814,0.00001055,-0.0
 0064015,-0.00089006,-0.00000165,-0.00018022,-0.00070043,0.00017806,-0.
 00130088,-0.00046250,0.00030585,0.00004497,-0.00080916,0.00014345,-0.0
 0010892,0.00010600,-0.00033248,-0.00015607,0.00044670,0.00038745,0.000
 01397,-0.00010468,-0.00000033,-0.00014513,-0.00010871,-0.00018908,0.00
 004455,-0.00013104,0.00012409,0.00017576,0.00006224,0.00007125,0.00029
 981,-0.00010604,-0.00003340,-0.00004952,0.00010167,0.00002407,0.000116
 48,0.00007415,-0.00000058,-0.00012092,0.00018604,0.00006808,-0.0000055
 5,0.00000247,0.00001144,0.00000909,0.00001520,0.00000687,-0.00000087,0
 .00002614,-0.00000479,0.00000056,0.00000076,-0.00000826,0.00002498,0.0
 0002955,0.00001387,0.00262035,0.00105337,0.00052490,0.00006584,0.00009
 374,0.00006928,0.00005180,0.00022427,0.00010784,-0.00003496,0.00010426
 ,0.00007527,-0.06501543,0.20390581,-0.02222303,0.01553976,-0.02805235,
 0.01316959,-0.03996294,-0.00994034,0.00107942,-0.00392653,-0.00509483,
 -0.00097774,0.00045195,-0.00216131,0.00001896,0.00030085,-0.00045567,0
 .00065460,-0.00092198,0.00065445,-0.00027469,0.00115675,-0.00026102,-0
 .00251134,-0.00431370,-0.00497291,-0.00003465,0.00013655,-0.00015607,-
 0.00004075,0.00014165,0.00001677,0.00004691,0.00005217,-0.00020808,0.0
 0005625,-0.00007998,0.00010957,-0.00009518,-0.00001937,0.00016594,0.00
 000376,0.00009986,0.00014841,0.00025941,0.00004429,0.00008384,-0.00015
 786,0.00002767,-0.00017670,-0.00000737,-0.00008012,0.00006995,0.000000
 99,0.00002050,0.00006346,0.00001349,0.00001118,-0.00009777,-0.00013767
 ,-0.00003413,-0.00003123,-0.00049408,0.00015776,-0.00024753,0.00026548
 ,0.00003099,-0.00055977,-0.00049755,0.00006886,0.00051457,-0.00053157,
 -0.00079245,-0.00002702,-0.00022547,-0.00013062,0.00009224,0.00022060,
 0.00116543,0.00051031,0.00043510,0.00012114,-0.00020089,-0.00011676,0.
 00003939,-0.00008681,0.00082808,-0.00069542,0.00004301,-0.00010708,-0.
 00001683,0.00010534,0.00000724,-0.00004511,0.00005640,0.00001124,0.000
 03029,-0.00000022,-0.00002930,0.00003116,0.00002571,0.00004733,-0.0000
 1954,-0.00000364,0.00014463,-0.00003472,-0.00000146,-0.00000508,-0.000
 01536,-0.00000134,0.00000857,-0.00000097,-0.00000070,0.00000447,0.0000
 0255,0.00000160,0.00000111,-0.00000790,-0.00000507,-0.00001159,-0.0000
 1618,0.00003481,-0.00006347,-0.00006419,0.00058195,-0.00009339,0.00002
 904,0.00009759,0.00029405,0.00001204,-0.00009716,0.00005778,0.00003644
 ,0.00002726,0.01100658,0.03146976,0.04943669\\0.00000060,0.00004341,-0
 .00000430,0.00000340,-0.00001843,0.00001208,-0.00001310,0.00000328,0.0
 0000710,-0.00000848,-0.00001722,0.00000397,0.,0.00003393,0.00000411,-0
 .00000847,0.00000016,-0.00001549,-0.00003533,-0.00003332,0.00001225,0.
 00002501,0.00001640,0.00001571,-0.00003128,-0.00000601,-0.00002358,0.0
 0003069,0.00001378,-0.00000323,-0.00000357,0.00000952,-0.00000832,0.00
 000246,-0.00001152,0.00000295,-0.00000440,0.00000939,-0.00000364,-0.00
 001299,0.00000225,0.00000725,0.00000649,-0.00000362,0.00000906,-0.0000
 1063,0.00000303,-0.00001553,-0.00000517,-0.00000936,0.00000592,0.00000
 173,-0.00000380,0.00000883,-0.00000764,-0.00001692,-0.00000082,0.00000
 328,0.00000572,0.00000408,0.00002538,-0.00000322,0.00000899,0.00006240
 ,0.00002209,0.00001569,-0.00000559,-0.00003031,0.00000448,0.00000055,0
 .00000788,-0.00000243,-0.00000009,-0.00000389,0.00000268,0.00000519,0.
 00001328,-0.00000980,0.00000050,-0.00001605,-0.00000152,-0.00000200,-0
 .00000027,0.00000356,0.00000238,-0.00000347,-0.00000031,-0.00001573,0.
 00002134,-0.00000691,0.00001910,-0.00000659,-0.00000535,-0.00000465,-0
 .00000222,0.00000343,0.00000264,-0.00000473,-0.00000480,0.00000634,-0.
 00000145,0.00000100,0.00000389,0.00000637,0.00000146,-0.00000110,0.000
 00218,0.00000314,-0.00000560,0.00000628,0.00000151,0.00000015,0.000004
 28,0.00000195,-0.00000138,-0.00000050,0.00000342,0.00000781,0.00001861
 ,-0.00001720,-0.00004536,-0.00002119,-0.00002239,-0.00000215,-0.000004
 88,0.00000703,0.00001306,0.00002006,-0.00000266,-0.00000558,-0.0000039
 6,-0.00000539,0.00000725,-0.00004030,0.00000200\\\@


 Sacred cows make the best hamburger.
                               -- Mark Twain
 Job cpu time:       0 days  0 hours  0 minutes 11.0 seconds.
 Elapsed time:       0 days  0 hours  0 minutes  0.9 seconds.
 File lengths (MBytes):  RWF=    217 Int=      0 D2E=      0 Chk=      4 Scr=      1
 Normal termination of Gaussian 16 at Tue Jun 22 14:19:07 2021.
