 Entering Gaussian System, Link 0=g16
 Input=input.com
 Output=input.log
 Initial command:
 /home/matma/Programs/gaussian/G16_x86_SSE4/tar/g16/l1.exe "/scratch-data/gaussian/Gau-24694.inp" -scrdir="/scratch-data/gaussian/"
 Entering Link 1 = /home/matma/Programs/gaussian/G16_x86_SSE4/tar/g16/l1.exe PID=     24696.
  
 Copyright (c) 1988-2017, Gaussian, Inc.  All Rights Reserved.
  
 This is part of the Gaussian(R) 16 program.  It is based on
 the Gaussian(R) 09 system (copyright 2009, Gaussian, Inc.),
 the Gaussian(R) 03 system (copyright 2003, Gaussian, Inc.),
 the Gaussian(R) 98 system (copyright 1998, Gaussian, Inc.),
 the Gaussian(R) 94 system (copyright 1995, Gaussian, Inc.),
 the Gaussian 92(TM) system (copyright 1992, Gaussian, Inc.),
 the Gaussian 90(TM) system (copyright 1990, Gaussian, Inc.),
 the Gaussian 88(TM) system (copyright 1988, Gaussian, Inc.),
 the Gaussian 86(TM) system (copyright 1986, Carnegie Mellon
 University), and the Gaussian 82(TM) system (copyright 1983,
 Carnegie Mellon University). Gaussian is a federally registered
 trademark of Gaussian, Inc.
  
 This software contains proprietary and confidential information,
 including trade secrets, belonging to Gaussian, Inc.
  
 This software is provided under written license and may be
 used, copied, transmitted, or stored only in accord with that
 written license.
  
 The following legend is applicable only to US Government
 contracts under FAR:
  
                    RESTRICTED RIGHTS LEGEND
  
 Use, reproduction and disclosure by the US Government is
 subject to restrictions as set forth in subparagraphs (a)
 and (c) of the Commercial Computer Software - Restricted
 Rights clause in FAR 52.227-19.
  
 Gaussian, Inc.
 340 Quinnipiac St., Bldg. 40, Wallingford CT 06492
  
  
 ---------------------------------------------------------------
 Warning -- This program may not be used in any manner that
 competes with the business of Gaussian, Inc. or will provide
 assistance to any competitor of Gaussian, Inc.  The licensee
 of this program is prohibited from giving any competitor of
 Gaussian, Inc. access to this program.  By using this program,
 the user acknowledges that Gaussian, Inc. is engaged in the
 business of creating and licensing software in the field of
 computational chemistry and represents and warrants to the
 licensee that it is not a competitor of Gaussian, Inc. and that
 it will not use this program in any manner prohibited above.
 ---------------------------------------------------------------
  

 Cite this work as:
 Gaussian 16, Revision B.01,
 M. J. Frisch, G. W. Trucks, H. B. Schlegel, G. E. Scuseria, 
 M. A. Robb, J. R. Cheeseman, G. Scalmani, V. Barone, 
 G. A. Petersson, H. Nakatsuji, X. Li, M. Caricato, A. V. Marenich, 
 J. Bloino, B. G. Janesko, R. Gomperts, B. Mennucci, H. P. Hratchian, 
 J. V. Ortiz, A. F. Izmaylov, J. L. Sonnenberg, D. Williams-Young, 
 F. Ding, F. Lipparini, F. Egidi, J. Goings, B. Peng, A. Petrone, 
 T. Henderson, D. Ranasinghe, V. G. Zakrzewski, J. Gao, N. Rega, 
 G. Zheng, W. Liang, M. Hada, M. Ehara, K. Toyota, R. Fukuda, 
 J. Hasegawa, M. Ishida, T. Nakajima, Y. Honda, O. Kitao, H. Nakai, 
 T. Vreven, K. Throssell, J. A. Montgomery, Jr., J. E. Peralta, 
 F. Ogliaro, M. J. Bearpark, J. J. Heyd, E. N. Brothers, K. N. Kudin, 
 V. N. Staroverov, T. A. Keith, R. Kobayashi, J. Normand, 
 K. Raghavachari, A. P. Rendell, J. C. Burant, S. S. Iyengar, 
 J. Tomasi, M. Cossi, J. M. Millam, M. Klene, C. Adamo, R. Cammi, 
 J. W. Ochterski, R. L. Martin, K. Morokuma, O. Farkas, 
 J. B. Foresman, and D. J. Fox, Gaussian, Inc., Wallingford CT, 2016.
 
 ******************************************
 Gaussian 16:  ES64L-G16RevB.01 20-Dec-2017
                22-Jun-2021 
 ******************************************
 %nproc=12
 Will use up to   12 processors via shared memory.
 %mem=16GB
 --------------------------------------
 #P pm6 opt=loose freq int=(grid=99590)
 --------------------------------------
 1/7=-1,18=20,19=15,26=1,38=1/1,3;
 2/9=110,12=2,17=6,18=5,40=1/2;
 3/5=2,25=1,41=3900000,71=1,75=99590/1,2,3;
 4/35=1/1;
 5/5=2,35=1,38=5/2;
 6/7=2,8=2,9=2,10=2,28=1/1;
 7//1,2,3,16;
 1/7=-1,18=20,19=15,26=1/3(2);
 2/9=110/2;
 99//99;
 2/9=110/2;
 3/5=2,25=1,41=3900000,71=1,75=99590,135=20/1,2,3;
 4/5=5,16=3,35=1/1;
 5/5=2,35=1,38=5/2;
 7//1,2,3,16;
 1/7=-1,18=20,19=15,26=1/3(-5);
 2/9=110/2;
 6/7=2,8=2,9=2,10=2,19=2,28=1/1;
 99/9=1/99;
 Leave Link    1 at Tue Jun 22 14:19:43 2021, MaxMem=  2147483648 cpu:               0.2 elap:               0.0
 (Enter /home/matma/Programs/gaussian/G16_x86_SSE4/tar/g16/l101.exe)
 ----------
 initial-08
 ----------
 Symbolic Z-matrix:
 Charge =  0 Multiplicity = 1
 O                     3.185    -0.561     0.901 
 C                     3.472    -0.369     2.307 
 C                     3.308    -1.694     3.082 
 O                     4.251    -2.66      2.588 
 C                     1.857    -2.209     2.918 
 C                     0.776    -1.089     3.175 
 O                     1.087     0.166     2.541 
 C                     2.421     0.615     2.871 
 C                     2.579     2.025     2.272 
 O                     3.939     2.42      2.508 
 O                    -1.854    -4.438     2.231 
 C                    -1.436    -3.487     1.222 
 C                    -0.205    -2.589     1.525 
 C                     0.109    -1.726     0.278 
 C                     0.268    -2.597    -0.996 
 O                    -0.865    -3.45     -1.191 
 C                    -1.164    -4.307    -0.084 
 C                    -2.406    -5.061    -0.583 
 O                    -3.448    -4.106    -0.904 
 O                     0.256    -1.723    -2.108 
 O                     1.295    -0.99      0.591 
 O                    -0.506    -1.709     2.617 
 O                     1.707    -3.3       3.836 
 H                     4.49      0.038     2.438 
 H                     3.489    -1.489     4.157 
 H                     4.012    -3.498     3.078 
 H                     1.761    -2.56      1.876 
 H                     0.693    -0.944     4.275 
 H                     2.545     0.672     3.97 
 H                     2.346     1.98      1.19 
 H                     1.849     2.698     2.757 
 H                     3.953     3.408     2.377 
 H                    -2.279    -2.803     1.019 
 H                     0.672    -3.232     1.745 
 H                    -0.755    -1.051     0.105 
 H                     1.206    -3.195    -0.931 
 H                    -0.35     -5.029     0.118 
 H                    -2.163    -5.59     -1.517 
 H                    -2.737    -5.795     0.168 
 H                    -3.871    -3.863    -0.033 
 H                     1.415    -0.352    -0.167 
 H                    -2.979    -4.331     2.452 
 H                     0.933    -3.819     3.474 
 H                     0.572    -2.148    -2.909 
 H                     3.844    -1.106     0.452 
 
 Add virtual bond connecting atoms H42        and O11        Dist= 2.18D+00.
 ITRead=  0  0  0  0  0  0  0  0  0  0  0  0  0  0  0  0  0  0  0  0
 ITRead=  0  0  0  0  0  0  0  0  0  0  0  0  0  0  0  0  0  0  0  0
 ITRead=  0  0  0  0  0
 MicOpt= -1 -1 -1 -1 -1 -1 -1 -1 -1 -1 -1 -1 -1 -1 -1 -1 -1 -1 -1 -1
 MicOpt= -1 -1 -1 -1 -1 -1 -1 -1 -1 -1 -1 -1 -1 -1 -1 -1 -1 -1 -1 -1
 MicOpt= -1 -1 -1 -1 -1
 NAtoms=     45 NQM=       45 NQMF=       0 NMMI=      0 NMMIF=      0
                NMic=       0 NMicF=      0.
                    Isotopes and Nuclear Properties:
 (Nuclear quadrupole moments (NQMom) in fm**2, nuclear magnetic moments (NMagM)
  in nuclear magnetons)

  Atom         1           2           3           4           5           6           7           8           9          10
 IAtWgt=          16          12          12          16          12          12          16          12          12          16
 AtmWgt=  15.9949146  12.0000000  12.0000000  15.9949146  12.0000000  12.0000000  15.9949146  12.0000000  12.0000000  15.9949146
 NucSpn=           0           0           0           0           0           0           0           0           0           0
 AtZEff=  -0.0000000  -0.0000000  -0.0000000  -0.0000000  -0.0000000  -0.0000000  -0.0000000  -0.0000000  -0.0000000  -0.0000000
 NQMom=    0.0000000   0.0000000   0.0000000   0.0000000   0.0000000   0.0000000   0.0000000   0.0000000   0.0000000   0.0000000
 NMagM=    0.0000000   0.0000000   0.0000000   0.0000000   0.0000000   0.0000000   0.0000000   0.0000000   0.0000000   0.0000000
 AtZNuc=   8.0000000   6.0000000   6.0000000   8.0000000   6.0000000   6.0000000   8.0000000   6.0000000   6.0000000   8.0000000

  Atom        11          12          13          14          15          16          17          18          19          20
 IAtWgt=          16          12          12          12          12          16          12          12          16          16
 AtmWgt=  15.9949146  12.0000000  12.0000000  12.0000000  12.0000000  15.9949146  12.0000000  12.0000000  15.9949146  15.9949146
 NucSpn=           0           0           0           0           0           0           0           0           0           0
 AtZEff=  -0.0000000  -0.0000000  -0.0000000  -0.0000000  -0.0000000  -0.0000000  -0.0000000  -0.0000000  -0.0000000  -0.0000000
 NQMom=    0.0000000   0.0000000   0.0000000   0.0000000   0.0000000   0.0000000   0.0000000   0.0000000   0.0000000   0.0000000
 NMagM=    0.0000000   0.0000000   0.0000000   0.0000000   0.0000000   0.0000000   0.0000000   0.0000000   0.0000000   0.0000000
 AtZNuc=   8.0000000   6.0000000   6.0000000   6.0000000   6.0000000   8.0000000   6.0000000   6.0000000   8.0000000   8.0000000

  Atom        21          22          23          24          25          26          27          28          29          30
 IAtWgt=          16          16          16           1           1           1           1           1           1           1
 AtmWgt=  15.9949146  15.9949146  15.9949146   1.0078250   1.0078250   1.0078250   1.0078250   1.0078250   1.0078250   1.0078250
 NucSpn=           0           0           0           1           1           1           1           1           1           1
 AtZEff=  -0.0000000  -0.0000000  -0.0000000  -0.0000000  -0.0000000  -0.0000000  -0.0000000  -0.0000000  -0.0000000  -0.0000000
 NQMom=    0.0000000   0.0000000   0.0000000   0.0000000   0.0000000   0.0000000   0.0000000   0.0000000   0.0000000   0.0000000
 NMagM=    0.0000000   0.0000000   0.0000000   2.7928460   2.7928460   2.7928460   2.7928460   2.7928460   2.7928460   2.7928460
 AtZNuc=   8.0000000   8.0000000   8.0000000   1.0000000   1.0000000   1.0000000   1.0000000   1.0000000   1.0000000   1.0000000

  Atom        31          32          33          34          35          36          37          38          39          40
 IAtWgt=           1           1           1           1           1           1           1           1           1           1
 AtmWgt=   1.0078250   1.0078250   1.0078250   1.0078250   1.0078250   1.0078250   1.0078250   1.0078250   1.0078250   1.0078250
 NucSpn=           1           1           1           1           1           1           1           1           1           1
 AtZEff=  -0.0000000  -0.0000000  -0.0000000  -0.0000000  -0.0000000  -0.0000000  -0.0000000  -0.0000000  -0.0000000  -0.0000000
 NQMom=    0.0000000   0.0000000   0.0000000   0.0000000   0.0000000   0.0000000   0.0000000   0.0000000   0.0000000   0.0000000
 NMagM=    2.7928460   2.7928460   2.7928460   2.7928460   2.7928460   2.7928460   2.7928460   2.7928460   2.7928460   2.7928460
 AtZNuc=   1.0000000   1.0000000   1.0000000   1.0000000   1.0000000   1.0000000   1.0000000   1.0000000   1.0000000   1.0000000

  Atom        41          42          43          44          45
 IAtWgt=           1           1           1           1           1
 AtmWgt=   1.0078250   1.0078250   1.0078250   1.0078250   1.0078250
 NucSpn=           1           1           1           1           1
 AtZEff=  -0.0000000  -0.0000000  -0.0000000  -0.0000000  -0.0000000
 NQMom=    0.0000000   0.0000000   0.0000000   0.0000000   0.0000000
 NMagM=    2.7928460   2.7928460   2.7928460   2.7928460   2.7928460
 AtZNuc=   1.0000000   1.0000000   1.0000000   1.0000000   1.0000000
 Leave Link  101 at Tue Jun 22 14:19:44 2021, MaxMem=  2147483648 cpu:               3.0 elap:               0.2
 (Enter /home/matma/Programs/gaussian/G16_x86_SSE4/tar/g16/l103.exe)

 GradGradGradGradGradGradGradGradGradGradGradGradGradGradGradGradGradGrad
 Berny optimization.
 Initialization pass.
                           ----------------------------
                           !    Initial Parameters    !
                           ! (Angstroms and Degrees)  !
 --------------------------                            --------------------------
 ! Name  Definition              Value          Derivative Info.                !
 --------------------------------------------------------------------------------
 ! R1    R(1,2)                  1.4478         estimate D2E/DX2                !
 ! R2    R(1,45)                 0.9659         estimate D2E/DX2                !
 ! R3    R(2,3)                  1.5437         estimate D2E/DX2                !
 ! R4    R(2,8)                  1.5463         estimate D2E/DX2                !
 ! R5    R(2,24)                 1.1041         estimate D2E/DX2                !
 ! R6    R(3,4)                  1.4375         estimate D2E/DX2                !
 ! R7    R(3,5)                  1.5484         estimate D2E/DX2                !
 ! R8    R(3,25)                 1.1092         estimate D2E/DX2                !
 ! R9    R(4,26)                 0.9997         estimate D2E/DX2                !
 ! R10   R(5,6)                  1.5777         estimate D2E/DX2                !
 ! R11   R(5,23)                 1.4337         estimate D2E/DX2                !
 ! R12   R(5,27)                 1.1037         estimate D2E/DX2                !
 ! R13   R(6,7)                  1.44           estimate D2E/DX2                !
 ! R14   R(6,22)                 1.5295         estimate D2E/DX2                !
 ! R15   R(6,28)                 1.1126         estimate D2E/DX2                !
 ! R16   R(7,8)                  1.4457         estimate D2E/DX2                !
 ! R17   R(8,9)                  1.5401         estimate D2E/DX2                !
 ! R18   R(8,29)                 1.1074         estimate D2E/DX2                !
 ! R19   R(9,10)                 1.4357         estimate D2E/DX2                !
 ! R20   R(9,30)                 1.1077         estimate D2E/DX2                !
 ! R21   R(9,31)                 1.105          estimate D2E/DX2                !
 ! R22   R(10,32)                0.9967         estimate D2E/DX2                !
 ! R23   R(11,12)                1.4482         estimate D2E/DX2                !
 ! R24   R(11,42)                1.1515         estimate D2E/DX2                !
 ! R25   R(12,13)                1.5536         estimate D2E/DX2                !
 ! R26   R(12,17)                1.5659         estimate D2E/DX2                !
 ! R27   R(12,33)                1.1044         estimate D2E/DX2                !
 ! R28   R(13,14)                1.5487         estimate D2E/DX2                !
 ! R29   R(13,22)                1.4344         estimate D2E/DX2                !
 ! R30   R(13,34)                1.1095         estimate D2E/DX2                !
 ! R31   R(14,15)                1.5515         estimate D2E/DX2                !
 ! R32   R(14,21)                1.4305         estimate D2E/DX2                !
 ! R33   R(14,35)                1.11           estimate D2E/DX2                !
 ! R34   R(15,16)                1.4315         estimate D2E/DX2                !
 ! R35   R(15,20)                1.4144         estimate D2E/DX2                !
 ! R36   R(15,36)                1.1143         estimate D2E/DX2                !
 ! R37   R(16,17)                1.4315         estimate D2E/DX2                !
 ! R38   R(17,18)                1.5363         estimate D2E/DX2                !
 ! R39   R(17,37)                1.1067         estimate D2E/DX2                !
 ! R40   R(18,19)                1.4494         estimate D2E/DX2                !
 ! R41   R(18,38)                1.1006         estimate D2E/DX2                !
 ! R42   R(18,39)                1.1011         estimate D2E/DX2                !
 ! R43   R(19,40)                0.9983         estimate D2E/DX2                !
 ! R44   R(20,44)                0.9603         estimate D2E/DX2                !
 ! R45   R(21,41)                0.998          estimate D2E/DX2                !
 ! R46   R(23,43)                0.9997         estimate D2E/DX2                !
 ! A1    A(2,1,45)             113.0185         estimate D2E/DX2                !
 ! A2    A(1,2,3)              110.6497         estimate D2E/DX2                !
 ! A3    A(1,2,8)              107.6905         estimate D2E/DX2                !
 ! A4    A(1,2,24)             110.2961         estimate D2E/DX2                !
 ! A5    A(3,2,8)              106.9104         estimate D2E/DX2                !
 ! A6    A(3,2,24)             110.779          estimate D2E/DX2                !
 ! A7    A(8,2,24)             110.4153         estimate D2E/DX2                !
 ! A8    A(2,3,4)              109.546          estimate D2E/DX2                !
 ! A9    A(2,3,5)              109.3814         estimate D2E/DX2                !
 ! A10   A(2,3,25)             108.0936         estimate D2E/DX2                !
 ! A11   A(4,3,5)              110.7829         estimate D2E/DX2                !
 ! A12   A(4,3,25)             110.4991         estimate D2E/DX2                !
 ! A13   A(5,3,25)             108.4832         estimate D2E/DX2                !
 ! A14   A(3,4,26)             103.77           estimate D2E/DX2                !
 ! A15   A(3,5,6)              112.875          estimate D2E/DX2                !
 ! A16   A(3,5,23)             106.4587         estimate D2E/DX2                !
 ! A17   A(3,5,27)             106.6949         estimate D2E/DX2                !
 ! A18   A(6,5,23)             111.36           estimate D2E/DX2                !
 ! A19   A(6,5,27)             108.6604         estimate D2E/DX2                !
 ! A20   A(23,5,27)            110.6953         estimate D2E/DX2                !
 ! A21   A(5,6,7)              113.5154         estimate D2E/DX2                !
 ! A22   A(5,6,22)             103.1275         estimate D2E/DX2                !
 ! A23   A(5,6,28)             107.7392         estimate D2E/DX2                !
 ! A24   A(7,6,22)             111.9428         estimate D2E/DX2                !
 ! A25   A(7,6,28)             109.7434         estimate D2E/DX2                !
 ! A26   A(22,6,28)            110.5482         estimate D2E/DX2                !
 ! A27   A(6,7,8)              111.6818         estimate D2E/DX2                !
 ! A28   A(2,8,7)              110.2601         estimate D2E/DX2                !
 ! A29   A(2,8,9)              111.7786         estimate D2E/DX2                !
 ! A30   A(2,8,29)             108.5793         estimate D2E/DX2                !
 ! A31   A(7,8,9)              106.8715         estimate D2E/DX2                !
 ! A32   A(7,8,29)             110.2323         estimate D2E/DX2                !
 ! A33   A(9,8,29)             109.1089         estimate D2E/DX2                !
 ! A34   A(8,9,10)             106.5667         estimate D2E/DX2                !
 ! A35   A(8,9,30)             108.7317         estimate D2E/DX2                !
 ! A36   A(8,9,31)             108.6094         estimate D2E/DX2                !
 ! A37   A(10,9,30)            111.7763         estimate D2E/DX2                !
 ! A38   A(10,9,31)            112.7104         estimate D2E/DX2                !
 ! A39   A(30,9,31)            108.3308         estimate D2E/DX2                !
 ! A40   A(9,10,32)            105.3318         estimate D2E/DX2                !
 ! A41   A(12,11,42)           110.7752         estimate D2E/DX2                !
 ! A42   A(11,12,13)           118.1904         estimate D2E/DX2                !
 ! A43   A(11,12,17)           106.6997         estimate D2E/DX2                !
 ! A44   A(11,12,33)           108.3282         estimate D2E/DX2                !
 ! A45   A(13,12,17)           109.1303         estimate D2E/DX2                !
 ! A46   A(13,12,33)           106.4201         estimate D2E/DX2                !
 ! A47   A(17,12,33)           107.6746         estimate D2E/DX2                !
 ! A48   A(12,13,14)           109.0091         estimate D2E/DX2                !
 ! A49   A(12,13,22)           109.6835         estimate D2E/DX2                !
 ! A50   A(12,13,34)           109.2695         estimate D2E/DX2                !
 ! A51   A(14,13,22)           108.2809         estimate D2E/DX2                !
 ! A52   A(14,13,34)           108.805          estimate D2E/DX2                !
 ! A53   A(22,13,34)           111.7444         estimate D2E/DX2                !
 ! A54   A(13,14,15)           111.6627         estimate D2E/DX2                !
 ! A55   A(13,14,21)           106.1785         estimate D2E/DX2                !
 ! A56   A(13,14,35)           107.8516         estimate D2E/DX2                !
 ! A57   A(15,14,21)           112.5545         estimate D2E/DX2                !
 ! A58   A(15,14,35)           107.0492         estimate D2E/DX2                !
 ! A59   A(21,14,35)           111.5048         estimate D2E/DX2                !
 ! A60   A(14,15,16)           111.424          estimate D2E/DX2                !
 ! A61   A(14,15,20)           107.3265         estimate D2E/DX2                !
 ! A62   A(14,15,36)           109.8558         estimate D2E/DX2                !
 ! A63   A(16,15,20)           104.7374         estimate D2E/DX2                !
 ! A64   A(16,15,36)           110.7568         estimate D2E/DX2                !
 ! A65   A(20,15,36)           112.6199         estimate D2E/DX2                !
 ! A66   A(15,16,17)           114.6257         estimate D2E/DX2                !
 ! A67   A(12,17,16)           111.5761         estimate D2E/DX2                !
 ! A68   A(12,17,18)           112.7984         estimate D2E/DX2                !
 ! A69   A(12,17,37)           108.4923         estimate D2E/DX2                !
 ! A70   A(16,17,18)           102.2106         estimate D2E/DX2                !
 ! A71   A(16,17,37)           112.2156         estimate D2E/DX2                !
 ! A72   A(18,17,37)           109.4961         estimate D2E/DX2                !
 ! A73   A(17,18,19)           109.2542         estimate D2E/DX2                !
 ! A74   A(17,18,38)           109.4548         estimate D2E/DX2                !
 ! A75   A(17,18,39)           110.4065         estimate D2E/DX2                !
 ! A76   A(19,18,38)           106.7072         estimate D2E/DX2                !
 ! A77   A(19,18,39)           111.9732         estimate D2E/DX2                !
 ! A78   A(38,18,39)           108.9532         estimate D2E/DX2                !
 ! A79   A(18,19,40)           105.7695         estimate D2E/DX2                !
 ! A80   A(15,20,44)           112.3044         estimate D2E/DX2                !
 ! A81   A(14,21,41)           105.2136         estimate D2E/DX2                !
 ! A82   A(6,22,13)            110.5209         estimate D2E/DX2                !
 ! A83   A(5,23,43)            104.1343         estimate D2E/DX2                !
 ! D1    D(45,1,2,3)           -68.4503         estimate D2E/DX2                !
 ! D2    D(45,1,2,8)           175.0316         estimate D2E/DX2                !
 ! D3    D(45,1,2,24)           54.4785         estimate D2E/DX2                !
 ! D4    D(1,2,3,4)             62.2352         estimate D2E/DX2                !
 ! D5    D(1,2,3,5)            -59.3683         estimate D2E/DX2                !
 ! D6    D(1,2,3,25)          -177.305          estimate D2E/DX2                !
 ! D7    D(8,2,3,4)            179.2352         estimate D2E/DX2                !
 ! D8    D(8,2,3,5)             57.6317         estimate D2E/DX2                !
 ! D9    D(8,2,3,25)           -60.3049         estimate D2E/DX2                !
 ! D10   D(24,2,3,4)           -60.4128         estimate D2E/DX2                !
 ! D11   D(24,2,3,5)           177.9837         estimate D2E/DX2                !
 ! D12   D(24,2,3,25)           60.047          estimate D2E/DX2                !
 ! D13   D(1,2,8,7)             51.939          estimate D2E/DX2                !
 ! D14   D(1,2,8,9)            -66.7871         estimate D2E/DX2                !
 ! D15   D(1,2,8,29)           172.8013         estimate D2E/DX2                !
 ! D16   D(3,2,8,7)            -66.9986         estimate D2E/DX2                !
 ! D17   D(3,2,8,9)            174.2752         estimate D2E/DX2                !
 ! D18   D(3,2,8,29)            53.8636         estimate D2E/DX2                !
 ! D19   D(24,2,8,7)           172.417          estimate D2E/DX2                !
 ! D20   D(24,2,8,9)            53.6909         estimate D2E/DX2                !
 ! D21   D(24,2,8,29)          -66.7207         estimate D2E/DX2                !
 ! D22   D(2,3,4,26)          -174.6302         estimate D2E/DX2                !
 ! D23   D(5,3,4,26)           -53.8734         estimate D2E/DX2                !
 ! D24   D(25,3,4,26)           66.3853         estimate D2E/DX2                !
 ! D25   D(2,3,5,6)            -47.8066         estimate D2E/DX2                !
 ! D26   D(2,3,5,23)          -170.276          estimate D2E/DX2                !
 ! D27   D(2,3,5,27)            71.474          estimate D2E/DX2                !
 ! D28   D(4,3,5,6)           -168.661          estimate D2E/DX2                !
 ! D29   D(4,3,5,23)            68.8696         estimate D2E/DX2                !
 ! D30   D(4,3,5,27)           -49.3803         estimate D2E/DX2                !
 ! D31   D(25,3,5,6)            69.886          estimate D2E/DX2                !
 ! D32   D(25,3,5,23)          -52.5834         estimate D2E/DX2                !
 ! D33   D(25,3,5,27)         -170.8334         estimate D2E/DX2                !
 ! D34   D(3,5,6,7)             44.6804         estimate D2E/DX2                !
 ! D35   D(3,5,6,22)           166.0086         estimate D2E/DX2                !
 ! D36   D(3,5,6,28)           -77.0545         estimate D2E/DX2                !
 ! D37   D(23,5,6,7)           164.3628         estimate D2E/DX2                !
 ! D38   D(23,5,6,22)          -74.3091         estimate D2E/DX2                !
 ! D39   D(23,5,6,28)           42.6279         estimate D2E/DX2                !
 ! D40   D(27,5,6,7)           -73.4564         estimate D2E/DX2                !
 ! D41   D(27,5,6,22)           47.8718         estimate D2E/DX2                !
 ! D42   D(27,5,6,28)          164.8087         estimate D2E/DX2                !
 ! D43   D(3,5,23,43)         -158.8482         estimate D2E/DX2                !
 ! D44   D(6,5,23,43)           77.7323         estimate D2E/DX2                !
 ! D45   D(27,5,23,43)         -43.2651         estimate D2E/DX2                !
 ! D46   D(5,6,7,8)            -52.2213         estimate D2E/DX2                !
 ! D47   D(22,6,7,8)          -168.4741         estimate D2E/DX2                !
 ! D48   D(28,6,7,8)            68.3896         estimate D2E/DX2                !
 ! D49   D(5,6,22,13)          -30.859          estimate D2E/DX2                !
 ! D50   D(7,6,22,13)           91.5292         estimate D2E/DX2                !
 ! D51   D(28,6,22,13)        -145.7907         estimate D2E/DX2                !
 ! D52   D(6,7,8,2)             64.5106         estimate D2E/DX2                !
 ! D53   D(6,7,8,9)           -173.806          estimate D2E/DX2                !
 ! D54   D(6,7,8,29)           -55.3578         estimate D2E/DX2                !
 ! D55   D(2,8,9,10)           -54.6791         estimate D2E/DX2                !
 ! D56   D(2,8,9,30)            65.9564         estimate D2E/DX2                !
 ! D57   D(2,8,9,31)          -176.3596         estimate D2E/DX2                !
 ! D58   D(7,8,9,10)          -175.3991         estimate D2E/DX2                !
 ! D59   D(7,8,9,30)           -54.7637         estimate D2E/DX2                !
 ! D60   D(7,8,9,31)            62.9204         estimate D2E/DX2                !
 ! D61   D(29,8,9,10)           65.4226         estimate D2E/DX2                !
 ! D62   D(29,8,9,30)         -173.9419         estimate D2E/DX2                !
 ! D63   D(29,8,9,31)          -56.2579         estimate D2E/DX2                !
 ! D64   D(8,9,10,32)         -163.1452         estimate D2E/DX2                !
 ! D65   D(30,9,10,32)          78.1934         estimate D2E/DX2                !
 ! D66   D(31,9,10,32)         -44.1052         estimate D2E/DX2                !
 ! D67   D(42,11,12,13)        128.7171         estimate D2E/DX2                !
 ! D68   D(42,11,12,17)       -107.9849         estimate D2E/DX2                !
 ! D69   D(42,11,12,33)          7.6922         estimate D2E/DX2                !
 ! D70   D(11,12,13,14)        176.3363         estimate D2E/DX2                !
 ! D71   D(11,12,13,22)        -65.2655         estimate D2E/DX2                !
 ! D72   D(11,12,13,34)         57.5455         estimate D2E/DX2                !
 ! D73   D(17,12,13,14)         54.2631         estimate D2E/DX2                !
 ! D74   D(17,12,13,22)        172.6614         estimate D2E/DX2                !
 ! D75   D(17,12,13,34)        -64.5277         estimate D2E/DX2                !
 ! D76   D(33,12,13,14)        -61.665          estimate D2E/DX2                !
 ! D77   D(33,12,13,22)         56.7333         estimate D2E/DX2                !
 ! D78   D(33,12,13,34)        179.5442         estimate D2E/DX2                !
 ! D79   D(11,12,17,16)        174.4494         estimate D2E/DX2                !
 ! D80   D(11,12,17,18)         60.0601         estimate D2E/DX2                !
 ! D81   D(11,12,17,37)        -61.4275         estimate D2E/DX2                !
 ! D82   D(13,12,17,16)        -56.7878         estimate D2E/DX2                !
 ! D83   D(13,12,17,18)       -171.1771         estimate D2E/DX2                !
 ! D84   D(13,12,17,37)         67.3353         estimate D2E/DX2                !
 ! D85   D(33,12,17,16)         58.3347         estimate D2E/DX2                !
 ! D86   D(33,12,17,18)        -56.0545         estimate D2E/DX2                !
 ! D87   D(33,12,17,37)       -177.5421         estimate D2E/DX2                !
 ! D88   D(12,13,14,15)        -53.4164         estimate D2E/DX2                !
 ! D89   D(12,13,14,21)       -176.4385         estimate D2E/DX2                !
 ! D90   D(12,13,14,35)         63.9288         estimate D2E/DX2                !
 ! D91   D(22,13,14,15)       -172.6909         estimate D2E/DX2                !
 ! D92   D(22,13,14,21)         64.2869         estimate D2E/DX2                !
 ! D93   D(22,13,14,35)        -55.3458         estimate D2E/DX2                !
 ! D94   D(34,13,14,15)         65.6643         estimate D2E/DX2                !
 ! D95   D(34,13,14,21)        -57.3578         estimate D2E/DX2                !
 ! D96   D(34,13,14,35)       -176.9905         estimate D2E/DX2                !
 ! D97   D(12,13,22,6)         164.9458         estimate D2E/DX2                !
 ! D98   D(14,13,22,6)         -76.2058         estimate D2E/DX2                !
 ! D99   D(34,13,22,6)          43.6122         estimate D2E/DX2                !
 ! D100  D(13,14,15,16)         53.2481         estimate D2E/DX2                !
 ! D101  D(13,14,15,20)        167.3695         estimate D2E/DX2                !
 ! D102  D(13,14,15,36)        -69.877          estimate D2E/DX2                !
 ! D103  D(21,14,15,16)        172.5625         estimate D2E/DX2                !
 ! D104  D(21,14,15,20)        -73.3161         estimate D2E/DX2                !
 ! D105  D(21,14,15,36)         49.4374         estimate D2E/DX2                !
 ! D106  D(35,14,15,16)        -64.5799         estimate D2E/DX2                !
 ! D107  D(35,14,15,20)         49.5415         estimate D2E/DX2                !
 ! D108  D(35,14,15,36)        172.295          estimate D2E/DX2                !
 ! D109  D(13,14,21,41)       -172.6232         estimate D2E/DX2                !
 ! D110  D(15,14,21,41)         64.9181         estimate D2E/DX2                !
 ! D111  D(35,14,21,41)        -55.4047         estimate D2E/DX2                !
 ! D112  D(14,15,16,17)        -56.0564         estimate D2E/DX2                !
 ! D113  D(20,15,16,17)       -171.7791         estimate D2E/DX2                !
 ! D114  D(36,15,16,17)         66.5527         estimate D2E/DX2                !
 ! D115  D(14,15,20,44)        165.2655         estimate D2E/DX2                !
 ! D116  D(16,15,20,44)        -76.1988         estimate D2E/DX2                !
 ! D117  D(36,15,20,44)         44.2387         estimate D2E/DX2                !
 ! D118  D(15,16,17,12)         58.5242         estimate D2E/DX2                !
 ! D119  D(15,16,17,18)        179.3151         estimate D2E/DX2                !
 ! D120  D(15,16,17,37)        -63.4765         estimate D2E/DX2                !
 ! D121  D(12,17,18,19)         61.672          estimate D2E/DX2                !
 ! D122  D(12,17,18,38)        178.1809         estimate D2E/DX2                !
 ! D123  D(12,17,18,39)        -61.8893         estimate D2E/DX2                !
 ! D124  D(16,17,18,19)        -58.268          estimate D2E/DX2                !
 ! D125  D(16,17,18,38)         58.2409         estimate D2E/DX2                !
 ! D126  D(16,17,18,39)        178.1707         estimate D2E/DX2                !
 ! D127  D(37,17,18,19)       -177.4109         estimate D2E/DX2                !
 ! D128  D(37,17,18,38)        -60.902          estimate D2E/DX2                !
 ! D129  D(37,17,18,39)         59.0278         estimate D2E/DX2                !
 ! D130  D(17,18,19,40)        -80.5019         estimate D2E/DX2                !
 ! D131  D(38,18,19,40)        161.2567         estimate D2E/DX2                !
 ! D132  D(39,18,19,40)         42.1276         estimate D2E/DX2                !
 --------------------------------------------------------------------------------
 Trust Radius=3.00D-01 FncErr=1.00D-07 GrdErr=1.00D-07 EigMax=2.50D+02 EigMin=1.00D-04
 Number of steps in this run=    270 maximum allowed number of steps=    270.
 GradGradGradGradGradGradGradGradGradGradGradGradGradGradGradGradGradGrad

 Leave Link  103 at Tue Jun 22 14:19:44 2021, MaxMem=  2147483648 cpu:               0.0 elap:               0.0
 (Enter /home/matma/Programs/gaussian/G16_x86_SSE4/tar/g16/l202.exe)
                          Input orientation:                          
 ---------------------------------------------------------------------
 Center     Atomic      Atomic             Coordinates (Angstroms)
 Number     Number       Type             X           Y           Z
 ---------------------------------------------------------------------
      1          8           0        3.185000   -0.561000    0.901000
      2          6           0        3.472000   -0.369000    2.307000
      3          6           0        3.308000   -1.694000    3.082000
      4          8           0        4.251000   -2.660000    2.588000
      5          6           0        1.857000   -2.209000    2.918000
      6          6           0        0.776000   -1.089000    3.175000
      7          8           0        1.087000    0.166000    2.541000
      8          6           0        2.421000    0.615000    2.871000
      9          6           0        2.579000    2.025000    2.272000
     10          8           0        3.939000    2.420000    2.508000
     11          8           0       -1.854000   -4.438000    2.231000
     12          6           0       -1.436000   -3.487000    1.222000
     13          6           0       -0.205000   -2.589000    1.525000
     14          6           0        0.109000   -1.726000    0.278000
     15          6           0        0.268000   -2.597000   -0.996000
     16          8           0       -0.865000   -3.450000   -1.191000
     17          6           0       -1.164000   -4.307000   -0.084000
     18          6           0       -2.406000   -5.061000   -0.583000
     19          8           0       -3.448000   -4.106000   -0.904000
     20          8           0        0.256000   -1.723000   -2.108000
     21          8           0        1.295000   -0.990000    0.591000
     22          8           0       -0.506000   -1.709000    2.617000
     23          8           0        1.707000   -3.300000    3.836000
     24          1           0        4.490000    0.038000    2.438000
     25          1           0        3.489000   -1.489000    4.157000
     26          1           0        4.012000   -3.498000    3.078000
     27          1           0        1.761000   -2.560000    1.876000
     28          1           0        0.693000   -0.944000    4.275000
     29          1           0        2.545000    0.672000    3.970000
     30          1           0        2.346000    1.980000    1.190000
     31          1           0        1.849000    2.698000    2.757000
     32          1           0        3.953000    3.408000    2.377000
     33          1           0       -2.279000   -2.803000    1.019000
     34          1           0        0.672000   -3.232000    1.745000
     35          1           0       -0.755000   -1.051000    0.105000
     36          1           0        1.206000   -3.195000   -0.931000
     37          1           0       -0.350000   -5.029000    0.118000
     38          1           0       -2.163000   -5.590000   -1.517000
     39          1           0       -2.737000   -5.795000    0.168000
     40          1           0       -3.871000   -3.863000   -0.033000
     41          1           0        1.415000   -0.352000   -0.167000
     42          1           0       -2.979000   -4.331000    2.452000
     43          1           0        0.933000   -3.819000    3.474000
     44          1           0        0.572000   -2.148000   -2.909000
     45          1           0        3.844000   -1.106000    0.452000
 ---------------------------------------------------------------------
                    Distance matrix (angstroms):
                    1          2          3          4          5
     1  O    0.000000
     2  C    1.447781   0.000000
     3  C    2.460809   1.543744   0.000000
     4  O    2.896226   2.436079   1.437512   0.000000
     5  C    2.923658   2.523320   1.548393   2.458361   0.000000
     6  C    3.354570   2.922369   2.604937   3.858528   1.577660
     7  O    2.760386   2.455444   2.947053   4.242568   2.525006
     8  C    2.418175   1.546271   2.482493   3.762262   2.880153
     9  C    2.989025   2.555369   3.875371   4.984442   4.343427
    10  O    3.469485   2.834962   4.201504   5.090201   5.092196
    11  O    6.495502   6.702896   5.907621   6.368654   4.383142
    12  C    5.478883   5.915033   5.401850   5.906933   3.918360
    13  C    3.999282   4.365805   3.945433   4.581588   2.517279
    14  C    3.347705   4.155485   4.254062   4.833696   3.202873
    15  C    4.031475   5.112671   5.165955   5.358481   4.242035
    16  O    5.396785   6.366956   6.225431   6.409243   5.082642
    17  C    5.823791   6.535841   6.070429   6.258947   4.747636
    18  C    7.328816   8.057161   7.577513   7.754721   6.209998
    19  O    7.734451   8.494827   8.206673   8.576688   6.808033
    20  O    4.356990   5.627450   6.020934   6.236218   5.297176
    21  O    1.962713   2.840709   3.279156   3.938889   2.686398
    22  O    4.229189   4.209060   3.842271   4.851215   2.434003
    23  O    4.277947   3.747509   2.389760   2.905003   1.433703
    24  H    2.103377   1.104144   2.193555   2.712715   3.494581
    25  H    3.399285   2.162681   1.109239   2.100868   2.171853
    26  H    3.748230   3.267519   1.936504   0.999732   2.516177
    27  H    2.640909   2.813141   2.144202   2.591726   1.103712
    28  H    4.211963   3.453475   2.970517   4.295345   2.190107
    29  H    3.368776   2.169926   2.639824   3.990311   3.143280
    30  H    2.691491   2.834319   4.243039   5.207017   4.557722
    31  H    3.981295   3.499017   4.639393   5.874209   4.909647
    32  H    4.303645   3.808148   5.190708   6.078976   6.019683
    33  H    5.907265   6.376308   6.058087   6.717374   4.589720
    34  H    3.763210   4.043836   3.331893   3.721166   1.956191
    35  H    4.049360   4.814713   5.077790   5.814998   4.009548
    36  H    3.769698   4.858567   4.772376   4.684187   4.026264
    37  H    5.750855   6.412098   5.769617   5.734306   4.545685
    38  H    7.729079   8.581086   8.140114   8.159370   6.874648
    39  H    7.937388   8.518713   7.864580   8.032233   6.444124
    40  H    7.846190   8.461872   8.120704   8.618801   6.652376
    41  H    2.077788   3.217486   3.992545   4.578186   3.627814
    42  H    7.390088   7.571913   6.846681   7.421835   5.301597
    43  H    4.722965   4.439697   3.210905   3.624555   1.937785
    44  H    4.884919   6.227479   6.601810   6.634319   5.967317
    45  H    0.965871   2.030413   2.747715   2.672651   3.353496
                    6          7          8          9         10
     6  C    0.000000
     7  O    1.440035   0.000000
     8  C    2.387898   1.445703   0.000000
     9  C    3.709881   2.398813   1.540086   0.000000
    10  O    4.771010   3.635314   2.386235   1.435730   0.000000
    11  O    4.361632   5.471965   6.649664   7.837317   8.981522
    12  C    3.802309   4.631382   5.867031   6.899628   8.089318
    13  C    2.436157   3.208044   4.355825   5.440373   6.574884
    14  C    3.040274   3.107622   4.189185   4.913953   6.068864
    15  C    4.464232   4.562379   5.468642   6.114199   7.136144
    16  O    5.227730   5.550998   6.619809   7.336834   8.439071
    17  C    4.973953   5.653791   6.768333   7.723666   8.832418
    18  C    6.326490   7.020111   8.212614   9.122097  10.284876
    19  O    6.601720   7.119286   8.425178   9.165199  10.430637
    20  O    5.346255   5.086461   5.911337   6.215162   7.213626
    21  O    2.637464   2.276423   3.007042   3.683021   4.721623
    22  O    1.529473   2.461514   3.746041   4.855822   6.067829
    23  O    2.488414   3.751610   4.094905   5.618016   6.282023
    24  H    3.950581   3.406964   2.191159   2.761819   2.445900
    25  H    2.912850   3.334679   2.687236   4.090174   4.266378
    26  H    4.035392   4.718992   4.414850   5.762521   5.945835
    27  H    2.195784   2.885754   3.392086   4.674202   5.472066
    28  H    1.112616   2.096209   2.718029   4.047711   4.997529
    29  H    2.619639   2.103293   1.107441   2.171398   2.671364
    30  H    3.977925   2.588605   2.166705   1.107717   2.113853
    31  H    3.958209   2.652984   2.163116   1.105013   2.123060
    32  H    5.563555   4.330291   3.223648   1.952329   0.996745
    33  H    4.113290   4.739346   6.099396   6.962741   8.255930
    34  H    2.578404   3.514576   4.373361   5.616977   6.572713
    35  H    3.430788   3.287575   4.529160   5.027248   6.313152
    36  H    4.634584   4.833763   5.517928   6.276363   7.129112
    37  H    5.112409   5.909647   6.863832   7.935847   8.921615
    38  H    7.135236   7.756378   8.875225   9.738137  10.844129
    39  H    6.597701   7.469111   8.660212   9.687057  10.841162
    40  H    6.291339   6.887676   8.250755   9.032390  10.340642
    41  H    3.481444   2.776540   3.343138   3.599131   4.605452
    42  H    5.013314   6.063274   7.334745   8.445265   9.666326
    43  H    2.750809   4.095660   4.715730   6.189221   6.992447
    44  H    6.178847   5.943258   6.667936   6.948722   7.845202
    45  H    4.102151   3.685506   3.292162   3.836116   4.082749
                   11         12         13         14         15
    11  O    0.000000
    12  C    1.448173   0.000000
    13  C    2.576128   1.553568   0.000000
    14  C    3.875890   2.525724   1.548668   0.000000
    15  C    4.278515   2.935173   2.565002   1.551450   0.000000
    16  O    3.696532   2.479915   2.924650   2.465525   1.431546
    17  C    2.419191   1.565893   2.541670   2.900540   2.409661
    18  C    2.934524   2.583873   3.924137   4.264830   3.659527
    19  O    3.532603   2.991852   4.326474   4.440019   4.011758
    20  O    5.536266   4.130794   3.763132   2.390526   1.414413
    21  O    4.949192   3.753869   2.383098   1.430476   2.481078
    22  O    3.068149   2.443810   1.434387   2.418561   3.800183
    23  O    4.068389   4.092238   3.082529   4.206001   5.090496
    24  H    7.766837   7.001554   5.456897   5.193309   6.046558
    25  H    6.399510   6.071396   4.667233   5.150457   6.177047
    26  H    6.000914   5.755481   4.584886   5.119902   5.605962
    27  H    4.089148   3.392323   1.997298   2.445049   3.237098
    28  H    4.782591   4.507804   3.327902   4.114437   5.540440
    29  H    6.963291   6.379431   4.916772   5.031438   6.366494
    30  H    7.740440   6.647754   5.243623   4.423839   5.481388
    31  H    8.056760   7.169496   5.804232   5.361419   6.679940
    32  H    9.762289   8.827025   7.347032   6.748340   7.811298
    33  H    2.079133   1.104407   2.145532   2.722417   3.254208
    34  H    2.841005   2.186828   1.109494   2.176487   2.842450
    35  H    4.147221   2.765058   2.164335   1.109977   2.156118
    36  H    4.572406   3.420649   2.896566   2.196145   1.114304
    37  H    2.660088   2.185401   2.820332   3.338576   2.745459
    38  H    3.933203   3.528918   4.700375   4.828510   3.890919
    39  H    2.622424   2.851382   4.304754   4.966747   4.540058
    40  H    3.086197   2.765073   4.182104   4.528122   4.434123
    41  H    5.756054   4.459344   3.239048   1.947187   2.653842
    42  H    1.151484   2.146179   3.404257   4.587815   5.043656
    43  H    3.113772   3.285405   2.570320   3.908202   4.681496
    44  H    6.127738   4.784365   4.523115   3.247987   1.988363
    45  H    6.836247   5.842984   4.443537   3.790106   4.136129
                   16         17         18         19         20
    16  O    0.000000
    17  C    1.431537   0.000000
    18  C    2.310772   1.536256   0.000000
    19  O    2.680409   2.435048   1.449424   0.000000
    20  O    2.253899   3.576315   4.533664   4.565952   0.000000
    21  O    3.727294   4.183873   5.625719   5.868605   2.983523
    22  O    4.202479   3.804993   5.008583   5.176718   4.786070
    23  O    5.648753   4.962166   6.288517   7.049203   6.318502
    24  H    7.349273   7.563546   9.092913   9.557905   6.457089
    25  H    7.169654   6.897653   8.365274   8.976880   7.053883
    26  H    6.481651   6.119126   7.552259   8.478065   6.644754
    27  H    4.134545   3.930551   5.446611   6.103458   4.340259
    28  H    6.211647   5.810258   7.081924   7.346303   6.445192
    29  H    7.433364   7.414987   8.837958   9.083018   6.922256
    30  H    6.742743   7.312287   8.677598   8.659946   5.381181
    31  H    7.794255   8.137535   9.458473   9.367793   6.763957
    32  H    9.109111   9.579219  10.996474  11.045359   7.753076
    33  H    2.702241   2.172982   2.771479   2.600442   4.167824
    34  H    3.321143   2.805666   4.270704   4.975488   4.158815
    35  H    2.728904   3.287026   4.390814   4.195635   2.524099
    36  H    2.102776   2.751518   4.080393   4.742401   2.110595
    37  H    2.114698   1.106654   2.172455   3.390283   4.031370
    38  H    2.524021   2.167390   1.100566   2.056514   4.599406
    39  H    3.293978   2.179903   1.101053   2.123070   5.542509
    40  H    3.247702   2.743645   1.970769   0.998308   5.090909
    41  H    3.980525   4.722304   6.078468   6.187443   2.643937
    42  H    4.303093   3.118669   3.173713   3.396074   6.169318
    43  H    5.013102   4.158716   5.399142   6.200195   6.000856
    44  H    2.590694   3.956716   4.771198   4.900427   0.960251
    45  H    5.510759   5.967727   7.468316   8.000750   4.450622
                   21         22         23         24         25
    21  O    0.000000
    22  O    2.804503   0.000000
    23  O    4.004481   2.985735   0.000000
    24  H    3.830955   5.295665   4.565275   0.000000
    25  H    4.216514   4.287193   2.560915   2.507726   0.000000
    26  H    4.456156   4.881123   2.434501   3.625104   2.339626
    27  H    2.081653   2.532305   2.095738   3.809579   3.055485
    28  H    3.733146   2.184443   2.602240   4.330832   2.851064
    29  H    3.967667   4.099801   4.061648   2.555779   2.365592
    30  H    3.206915   4.876367   5.940373   3.150493   4.705688
    31  H    4.312750   4.998727   6.095934   3.761947   4.709625
    32  H    5.440328   6.791463   7.222912   3.413062   5.231090
    33  H    4.030339   2.625637   4.906189   7.476911   6.696526
    34  H    2.597385   2.113669   2.334123   5.074473   4.097717
    35  H    2.107704   2.608660   5.003979   5.842845   5.884053
    36  H    2.680752   4.210397   4.794405   5.708512   5.831832
    37  H    4.386716   4.158333   4.587397   7.381225   6.601745
    38  H    6.128738   5.907433   6.991109   9.569682   8.997643
    39  H    6.286810   5.260262   6.279203   9.560665   8.556684
    40  H    5.943994   4.794313   6.811770   9.551438   8.795543
    41  H    0.998002   3.644495   4.979958   4.048920   4.928612
    42  H    5.735214   3.608024   4.993697   8.652995   7.267669
    43  H    4.055364   2.693932   0.999740   5.348083   3.525411
    44  H    3.756820   5.647254   6.936163   6.979952   7.672778
    45  H    2.555421   4.896257   4.564193   2.381228   3.741623
                   26         27         28         29         30
    26  H    0.000000
    27  H    2.718759   0.000000
    28  H    4.355627   3.083388   0.000000
    29  H    4.509618   3.930053   2.476769   0.000000
    30  H    6.028979   4.628652   4.560637   3.078777   0.000000
    31  H    6.570542   5.332023   4.111548   2.461800   1.793885
    32  H    6.941737   6.377530   5.759332   3.464940   2.455728
    33  H    6.655763   4.137040   4.784370   6.637394   6.655596
    34  H    3.606001   1.286338   3.411200   4.868261   5.502295
    35  H    6.127873   3.426920   4.415547   5.366279   4.469943
    36  H    4.902808   2.930955   5.694963   6.384858   5.707790
    37  H    5.489317   3.693622   5.920787   7.464605   7.585755
    38  H    7.976284   6.007589   7.955458   9.564783   9.217583
    39  H    7.700215   5.797801   7.222503   9.174792   9.345159
    40  H    8.482525   6.087817   6.921670   8.817896   8.619018
    41  H    5.212653   3.028007   4.539065   4.409109   2.854196
    42  H    7.068228   5.092722   5.317770   7.605847   8.353262
    43  H    3.120913   2.196422   2.994132   4.797253   6.390745
    44  H    7.035643   4.947695   7.285198   7.691929   6.081880
    45  H    3.556088   2.912178   4.956851   4.150302   3.508852
                   31         32         33         34         35
    31  H    0.000000
    32  H    2.252846   0.000000
    33  H    7.093802   8.902725   0.000000
    34  H    6.129794   7.433302   3.069123   0.000000
    35  H    5.279102   6.870948   2.495491   3.079398   0.000000
    36  H    6.981564   7.879624   4.012654   2.729011   3.084729
    37  H    8.456149   9.736625   3.080246   2.630746   3.998584
    38  H   10.151560  11.555635   3.769897   4.923214   5.021541
    39  H    9.993266  11.590125   3.144206   4.547217   5.141773
    40  H    9.140526  10.949453   2.182835   4.919176   4.199505
    41  H    4.247427   5.201056   4.589078   3.535844   2.295971
    42  H    8.532845  10.389917   2.208681   3.877815   4.605756
    43  H    6.620003   7.909067   4.168480   1.844487   4.675610
    44  H    7.564258   8.381056   4.897592   4.779620   3.471100
    45  H    4.874779   4.908534   6.379062   4.031539   4.612400
                   36         37         38         39         40
    36  H    0.000000
    37  H    2.623946   0.000000
    38  H    4.174875   2.504978   0.000000
    39  H    4.849232   2.507394   1.791850   0.000000
    40  H    5.198900   3.712115   2.846410   2.249218   0.000000
    41  H    2.951275   5.007073   6.485463   6.854019   6.347194
    42  H    5.499946   3.584188   4.243100   2.723695   2.681401
    43  H    4.457346   3.791164   6.134471   5.320067   5.948059
    44  H    2.326080   4.279366   4.611426   5.806722   5.563529
    45  H    3.638084   5.752488   7.750307   8.085601   8.207161
                   41         42         43         44         45
    41  H    0.000000
    42  H    6.480651   0.000000
    43  H    5.050673   4.075582   0.000000
    44  H    3.384498   6.790833   6.607969   0.000000
    45  H    2.617579   7.807301   4.996676   4.805005   0.000000
 Stoichiometry    C12H22O11
 Framework group  C1[X(C12H22O11)]
 Deg. of freedom   129
 Full point group                 C1      NOp   1
 Largest Abelian subgroup         C1      NOp   1
 Largest concise Abelian subgroup C1      NOp   1
                         Standard orientation:                         
 ---------------------------------------------------------------------
 Center     Atomic      Atomic             Coordinates (Angstroms)
 Number     Number       Type             X           Y           Z
 ---------------------------------------------------------------------
      1          8           0        2.264055   -1.090379    1.100084
      2          6           0        3.122487   -0.006054    0.671829
      3          6           0        2.505109    1.358034    1.047670
      4          8           0        2.386197    1.454682    2.476992
      5          6           0        1.119910    1.499245    0.370319
      6          6           0        1.144558    1.120384   -1.160977
      7          8           0        1.876287   -0.087561   -1.442302
      8          6           0        3.204114   -0.052874   -0.871575
      9          6           0        3.936670   -1.313720   -1.367049
     10          8           0        5.213643   -1.329637   -0.710995
     11          8           0       -3.078075    2.122165   -0.725501
     12          6           0       -2.600566    0.759712   -0.611871
     13          6           0       -1.083028    0.531689   -0.369675
     14          6           0       -0.823010   -0.984460   -0.190629
     15          6           0       -1.731106   -1.595328    0.909007
     16          8           0       -3.111512   -1.300421    0.670614
     17          6           0       -3.411463    0.094193    0.550691
     18          6           0       -4.925089    0.079618    0.288387
     19          8           0       -5.196159   -0.699420   -0.903439
     20          8           0       -1.639302   -3.002347    0.797507
     21          8           0        0.568980   -1.117236    0.111023
     22          8           0       -0.338549    0.984394   -1.509094
     23          8           0        0.709112    2.858925    0.565310
     24          1           0        4.128129   -0.116098    1.114219
     25          1           0        3.169928    2.156065    0.658346
     26          1           0        1.901500    2.317672    2.617637
     27          1           0        0.438606    0.806951    0.894469
     28          1           0        1.598907    1.972410   -1.713727
     29          1           0        3.748908    0.844777   -1.223497
     30          1           0        3.329817   -2.203107   -1.106748
     31          1           0        4.023009   -1.261851   -2.467462
     32          1           0        5.771005   -1.968906   -1.234621
     33          1           0       -2.851644    0.224760   -1.544877
     34          1           0       -0.776900    1.058970    0.557276
     35          1           0       -1.082584   -1.489189   -1.144526
     36          1           0       -1.415062   -1.223253    1.910681
     37          1           0       -3.203965    0.648714    1.485643
     38          1           0       -5.436493   -0.427201    1.120761
     39          1           0       -5.310185    1.107752    0.204961
     40          1           0       -5.007518   -0.092297   -1.673137
     41          1           0        0.746363   -2.099308    0.102147
     42          1           0       -3.711232    2.254942   -1.678075
     43          1           0       -0.283584    2.833005    0.449703
     44          1           0       -1.985615   -3.452650    1.571701
     45          1           0        2.219669   -1.180100    2.060755
 ---------------------------------------------------------------------
 Rotational constants (GHZ):           0.4702076           0.1591123           0.1443610
 Leave Link  202 at Tue Jun 22 14:19:44 2021, MaxMem=  2147483648 cpu:               0.0 elap:               0.0
 (Enter /home/matma/Programs/gaussian/G16_x86_SSE4/tar/g16/l301.exe)
 Standard basis: VSTO-6G (5D, 7F)
 Ernie: Thresh=  0.10000D-02 Tol=  0.10000D-05 Strict=F.
  NNHCO=     0 NNPyr=     0 NCTC=     0               EPep=         0.000000000
    EC=      1207.871688548  ECS=         8.961226922   EG=         0.716274885
   EHC=         0.002743494  EAt=      -175.965002454  AtH=         6.138669069
 EPDDG=         0.000000000  ECC=      1217.551933849 EAtT=       182.103671523
 There are   114 symmetry adapted cartesian basis functions of A   symmetry.
 There are   114 symmetry adapted basis functions of A   symmetry.
   114 basis functions,   684 primitive gaussians,   114 cartesian basis functions
    68 alpha electrons       68 beta electrons
       nuclear repulsion energy      1399.6556053717 Hartrees.
 IExCor=    0 DFT=F Ex=HF Corr=None ExCW=0 ScaHFX=  1.000000
 ScaDFX=  1.000000  1.000000  1.000000  1.000000 ScalE2=  1.000000  1.000000
 IRadAn=  99590 IRanWt=     -1 IRanGd=            0 ICorTp=0 IEmpDi=  4
 Integral buffers will be    131072 words long.
 Regular integral format.
 Two-electron integral symmetry is turned off.
 Leave Link  301 at Tue Jun 22 14:19:44 2021, MaxMem=  2147483648 cpu:               0.2 elap:               0.0
 (Enter /home/matma/Programs/gaussian/G16_x86_SSE4/tar/g16/l302.exe)
 Do NDO integrals.
 NPDir=0 NMtPBC=     1 NCelOv=     1 NCel=       1 NClECP=     1 NCelD=      1
         NCelK=      1 NCelE2=     1 NClLst=     1 CellRange=     0.0.
 One-electron integrals computed using PRISM.
 NBasis=   114 RedAO= F EigKep=  0.00D+00  NBF=   114
 NBsUse=   114 1.00D-04 EigRej=  0.00D+00 NBFU=   114
 Leave Link  302 at Tue Jun 22 14:19:44 2021, MaxMem=  2147483648 cpu:               0.6 elap:               0.0
 (Enter /home/matma/Programs/gaussian/G16_x86_SSE4/tar/g16/l303.exe)
 DipDrv:  MaxL=1.
 Leave Link  303 at Tue Jun 22 14:19:44 2021, MaxMem=  2147483648 cpu:               0.1 elap:               0.0
 (Enter /home/matma/Programs/gaussian/G16_x86_SSE4/tar/g16/l401.exe)
 Simple Huckel Guess.
 JPrj=0 DoOrth=F DoCkMO=F.
 Leave Link  401 at Tue Jun 22 14:19:44 2021, MaxMem=  2147483648 cpu:               0.2 elap:               0.0
 (Enter /home/matma/Programs/gaussian/G16_x86_SSE4/tar/g16/l502.exe)
 Keep J ints in memory in canonical form, NReq=892272.
 FoFCou: FMM=F IPFlag=           0 FMFlag=           0 FMFlg1=           0
         NFxFlg=           0 DoJE=F BraDBF=F KetDBF=F FulRan=T
         wScrn=  0.000000 ICntrl=       600 IOpCl=  2 I1Cent=           0 NGrid=           0
         NMat0=    1 NMatS0=    252 NMatT0=    0 NMatD0=    1 NMtDS0=    0 NMtDT0=    0
 Symmetry not used in FoFCou.
 Two-electron integral symmetry not used.
 Closed shell SCF:
 Using DIIS extrapolation, IDIIS=  1040.
 Overlap will be assumed to be unity.
 NGot=  2147483648 LenX=  2147363403 LenY=  2147349966
 Requested convergence on RMS density matrix=1.00D-08 within 128 cycles.
 Requested convergence on MAX density matrix=1.00D-06.
 Requested convergence on             energy=1.00D-06.
 No special actions if energy rises.

 Cycle   1  Pass 1  IDiag  1:
 E= 0.600135328075339    
 DIIS: error= 5.67D-02 at cycle   1 NSaved=   1.
 NSaved= 1 IEnMin= 1 EnMin= 0.600135328075339     IErMin= 1 ErrMin= 5.67D-02
 ErrMax= 5.67D-02  0.00D+00 EMaxC= 1.00D-01 BMatC= 3.11D-01 BMatP= 3.11D-01
 IDIUse=3 WtCom= 4.33D-01 WtEn= 5.67D-01
 Coeff-Com:  0.100D+01
 Coeff-En:   0.100D+01
 Coeff:      0.100D+01
 GapD=    2.000 DampG=2.000 DampE=0.500 DampFc=1.0000 IDamp=-1.
 RMSDP=8.24D-03 MaxDP=1.25D-01              OVMax= 0.00D+00

 Cycle   2  Pass 1  IDiag  1:
 E=-0.399675223276290     Delta-E=       -0.999810551352 Rises=F Damp=F
 DIIS: error= 1.68D-02 at cycle   2 NSaved=   2.
 NSaved= 2 IEnMin= 2 EnMin=-0.399675223276290     IErMin= 2 ErrMin= 1.68D-02
 ErrMax= 1.68D-02  0.00D+00 EMaxC= 1.00D-01 BMatC= 4.74D-02 BMatP= 3.11D-01
 IDIUse=3 WtCom= 8.32D-01 WtEn= 1.68D-01
 Coeff-Com: -0.434D+00 0.143D+01
 Coeff-En:   0.000D+00 0.100D+01
 Coeff:     -0.361D+00 0.136D+01
 RMSDP=4.96D-03 MaxDP=6.16D-02 DE=-1.00D+00 OVMax= 0.00D+00

 Cycle   3  Pass 1  IDiag  3:
 E=-0.620818023028505     Delta-E=       -0.221142799752 Rises=F Damp=F
 DIIS: error= 6.51D-03 at cycle   3 NSaved=   3.
 NSaved= 3 IEnMin= 3 EnMin=-0.620818023028505     IErMin= 3 ErrMin= 6.51D-03
 ErrMax= 6.51D-03  0.00D+00 EMaxC= 1.00D-01 BMatC= 5.12D-03 BMatP= 4.74D-02
 IDIUse=3 WtCom= 9.35D-01 WtEn= 6.51D-02
 Coeff-Com:  0.228D+00-0.962D+00 0.173D+01
 Coeff-En:   0.000D+00 0.000D+00 0.100D+01
 Coeff:      0.213D+00-0.899D+00 0.169D+01
 Gap=     0.381 Goal=   None    Shift=    0.000
 RMSDP=2.48D-03 MaxDP=4.12D-02 DE=-2.21D-01 OVMax= 3.46D-02

 Cycle   4  Pass 1  IDiag  3:
 E=-0.653938002423956     Delta-E=       -0.033119979395 Rises=F Damp=F
 DIIS: error= 1.22D-03 at cycle   4 NSaved=   4.
 NSaved= 4 IEnMin= 4 EnMin=-0.653938002423956     IErMin= 4 ErrMin= 1.22D-03
 ErrMax= 1.22D-03  0.00D+00 EMaxC= 1.00D-01 BMatC= 2.32D-04 BMatP= 5.12D-03
 IDIUse=3 WtCom= 9.88D-01 WtEn= 1.22D-02
 Coeff-Com: -0.427D-01 0.214D+00-0.573D+00 0.140D+01
 Coeff-En:   0.000D+00 0.000D+00 0.000D+00 0.100D+01
 Coeff:     -0.422D-01 0.212D+00-0.566D+00 0.140D+01
 Gap=     0.379 Goal=   None    Shift=    0.000
 RMSDP=5.67D-04 MaxDP=9.03D-03 DE=-3.31D-02 OVMax= 7.47D-03

 Cycle   5  Pass 1  IDiag  3:
 E=-0.655509956644664     Delta-E=       -0.001571954221 Rises=F Damp=F
 DIIS: error= 2.93D-04 at cycle   5 NSaved=   5.
 NSaved= 5 IEnMin= 5 EnMin=-0.655509956644664     IErMin= 5 ErrMin= 2.93D-04
 ErrMax= 2.93D-04  0.00D+00 EMaxC= 1.00D-01 BMatC= 1.41D-05 BMatP= 2.32D-04
 IDIUse=3 WtCom= 9.97D-01 WtEn= 2.93D-03
 Coeff-Com:  0.435D-02-0.249D-01 0.995D-01-0.466D+00 0.139D+01
 Coeff-En:   0.000D+00 0.000D+00 0.000D+00 0.000D+00 0.100D+01
 Coeff:      0.434D-02-0.248D-01 0.992D-01-0.465D+00 0.139D+01
 Gap=     0.379 Goal=   None    Shift=    0.000
 RMSDP=1.30D-04 MaxDP=1.95D-03 DE=-1.57D-03 OVMax= 1.93D-03

 Cycle   6  Pass 1  IDiag  3:
 E=-0.655600520545931     Delta-E=       -0.000090563901 Rises=F Damp=F
 DIIS: error= 1.06D-04 at cycle   6 NSaved=   6.
 NSaved= 6 IEnMin= 6 EnMin=-0.655600520545931     IErMin= 6 ErrMin= 1.06D-04
 ErrMax= 1.06D-04  0.00D+00 EMaxC= 1.00D-01 BMatC= 1.14D-06 BMatP= 1.41D-05
 IDIUse=3 WtCom= 9.99D-01 WtEn= 1.06D-03
 Coeff-Com:  0.128D-02-0.407D-02-0.511D-02 0.113D+00-0.620D+00 0.152D+01
 Coeff-En:   0.000D+00 0.000D+00 0.000D+00 0.000D+00 0.000D+00 0.100D+01
 Coeff:      0.128D-02-0.407D-02-0.510D-02 0.113D+00-0.620D+00 0.151D+01
 Gap=     0.379 Goal=   None    Shift=    0.000
 RMSDP=3.94D-05 MaxDP=8.29D-04 DE=-9.06D-05 OVMax= 6.55D-04

 Cycle   7  Pass 1  IDiag  3:
 E=-0.655608151424303     Delta-E=       -0.000007630878 Rises=F Damp=F
 DIIS: error= 3.30D-05 at cycle   7 NSaved=   7.
 NSaved= 7 IEnMin= 7 EnMin=-0.655608151424303     IErMin= 7 ErrMin= 3.30D-05
 ErrMax= 3.30D-05  0.00D+00 EMaxC= 1.00D-01 BMatC= 7.57D-08 BMatP= 1.14D-06
 IDIUse=1 WtCom= 1.00D+00 WtEn= 0.00D+00
 Coeff-Com: -0.662D-03 0.247D-02-0.756D-03-0.350D-01 0.232D+00-0.751D+00
 Coeff-Com:  0.155D+01
 Coeff:     -0.662D-03 0.247D-02-0.756D-03-0.350D-01 0.232D+00-0.751D+00
 Coeff:      0.155D+01
 Gap=     0.379 Goal=   None    Shift=    0.000
 RMSDP=1.05D-05 MaxDP=2.51D-04 DE=-7.63D-06 OVMax= 1.72D-04

 Cycle   8  Pass 1  IDiag  3:
 E=-0.655608695382398     Delta-E=       -0.000000543958 Rises=F Damp=F
 DIIS: error= 1.04D-05 at cycle   8 NSaved=   8.
 NSaved= 8 IEnMin= 8 EnMin=-0.655608695382398     IErMin= 8 ErrMin= 1.04D-05
 ErrMax= 1.04D-05  0.00D+00 EMaxC= 1.00D-01 BMatC= 6.76D-09 BMatP= 7.57D-08
 IDIUse=1 WtCom= 1.00D+00 WtEn= 0.00D+00
 Coeff-Com:  0.139D-03-0.557D-03 0.850D-04 0.989D-02-0.689D-01 0.254D+00
 Coeff-Com: -0.781D+00 0.159D+01
 Coeff:      0.139D-03-0.557D-03 0.850D-04 0.989D-02-0.689D-01 0.254D+00
 Coeff:     -0.781D+00 0.159D+01
 Gap=     0.379 Goal=   None    Shift=    0.000
 RMSDP=3.41D-06 MaxDP=7.57D-05 DE=-5.44D-07 OVMax= 4.40D-05

 Cycle   9  Pass 1  IDiag  3:
 E=-0.655608746752023     Delta-E=       -0.000000051370 Rises=F Damp=F
 DIIS: error= 2.68D-06 at cycle   9 NSaved=   9.
 NSaved= 9 IEnMin= 9 EnMin=-0.655608746752023     IErMin= 9 ErrMin= 2.68D-06
 ErrMax= 2.68D-06  0.00D+00 EMaxC= 1.00D-01 BMatC= 4.96D-10 BMatP= 6.76D-09
 IDIUse=1 WtCom= 1.00D+00 WtEn= 0.00D+00
 Coeff-Com: -0.154D-04 0.778D-04 0.371D-04-0.213D-02 0.158D-01-0.654D-01
 Coeff-Com:  0.243D+00-0.717D+00 0.153D+01
 Coeff:     -0.154D-04 0.778D-04 0.371D-04-0.213D-02 0.158D-01-0.654D-01
 Coeff:      0.243D+00-0.717D+00 0.153D+01
 Gap=     0.379 Goal=   None    Shift=    0.000
 RMSDP=9.03D-07 MaxDP=2.14D-05 DE=-5.14D-08 OVMax= 1.26D-05

 Cycle  10  Pass 1  IDiag  3:
 E=-0.655608750411147     Delta-E=       -0.000000003659 Rises=F Damp=F
 DIIS: error= 7.44D-07 at cycle  10 NSaved=  10.
 NSaved=10 IEnMin=10 EnMin=-0.655608750411147     IErMin=10 ErrMin= 7.44D-07
 ErrMax= 7.44D-07  0.00D+00 EMaxC= 1.00D-01 BMatC= 3.94D-11 BMatP= 4.96D-10
 IDIUse=1 WtCom= 1.00D+00 WtEn= 0.00D+00
 Coeff-Com:  0.316D-05-0.208D-04 0.811D-05 0.296D-03-0.283D-02 0.133D-01
 Coeff-Com: -0.569D-01 0.210D+00-0.699D+00 0.154D+01
 Coeff:      0.316D-05-0.208D-04 0.811D-05 0.296D-03-0.283D-02 0.133D-01
 Coeff:     -0.569D-01 0.210D+00-0.699D+00 0.154D+01
 Gap=     0.379 Goal=   None    Shift=    0.000
 RMSDP=2.52D-07 MaxDP=5.88D-06 DE=-3.66D-09 OVMax= 3.07D-06

 Cycle  11  Pass 1  IDiag  3:
 E=-0.655608750695365     Delta-E=       -0.000000000284 Rises=F Damp=F
 DIIS: error= 2.44D-07 at cycle  11 NSaved=  11.
 NSaved=11 IEnMin=11 EnMin=-0.655608750695365     IErMin=11 ErrMin= 2.44D-07
 ErrMax= 2.44D-07  0.00D+00 EMaxC= 1.00D-01 BMatC= 2.63D-12 BMatP= 3.94D-11
 IDIUse=1 WtCom= 1.00D+00 WtEn= 0.00D+00
 Coeff-Com: -0.154D-05 0.987D-05-0.111D-04-0.567D-05 0.404D-03-0.251D-02
 Coeff-Com:  0.132D-01-0.596D-01 0.246D+00-0.740D+00 0.154D+01
 Coeff:     -0.154D-05 0.987D-05-0.111D-04-0.567D-05 0.404D-03-0.251D-02
 Coeff:      0.132D-01-0.596D-01 0.246D+00-0.740D+00 0.154D+01
 Gap=     0.379 Goal=   None    Shift=    0.000
 RMSDP=6.31D-08 MaxDP=1.46D-06 DE=-2.84D-10 OVMax= 8.57D-07

 Cycle  12  Pass 1  IDiag  3:
 E=-0.655608750712418     Delta-E=       -0.000000000017 Rises=F Damp=F
 DIIS: error= 6.70D-08 at cycle  12 NSaved=  12.
 NSaved=12 IEnMin=12 EnMin=-0.655608750712418     IErMin=12 ErrMin= 6.70D-08
 ErrMax= 6.70D-08  0.00D+00 EMaxC= 1.00D-01 BMatC= 1.84D-13 BMatP= 2.63D-12
 IDIUse=1 WtCom= 1.00D+00 WtEn= 0.00D+00
 Coeff-Com:  0.916D-06-0.548D-05 0.776D-05-0.185D-04-0.376D-04 0.517D-03
 Coeff-Com: -0.338D-02 0.171D-01-0.773D-01 0.259D+00-0.734D+00 0.154D+01
 Coeff:      0.916D-06-0.548D-05 0.776D-05-0.185D-04-0.376D-04 0.517D-03
 Coeff:     -0.338D-02 0.171D-01-0.773D-01 0.259D+00-0.734D+00 0.154D+01
 Gap=     0.379 Goal=   None    Shift=    0.000
 RMSDP=1.67D-08 MaxDP=4.62D-07 DE=-1.71D-11 OVMax= 2.41D-07

 Cycle  13  Pass 1  IDiag  3:
 E=-0.655608750704232     Delta-E=        0.000000000008 Rises=F Damp=F
 DIIS: error= 1.62D-08 at cycle  13 NSaved=  13.
 NSaved=13 IEnMin=12 EnMin=-0.655608750712418     IErMin=13 ErrMin= 1.62D-08
 ErrMax= 1.62D-08  0.00D+00 EMaxC= 1.00D-01 BMatC= 1.49D-14 BMatP= 1.84D-13
 IDIUse=1 WtCom= 1.00D+00 WtEn= 0.00D+00
 Coeff-Com: -0.438D-06 0.268D-05-0.402D-05 0.125D-04-0.978D-05-0.121D-03
 Coeff-Com:  0.100D-02-0.543D-02 0.254D-01-0.888D-01 0.284D+00-0.805D+00
 Coeff-Com:  0.159D+01
 Coeff:     -0.438D-06 0.268D-05-0.402D-05 0.125D-04-0.978D-05-0.121D-03
 Coeff:      0.100D-02-0.543D-02 0.254D-01-0.888D-01 0.284D+00-0.805D+00
 Coeff:      0.159D+01
 Gap=     0.379 Goal=   None    Shift=    0.000
 RMSDP=4.81D-09 MaxDP=1.26D-07 DE= 8.19D-12 OVMax= 6.26D-08

 Cycle  14  Pass 2  IDiag  1:
 SCF Done:  E(RPM6) = -0.655608750704     A.U. after   14 cycles
            NFock= 13  Conv=0.48D-08     -V/T= 0.9978
 KE=-3.035062362962D+02 PE=-2.404125225668D+03 EE= 1.307320247842D+03
 Leave Link  502 at Tue Jun 22 14:19:44 2021, MaxMem=  2147483648 cpu:               0.5 elap:               0.0
 (Enter /home/matma/Programs/gaussian/G16_x86_SSE4/tar/g16/l601.exe)
 Copying SCF densities to generalized density rwf, IOpCl= 0 IROHF=0.

 **********************************************************************

            Population analysis using the SCF Density.

 **********************************************************************

 Orbital symmetries:
       Occupied  (A) (A) (A) (A) (A) (A) (A) (A) (A) (A) (A) (A)
                 (A) (A) (A) (A) (A) (A) (A) (A) (A) (A) (A) (A)
                 (A) (A) (A) (A) (A) (A) (A) (A) (A) (A) (A) (A)
                 (A) (A) (A) (A) (A) (A) (A) (A) (A) (A) (A) (A)
                 (A) (A) (A) (A) (A) (A) (A) (A) (A) (A) (A) (A)
                 (A) (A) (A) (A) (A) (A) (A) (A)
       Virtual   (A) (A) (A) (A) (A) (A) (A) (A) (A) (A) (A) (A)
                 (A) (A) (A) (A) (A) (A) (A) (A) (A) (A) (A) (A)
                 (A) (A) (A) (A) (A) (A) (A) (A) (A) (A) (A) (A)
                 (A) (A) (A) (A) (A) (A) (A) (A) (A) (A)
 The electronic state is 1-A.
 Alpha  occ. eigenvalues --   -1.17416  -1.14760  -1.13228  -1.12963  -1.11082
 Alpha  occ. eigenvalues --   -1.10585  -1.09590  -1.09364  -1.07947  -1.07527
 Alpha  occ. eigenvalues --   -1.06606  -1.00950  -0.99698  -0.98666  -0.98307
 Alpha  occ. eigenvalues --   -0.90595  -0.89887  -0.86051  -0.83898  -0.81046
 Alpha  occ. eigenvalues --   -0.78628  -0.78481  -0.75016  -0.70724  -0.69902
 Alpha  occ. eigenvalues --   -0.69241  -0.68293  -0.67901  -0.66374  -0.65965
 Alpha  occ. eigenvalues --   -0.64685  -0.63849  -0.63251  -0.62653  -0.60698
 Alpha  occ. eigenvalues --   -0.59896  -0.59226  -0.57760  -0.57265  -0.56483
 Alpha  occ. eigenvalues --   -0.55399  -0.54957  -0.53549  -0.53161  -0.52517
 Alpha  occ. eigenvalues --   -0.51656  -0.50785  -0.50389  -0.50079  -0.49114
 Alpha  occ. eigenvalues --   -0.48500  -0.48202  -0.47726  -0.46756  -0.45877
 Alpha  occ. eigenvalues --   -0.44703  -0.43872  -0.43336  -0.42029  -0.41685
 Alpha  occ. eigenvalues --   -0.40282  -0.39929  -0.39692  -0.39276  -0.38732
 Alpha  occ. eigenvalues --   -0.37784  -0.37263  -0.35841
 Alpha virt. eigenvalues --    0.01972   0.03380   0.04932   0.05635   0.06249
 Alpha virt. eigenvalues --    0.07051   0.07316   0.07850   0.08265   0.08936
 Alpha virt. eigenvalues --    0.09286   0.09529   0.09779   0.09928   0.10218
 Alpha virt. eigenvalues --    0.10788   0.11077   0.11320   0.11988   0.12090
 Alpha virt. eigenvalues --    0.12434   0.13253   0.13589   0.14547   0.14835
 Alpha virt. eigenvalues --    0.15189   0.16400   0.16597   0.17076   0.17193
 Alpha virt. eigenvalues --    0.17298   0.17783   0.18123   0.18308   0.18649
 Alpha virt. eigenvalues --    0.18760   0.18841   0.19012   0.19310   0.19591
 Alpha virt. eigenvalues --    0.19870   0.20021   0.20082   0.20612   0.21448
 Alpha virt. eigenvalues --    0.21727
          Condensed to atoms (all electrons):
               1          2          3          4          5          6
     1  O    6.529200   0.000000   0.000000   0.000000   0.000000   0.000000
     2  C    0.000000   3.899176   0.000000   0.000000   0.000000   0.000000
     3  C    0.000000   0.000000   3.932235   0.000000   0.000000   0.000000
     4  O    0.000000   0.000000   0.000000   6.531689   0.000000   0.000000
     5  C    0.000000   0.000000   0.000000   0.000000   4.085174   0.000000
     6  C    0.000000   0.000000   0.000000   0.000000   0.000000   3.634524
     7  O    0.000000   0.000000   0.000000   0.000000   0.000000   0.000000
     8  C    0.000000   0.000000   0.000000   0.000000   0.000000   0.000000
     9  C    0.000000   0.000000   0.000000   0.000000   0.000000   0.000000
    10  O    0.000000   0.000000   0.000000   0.000000   0.000000   0.000000
    11  O    0.000000   0.000000   0.000000   0.000000   0.000000   0.000000
    12  C    0.000000   0.000000   0.000000   0.000000   0.000000   0.000000
    13  C    0.000000   0.000000   0.000000   0.000000   0.000000   0.000000
    14  C    0.000000   0.000000   0.000000   0.000000   0.000000   0.000000
    15  C    0.000000   0.000000   0.000000   0.000000   0.000000   0.000000
    16  O    0.000000   0.000000   0.000000   0.000000   0.000000   0.000000
    17  C    0.000000   0.000000   0.000000   0.000000   0.000000   0.000000
    18  C    0.000000   0.000000   0.000000   0.000000   0.000000   0.000000
    19  O    0.000000   0.000000   0.000000   0.000000   0.000000   0.000000
    20  O    0.000000   0.000000   0.000000   0.000000   0.000000   0.000000
    21  O    0.000000   0.000000   0.000000   0.000000   0.000000   0.000000
    22  O    0.000000   0.000000   0.000000   0.000000   0.000000   0.000000
    23  O    0.000000   0.000000   0.000000   0.000000   0.000000   0.000000
    24  H    0.000000   0.000000   0.000000   0.000000   0.000000   0.000000
    25  H    0.000000   0.000000   0.000000   0.000000   0.000000   0.000000
    26  H    0.000000   0.000000   0.000000   0.000000   0.000000   0.000000
    27  H    0.000000   0.000000   0.000000   0.000000   0.000000   0.000000
    28  H    0.000000   0.000000   0.000000   0.000000   0.000000   0.000000
    29  H    0.000000   0.000000   0.000000   0.000000   0.000000   0.000000
    30  H    0.000000   0.000000   0.000000   0.000000   0.000000   0.000000
    31  H    0.000000   0.000000   0.000000   0.000000   0.000000   0.000000
    32  H    0.000000   0.000000   0.000000   0.000000   0.000000   0.000000
    33  H    0.000000   0.000000   0.000000   0.000000   0.000000   0.000000
    34  H    0.000000   0.000000   0.000000   0.000000   0.000000   0.000000
    35  H    0.000000   0.000000   0.000000   0.000000   0.000000   0.000000
    36  H    0.000000   0.000000   0.000000   0.000000   0.000000   0.000000
    37  H    0.000000   0.000000   0.000000   0.000000   0.000000   0.000000
    38  H    0.000000   0.000000   0.000000   0.000000   0.000000   0.000000
    39  H    0.000000   0.000000   0.000000   0.000000   0.000000   0.000000
    40  H    0.000000   0.000000   0.000000   0.000000   0.000000   0.000000
    41  H    0.000000   0.000000   0.000000   0.000000   0.000000   0.000000
    42  H    0.000000   0.000000   0.000000   0.000000   0.000000   0.000000
    43  H    0.000000   0.000000   0.000000   0.000000   0.000000   0.000000
    44  H    0.000000   0.000000   0.000000   0.000000   0.000000   0.000000
    45  H    0.000000   0.000000   0.000000   0.000000   0.000000   0.000000
               7          8          9         10         11         12
     1  O    0.000000   0.000000   0.000000   0.000000   0.000000   0.000000
     2  C    0.000000   0.000000   0.000000   0.000000   0.000000   0.000000
     3  C    0.000000   0.000000   0.000000   0.000000   0.000000   0.000000
     4  O    0.000000   0.000000   0.000000   0.000000   0.000000   0.000000
     5  C    0.000000   0.000000   0.000000   0.000000   0.000000   0.000000
     6  C    0.000000   0.000000   0.000000   0.000000   0.000000   0.000000
     7  O    6.440467   0.000000   0.000000   0.000000   0.000000   0.000000
     8  C    0.000000   3.889525   0.000000   0.000000   0.000000   0.000000
     9  C    0.000000   0.000000   4.050069   0.000000   0.000000   0.000000
    10  O    0.000000   0.000000   0.000000   6.529305   0.000000   0.000000
    11  O    0.000000   0.000000   0.000000   0.000000   6.550062   0.000000
    12  C    0.000000   0.000000   0.000000   0.000000   0.000000   3.952228
    13  C    0.000000   0.000000   0.000000   0.000000   0.000000   0.000000
    14  C    0.000000   0.000000   0.000000   0.000000   0.000000   0.000000
    15  C    0.000000   0.000000   0.000000   0.000000   0.000000   0.000000
    16  O    0.000000   0.000000   0.000000   0.000000   0.000000   0.000000
    17  C    0.000000   0.000000   0.000000   0.000000   0.000000   0.000000
    18  C    0.000000   0.000000   0.000000   0.000000   0.000000   0.000000
    19  O    0.000000   0.000000   0.000000   0.000000   0.000000   0.000000
    20  O    0.000000   0.000000   0.000000   0.000000   0.000000   0.000000
    21  O    0.000000   0.000000   0.000000   0.000000   0.000000   0.000000
    22  O    0.000000   0.000000   0.000000   0.000000   0.000000   0.000000
    23  O    0.000000   0.000000   0.000000   0.000000   0.000000   0.000000
    24  H    0.000000   0.000000   0.000000   0.000000   0.000000   0.000000
    25  H    0.000000   0.000000   0.000000   0.000000   0.000000   0.000000
    26  H    0.000000   0.000000   0.000000   0.000000   0.000000   0.000000
    27  H    0.000000   0.000000   0.000000   0.000000   0.000000   0.000000
    28  H    0.000000   0.000000   0.000000   0.000000   0.000000   0.000000
    29  H    0.000000   0.000000   0.000000   0.000000   0.000000   0.000000
    30  H    0.000000   0.000000   0.000000   0.000000   0.000000   0.000000
    31  H    0.000000   0.000000   0.000000   0.000000   0.000000   0.000000
    32  H    0.000000   0.000000   0.000000   0.000000   0.000000   0.000000
    33  H    0.000000   0.000000   0.000000   0.000000   0.000000   0.000000
    34  H    0.000000   0.000000   0.000000   0.000000   0.000000   0.000000
    35  H    0.000000   0.000000   0.000000   0.000000   0.000000   0.000000
    36  H    0.000000   0.000000   0.000000   0.000000   0.000000   0.000000
    37  H    0.000000   0.000000   0.000000   0.000000   0.000000   0.000000
    38  H    0.000000   0.000000   0.000000   0.000000   0.000000   0.000000
    39  H    0.000000   0.000000   0.000000   0.000000   0.000000   0.000000
    40  H    0.000000   0.000000   0.000000   0.000000   0.000000   0.000000
    41  H    0.000000   0.000000   0.000000   0.000000   0.000000   0.000000
    42  H    0.000000   0.000000   0.000000   0.000000   0.000000   0.000000
    43  H    0.000000   0.000000   0.000000   0.000000   0.000000   0.000000
    44  H    0.000000   0.000000   0.000000   0.000000   0.000000   0.000000
    45  H    0.000000   0.000000   0.000000   0.000000   0.000000   0.000000
              13         14         15         16         17         18
     1  O    0.000000   0.000000   0.000000   0.000000   0.000000   0.000000
     2  C    0.000000   0.000000   0.000000   0.000000   0.000000   0.000000
     3  C    0.000000   0.000000   0.000000   0.000000   0.000000   0.000000
     4  O    0.000000   0.000000   0.000000   0.000000   0.000000   0.000000
     5  C    0.000000   0.000000   0.000000   0.000000   0.000000   0.000000
     6  C    0.000000   0.000000   0.000000   0.000000   0.000000   0.000000
     7  O    0.000000   0.000000   0.000000   0.000000   0.000000   0.000000
     8  C    0.000000   0.000000   0.000000   0.000000   0.000000   0.000000
     9  C    0.000000   0.000000   0.000000   0.000000   0.000000   0.000000
    10  O    0.000000   0.000000   0.000000   0.000000   0.000000   0.000000
    11  O    0.000000   0.000000   0.000000   0.000000   0.000000   0.000000
    12  C    0.000000   0.000000   0.000000   0.000000   0.000000   0.000000
[...]
 906,-0.00009027,0.00000628,-0.00004923,-0.00011119,-0.00005235,0.00004
 111,0.00015502,-0.00002233,-0.00010371,0.00001953,-0.00004076,-0.00003
 154,-0.00001602,0.00000262,0.00001295,0.00003705,-0.00000259,0.0000204
 0,0.00003403,-0.00005483,0.00003269,0.00136393,0.00070182,-0.00136890,
 -0.00055407,-0.00028522,0.00035577,0.00009524,-0.00003150,-0.00005574,
 -0.00004602,-0.00000840,-0.00001350,-0.00000722,-0.00004162,-0.0000161
 0,-0.00005462,-0.00000218,0.00000796,-0.00008661,-0.00000990,0.0000349
 7,0.00059017,-0.00078427,-0.00144363,-0.00009470,-0.00006664,0.0000249
 7,0.00996939,0.00004370,-0.00007139,-0.00011149,-0.00001451,0.00002914
 ,0.00009952,-0.00011272,0.00000068,0.00000061,0.00013297,-0.00010336,0
 .00000090,0.00012524,0.00022302,-0.00008496,-0.00052260,-0.00073208,-0
 .00043776,0.00041128,0.00034231,-0.00013056,-0.00023150,-0.00006067,-0
 .00010782,0.00004295,-0.00000508,0.00000227,0.00002232,0.00005776,-0.0
 0003582,0.00455533,-0.05580292,-0.07394562,-0.00513323,0.00582782,0.03
 674205,-0.00084564,-0.00071368,0.00258243,0.00022293,-0.00017058,-0.00
 027100,0.00072754,0.00045509,-0.00000434,-0.00055047,-0.00021507,0.002
 14779,-0.00108547,-0.00493447,0.00172226,-0.00026958,-0.00006519,0.000
 08290,0.00022833,-0.00016818,-0.00021448,-0.00005879,-0.00023624,-0.00
 000290,-0.00027608,-0.00006443,-0.00014969,0.00084203,0.00053172,-0.00
 049376,0.00008472,-0.00028013,0.00005589,-0.00000804,-0.00001709,-0.00
 001413,-0.00000266,0.00000926,-0.00001428,-0.00001213,0.00005934,-0.00
 002021,-0.00001693,0.00002904,0.00010081,-0.00006373,-0.00004112,-0.00
 002983,0.00000180,-0.00001047,-0.00000223,-0.00001566,0.00001354,0.000
 01589,0.00000372,0.00000387,0.00002476,-0.00000432,-0.00001911,0.00002
 084,-0.00022591,-0.00059956,0.00198954,-0.00001658,0.00002221,-0.00004
 390,0.00001125,0.00008081,0.00009330,0.00001839,-0.00003224,-0.0000564
 6,-0.00000892,-0.00027403,-0.00022662,-0.00001347,0.00002593,0.0000090
 9,0.00006880,-0.00002330,0.00001244,0.00002557,0.00019973,-0.00039690,
 0.00006251,0.00011065,0.00011111,0.00194123,0.05620806,-0.00011422,-0.
 00013762,-0.00023529,-0.00008190,-0.00000068,0.00015612,0.00004279,0.0
 0006255,-0.00004949,-0.00004014,0.00003338,-0.00011040,-0.00008563,-0.
 00046175,0.00028976,0.00049085,-0.00019511,0.00014955,-0.00001067,0.00
 004673,-0.00029462,0.00008232,0.00006993,-0.00005521,-0.00001028,0.000
 08265,0.00000577,0.00000013,-0.00010036,-0.00004390,0.02411019,-0.0371
 7250,-0.18157730,0.00924806,0.00459023,-0.04296058,0.00095240,0.000477
 55,0.00183160,0.00026632,-0.00000388,-0.00052054,0.00049007,0.00052947
 ,-0.00051226,-0.00073888,-0.00060136,0.00022679,0.00072597,0.00269657,
 -0.00306445,-0.00026855,-0.00029905,0.00018578,0.00085038,0.00040896,0
 .00044901,0.00001562,-0.00056657,0.00030934,-0.00105670,-0.00038997,-0
 .00012530,-0.00015006,0.00011340,-0.00150463,0.00055851,0.00053988,-0.
 00051994,0.00001159,0.00001940,-0.00000837,-0.00001833,-0.00000268,0.0
 0004801,-0.00000304,-0.00003846,0.00007481,0.00004487,0.00005181,0.000
 20172,-0.00032301,-0.00012234,0.00010812,-0.00003088,0.00000387,0.0000
 3922,0.00000810,0.00001361,0.00001130,0.00002025,0.00002258,0.00002325
 ,-0.00000483,0.00002644,-0.00000105,-0.00170623,0.00033562,0.00134550,
 0.00038121,-0.00029371,-0.00005615,0.00000137,0.00019054,0.00013945,0.
 00008981,-0.00006587,-0.00004664,0.00013901,-0.00014092,0.00023387,-0.
 00008707,0.00009535,-0.00012343,0.00003999,-0.00006240,-0.00014020,-0.
 00147852,-0.00099923,-0.00090790,0.00028749,0.00037503,0.00029380,-0.0
 3197380,0.03091138,0.22650181,0.00007849,0.00027449,-0.00031399,0.0000
 5427,-0.00005733,0.00022807,-0.00065853,-0.00096636,0.00001550,0.00050
 016,0.00033560,0.00016244,-0.00783614,-0.00897034,0.00509616,0.0041054
 8,0.00308114,-0.00159716,-0.00128436,0.00065352,-0.00001836,0.00026728
 ,-0.00017224,0.00010090,-0.00009869,-0.00011690,-0.00005246,-0.0000680
 6,0.00015906,-0.00000074,0.00032876,-0.00026841,0.00112737,0.00016883,
 0.00050369,-0.00050354,-0.00025608,-0.00008238,-0.00041271,0.00061077,
 -0.00004564,0.00007406,0.00023481,0.00012334,0.00000400,-0.00030123,-0
 .00023323,0.00017429,0.00001159,0.00012942,-0.00022329,0.00004329,-0.0
 0002004,-0.00002904,0.00002699,-0.00004052,0.00018891,-0.00006964,-0.0
 0011190,0.00001488,-0.00081547,-0.00011535,-0.00060382,-0.00074464,-0.
 00210674,0.00082491,-0.10003563,-0.10278689,-0.02377640,-0.00007378,-0
 .00001867,-0.00008378,0.00012167,0.00000242,-0.00022034,-0.00033723,-0
 .00026555,-0.00032870,0.00022101,0.00053421,0.00071049,-0.00008194,0.0
 0026744,-0.00027673,0.00000382,-0.00005564,-0.00006232,0.00000831,-0.0
 0000940,0.00002555,0.00005001,0.00001369,0.00001059,0.00004131,-0.0000
 5745,0.00002288,-0.00004742,0.00001329,-0.00003170,0.00025120,0.000106
 86,-0.00013724,-0.00001287,0.00003149,0.00008646,0.00002483,-0.0000142
 1,-0.00002041,0.00002458,-0.00000956,-0.00000039,-0.00001221,0.0000168
 2,-0.00001522,-0.00000544,-0.00000271,-0.00001678,-0.00010825,0.000012
 46,-0.00014678,0.00022756,0.00009983,0.00044477,-0.00056221,-0.0000289
 1,-0.00064013,0.10612295,0.00029637,-0.00006072,-0.00035156,-0.0003610
 9,-0.00016776,0.00025311,-0.00211439,-0.00201221,0.00287466,0.00095215
 ,-0.00071833,-0.00006764,-0.02220152,-0.03475247,0.00353622,0.00238477
 ,-0.00396835,0.00306473,0.00021003,0.00176437,-0.00083263,-0.00064654,
 -0.00037610,-0.00026974,0.00007080,-0.00012603,-0.00004684,0.00001055,
 0.00030736,-0.00006928,0.00021236,-0.00055642,0.00069314,0.00026945,0.
 00036457,-0.00061229,-0.00003151,0.00028048,0.00117266,0.00019049,-0.0
 0011114,-0.00012444,0.00031495,0.00012849,0.00022728,-0.00022630,-0.00
 023456,-0.00001571,-0.00005502,0.00006040,-0.00002732,0.00008427,-0.00
 003625,-0.00005675,-0.00005253,-0.00012774,0.00008126,-0.00007874,-0.0
 0003837,-0.00014345,-0.00025732,-0.00021596,-0.00049320,-0.00113318,-0
 .00054203,-0.00153447,-0.08705942,-0.10211493,-0.00247929,-0.00004142,
 -0.00013323,-0.00002193,0.00015539,0.00006321,-0.00003435,-0.00027706,
 0.00057775,-0.00010695,-0.00045432,0.00254614,0.00025747,0.00000912,-0
 .00048712,-0.00025775,0.00000847,-0.00009086,-0.00001994,-0.00005209,0
 .00002758,0.00003987,0.00004340,-0.00000064,0.00005280,0.00002644,-0.0
 0010106,0.00006841,-0.00000616,-0.00000097,0.00004079,-0.00012269,0.00
 040627,-0.00014413,0.00002207,0.00005440,0.00012022,-0.00005955,0.0000
 3333,-0.00002156,-0.00004078,0.00006677,-0.00002915,0.00000033,0.00001
 570,0.00000700,-0.00001882,0.00002666,0.00000274,-0.00003155,0.0001126
 6,-0.00007234,0.00005879,0.00011443,0.00033021,-0.00020688,0.00027526,
 -0.00020941,0.11036809,0.13965998,0.00008378,-0.00018372,-0.00032084,0
 .00081987,0.00052930,0.00059137,0.00014147,0.00397440,-0.00447572,-0.0
 0013071,-0.00052600,0.00029094,0.02501354,0.02863875,-0.00026099,0.000
 92736,0.00236309,-0.00041989,-0.00039563,-0.00033395,0.00010537,0.0002
 4208,-0.00009729,0.00003398,-0.00002860,-0.00001266,-0.00002437,-0.000
 01300,0.00001419,-0.00001701,0.00045500,0.00007298,-0.00004635,-0.0001
 3064,-0.00021968,-0.00009389,-0.00011692,0.00026397,0.00018861,0.00022
 282,-0.00010926,-0.00008800,-0.00008030,0.00009641,-0.00017825,0.00001
 183,-0.00005725,0.00009319,0.00003472,0.00003539,-0.00010956,-0.000067
 11,-0.00003798,0.00007290,0.00009311,0.00003753,-0.00004294,0.00007067
 ,-0.00015482,0.00009383,-0.00025957,-0.00036472,0.00004195,0.00030938,
 -0.00132587,-0.00030561,-0.04733031,-0.03073900,-0.03753814,-0.0000662
 7,0.00017327,-0.00017991,-0.00025971,-0.00004057,-0.00032026,0.0002419
 6,0.00023264,-0.00007078,0.00083729,0.00199806,-0.00127491,0.00002586,
 -0.00011551,0.00014174,-0.00002100,-0.00003051,-0.00000496,-0.00000201
 ,0.00000599,0.00001676,0.00002057,0.00001356,0.00000768,0.00000568,-0.
 00001117,0.00000781,-0.00001189,0.00008372,0.00001609,-0.00034721,0.00
 025085,-0.00048392,-0.00001615,0.00006567,0.00006461,0.00001093,0.0000
 0773,-0.00000510,-0.00002636,0.00000734,-0.00001353,-0.00000936,0.0000
 1610,-0.00001325,0.00000601,-0.00000544,-0.00001436,-0.00006603,-0.000
 02982,0.00000133,0.00021650,0.00025274,0.00024257,-0.00025791,0.000026
 74,0.00021794,0.02001013,-0.00493604,0.04404010,0.00020275,0.00020632,
 0.00026214,0.00011513,-0.00001447,-0.00014050,-0.00011535,0.00000128,0
 .00002853,0.00012188,-0.00003846,0.00009511,0.00002269,0.00015254,-0.0
 0003710,-0.00021743,-0.00013189,-0.00010160,-0.00000659,0.00025077,0.0
 0019498,-0.00011938,-0.00009548,0.00000469,-0.00001221,-0.00017266,-0.
 00004022,-0.00006061,0.00027044,0.00002810,-0.00044152,-0.00019101,0.0
 0015643,0.00042466,0.00039816,-0.00011847,0.00027061,-0.00009555,-0.00
 032344,-0.00108122,-0.00107007,-0.00034016,-0.00479616,0.01328089,-0.0
 0651932,-0.00048826,0.00191030,0.00060191,-0.00116618,-0.00017139,-0.0
 0054631,0.00007588,0.00007275,0.00000028,-0.00032935,0.00009333,-0.000
 06006,-0.17122102,0.08022812,0.01180727,0.00069971,0.00025003,0.000480
 66,-0.00007825,0.00023608,0.00079548,-0.00004270,-0.00012304,0.0001562
 4,-0.00003452,-0.00003054,0.00000187,0.00001060,-0.00001256,-0.0000393
 4,-0.00004293,0.00003084,-0.00006196,-0.00002670,-0.00000771,-0.000146
 31,0.00008039,-0.00000944,-0.00004577,0.00002806,-0.00002829,-0.000032
 65,-0.00001602,-0.00003450,-0.00002741,0.00005465,-0.00004843,-0.00002
 648,0.00006384,-0.00008599,0.00004301,0.00018070,-0.00024814,0.0000834
 2,-0.00014384,0.00001295,0.00001840,0.00011562,-0.00035229,-0.00074363
 ,-0.00007953,-0.00097110,0.00177869,0.00006113,0.00013341,-0.00004150,
 0.00000273,-0.00049095,0.00021221,-0.00006074,-0.00002225,-0.00001063,
 0.00014474,-0.00000313,0.00009617,-0.00048087,-0.00041359,-0.00029005,
 0.00014394,-0.00002323,-0.00007931,0.00003015,0.00004734,-0.00004566,0
 .17830423,-0.00006509,-0.00020363,-0.00007839,-0.00006076,0.00001349,0
 .00003293,0.00006619,0.00002616,-0.00001108,-0.00005858,-0.00005235,-0
 .00002017,-0.00002841,-0.00008008,-0.00000426,0.00043085,0.00054246,-0
 .00007303,-0.00007891,-0.00049737,0.00008736,0.00010900,0.00015686,0.0
 0001311,0.00006140,-0.00001162,0.00002869,0.00011015,-0.00004902,0.000
 09994,0.00001897,-0.00001975,-0.00050185,0.00012662,-0.00002251,0.0001
 5592,-0.00020609,-0.00015194,0.00007846,0.00122644,0.00088264,-0.00019
 394,0.04027888,-0.03764477,0.00812946,-0.00067365,-0.00099742,-0.00188
 798,-0.00028905,-0.00104651,0.00159378,-0.00033239,0.00007625,0.000096
 50,0.00038748,0.00023956,-0.00043401,0.05167614,-0.04608717,0.01364260
 ,-0.00065049,-0.00030099,-0.00018267,-0.00023926,-0.00041733,-0.000580
 48,-0.00001857,-0.00003953,-0.00004538,0.00000791,0.00001374,-0.000001
 68,-0.00000903,0.00000107,0.00001084,0.00002782,0.00001780,0.00002141,
 0.00002811,0.00001944,0.00008517,-0.00008253,-0.00003829,0.00002227,-0
 .00000801,0.00000448,-0.00000248,-0.00004151,0.00002216,-0.00001524,-0
 .00016351,-0.00001326,-0.00013847,-0.00008254,0.00000415,-0.00006239,-
 0.00011737,0.00017988,0.00004830,0.00004752,-0.00005468,0.00001110,-0.
 00010663,0.00074104,0.00000417,0.00102548,-0.00526606,0.00340806,0.000
 21766,0.00003636,-0.00019611,-0.00016584,0.00004044,-0.00004308,0.0000
 1490,-0.00007555,-0.00003890,0.00000142,-0.00014911,0.00011249,0.00024
 330,0.00042985,0.00006935,-0.00002109,0.00010604,0.00015566,0.00002851
 ,0.00001866,0.00003752,-0.09266276,0.08957859,0.00013849,-0.00001801,0
 .00005612,0.00004590,0.00002202,-0.00001639,-0.00008241,0.00002751,0.0
 0000273,0.00009444,-0.00009172,0.00004409,0.00003270,0.00006770,-0.000
 04635,0.00001017,0.00028250,-0.00019495,0.00013961,-0.00006749,0.00022
 623,-0.00014051,-0.00005116,-0.00000156,0.00005811,-0.00015126,-0.0000
 1944,0.00006729,0.00021143,0.00004357,-0.00006157,-0.00024169,0.000064
 31,0.00009381,0.00021368,-0.00014812,-0.00005289,-0.00004100,-0.000364
 44,-0.00033501,0.00243200,-0.00198619,-0.02683702,0.01485538,-0.000982
 90,0.00226205,-0.00048576,-0.00091033,-0.00049497,-0.00001451,0.000230
 01,-0.00008148,-0.00006982,0.00008493,-0.00004810,-0.00005757,-0.00019
 091,0.03229578,0.00496507,-0.01724862,0.00037344,-0.00049934,0.0001110
 3,0.00000632,-0.00024257,0.00002618,-0.00000807,-0.00014495,0.00008240
 ,-0.00002108,-0.00002540,-0.00000618,0.00000069,-0.00000593,-0.0000231
 1,-0.00001881,0.00004474,-0.00002959,-0.00000444,0.00002320,-0.0000039
 5,0.00000277,-0.00003539,-0.00001542,0.00002138,-0.00000714,-0.0000240
 7,-0.00004914,-0.00000966,0.00000894,-0.00011326,-0.00007049,-0.000074
 66,-0.00002310,-0.00007935,0.00003168,-0.00003105,0.00016310,-0.000076
 49,0.00000751,0.00004814,0.00008744,-0.00048874,0.00049268,-0.00074495
 ,0.00036194,0.00182519,-0.00095734,0.00000186,-0.00000204,-0.00003826,
 0.00001633,0.00000939,0.00013310,-0.00001188,-0.00002091,0.00003648,0.
 00006230,0.00002592,0.00005679,-0.00015726,0.00004834,-0.00017163,0.00
 001323,0.00002329,-0.00002843,0.00001899,0.00005835,0.00000142,-0.0069
 9480,-0.02344325,0.02297676,-0.10718040,0.09725086,0.00299369,-0.01485
 397,0.01121113,0.01289326,0.00147345,-0.00157508,0.00188382,-0.0024312
 3,-0.00021364,0.00182532,-0.00066466,-0.00062445,0.00042079,-0.0009607
 4,-0.00049129,0.00014680,0.00094465,0.00007326,-0.00026787,-0.00153730
 ,0.00098744,0.00078944,0.00021268,0.00037182,0.00015061,-0.00002504,-0
 .00055339,0.00008867,0.00015947,0.00018332,-0.00011347,-0.00013221,-0.
 00015127,0.00012380,0.00012721,-0.00003929,-0.00015509,-0.00078001,-0.
 00000971,0.00005781,-0.00028787,0.00005953,-0.00045748,0.00021339,0.00
 015042,0.00017050,0.00002988,-0.00004581,-0.00005231,-0.00007137,-0.00
 001065,0.00005835,0.00010719,0.00007695,-0.00000086,0.00012693,-0.0001
 5046,0.00027714,0.00123396,0.00048675,0.00087861,0.00043430,0.00037379
 ,0.00025097,0.00030378,0.00081450,-0.00043365,0.00176653,0.00033610,-0
 .00196120,-0.00030677,0.00061733,0.00017095,0.00007076,-0.00040237,0.0
 0069914,-0.00027445,-0.00043369,0.00021399,0.00001966,0.00001505,0.000
 11537,-0.00003564,0.00018926,0.00015099,-0.00000020,0.00015159,-0.0001
 5574,-0.00008310,-0.00002470,-0.00003326,-0.00000630,0.00017090,-0.000
 12643,-0.00002256,0.00003186,-0.00000005,-0.00001849,-0.00007995,-0.00
 000625,-0.00001733,0.00002736,-0.00005396,0.00008769,-0.00004677,-0.00
 000285,0.00001063,-0.00003575,-0.00000180,-0.00001679,0.00000776,-0.00
 002352,0.00001036,-0.00002072,-0.00002157,-0.00005906,-0.00006124,-0.0
 0001967,-0.00235231,0.00073120,-0.00182200,-0.00007712,-0.00003170,0.0
 0004552,-0.00014783,-0.00020632,-0.00011855,-0.00009249,0.00002714,-0.
 00006948,0.12510362,0.09640599,-0.09637953,-0.00623971,0.01270741,-0.0
 1484172,-0.01177380,-0.00266108,0.00391351,0.00215684,0.00104894,-0.00
 092584,-0.00313305,0.00043995,-0.00029864,-0.00004561,0.00025936,0.001
 79804,-0.00089244,-0.00123077,-0.00170007,0.00040351,0.00150727,0.0008
 7311,0.00083737,-0.00012155,-0.00054389,-0.00009183,-0.00026924,0.0004
 4311,0.00001453,0.00006415,-0.00003621,0.00000430,0.00001129,-0.000034
 00,-0.00006997,0.00001351,0.00014545,0.00024660,-0.00033683,-0.0003856
 3,-0.00011287,0.00000925,0.00016687,-0.00010564,0.00003560,-0.00005978
 ,0.00001549,0.00000126,0.00000074,-0.00000386,-0.00001195,-0.00002411,
 0.00002149,0.00002251,-0.00001427,-0.00001773,0.00006098,-0.00022878,-
 0.00000581,0.00033253,-0.00117114,0.00006212,-0.00011580,-0.00067730,-
 0.00018765,0.00033703,-0.00045837,-0.00026083,-0.00032876,-0.00072462,
 -0.00117290,0.00028663,-0.00053650,0.00005796,0.00005897,-0.00022305,-
 0.00021344,-0.00067469,0.00003564,0.00050878,0.00008306,-0.00009719,0.
 00004538,-0.00023755,0.00004351,-0.00026306,0.00017039,-0.00005115,0.0
 0010732,0.00014785,0.00005396,0.00006140,0.00013698,-0.00018749,0.0000
 5852,-0.00000654,0.00003557,0.00001168,-0.00013045,0.00005881,0.000005
 61,0.00015213,0.00019406,0.00008277,-0.00006887,0.00003940,0.00000397,
 -0.00002928,0.00001971,-0.00000218,-0.00000494,0.00001526,-0.00000300,
 -0.00000189,0.00000563,-0.00000067,-0.00001289,0.00001134,-0.00000216,
 0.00133762,0.00345041,0.00135237,-0.00002697,0.00002893,0.00001235,-0.
 00019928,0.00006910,0.00013271,-0.00002572,0.00006769,0.00003662,-0.10
 913678,0.10812990,-0.02035972,0.01611197,-0.03764192,0.03473213,-0.032
 21723,-0.01025665,0.00464720,-0.00075438,-0.00423399,-0.00105121,0.000
 56078,-0.00324170,-0.00011405,0.00012536,-0.00022246,0.00056481,-0.000
 51116,0.00044850,-0.00066259,0.00060308,-0.00007497,0.00116909,-0.0026
 5514,-0.00639138,-0.00033711,0.00018521,-0.00012950,-0.00005990,0.0001
 4297,-0.00000206,-0.00002389,0.00000857,-0.00009728,-0.00000600,-0.000
 02740,-0.00002160,0.00004727,0.00009352,0.00026032,-0.00036894,-0.0000
 5844,0.00001636,-0.00012193,-0.00012623,0.00005921,0.00015990,0.000095
 09,-0.00009115,-0.00002746,-0.00007085,0.00011757,-0.00001557,0.000002
 60,0.00000399,0.00000826,0.00001179,-0.00004949,0.00010466,0.00004900,
 -0.00005429,0.00086916,0.00010849,-0.00048333,-0.00036475,-0.00004248,
 -0.00037632,-0.00044867,-0.00015285,0.00004031,0.00036269,-0.00120252,
 -0.00150296,-0.00022353,-0.00019412,0.00004094,-0.00042624,0.00092534,
 0.00113057,0.00015244,0.00019627,0.00034083,-0.00007307,0.00000654,-0.
 00006250,0.00097560,-0.00033799,0.00023353,0.00006728,-0.00019356,0.00
 011379,0.00001451,-0.00000493,0.00001485,0.00002222,-0.00000728,0.0000
 7612,0.00000082,0.00000026,0.00001073,0.00003018,-0.00000803,0.0000170
 9,0.00005829,0.00005662,0.00006243,-0.00006993,0.00000853,0.00000038,-
 0.00000740,0.00000286,-0.00000146,-0.00000149,-0.00000216,0.00000405,-
 0.00000040,-0.00000112,0.00000362,0.00001497,-0.00000451,0.00002455,-0
 .00090298,0.00079368,0.00083043,0.00003585,0.00001935,0.00004410,0.000
 17124,0.00009750,0.00003285,-0.00003310,0.00000997,0.00000083,-0.01850
 846,0.01835722,0.06100666\\0.00001033,-0.00000279,0.00002235,0.0000408
 5,0.00000683,-0.00001862,0.00003417,-0.00001306,0.00001150,-0.00003304
 ,0.00002482,-0.00001395,-0.00002749,-0.00001635,0.00002572,0.00004197,
 0.00001574,0.00004838,0.00000665,0.00000096,-0.00001575,-0.00002300,0.
 00001855,0.00001597,0.00004608,0.00000125,0.00000856,-0.00006865,-0.00
 004063,0.00005475,-0.00001858,-0.00000346,0.00000220,-0.00001552,-0.00
 001578,-0.00004388,0.00000671,-0.00002631,-0.00000851,0.00003920,0.000
 03736,-0.00002336,-0.00002706,-0.00004438,0.00001082,-0.00001472,0.000
 05921,0.00003680,-0.00001151,0.00007298,-0.00003437,0.00009026,0.00006
 453,0.00003469,-0.00004061,-0.00000568,-0.00003560,0.00001101,-0.00008
 016,0.00002000,-0.00003685,0.00005548,-0.00000477,-0.00002600,-0.00000
 348,-0.00000159,0.00002486,0.00001508,-0.00002453,-0.00001413,-0.00000
 289,-0.00000051,-0.00000751,0.00000250,-0.00000744,-0.00000151,-0.0000
 1066,0.00001462,0.00000782,-0.00000250,-0.00000353,-0.00000504,0.00000
 193,-0.00002090,0.00000919,-0.00000736,-0.00000324,-0.00001637,-0.0000
 0539,-0.00002483,-0.00001026,0.00000180,0.00000968,0.00004467,0.000024
 79,-0.00004234,0.00000789,0.00000729,0.00001758,-0.00000181,0.00002110
 ,-0.00000857,-0.00000324,-0.00002148,-0.00000744,0.00000555,0.00001301
 ,-0.00000169,0.00002517,-0.00004056,-0.00000509,0.00000441,-0.00001422
 ,-0.00000388,-0.00002306,-0.00002530,-0.00002190,0.00002197,-0.0000121
 4,0.00003884,-0.00001238,-0.00004782,-0.00000927,0.00000599,-0.0000007
 8,0.00000009,-0.00001040,-0.00000250,-0.00000157,-0.00001187,-0.000010
 10,0.00002001,-0.00002415,0.00001057,-0.00000545\\\@


 THESE ARE THE TIMES THAT TRY MENS SOULS.
 THE SUMMER SOLDIER AND THE SUNSHINE PATRIOT WILL IN THIS CRISIS,
 SHRINK FROM THE SERVICE OF HIS COUNTRY.  BUT HE THAT STANDS NOW,
 DESERVES THE LOVE AND THANKS OF MAN AND WOMAN.
 TYRANNY, LIKE HELL, IS NOT EASILY CONQUERED,
 YET WE HAVE THIS CONSOLATION WITH US,
 THAT THE HARDER THE CONFLICT, THE MORE GLORIOUS THE TRIUMPH.
 WHAT WE OBTAIN TOO CHEAP, WE ESTEEM TOO LIGHTLY, 
 'TIS DEARNESS ONLY THAT GIVES EVERYTHING ITS VALUE.

                                              -- TOM PAINE
 Job cpu time:       0 days  0 hours  0 minutes 11.0 seconds.
 Elapsed time:       0 days  0 hours  0 minutes  0.9 seconds.
 File lengths (MBytes):  RWF=    217 Int=      0 D2E=      0 Chk=      4 Scr=      1
 Normal termination of Gaussian 16 at Tue Jun 22 14:19:53 2021.
