 Entering Gaussian System, Link 0=g16
 Input=input.com
 Output=input.log
 Initial command:
 /home/matma/Programs/gaussian/G16_x86_SSE4/tar/g16/l1.exe "/scratch-data/gaussian/Gau-3118.inp" -scrdir="/scratch-data/gaussian/"
 Entering Link 1 = /home/matma/Programs/gaussian/G16_x86_SSE4/tar/g16/l1.exe PID=      3120.
  
 Copyright (c) 1988-2017, Gaussian, Inc.  All Rights Reserved.
  
 This is part of the Gaussian(R) 16 program.  It is based on
 the Gaussian(R) 09 system (copyright 2009, Gaussian, Inc.),
 the Gaussian(R) 03 system (copyright 2003, Gaussian, Inc.),
 the Gaussian(R) 98 system (copyright 1998, Gaussian, Inc.),
 the Gaussian(R) 94 system (copyright 1995, Gaussian, Inc.),
 the Gaussian 92(TM) system (copyright 1992, Gaussian, Inc.),
 the Gaussian 90(TM) system (copyright 1990, Gaussian, Inc.),
 the Gaussian 88(TM) system (copyright 1988, Gaussian, Inc.),
 the Gaussian 86(TM) system (copyright 1986, Carnegie Mellon
 University), and the Gaussian 82(TM) system (copyright 1983,
 Carnegie Mellon University). Gaussian is a federally registered
 trademark of Gaussian, Inc.
  
 This software contains proprietary and confidential information,
 including trade secrets, belonging to Gaussian, Inc.
  
 This software is provided under written license and may be
 used, copied, transmitted, or stored only in accord with that
 written license.
  
 The following legend is applicable only to US Government
 contracts under FAR:
  
                    RESTRICTED RIGHTS LEGEND
  
 Use, reproduction and disclosure by the US Government is
 subject to restrictions as set forth in subparagraphs (a)
 and (c) of the Commercial Computer Software - Restricted
 Rights clause in FAR 52.227-19.
  
 Gaussian, Inc.
 340 Quinnipiac St., Bldg. 40, Wallingford CT 06492
  
  
 ---------------------------------------------------------------
 Warning -- This program may not be used in any manner that
 competes with the business of Gaussian, Inc. or will provide
 assistance to any competitor of Gaussian, Inc.  The licensee
 of this program is prohibited from giving any competitor of
 Gaussian, Inc. access to this program.  By using this program,
 the user acknowledges that Gaussian, Inc. is engaged in the
 business of creating and licensing software in the field of
 computational chemistry and represents and warrants to the
 licensee that it is not a competitor of Gaussian, Inc. and that
 it will not use this program in any manner prohibited above.
 ---------------------------------------------------------------
  

 Cite this work as:
 Gaussian 16, Revision B.01,
 M. J. Frisch, G. W. Trucks, H. B. Schlegel, G. E. Scuseria, 
 M. A. Robb, J. R. Cheeseman, G. Scalmani, V. Barone, 
 G. A. Petersson, H. Nakatsuji, X. Li, M. Caricato, A. V. Marenich, 
 J. Bloino, B. G. Janesko, R. Gomperts, B. Mennucci, H. P. Hratchian, 
 J. V. Ortiz, A. F. Izmaylov, J. L. Sonnenberg, D. Williams-Young, 
 F. Ding, F. Lipparini, F. Egidi, J. Goings, B. Peng, A. Petrone, 
 T. Henderson, D. Ranasinghe, V. G. Zakrzewski, J. Gao, N. Rega, 
 G. Zheng, W. Liang, M. Hada, M. Ehara, K. Toyota, R. Fukuda, 
 J. Hasegawa, M. Ishida, T. Nakajima, Y. Honda, O. Kitao, H. Nakai, 
 T. Vreven, K. Throssell, J. A. Montgomery, Jr., J. E. Peralta, 
 F. Ogliaro, M. J. Bearpark, J. J. Heyd, E. N. Brothers, K. N. Kudin, 
 V. N. Staroverov, T. A. Keith, R. Kobayashi, J. Normand, 
 K. Raghavachari, A. P. Rendell, J. C. Burant, S. S. Iyengar, 
 J. Tomasi, M. Cossi, J. M. Millam, M. Klene, C. Adamo, R. Cammi, 
 J. W. Ochterski, R. L. Martin, K. Morokuma, O. Farkas, 
 J. B. Foresman, and D. J. Fox, Gaussian, Inc., Wallingford CT, 2016.
 
 ******************************************
 Gaussian 16:  ES64L-G16RevB.01 20-Dec-2017
                22-Jun-2021 
 ******************************************
 %nproc=12
 Will use up to   12 processors via shared memory.
 %mem=16GB
 --------------------------------------
 #P pm6 opt=loose freq int=(grid=99590)
 --------------------------------------
 1/7=-1,18=20,19=15,26=1,38=1/1,3;
 2/9=110,12=2,17=6,18=5,40=1/2;
 3/5=2,25=1,41=3900000,71=1,75=99590/1,2,3;
 4/35=1/1;
 5/5=2,35=1,38=5/2;
 6/7=2,8=2,9=2,10=2,28=1/1;
 7//1,2,3,16;
 1/7=-1,18=20,19=15,26=1/3(2);
 2/9=110/2;
 99//99;
 2/9=110/2;
 3/5=2,25=1,41=3900000,71=1,75=99590,135=20/1,2,3;
 4/5=5,16=3,35=1/1;
 5/5=2,35=1,38=5/2;
 7//1,2,3,16;
 1/7=-1,18=20,19=15,26=1/3(-5);
 2/9=110/2;
 6/7=2,8=2,9=2,10=2,19=2,28=1/1;
 99/9=1/99;
 Leave Link    1 at Tue Jun 22 14:21:33 2021, MaxMem=  2147483648 cpu:               0.2 elap:               0.0
 (Enter /home/matma/Programs/gaussian/G16_x86_SSE4/tar/g16/l101.exe)
 ------------
 offspring-04
 ------------
 Symbolic Z-matrix:
 Charge =  0 Multiplicity = 1
 O                     1.666     0.167     1.033 
 C                     2.184     1.504     1.056 
 C                     3.043     1.697     2.327 
 O                     3.887     0.539     2.342 
 C                     2.141     1.703     3.58 
 C                     1.166     2.894     3.498 
 O                     0.97      3.362     2.169 
 C                     0.961     2.448     1.051 
 C                    -0.382     1.705     1.026 
 O                    -1.433     2.618     1.391 
 O                     0.131     7.281     3.162 
 C                    -0.724     6.36      3.862 
 C                    -0.473     4.938     3.314 
 C                    -1.048     3.84      4.238 
 C                    -0.96      4.155     5.756 
 O                    -1.068     5.535     6.11 
 C                    -0.297     6.483     5.334 
 C                    -0.673     7.838     5.969 
 O                    -1.17      8.767     5.012 
 O                    -2.112     3.603     6.393 
 O                    -0.155     2.725     4.033 
 O                    -1.19      4.95      2.084 
 O                     3.027     1.931     4.677 
 H                     2.807     1.639     0.141 
 H                     3.682     2.607     2.284 
 H                     4.362     0.492     3.21 
 H                     1.624     0.72      3.697 
 H                     1.525     3.816     4.021 
 H                     1.027     3.188     0.213 
 H                    -0.653     1.358     0.012 
 H                    -0.407     0.844     1.724 
 H                    -1.089     3.237     2.113 
 H                    -1.787     6.666     3.707 
 H                     0.611     4.753     3.125 
 H                    -2.09      3.583     3.937 
 H                    -0.074     3.698     6.245 
 H                     0.782     6.247     5.463 
 H                    -1.52      7.718     6.679 
 H                     0.193     8.282     6.494 
 H                    -0.519     8.879     4.267 
 H                    -0.872     4.199     1.469 
 H                    -0.088     7.249     2.197 
 H                     2.69      1.452     5.486 
 H                    -2.743     4.325     6.648 
 H                     2.4      -0.473     1.245 
 
 ITRead=  0  0  0  0  0  0  0  0  0  0  0  0  0  0  0  0  0  0  0  0
 ITRead=  0  0  0  0  0  0  0  0  0  0  0  0  0  0  0  0  0  0  0  0
 ITRead=  0  0  0  0  0
 MicOpt= -1 -1 -1 -1 -1 -1 -1 -1 -1 -1 -1 -1 -1 -1 -1 -1 -1 -1 -1 -1
 MicOpt= -1 -1 -1 -1 -1 -1 -1 -1 -1 -1 -1 -1 -1 -1 -1 -1 -1 -1 -1 -1
 MicOpt= -1 -1 -1 -1 -1
 NAtoms=     45 NQM=       45 NQMF=       0 NMMI=      0 NMMIF=      0
                NMic=       0 NMicF=      0.
                    Isotopes and Nuclear Properties:
 (Nuclear quadrupole moments (NQMom) in fm**2, nuclear magnetic moments (NMagM)
  in nuclear magnetons)

  Atom         1           2           3           4           5           6           7           8           9          10
 IAtWgt=          16          12          12          16          12          12          16          12          12          16
 AtmWgt=  15.9949146  12.0000000  12.0000000  15.9949146  12.0000000  12.0000000  15.9949146  12.0000000  12.0000000  15.9949146
 NucSpn=           0           0           0           0           0           0           0           0           0           0
 AtZEff=  -0.0000000  -0.0000000  -0.0000000  -0.0000000  -0.0000000  -0.0000000  -0.0000000  -0.0000000  -0.0000000  -0.0000000
 NQMom=    0.0000000   0.0000000   0.0000000   0.0000000   0.0000000   0.0000000   0.0000000   0.0000000   0.0000000   0.0000000
 NMagM=    0.0000000   0.0000000   0.0000000   0.0000000   0.0000000   0.0000000   0.0000000   0.0000000   0.0000000   0.0000000
 AtZNuc=   8.0000000   6.0000000   6.0000000   8.0000000   6.0000000   6.0000000   8.0000000   6.0000000   6.0000000   8.0000000

  Atom        11          12          13          14          15          16          17          18          19          20
 IAtWgt=          16          12          12          12          12          16          12          12          16          16
 AtmWgt=  15.9949146  12.0000000  12.0000000  12.0000000  12.0000000  15.9949146  12.0000000  12.0000000  15.9949146  15.9949146
 NucSpn=           0           0           0           0           0           0           0           0           0           0
 AtZEff=  -0.0000000  -0.0000000  -0.0000000  -0.0000000  -0.0000000  -0.0000000  -0.0000000  -0.0000000  -0.0000000  -0.0000000
 NQMom=    0.0000000   0.0000000   0.0000000   0.0000000   0.0000000   0.0000000   0.0000000   0.0000000   0.0000000   0.0000000
 NMagM=    0.0000000   0.0000000   0.0000000   0.0000000   0.0000000   0.0000000   0.0000000   0.0000000   0.0000000   0.0000000
 AtZNuc=   8.0000000   6.0000000   6.0000000   6.0000000   6.0000000   8.0000000   6.0000000   6.0000000   8.0000000   8.0000000

  Atom        21          22          23          24          25          26          27          28          29          30
 IAtWgt=          16          16          16           1           1           1           1           1           1           1
 AtmWgt=  15.9949146  15.9949146  15.9949146   1.0078250   1.0078250   1.0078250   1.0078250   1.0078250   1.0078250   1.0078250
 NucSpn=           0           0           0           1           1           1           1           1           1           1
 AtZEff=  -0.0000000  -0.0000000  -0.0000000  -0.0000000  -0.0000000  -0.0000000  -0.0000000  -0.0000000  -0.0000000  -0.0000000
 NQMom=    0.0000000   0.0000000   0.0000000   0.0000000   0.0000000   0.0000000   0.0000000   0.0000000   0.0000000   0.0000000
 NMagM=    0.0000000   0.0000000   0.0000000   2.7928460   2.7928460   2.7928460   2.7928460   2.7928460   2.7928460   2.7928460
 AtZNuc=   8.0000000   8.0000000   8.0000000   1.0000000   1.0000000   1.0000000   1.0000000   1.0000000   1.0000000   1.0000000

  Atom        31          32          33          34          35          36          37          38          39          40
 IAtWgt=           1           1           1           1           1           1           1           1           1           1
 AtmWgt=   1.0078250   1.0078250   1.0078250   1.0078250   1.0078250   1.0078250   1.0078250   1.0078250   1.0078250   1.0078250
 NucSpn=           1           1           1           1           1           1           1           1           1           1
 AtZEff=  -0.0000000  -0.0000000  -0.0000000  -0.0000000  -0.0000000  -0.0000000  -0.0000000  -0.0000000  -0.0000000  -0.0000000
 NQMom=    0.0000000   0.0000000   0.0000000   0.0000000   0.0000000   0.0000000   0.0000000   0.0000000   0.0000000   0.0000000
 NMagM=    2.7928460   2.7928460   2.7928460   2.7928460   2.7928460   2.7928460   2.7928460   2.7928460   2.7928460   2.7928460
 AtZNuc=   1.0000000   1.0000000   1.0000000   1.0000000   1.0000000   1.0000000   1.0000000   1.0000000   1.0000000   1.0000000

  Atom        41          42          43          44          45
 IAtWgt=           1           1           1           1           1
 AtmWgt=   1.0078250   1.0078250   1.0078250   1.0078250   1.0078250
 NucSpn=           1           1           1           1           1
 AtZEff=  -0.0000000  -0.0000000  -0.0000000  -0.0000000  -0.0000000
 NQMom=    0.0000000   0.0000000   0.0000000   0.0000000   0.0000000
 NMagM=    2.7928460   2.7928460   2.7928460   2.7928460   2.7928460
 AtZNuc=   1.0000000   1.0000000   1.0000000   1.0000000   1.0000000
 Leave Link  101 at Tue Jun 22 14:21:33 2021, MaxMem=  2147483648 cpu:               3.0 elap:               0.2
 (Enter /home/matma/Programs/gaussian/G16_x86_SSE4/tar/g16/l103.exe)

 GradGradGradGradGradGradGradGradGradGradGradGradGradGradGradGradGradGrad
 Berny optimization.
 Initialization pass.
                           ----------------------------
                           !    Initial Parameters    !
                           ! (Angstroms and Degrees)  !
 --------------------------                            --------------------------
 ! Name  Definition              Value          Derivative Info.                !
 --------------------------------------------------------------------------------
 ! R1    R(1,2)                  1.434          estimate D2E/DX2                !
 ! R2    R(1,45)                 0.9966         estimate D2E/DX2                !
 ! R3    R(2,3)                  1.5461         estimate D2E/DX2                !
 ! R4    R(2,8)                  1.545          estimate D2E/DX2                !
 ! R5    R(2,24)                 1.1152         estimate D2E/DX2                !
 ! R6    R(3,4)                  1.433          estimate D2E/DX2                !
 ! R7    R(3,5)                  1.5439         estimate D2E/DX2                !
 ! R8    R(3,25)                 1.1128         estimate D2E/DX2                !
 ! R9    R(4,26)                 0.9906         estimate D2E/DX2                !
 ! R10   R(5,6)                  1.5414         estimate D2E/DX2                !
 ! R11   R(5,23)                 1.4284         estimate D2E/DX2                !
 ! R12   R(5,27)                 1.1168         estimate D2E/DX2                !
 ! R13   R(6,7)                  1.4226         estimate D2E/DX2                !
 ! R14   R(6,21)                 1.4352         estimate D2E/DX2                !
 ! R15   R(6,28)                 1.1191         estimate D2E/DX2                !
 ! R16   R(7,8)                  1.4441         estimate D2E/DX2                !
 ! R17   R(8,9)                  1.535          estimate D2E/DX2                !
 ! R18   R(8,29)                 1.1199         estimate D2E/DX2                !
 ! R19   R(9,10)                 1.4392         estimate D2E/DX2                !
 ! R20   R(9,30)                 1.1055         estimate D2E/DX2                !
 ! R21   R(9,31)                 1.1087         estimate D2E/DX2                !
 ! R22   R(10,32)                1.0113         estimate D2E/DX2                !
 ! R23   R(11,12)                1.4385         estimate D2E/DX2                !
 ! R24   R(11,42)                0.9901         estimate D2E/DX2                !
 ! R25   R(12,13)                1.5445         estimate D2E/DX2                !
 ! R26   R(12,17)                1.5376         estimate D2E/DX2                !
 ! R27   R(12,33)                1.117          estimate D2E/DX2                !
 ! R28   R(13,14)                1.546          estimate D2E/DX2                !
 ! R29   R(13,22)                1.4238         estimate D2E/DX2                !
 ! R30   R(13,34)                1.1158         estimate D2E/DX2                !
 ! R31   R(14,15)                1.5528         estimate D2E/DX2                !
 ! R32   R(14,21)                1.4432         estimate D2E/DX2                !
 ! R33   R(14,35)                1.1146         estimate D2E/DX2                !
 ! R34   R(15,16)                1.4288         estimate D2E/DX2                !
 ! R35   R(15,20)                1.4274         estimate D2E/DX2                !
 ! R36   R(15,36)                1.1104         estimate D2E/DX2                !
 ! R37   R(16,17)                1.4475         estimate D2E/DX2                !
 ! R38   R(17,18)                1.5429         estimate D2E/DX2                !
 ! R39   R(17,37)                1.112          estimate D2E/DX2                !
 ! R40   R(18,19)                1.4233         estimate D2E/DX2                !
 ! R41   R(18,38)                1.1117         estimate D2E/DX2                !
 ! R42   R(18,39)                1.1058         estimate D2E/DX2                !
 ! R43   R(19,40)                0.9957         estimate D2E/DX2                !
 ! R44   R(20,44)                0.9922         estimate D2E/DX2                !
 ! R45   R(22,41)                1.0214         estimate D2E/DX2                !
 ! R46   R(23,43)                0.9987         estimate D2E/DX2                !
 ! A1    A(2,1,45)             109.2243         estimate D2E/DX2                !
 ! A2    A(1,2,3)              109.284          estimate D2E/DX2                !
 ! A3    A(1,2,8)              106.4801         estimate D2E/DX2                !
 ! A4    A(1,2,24)             107.5483         estimate D2E/DX2                !
 ! A5    A(3,2,8)              111.4806         estimate D2E/DX2                !
 ! A6    A(3,2,24)             110.4264         estimate D2E/DX2                !
 ! A7    A(8,2,24)             111.4457         estimate D2E/DX2                !
 ! A8    A(2,3,4)              103.5887         estimate D2E/DX2                !
 ! A9    A(2,3,5)              110.063          estimate D2E/DX2                !
 ! A10   A(2,3,25)             112.9139         estimate D2E/DX2                !
 ! A11   A(4,3,5)              109.8001         estimate D2E/DX2                !
 ! A12   A(4,3,25)             108.8462         estimate D2E/DX2                !
 ! A13   A(5,3,25)             111.3259         estimate D2E/DX2                !
 ! A14   A(3,4,26)             109.2647         estimate D2E/DX2                !
 ! A15   A(3,5,6)              109.2315         estimate D2E/DX2                !
 ! A16   A(3,5,23)             105.1601         estimate D2E/DX2                !
 ! A17   A(3,5,27)             110.6132         estimate D2E/DX2                !
 ! A18   A(6,5,23)             108.0516         estimate D2E/DX2                !
 ! A19   A(6,5,27)             113.1324         estimate D2E/DX2                !
 ! A20   A(23,5,27)            110.3145         estimate D2E/DX2                !
 ! A21   A(5,6,7)              113.0202         estimate D2E/DX2                !
 ! A22   A(5,6,21)             118.1252         estimate D2E/DX2                !
 ! A23   A(5,6,28)             114.1295         estimate D2E/DX2                !
 ! A24   A(7,6,21)             105.0804         estimate D2E/DX2                !
 ! A25   A(7,6,28)             102.1077         estimate D2E/DX2                !
 ! A26   A(21,6,28)            102.5952         estimate D2E/DX2                !
 ! A27   A(6,7,8)              121.0581         estimate D2E/DX2                !
 ! A28   A(2,8,7)              112.2897         estimate D2E/DX2                !
 ! A29   A(2,8,9)              113.3832         estimate D2E/DX2                !
 ! A30   A(2,8,29)             111.0702         estimate D2E/DX2                !
 ! A31   A(7,8,9)              108.9301         estimate D2E/DX2                !
 ! A32   A(7,8,29)              99.2489         estimate D2E/DX2                !
 ! A33   A(9,8,29)             111.0514         estimate D2E/DX2                !
 ! A34   A(8,9,10)             109.1301         estimate D2E/DX2                !
 ! A35   A(8,9,30)             112.4175         estimate D2E/DX2                !
 ! A36   A(8,9,31)             112.667          estimate D2E/DX2                !
 ! A37   A(10,9,30)            104.6392         estimate D2E/DX2                !
 ! A38   A(10,9,31)            108.4525         estimate D2E/DX2                !
 ! A39   A(30,9,31)            109.1591         estimate D2E/DX2                !
 ! A40   A(9,10,32)            108.7195         estimate D2E/DX2                !
 ! A41   A(12,11,42)           108.7922         estimate D2E/DX2                !
 ! A42   A(11,12,13)           108.6768         estimate D2E/DX2                !
 ! A43   A(11,12,17)           104.4527         estimate D2E/DX2                !
 ! A44   A(11,12,33)           108.8277         estimate D2E/DX2                !
 ! A45   A(13,12,17)           111.6043         estimate D2E/DX2                !
 ! A46   A(13,12,33)           110.9563         estimate D2E/DX2                !
 ! A47   A(17,12,33)           112.0377         estimate D2E/DX2                !
 ! A48   A(12,13,14)           112.4207         estimate D2E/DX2                !
 ! A49   A(12,13,22)           102.5284         estimate D2E/DX2                !
 ! A50   A(12,13,34)           111.755          estimate D2E/DX2                !
 ! A51   A(14,13,22)           109.574          estimate D2E/DX2                !
 ! A52   A(14,13,34)           110.1707         estimate D2E/DX2                !
 ! A53   A(22,13,34)           110.1394         estimate D2E/DX2                !
 ! A54   A(13,14,15)           114.7794         estimate D2E/DX2                !
 ! A55   A(13,14,21)           103.5143         estimate D2E/DX2                !
 ! A56   A(13,14,35)           110.4907         estimate D2E/DX2                !
 ! A57   A(15,14,21)           105.1012         estimate D2E/DX2                !
 ! A58   A(15,14,35)           111.3298         estimate D2E/DX2                !
 ! A59   A(21,14,35)           111.2206         estimate D2E/DX2                !
 ! A60   A(14,15,16)           115.7125         estimate D2E/DX2                !
 ! A61   A(14,15,20)           108.1836         estimate D2E/DX2                !
 ! A62   A(14,15,36)           113.0938         estimate D2E/DX2                !
 ! A63   A(16,15,20)           101.6503         estimate D2E/DX2                !
 ! A64   A(16,15,36)           110.4091         estimate D2E/DX2                !
 ! A65   A(20,15,36)           106.7545         estimate D2E/DX2                !
 ! A66   A(15,16,17)           117.353          estimate D2E/DX2                !
 ! A67   A(12,17,16)           108.2347         estimate D2E/DX2                !
 ! A68   A(12,17,18)           113.364          estimate D2E/DX2                !
 ! A69   A(12,17,37)           111.3176         estimate D2E/DX2                !
 ! A70   A(16,17,18)           102.9861         estimate D2E/DX2                !
 ! A71   A(16,17,37)           108.3995         estimate D2E/DX2                !
 ! A72   A(18,17,37)           112.0301         estimate D2E/DX2                !
 ! A73   A(17,18,19)           112.431          estimate D2E/DX2                !
 ! A74   A(17,18,38)           110.7146         estimate D2E/DX2                !
 ! A75   A(17,18,39)           110.9267         estimate D2E/DX2                !
 ! A76   A(19,18,38)           103.5223         estimate D2E/DX2                !
 ! A77   A(19,18,39)           109.3062         estimate D2E/DX2                !
 ! A78   A(38,18,39)           109.6823         estimate D2E/DX2                !
 ! A79   A(18,19,40)           110.3773         estimate D2E/DX2                !
 ! A80   A(15,20,44)           110.2756         estimate D2E/DX2                !
 ! A81   A(6,21,14)            122.108          estimate D2E/DX2                !
 ! A82   A(13,22,41)           110.9264         estimate D2E/DX2                !
 ! A83   A(5,23,43)            109.6475         estimate D2E/DX2                !
 ! D1    D(45,1,2,3)           -46.5792         estimate D2E/DX2                !
 ! D2    D(45,1,2,8)          -167.1153         estimate D2E/DX2                !
 ! D3    D(45,1,2,24)           73.3175         estimate D2E/DX2                !
 ! D4    D(1,2,3,4)             47.6475         estimate D2E/DX2                !
 ! D5    D(1,2,3,5)            -69.6936         estimate D2E/DX2                !
 ! D6    D(1,2,3,25)           165.2269         estimate D2E/DX2                !
 ! D7    D(8,2,3,4)            165.0775         estimate D2E/DX2                !
 ! D8    D(8,2,3,5)             47.7363         estimate D2E/DX2                !
 ! D9    D(8,2,3,25)           -77.3432         estimate D2E/DX2                !
 ! D10   D(24,2,3,4)           -70.4627         estimate D2E/DX2                !
 ! D11   D(24,2,3,5)           172.1961         estimate D2E/DX2                !
 ! D12   D(24,2,3,25)           47.1167         estimate D2E/DX2                !
 ! D13   D(1,2,8,7)            124.0794         estimate D2E/DX2                !
 ! D14   D(1,2,8,9)              0.0767         estimate D2E/DX2                !
 ! D15   D(1,2,8,29)          -125.795          estimate D2E/DX2                !
 ! D16   D(3,2,8,7)              4.9671         estimate D2E/DX2                !
 ! D17   D(3,2,8,9)           -119.0356         estimate D2E/DX2                !
 ! D18   D(3,2,8,29)           115.0926         estimate D2E/DX2                !
 ! D19   D(24,2,8,7)          -118.9184         estimate D2E/DX2                !
 ! D20   D(24,2,8,9)           117.079          estimate D2E/DX2                !
 ! D21   D(24,2,8,29)           -8.7928         estimate D2E/DX2                !
 ! D22   D(2,3,4,26)          -169.8722         estimate D2E/DX2                !
 ! D23   D(5,3,4,26)           -52.3474         estimate D2E/DX2                !
 ! D24   D(25,3,4,26)           69.7463         estimate D2E/DX2                !
 ! D25   D(2,3,5,6)            -62.3409         estimate D2E/DX2                !
 ! D26   D(2,3,5,23)          -178.0969         estimate D2E/DX2                !
 ! D27   D(2,3,5,27)            62.8115         estimate D2E/DX2                !
 ! D28   D(4,3,5,6)           -175.7524         estimate D2E/DX2                !
 ! D29   D(4,3,5,23)            68.4916         estimate D2E/DX2                !
 ! D30   D(4,3,5,27)           -50.6            estimate D2E/DX2                !
 ! D31   D(25,3,5,6)            63.6425         estimate D2E/DX2                !
 ! D32   D(25,3,5,23)          -52.1136         estimate D2E/DX2                !
 ! D33   D(25,3,5,27)         -171.2051         estimate D2E/DX2                !
 ! D34   D(3,5,6,7)             22.0869         estimate D2E/DX2                !
 ! D35   D(3,5,6,21)           145.2925         estimate D2E/DX2                !
 ! D36   D(3,5,6,28)           -94.0197         estimate D2E/DX2                !
 ! D37   D(23,5,6,7)           135.9786         estimate D2E/DX2                !
 ! D38   D(23,5,6,21)         -100.8159         estimate D2E/DX2                !
 ! D39   D(23,5,6,28)           19.8719         estimate D2E/DX2                !
 ! D40   D(27,5,6,7)          -101.5891         estimate D2E/DX2                !
 ! D41   D(27,5,6,21)           21.6164         estimate D2E/DX2                !
 ! D42   D(27,5,6,28)          142.3042         estimate D2E/DX2                !
 ! D43   D(3,5,23,43)         -147.276          estimate D2E/DX2                !
 ! D44   D(6,5,23,43)           96.1577         estimate D2E/DX2                !
 ! D45   D(27,5,23,43)         -27.9848         estimate D2E/DX2                !
 ! D46   D(5,6,7,8)             35.0215         estimate D2E/DX2                !
 ! D47   D(21,6,7,8)           -95.1399         estimate D2E/DX2                !
 ! D48   D(28,6,7,8)           158.0752         estimate D2E/DX2                !
 ! D49   D(5,6,21,14)          167.8473         estimate D2E/DX2                !
 ! D50   D(7,6,21,14)          -65.0493         estimate D2E/DX2                !
 ! D51   D(28,6,21,14)          41.3778         estimate D2E/DX2                !
 ! D52   D(6,7,8,2)            -50.0669         estimate D2E/DX2                !
 ! D53   D(6,7,8,9)             76.3775         estimate D2E/DX2                !
 ! D54   D(6,7,8,29)          -167.4807         estimate D2E/DX2                !
 ! D55   D(2,8,9,10)           164.2921         estimate D2E/DX2                !
 ! D56   D(2,8,9,30)           -80.0838         estimate D2E/DX2                !
 ! D57   D(2,8,9,31)            43.7664         estimate D2E/DX2                !
 ! D58   D(7,8,9,10)            38.4785         estimate D2E/DX2                !
 ! D59   D(7,8,9,30)           154.1026         estimate D2E/DX2                !
 ! D60   D(7,8,9,31)           -82.0473         estimate D2E/DX2                !
 ! D61   D(29,8,9,10)          -69.8261         estimate D2E/DX2                !
 ! D62   D(29,8,9,30)           45.798          estimate D2E/DX2                !
 ! D63   D(29,8,9,31)          169.6482         estimate D2E/DX2                !
 ! D64   D(8,9,10,32)          -37.4196         estimate D2E/DX2                !
 ! D65   D(30,9,10,32)        -157.9365         estimate D2E/DX2                !
 ! D66   D(31,9,10,32)          85.6563         estimate D2E/DX2                !
 ! D67   D(42,11,12,13)         60.4136         estimate D2E/DX2                !
 ! D68   D(42,11,12,17)        179.6546         estimate D2E/DX2                !
 ! D69   D(42,11,12,33)        -60.5262         estimate D2E/DX2                !
 ! D70   D(11,12,13,14)        164.6547         estimate D2E/DX2                !
 ! D71   D(11,12,13,22)        -77.7681         estimate D2E/DX2                !
 ! D72   D(11,12,13,34)         40.1642         estimate D2E/DX2                !
 ! D73   D(17,12,13,14)         49.9952         estimate D2E/DX2                !
 ! D74   D(17,12,13,22)        167.5724         estimate D2E/DX2                !
 ! D75   D(17,12,13,34)        -74.4954         estimate D2E/DX2                !
 ! D76   D(33,12,13,14)        -75.7247         estimate D2E/DX2                !
 ! D77   D(33,12,13,22)         41.8525         estimate D2E/DX2                !
 ! D78   D(33,12,13,34)        159.7848         estimate D2E/DX2                !
 ! D79   D(11,12,17,16)       -177.2502         estimate D2E/DX2                !
 ! D80   D(11,12,17,18)         69.1684         estimate D2E/DX2                !
 ! D81   D(11,12,17,37)        -58.2179         estimate D2E/DX2                !
 ! D82   D(13,12,17,16)        -60.0083         estimate D2E/DX2                !
 ! D83   D(13,12,17,18)       -173.5897         estimate D2E/DX2                !
 ! D84   D(13,12,17,37)         59.024          estimate D2E/DX2                !
 ! D85   D(33,12,17,16)         65.1127         estimate D2E/DX2                !
 ! D86   D(33,12,17,18)        -48.4686         estimate D2E/DX2                !
 ! D87   D(33,12,17,37)       -175.8549         estimate D2E/DX2                !
 ! D88   D(12,13,14,15)        -35.3839         estimate D2E/DX2                !
 ! D89   D(12,13,14,21)       -149.3417         estimate D2E/DX2                !
 ! D90   D(12,13,14,35)         91.4997         estimate D2E/DX2                !
 ! D91   D(22,13,14,15)       -148.6973         estimate D2E/DX2                !
 ! D92   D(22,13,14,21)         97.3448         estimate D2E/DX2                !
 ! D93   D(22,13,14,35)        -21.8138         estimate D2E/DX2                !
 ! D94   D(34,13,14,15)         89.9759         estimate D2E/DX2                !
 ! D95   D(34,13,14,21)        -23.9819         estimate D2E/DX2                !
 ! D96   D(34,13,14,35)       -143.1405         estimate D2E/DX2                !
 ! D97   D(12,13,22,41)        161.3024         estimate D2E/DX2                !
 ! D98   D(14,13,22,41)        -79.1145         estimate D2E/DX2                !
 ! D99   D(34,13,22,41)         42.2311         estimate D2E/DX2                !
 ! D100  D(13,14,15,16)         32.2758         estimate D2E/DX2                !
 ! D101  D(13,14,15,20)        145.4843         estimate D2E/DX2                !
 ! D102  D(13,14,15,36)        -96.4867         estimate D2E/DX2                !
 ! D103  D(21,14,15,16)        145.3025         estimate D2E/DX2                !
 ! D104  D(21,14,15,20)       -101.489          estimate D2E/DX2                !
 ! D105  D(21,14,15,36)         16.54           estimate D2E/DX2                !
 ! D106  D(35,14,15,16)        -94.1772         estimate D2E/DX2                !
 ! D107  D(35,14,15,20)         19.0313         estimate D2E/DX2                !
 ! D108  D(35,14,15,36)        137.0603         estimate D2E/DX2                !
 ! D109  D(13,14,21,6)          20.1919         estimate D2E/DX2                !
 ! D110  D(15,14,21,6)        -100.5608         estimate D2E/DX2                !
 ! D111  D(35,14,21,6)         138.8469         estimate D2E/DX2                !
 ! D112  D(14,15,16,17)        -45.5532         estimate D2E/DX2                !
 ! D113  D(20,15,16,17)       -162.4849         estimate D2E/DX2                !
 ! D114  D(36,15,16,17)         84.5129         estimate D2E/DX2                !
 ! D115  D(14,15,20,44)       -106.6044         estimate D2E/DX2                !
 ! D116  D(16,15,20,44)         15.6711         estimate D2E/DX2                !
 ! D117  D(36,15,20,44)        131.3872         estimate D2E/DX2                !
 ! D118  D(15,16,17,12)         58.7812         estimate D2E/DX2                !
 ! D119  D(15,16,17,18)        179.0776         estimate D2E/DX2                !
 ! D120  D(15,16,17,37)        -62.0808         estimate D2E/DX2                !
 ! D121  D(12,17,18,19)         -8.2581         estimate D2E/DX2                !
 ! D122  D(12,17,18,38)        106.9908         estimate D2E/DX2                !
 ! D123  D(12,17,18,39)       -130.9957         estimate D2E/DX2                !
 ! D124  D(16,17,18,19)       -124.9651         estimate D2E/DX2                !
 ! D125  D(16,17,18,38)         -9.7162         estimate D2E/DX2                !
 ! D126  D(16,17,18,39)        112.2973         estimate D2E/DX2                !
 ! D127  D(37,17,18,19)        118.7552         estimate D2E/DX2                !
 ! D128  D(37,17,18,38)       -125.9959         estimate D2E/DX2                !
 ! D129  D(37,17,18,39)         -3.9825         estimate D2E/DX2                !
 ! D130  D(17,18,19,40)        -54.6481         estimate D2E/DX2                !
 ! D131  D(38,18,19,40)       -174.1762         estimate D2E/DX2                !
 ! D132  D(39,18,19,40)         68.9969         estimate D2E/DX2                !
 --------------------------------------------------------------------------------
 Trust Radius=3.00D-01 FncErr=1.00D-07 GrdErr=1.00D-07 EigMax=2.50D+02 EigMin=1.00D-04
 Number of steps in this run=    270 maximum allowed number of steps=    270.
 GradGradGradGradGradGradGradGradGradGradGradGradGradGradGradGradGradGrad

 Leave Link  103 at Tue Jun 22 14:21:33 2021, MaxMem=  2147483648 cpu:               0.1 elap:               0.0
 (Enter /home/matma/Programs/gaussian/G16_x86_SSE4/tar/g16/l202.exe)
                          Input orientation:                          
 ---------------------------------------------------------------------
 Center     Atomic      Atomic             Coordinates (Angstroms)
 Number     Number       Type             X           Y           Z
 ---------------------------------------------------------------------
      1          8           0        1.666000    0.167000    1.033000
      2          6           0        2.184000    1.504000    1.056000
      3          6           0        3.043000    1.697000    2.327000
      4          8           0        3.887000    0.539000    2.342000
      5          6           0        2.141000    1.703000    3.580000
      6          6           0        1.166000    2.894000    3.498000
      7          8           0        0.970000    3.362000    2.169000
      8          6           0        0.961000    2.448000    1.051000
      9          6           0       -0.382000    1.705000    1.026000
     10          8           0       -1.433000    2.618000    1.391000
     11          8           0        0.131000    7.281000    3.162000
     12          6           0       -0.724000    6.360000    3.862000
     13          6           0       -0.473000    4.938000    3.314000
     14          6           0       -1.048000    3.840000    4.238000
     15          6           0       -0.960000    4.155000    5.756000
     16          8           0       -1.068000    5.535000    6.110000
     17          6           0       -0.297000    6.483000    5.334000
     18          6           0       -0.673000    7.838000    5.969000
     19          8           0       -1.170000    8.767000    5.012000
     20          8           0       -2.112000    3.603000    6.393000
     21          8           0       -0.155000    2.725000    4.033000
     22          8           0       -1.190000    4.950000    2.084000
     23          8           0        3.027000    1.931000    4.677000
     24          1           0        2.807000    1.639000    0.141000
     25          1           0        3.682000    2.607000    2.284000
     26          1           0        4.362000    0.492000    3.210000
     27          1           0        1.624000    0.720000    3.697000
     28          1           0        1.525000    3.816000    4.021000
     29          1           0        1.027000    3.188000    0.213000
     30          1           0       -0.653000    1.358000    0.012000
     31          1           0       -0.407000    0.844000    1.724000
     32          1           0       -1.089000    3.237000    2.113000
     33          1           0       -1.787000    6.666000    3.707000
     34          1           0        0.611000    4.753000    3.125000
     35          1           0       -2.090000    3.583000    3.937000
     36          1           0       -0.074000    3.698000    6.245000
     37          1           0        0.782000    6.247000    5.463000
     38          1           0       -1.520000    7.718000    6.679000
     39          1           0        0.193000    8.282000    6.494000
     40          1           0       -0.519000    8.879000    4.267000
     41          1           0       -0.872000    4.199000    1.469000
     42          1           0       -0.088000    7.249000    2.197000
     43          1           0        2.690000    1.452000    5.486000
     44          1           0       -2.743000    4.325000    6.648000
     45          1           0        2.400000   -0.473000    1.245000
 ---------------------------------------------------------------------
                    Distance matrix (angstroms):
                    1          2          3          4          5
     1  O    0.000000
     2  C    1.434023   0.000000
     3  C    2.431350   1.546147   0.000000
     4  O    2.604747   2.342057   1.433013   0.000000
     5  C    3.011998   2.532198   1.543907   2.436402   0.000000
     6  C    3.709819   2.988610   2.515388   3.779709   1.541373
     7  O    3.461638   2.482887   2.663554   4.063022   2.472740
     8  C    2.387532   1.544956   2.554780   3.724572   2.888471
     9  C    2.561210   2.574035   3.663781   4.616901   3.590049
    10  O    3.967287   3.799462   4.664645   5.790427   4.289804
    11  O    7.582734   6.482575   6.352797   7.761089   5.943813
    12  C    7.215857   6.317502   6.187898   7.579958   5.474979
    13  C    5.704448   4.893932   4.882674   6.269417   4.167610
    14  C    5.579314   5.101749   4.998065   6.232627   3.894798
    15  C    6.716156   6.245201   5.815824   6.944369   4.512591
    16  O    7.878205   7.236531   6.778027   7.981846   5.602036
    17  C    7.889476   7.017627   6.565321   7.860602   5.645242
    18  C    9.416966   8.509969   8.048894   9.339386   7.159898
    19  O    9.891175   8.924708   8.656991  10.020086   7.931799
    20  O    7.403309   7.165542   6.836609   7.860452   5.441597
    21  O    4.342742   3.977976   3.767549   4.896513   2.553685
    22  O    5.669076   4.931083   5.344095   6.730484   4.886367
    23  O    4.271154   3.742275   2.361676   2.851226   1.428422
    24  H    2.065025   1.115159   2.199467   2.687155   3.503480
    25  H    3.403360   2.229035   1.112776   2.078945   2.207150
    26  H    3.480427   3.226073   1.992856   0.990585   2.556611
    27  H    2.721115   2.811252   2.201134   2.643852   1.116811
    28  H    4.718392   3.817178   3.108717   4.374564   2.244706
    29  H    3.194865   2.210238   3.279685   4.441784   3.844855
    30  H    2.799765   3.026520   4.374307   5.168294   4.544897
    31  H    2.287606   2.755922   3.604680   4.348952   3.267250
    32  H    4.263956   3.851372   4.414841   5.665000   3.864990
    33  H    7.830101   7.031564   7.065710   8.461538   6.330615
    34  H    5.149843   4.160660   3.986297   5.394725   3.442445
    35  H    5.848915   5.557830   5.700595   6.894526   4.643620
    36  H    6.531501   6.069425   5.391699   6.395484   3.998559
    37  H    7.574481   6.624447   5.970688   7.208532   5.102990
    38  H    9.952161   9.162507   8.718561   9.979141   7.693305
    39  H    9.891687   8.914999   8.297506   9.530939   7.454485
    40  H    9.546304   8.485715   8.248186   9.626737   7.683915
    41  H    4.784199   4.095452   4.724764   6.066779   4.445729
    42  H    7.388243   6.282427   6.375325   7.800369   6.135083
    43  H    4.746473   4.459108   3.188090   3.485845   1.999309
    44  H    8.261747   7.968929   7.684739   8.765405   6.335690
    45  H    0.996644   1.997725   2.508600   2.106827   3.202231
                    6          7          8          9         10
     6  C    0.000000
     7  O    1.422561   0.000000
     8  C    2.495746   1.444092   0.000000
     9  C    3.149732   2.424872   1.535032   0.000000
    10  O    3.357146   2.633103   2.423992   1.439234   0.000000
    11  O    4.519944   4.128987   5.338830   5.993116   5.227438
    12  C    3.964562   3.837172   5.103400   5.461583   4.539943
    13  C    2.626426   2.424263   3.657544   3.961756   3.162583
    14  C    2.518792   2.929432   4.016306   3.913914   3.122005
    15  C    3.347919   4.149737   5.361074   5.358123   4.651809
    16  O    4.334534   4.940329   6.264175   6.402074   5.559773
    17  C    4.288611   4.622029   6.017298   6.433924   5.637018
    18  C    5.825023   6.097051   7.477217   7.882361   6.984560
    19  O    6.499325   6.471188   7.756316   8.147453   7.140799
    20  O    4.430462   5.234404   6.270113   5.949789   5.143080
    21  O    1.435210   2.268455   3.196015   3.183391   2.936817
    22  O    3.431802   2.682269   3.457440   3.507457   2.444897
    23  O    2.404315   3.545289   4.205178   5.000216   5.582237
    24  H    3.941745   3.233587   2.211402   3.310182   4.527531
    25  H    2.808277   2.817480   2.991557   4.348823   5.192379
    26  H    4.008362   4.563578   4.478171   5.361601   6.435112
    27  H    2.230614   3.121324   3.229066   3.482600   4.273791
    28  H    1.119149   1.985962   3.318195   4.130738   4.135440
    29  H    3.301058   1.964551   1.119911   2.201259   2.786429
    30  H    4.221404   3.361963   2.207401   1.105462   2.024263
    31  H    3.134311   2.904217   2.212955   1.108670   2.076208
    32  H    2.668501   2.063551   2.439849   2.007098   1.011326
    33  H    4.794984   4.569782   5.691868   5.811481   4.677123
    34  H    1.975610   1.725601   3.120417   3.831730   3.426794
    35  H    3.356930   3.540941   4.350382   3.862392   2.800891
    36  H    3.119299   4.220972   5.441632   5.595076   5.155055
    37  H    3.905290   4.382808   5.824962   6.455357   5.887024
    38  H    6.372153   6.746476   8.099546   8.331124   7.347143
    39  H    6.241257   6.596647   8.015711   8.572431   7.795215
    40  H    6.265047   6.087365   7.341037   7.873317   6.950316
    41  H    3.158055   2.140919   2.569166   2.579997   1.679395
    42  H    4.714991   4.028513   5.046119   5.673942   4.889256
    43  H    2.890343   4.196307   4.863197   5.421512   5.926863
    44  H    5.220205   5.897048   6.969157   6.636686   5.680317
    45  H    4.235027   4.195939   3.261993   3.539939   4.926204
                   11         12         13         14         15
    11  O    0.000000
    12  C    1.438494   0.000000
    13  C    2.424370   1.544470   0.000000
    14  C    3.793191   2.568414   1.545964   0.000000
    15  C    4.206066   2.916326   2.610292   1.552834   0.000000
    16  O    3.629989   2.419187   2.920283   2.525432   1.428769
    17  C    2.353205   1.537609   2.549196   2.958152   2.457079
    18  C    2.972527   2.574206   3.936880   4.372755   3.700301
    19  O    2.706159   2.704638   4.246205   4.988917   4.676343
    20  O    5.384988   3.991686   3.734807   2.415013   1.427437
    21  O    4.647319   3.683236   2.348500   1.443156   2.379423
    22  O    2.888025   2.316579   1.423774   2.427340   3.764108
    23  O    6.269333   5.860910   4.811426   4.521352   4.691118
    24  H    6.936828   6.971488   5.631139   6.040764   7.214483
    25  H    5.935214   5.998994   4.874268   5.264153   5.999938
    26  H    7.999637   7.792684   6.569243   6.444687   6.944305
    27  H    6.749963   6.111459   4.726058   4.143267   4.766106
    28  H    3.832407   3.399297   2.398069   2.582246   3.049651
    29  H    5.123677   5.142255   3.863768   4.575080   5.967253
    30  H    6.754190   6.312491   4.873603   4.916851   6.396170
    31  H    6.617572   5.924339   4.392413   3.963218   5.246480
    32  H    4.352325   3.597965   2.171464   2.209279   3.759097
    33  H    2.086618   1.116974   2.206134   2.968898   3.344765
    34  H    2.573432   2.215365   1.115797   2.196502   3.122148
    35  H    4.382770   3.095692   2.199737   1.114636   2.216494
    36  H    4.731258   3.631451   3.207423   2.235372   1.110390
    37  H    2.605294   2.200910   2.811887   3.262388   2.738043
    38  H    3.909739   3.226960   4.488634   4.606533   3.722969
    39  H    3.479665   3.385616   4.662434   5.134295   4.348124
    40  H    2.048690   2.559572   4.054850   5.066774   4.972703
    41  H    3.656635   3.227735   2.027152   2.797717   4.288129
    42  H    0.990056   1.991743   2.595503   4.087611   4.795800
    43  H    6.776924   6.195259   5.184048   4.607895   4.549902
    44  H    5.399075   3.997422   4.079733   2.986026   2.000913
    45  H    8.303479   7.956001   6.466360   6.280822   7.284031
                   16         17         18         19         20
    16  O    0.000000
    17  C    1.447522   0.000000
    18  C    2.340879   1.542928   0.000000
    19  O    3.414942   2.466266   1.423341   0.000000
    20  O    2.214193   3.565124   4.492852   5.427838   0.000000
    21  O    3.611592   3.979363   5.491738   6.204388   3.189096
    22  O    4.070109   3.702707   4.868373   4.810725   4.607817
    23  O    5.640153   5.674621   7.088858   8.028570   5.670058
    24  H    8.113162   7.750252   9.192583   9.505343   8.193983
    25  H    6.765646   6.337059   7.740065   8.302378   7.172610
    26  H    7.957811   7.880973   9.323466  10.115624   7.856366
    27  H    6.021101   6.291437   7.816912   8.619157   5.434869
    28  H    3.747337   3.486623   4.980200   5.723417   4.347358
    29  H    6.683715   6.231745   7.592367   7.680003   6.943914
    30  H    7.403051   7.397029   8.802082   8.953244   6.919961
    31  H    6.455958   6.696456   8.185769   8.612029   5.684951
    32  H    4.610559   4.640972   6.017557   6.244330   4.415754
    33  H    2.751460   2.213757   2.780508   2.549101   4.086831
    34  H    3.512946   2.949075   4.387963   4.779637   4.406479
    35  H    3.094627   3.684625   4.923610   5.373628   2.456180
    36  H    2.093043   2.938686   4.192204   5.330691   2.045574
    37  H    2.085199   1.112015   2.214575   3.219333   4.028756
    38  H    2.300772   2.197721   1.111714   2.000447   4.167192
    39  H    3.046898   2.195928   1.105765   2.071067   5.216921
    40  H    3.857510   2.632221   2.001050   0.995676   5.907089
    41  H    4.833445   4.526092   5.790675   5.788633   5.112592
    42  H    4.382895   3.235924   3.862270   3.376281   5.915768
    43  H    5.584159   5.852883   7.233537   8.284534   5.339350
    44  H    2.135221   3.516600   4.133656   4.988205   0.992205
    45  H    8.472975   8.507624  10.041525  10.597773   7.967046
                   21         22         23         24         25
    21  O    0.000000
    22  O    3.133760   0.000000
    23  O    3.342199   5.798370   0.000000
    24  H    5.010040   5.542019   4.550710   0.000000
    25  H    4.218471   5.409809   2.571468   2.509003   0.000000
    26  H    5.105576   7.208769   2.450517   3.626623   2.406886
    27  H    2.701437   5.330409   2.096504   3.858651   3.129329
    28  H    2.003204   3.522662   2.497912   4.630038   3.021837
    29  H    4.025406   3.394168   5.050480   2.360717   3.416962
    30  H    4.276112   4.181389   5.969334   3.473788   5.051159
    31  H    2.988837   4.195465   4.657696   3.669838   4.487949
    32  H    2.195655   1.716220   5.022070   4.649861   4.815452
    33  H    4.277988   2.436225   6.821710   7.687127   6.957756
    34  H    2.350320   2.089519   4.026095   4.839800   3.839745
    35  H    2.118869   2.472306   5.427743   6.493794   6.082842
    36  H    2.417899   4.486299   3.898348   7.056802   5.566627
    37  H    3.915016   4.121727   4.928050   7.325160   5.636102
    38  H    5.813311   5.374453   7.627095   9.920817   8.514643
    39  H    6.087518   5.697632   7.188063   9.556310   7.880536
    40  H    6.169195   4.544532   7.811333   8.972388   7.805042
    41  H    3.043166   1.021445   5.535096   4.674636   4.892607
    42  H    4.882823   2.551975   6.643399   6.639297   5.980688
    43  H    3.438861   6.234100   0.998745   5.349550   3.545546
    44  H    4.011978   4.861330   6.550494   8.964270   7.954662
    45  H    4.952593   6.557511   4.236858   2.417645   3.494202
                   26         27         28         29         30
    26  H    0.000000
    27  H    2.790304   0.000000
    28  H    4.444690   3.114481   0.000000
    29  H    5.231888   4.311112   3.891433   0.000000
    30  H    6.010606   4.378470   5.182425   2.492328   0.000000
    31  H    5.007540   2.834266   4.223934   3.135891   1.804344
    32  H    6.200954   4.025508   3.287659   2.844267   2.852181
    33  H    8.727857   6.854921   4.380689   5.676541   6.566113
    34  H    5.677442   4.197433   1.586247   3.331970   4.776452
    35  H    7.191044   4.695547   3.623475   4.872360   4.735105
    36  H    6.258415   4.271299   2.741697   6.152831   6.682898
    37  H    7.142299   5.863058   2.922529   6.081119   7.461565
    38  H    9.942181   8.230982   5.618060   8.295617   9.254738
    39  H    9.425992   8.188700   5.275899   8.129905   9.522280
    40  H    9.761310   8.454977   5.465567   7.156292   8.642246
    41  H    6.645877   4.826742   3.522074   2.491156   3.200327
    42  H    8.153877   6.914390   4.208828   4.655234   6.308513
    43  H    2.982844   2.207420   3.015285   5.795153   6.414761
    44  H    8.774552   6.385540   5.037463   7.544196   7.563576
    45  H    2.939710   2.835089   5.183370   4.043893   3.767447
                   31         32         33         34         35
    31  H    0.000000
    32  H    2.518510   0.000000
    33  H    6.303362   3.845267   0.000000
    34  H    4.275442   2.492469   3.122290   0.000000
    35  H    3.902817   2.109192   3.106380   3.053464   0.000000
    36  H    5.356832   4.279739   4.264368   3.364023   3.066650
    37  H    6.677294   4.876806   3.139882   2.779842   4.204040
    38  H    8.546500   6.411979   3.163981   5.095420   4.994165
    39  H    8.856452   6.803581   3.781432   4.896808   5.816437
    40  H    8.428560   6.066035   2.611282   4.427747   5.533946
    41  H    3.396656   1.177824   3.454267   2.290969   2.820284
    42  H    6.430359   4.135843   2.346612   2.753144   4.524949
    43  H    4.910572   5.370679   7.098885   4.559952   5.457927
    44  H    6.466841   4.948301   3.878621   4.883035   2.885566
    45  H    3.137384   5.166299   8.634682   5.834895   6.622545
                   36         37         38         39         40
    36  H    0.000000
    37  H    2.800297   0.000000
    38  H    4.294144   2.990268   0.000000
    39  H    4.598516   2.356079   1.812923   0.000000
    40  H    5.563566   3.170243   2.857913   2.413065   0.000000
    41  H    4.868057   4.783519   6.320393   6.561687   5.464047
    42  H    5.384803   3.525289   4.728521   4.428347   2.669749
    43  H    3.641469   5.160719   7.642650   7.341660   8.181930
    44  H    2.771119   4.186160   3.606818   4.929671   5.599487
    45  H    6.965480   8.097398  10.582402  10.443796  10.252461
                   41         42         43         44         45
    41  H    0.000000
    42  H    3.232204   0.000000
    43  H    6.030766   7.220804   0.000000
    44  H    5.508045   5.950647   6.254747   0.000000
    45  H    5.708217   8.168582   4.666455   8.869254   0.000000
 Stoichiometry    C12H22O11
 Framework group  C1[X(C12H22O11)]
 Deg. of freedom   129
 Full point group                 C1      NOp   1
 Largest Abelian subgroup         C1      NOp   1
 Largest concise Abelian subgroup C1      NOp   1
                         Standard orientation:                         
 ---------------------------------------------------------------------
 Center     Atomic      Atomic             Coordinates (Angstroms)
 Number     Number       Type             X           Y           Z
 ---------------------------------------------------------------------
      1          8           0        4.494580   -0.587055    0.447407
      2          6           0        3.666468   -0.652779   -0.721495
      3          6           0        3.316268    0.781540   -1.180473
      4          8           0        4.579228    1.458409   -1.163064
      5          6           0        2.355142    1.441646   -0.168471
      6          6           0        1.039739    0.639648   -0.120066
      7          8           0        1.188528   -0.700852   -0.572398
      8          6           0        2.401285   -1.442560   -0.318448
      9          6           0        2.408699   -1.898120    1.147408
     10          8           0        1.075659   -2.285001    1.527831
     11          8           0       -2.679847   -1.176704   -1.935399
     12          6           0       -2.648372   -0.745658   -0.563366
     13          6           0       -1.183364   -0.758154   -0.074506
     14          6           0       -0.993175    0.035179    1.238680
     15          6           0       -1.884715    1.299773    1.370023
     16          8           0       -3.167429    1.221480    0.745608
     17          6           0       -3.222197    0.680494   -0.595904
     18          6           0       -4.728451    0.726583   -0.927115
     19          8           0       -5.237580   -0.543648   -1.318521
     20          8           0       -2.241635    1.452457    2.743658
     21          8           0        0.356676    0.535619    1.137881
     22          8           0       -0.949845   -2.141889    0.166076
     23          8           0        2.067786    2.730822   -0.712385
     24          1           0        4.244124   -1.184661   -1.513324
     25          1           0        2.903475    0.817309   -2.213232
     26          1           0        4.431031    2.430034   -1.286522
     27          1           0        2.844510    1.542524    0.830333
     28          1           0        0.240901    1.029535   -0.800022
     29          1           0        2.230466   -2.308378   -1.007925
     30          1           0        3.018582   -2.806835    1.303376
     31          1           0        2.754786   -1.104377    1.839755
     32          1           0        0.416938   -1.658562    1.084612
     33          1           0       -3.278881   -1.437300    0.046323
     34          1           0       -0.483079   -0.380713   -0.856900
     35          1           0       -1.109679   -0.636400    2.120623
     36          1           0       -1.363837    2.233066    1.068996
     37          1           0       -2.627615    1.340316   -1.264997
     38          1           0       -5.322714    0.977015   -0.021553
     39          1           0       -4.935181    1.464677   -1.724108
     40          1           0       -4.706436   -0.911598   -2.076062
     41          1           0        0.051139   -2.342727    0.198397
     42          1           0       -2.315132   -2.095545   -1.989480
     43          1           0        1.930410    3.385269    0.029449
     44          1           0       -3.193717    1.209045    2.880631
     45          1           0        5.216992    0.083645    0.300493
 ---------------------------------------------------------------------
 Rotational constants (GHZ):           0.4623374           0.1523126           0.1446759
 Leave Link  202 at Tue Jun 22 14:21:33 2021, MaxMem=  2147483648 cpu:               0.0 elap:               0.0
 (Enter /home/matma/Programs/gaussian/G16_x86_SSE4/tar/g16/l301.exe)
 Standard basis: VSTO-6G (5D, 7F)
 Ernie: Thresh=  0.10000D-02 Tol=  0.10000D-05 Strict=F.
  NNHCO=     0 NNPyr=     0 NCTC=     0               EPep=         0.000000000
    EC=      1205.627698234  ECS=         9.105155749   EG=         0.735277931
   EHC=         0.002704718  EAt=      -175.965002454  AtH=         6.138669069
 EPDDG=         0.000000000  ECC=      1215.470836632 EAtT=       182.103671523
 There are   114 symmetry adapted cartesian basis functions of A   symmetry.
 There are   114 symmetry adapted basis functions of A   symmetry.
   114 basis functions,   684 primitive gaussians,   114 cartesian basis functions
    68 alpha electrons       68 beta electrons
       nuclear repulsion energy      1397.5745081550 Hartrees.
 IExCor=    0 DFT=F Ex=HF Corr=None ExCW=0 ScaHFX=  1.000000
 ScaDFX=  1.000000  1.000000  1.000000  1.000000 ScalE2=  1.000000  1.000000
 IRadAn=  99590 IRanWt=     -1 IRanGd=            0 ICorTp=0 IEmpDi=  4
 Integral buffers will be    131072 words long.
 Regular integral format.
 Two-electron integral symmetry is turned off.
 Leave Link  301 at Tue Jun 22 14:21:33 2021, MaxMem=  2147483648 cpu:               0.2 elap:               0.0
 (Enter /home/matma/Programs/gaussian/G16_x86_SSE4/tar/g16/l302.exe)
 Do NDO integrals.
 NPDir=0 NMtPBC=     1 NCelOv=     1 NCel=       1 NClECP=     1 NCelD=      1
         NCelK=      1 NCelE2=     1 NClLst=     1 CellRange=     0.0.
 One-electron integrals computed using PRISM.
 NBasis=   114 RedAO= F EigKep=  0.00D+00  NBF=   114
 NBsUse=   114 1.00D-04 EigRej=  0.00D+00 NBFU=   114
 Leave Link  302 at Tue Jun 22 14:21:33 2021, MaxMem=  2147483648 cpu:               0.6 elap:               0.1
 (Enter /home/matma/Programs/gaussian/G16_x86_SSE4/tar/g16/l303.exe)
 DipDrv:  MaxL=1.
 Leave Link  303 at Tue Jun 22 14:21:33 2021, MaxMem=  2147483648 cpu:               0.1 elap:               0.0
 (Enter /home/matma/Programs/gaussian/G16_x86_SSE4/tar/g16/l401.exe)
 Simple Huckel Guess.
 JPrj=0 DoOrth=F DoCkMO=F.
 Leave Link  401 at Tue Jun 22 14:21:33 2021, MaxMem=  2147483648 cpu:               0.2 elap:               0.0
 (Enter /home/matma/Programs/gaussian/G16_x86_SSE4/tar/g16/l502.exe)
 Keep J ints in memory in canonical form, NReq=892272.
 FoFCou: FMM=F IPFlag=           0 FMFlag=           0 FMFlg1=           0
         NFxFlg=           0 DoJE=F BraDBF=F KetDBF=F FulRan=T
         wScrn=  0.000000 ICntrl=       600 IOpCl=  2 I1Cent=           0 NGrid=           0
         NMat0=    1 NMatS0=    252 NMatT0=    0 NMatD0=    1 NMtDS0=    0 NMtDT0=    0
 Symmetry not used in FoFCou.
 Two-electron integral symmetry not used.
 Closed shell SCF:
 Using DIIS extrapolation, IDIIS=  1040.
 Overlap will be assumed to be unity.
 NGot=  2147483648 LenX=  2147363403 LenY=  2147349966
 Requested convergence on RMS density matrix=1.00D-08 within 128 cycles.
 Requested convergence on MAX density matrix=1.00D-06.
 Requested convergence on             energy=1.00D-06.
 No special actions if energy rises.

 Cycle   1  Pass 1  IDiag  1:
 E= 0.519920318371078    
 DIIS: error= 5.64D-02 at cycle   1 NSaved=   1.
 NSaved= 1 IEnMin= 1 EnMin= 0.519920318371078     IErMin= 1 ErrMin= 5.64D-02
 ErrMax= 5.64D-02  0.00D+00 EMaxC= 1.00D-01 BMatC= 3.17D-01 BMatP= 3.17D-01
 IDIUse=3 WtCom= 4.36D-01 WtEn= 5.64D-01
 Coeff-Com:  0.100D+01
 Coeff-En:   0.100D+01
 Coeff:      0.100D+01
 GapD=    2.000 DampG=2.000 DampE=0.500 DampFc=1.0000 IDamp=-1.
 RMSDP=8.25D-03 MaxDP=1.23D-01              OVMax= 0.00D+00

 Cycle   2  Pass 1  IDiag  1:
 E=-0.485061212350502     Delta-E=       -1.004981530722 Rises=F Damp=F
 DIIS: error= 1.66D-02 at cycle   2 NSaved=   2.
 NSaved= 2 IEnMin= 2 EnMin=-0.485061212350502     IErMin= 2 ErrMin= 1.66D-02
 ErrMax= 1.66D-02  0.00D+00 EMaxC= 1.00D-01 BMatC= 4.60D-02 BMatP= 3.17D-01
 IDIUse=3 WtCom= 8.34D-01 WtEn= 1.66D-01
 Coeff-Com: -0.438D+00 0.144D+01
 Coeff-En:   0.000D+00 0.100D+01
 Coeff:     -0.365D+00 0.137D+01
 RMSDP=4.80D-03 MaxDP=5.58D-02 DE=-1.00D+00 OVMax= 0.00D+00

 Cycle   3  Pass 1  IDiag  3:
 E=-0.692828139185394     Delta-E=       -0.207766926835 Rises=F Damp=F
 DIIS: error= 5.96D-03 at cycle   3 NSaved=   3.
 NSaved= 3 IEnMin= 3 EnMin=-0.692828139185394     IErMin= 3 ErrMin= 5.96D-03
 ErrMax= 5.96D-03  0.00D+00 EMaxC= 1.00D-01 BMatC= 4.64D-03 BMatP= 4.60D-02
 IDIUse=3 WtCom= 9.40D-01 WtEn= 5.96D-02
 Coeff-Com:  0.262D+00-0.105D+01 0.179D+01
 Coeff-En:   0.000D+00 0.000D+00 0.100D+01
 Coeff:      0.247D+00-0.986D+00 0.174D+01
 Gap=     0.394 Goal=   None    Shift=    0.000
 RMSDP=2.41D-03 MaxDP=4.03D-02 DE=-2.08D-01 OVMax= 2.74D-02

 Cycle   4  Pass 1  IDiag  3:
 E=-0.723573676981459     Delta-E=       -0.030745537796 Rises=F Damp=F
 DIIS: error= 1.24D-03 at cycle   4 NSaved=   4.
 NSaved= 4 IEnMin= 4 EnMin=-0.723573676981459     IErMin= 4 ErrMin= 1.24D-03
 ErrMax= 1.24D-03  0.00D+00 EMaxC= 1.00D-01 BMatC= 2.14D-04 BMatP= 4.64D-03
 IDIUse=3 WtCom= 9.88D-01 WtEn= 1.24D-02
 Coeff-Com: -0.587D-01 0.258D+00-0.639D+00 0.144D+01
 Coeff-En:   0.000D+00 0.000D+00 0.000D+00 0.100D+01
 Coeff:     -0.580D-01 0.255D+00-0.631D+00 0.143D+01
 Gap=     0.391 Goal=   None    Shift=    0.000
 RMSDP=5.93D-04 MaxDP=9.65D-03 DE=-3.07D-02 OVMax= 8.05D-03

 Cycle   5  Pass 1  IDiag  3:
 E=-0.725111223099020     Delta-E=       -0.001537546118 Rises=F Damp=F
 DIIS: error= 3.52D-04 at cycle   5 NSaved=   5.
 NSaved= 5 IEnMin= 5 EnMin=-0.725111223099020     IErMin= 5 ErrMin= 3.52D-04
 ErrMax= 3.52D-04  0.00D+00 EMaxC= 1.00D-01 BMatC= 1.10D-05 BMatP= 2.14D-04
 IDIUse=3 WtCom= 9.96D-01 WtEn= 3.52D-03
 Coeff-Com:  0.200D-02-0.898D-02 0.685D-01-0.385D+00 0.132D+01
 Coeff-En:   0.000D+00 0.000D+00 0.000D+00 0.000D+00 0.100D+01
 Coeff:      0.199D-02-0.895D-02 0.682D-01-0.384D+00 0.132D+01
 Gap=     0.392 Goal=   None    Shift=    0.000
 RMSDP=1.13D-04 MaxDP=2.32D-03 DE=-1.54D-03 OVMax= 2.57D-03

 Cycle   6  Pass 1  IDiag  3:
 E=-0.725183116572453     Delta-E=       -0.000071893473 Rises=F Damp=F
 DIIS: error= 1.57D-04 at cycle   6 NSaved=   6.
 NSaved= 6 IEnMin= 6 EnMin=-0.725183116572453     IErMin= 6 ErrMin= 1.57D-04
 ErrMax= 1.57D-04  0.00D+00 EMaxC= 1.00D-01 BMatC= 1.12D-06 BMatP= 1.10D-05
 IDIUse=3 WtCom= 9.98D-01 WtEn= 1.57D-03
 Coeff-Com:  0.314D-02-0.137D-01 0.103D-01 0.865D-01-0.648D+00 0.156D+01
 Coeff-En:   0.000D+00 0.000D+00 0.000D+00 0.000D+00 0.000D+00 0.100D+01
 Coeff:      0.314D-02-0.137D-01 0.103D-01 0.864D-01-0.647D+00 0.156D+01
 Gap=     0.392 Goal=   None    Shift=    0.000
 RMSDP=4.39D-05 MaxDP=1.20D-03 DE=-7.19D-05 OVMax= 1.16D-03

 Cycle   7  Pass 1  IDiag  3:
 E=-0.725191749989790     Delta-E=       -0.000008633417 Rises=F Damp=F
 DIIS: error= 5.28D-05 at cycle   7 NSaved=   7.
 NSaved= 7 IEnMin= 7 EnMin=-0.725191749989790     IErMin= 7 ErrMin= 5.28D-05
 ErrMax= 5.28D-05  0.00D+00 EMaxC= 1.00D-01 BMatC= 9.39D-08 BMatP= 1.12D-06
 IDIUse=1 WtCom= 1.00D+00 WtEn= 0.00D+00
 Coeff-Com: -0.127D-02 0.586D-02-0.657D-02-0.218D-01 0.234D+00-0.784D+00
 Coeff-Com:  0.157D+01
 Coeff:     -0.127D-02 0.586D-02-0.657D-02-0.218D-01 0.234D+00-0.784D+00
 Coeff:      0.157D+01
 Gap=     0.392 Goal=   None    Shift=    0.000
 RMSDP=1.32D-05 MaxDP=4.14D-04 DE=-8.63D-06 OVMax= 3.48D-04

 Cycle   8  Pass 1  IDiag  3:
 E=-0.725192498586694     Delta-E=       -0.000000748597 Rises=F Damp=F
 DIIS: error= 1.39D-05 at cycle   8 NSaved=   8.
 NSaved= 8 IEnMin= 8 EnMin=-0.725192498586694     IErMin= 8 ErrMin= 1.39D-05
 ErrMax= 1.39D-05  0.00D+00 EMaxC= 1.00D-01 BMatC= 8.09D-09 BMatP= 9.39D-08
 IDIUse=1 WtCom= 1.00D+00 WtEn= 0.00D+00
 Coeff-Com:  0.140D-03-0.826D-03 0.828D-03 0.375D-02-0.432D-01 0.176D+00
 Coeff-Com: -0.600D+00 0.146D+01
 Coeff:      0.140D-03-0.826D-03 0.828D-03 0.375D-02-0.432D-01 0.176D+00
 Coeff:     -0.600D+00 0.146D+01
 Gap=     0.392 Goal=   None    Shift=    0.000
 RMSDP=3.87D-06 MaxDP=1.20D-04 DE=-7.49D-07 OVMax= 9.77D-05

 Cycle   9  Pass 1  IDiag  3:
 E=-0.725192562580332     Delta-E=       -0.000000063994 Rises=F Damp=F
 DIIS: error= 3.63D-06 at cycle   9 NSaved=   9.
 NSaved= 9 IEnMin= 9 EnMin=-0.725192562580332     IErMin= 9 ErrMin= 3.63D-06
 ErrMax= 3.63D-06  0.00D+00 EMaxC= 1.00D-01 BMatC= 8.25D-10 BMatP= 8.09D-09
 IDIUse=1 WtCom= 1.00D+00 WtEn= 0.00D+00
 Coeff-Com: -0.174D-04 0.178D-03-0.242D-03-0.704D-04 0.725D-02-0.391D-01
 Coeff-Com:  0.182D+00-0.705D+00 0.155D+01
 Coeff:     -0.174D-04 0.178D-03-0.242D-03-0.704D-04 0.725D-02-0.391D-01
 Coeff:      0.182D+00-0.705D+00 0.155D+01
 Gap=     0.392 Goal=   None    Shift=    0.000
 RMSDP=1.20D-06 MaxDP=3.06D-05 DE=-6.40D-08 OVMax= 2.49D-05

 Cycle  10  Pass 1  IDiag  3:
 E=-0.725192568956345     Delta-E=       -0.000000006376 Rises=F Damp=F
 DIIS: error= 9.33D-07 at cycle  10 NSaved=  10.
 NSaved=10 IEnMin=10 EnMin=-0.725192568956345     IErMin=10 ErrMin= 9.33D-07
 ErrMax= 9.33D-07  0.00D+00 EMaxC= 1.00D-01 BMatC= 8.08D-11 BMatP= 8.25D-10
 IDIUse=1 WtCom= 1.00D+00 WtEn= 0.00D+00
 Coeff-Com:  0.143D-04-0.968D-04 0.153D-03-0.270D-03-0.113D-02 0.859D-02
 Coeff-Com: -0.444D-01 0.212D+00-0.734D+00 0.156D+01
 Coeff:      0.143D-04-0.968D-04 0.153D-03-0.270D-03-0.113D-02 0.859D-02
 Coeff:     -0.444D-01 0.212D+00-0.734D+00 0.156D+01
 Gap=     0.392 Goal=   None    Shift=    0.000
 RMSDP=3.80D-07 MaxDP=9.81D-06 DE=-6.38D-09 OVMax= 6.79D-06

 Cycle  11  Pass 1  IDiag  3:
 E=-0.725192569568662     Delta-E=       -0.000000000612 Rises=F Damp=F
 DIIS: error= 2.83D-07 at cycle  11 NSaved=  11.
 NSaved=11 IEnMin=11 EnMin=-0.725192569568662     IErMin=11 ErrMin= 2.83D-07
 ErrMax= 2.83D-07  0.00D+00 EMaxC= 1.00D-01 BMatC= 7.24D-12 BMatP= 8.08D-11
 IDIUse=1 WtCom= 1.00D+00 WtEn= 0.00D+00
 Coeff-Com: -0.894D-05 0.517D-04-0.858D-04 0.187D-03 0.934D-04-0.211D-02
 Coeff-Com:  0.121D-01-0.612D-01 0.248D+00-0.761D+00 0.156D+01
 Coeff:     -0.894D-05 0.517D-04-0.858D-04 0.187D-03 0.934D-04-0.211D-02
 Coeff:      0.121D-01-0.612D-01 0.248D+00-0.761D+00 0.156D+01
 Gap=     0.392 Goal=   None    Shift=    0.000
 RMSDP=1.10D-07 MaxDP=2.29D-06 DE=-6.12D-10 OVMax= 1.48D-06

 Cycle  12  Pass 1  IDiag  3:
 E=-0.725192569626870     Delta-E=       -0.000000000058 Rises=F Damp=F
 DIIS: error= 1.00D-07 at cycle  12 NSaved=  12.
 NSaved=12 IEnMin=12 EnMin=-0.725192569626870     IErMin=12 ErrMin= 1.00D-07
 ErrMax= 1.00D-07  0.00D+00 EMaxC= 1.00D-01 BMatC= 7.07D-13 BMatP= 7.24D-12
 IDIUse=1 WtCom= 1.00D+00 WtEn= 0.00D+00
 Coeff-Com:  0.367D-05-0.216D-04 0.374D-04-0.994D-04 0.970D-04 0.430D-03
 Coeff-Com: -0.360D-02 0.190D-01-0.786D-01 0.277D+00-0.837D+00 0.162D+01
 Coeff:      0.367D-05-0.216D-04 0.374D-04-0.994D-04 0.970D-04 0.430D-03
 Coeff:     -0.360D-02 0.190D-01-0.786D-01 0.277D+00-0.837D+00 0.162D+01
 Gap=     0.392 Goal=   None    Shift=    0.000
 RMSDP=3.58D-08 MaxDP=7.94D-07 DE=-5.82D-11 OVMax= 4.43D-07

 Cycle  13  Pass 1  IDiag  3:
 E=-0.725192569622323     Delta-E=        0.000000000005 Rises=F Damp=F
 DIIS: error= 2.94D-08 at cycle  13 NSaved=  13.
 NSaved=13 IEnMin=12 EnMin=-0.725192569626870     IErMin=13 ErrMin= 2.94D-08
 ErrMax= 2.94D-08  0.00D+00 EMaxC= 1.00D-01 BMatC= 5.81D-14 BMatP= 7.07D-13
 IDIUse=1 WtCom= 1.00D+00 WtEn= 0.00D+00
 Coeff-Com: -0.118D-05 0.721D-05-0.132D-04 0.434D-04-0.911D-04 0.486D-04
 Coeff-Com:  0.599D-03-0.419D-02 0.192D-01-0.764D-01 0.282D+00-0.782D+00
 Coeff-Com:  0.156D+01
 Coeff:     -0.118D-05 0.721D-05-0.132D-04 0.434D-04-0.911D-04 0.486D-04
 Coeff:      0.599D-03-0.419D-02 0.192D-01-0.764D-01 0.282D+00-0.782D+00
 Coeff:      0.156D+01
 Gap=     0.392 Goal=   None    Shift=    0.000
 RMSDP=9.85D-09 MaxDP=2.32D-07 DE= 4.55D-12 OVMax= 1.09D-07

 Cycle  14  Pass 2  IDiag  1:
 SCF Done:  E(RPM6) = -0.725192569622     A.U. after   14 cycles
            NFock= 13  Conv=0.99D-08     -V/T= 0.9976
 KE=-3.045377761563D+02 PE=-2.396596982072D+03 EE= 1.302835057503D+03
 Leave Link  502 at Tue Jun 22 14:21:33 2021, MaxMem=  2147483648 cpu:               0.5 elap:               0.0
 (Enter /home/matma/Programs/gaussian/G16_x86_SSE4/tar/g16/l601.exe)
 Copying SCF densities to generalized density rwf, IOpCl= 0 IROHF=0.

 **********************************************************************

            Population analysis using the SCF Density.

 **********************************************************************

 Orbital symmetries:
       Occupied  (A) (A) (A) (A) (A) (A) (A) (A) (A) (A) (A) (A)
                 (A) (A) (A) (A) (A) (A) (A) (A) (A) (A) (A) (A)
                 (A) (A) (A) (A) (A) (A) (A) (A) (A) (A) (A) (A)
                 (A) (A) (A) (A) (A) (A) (A) (A) (A) (A) (A) (A)
                 (A) (A) (A) (A) (A) (A) (A) (A) (A) (A) (A) (A)
                 (A) (A) (A) (A) (A) (A) (A) (A)
       Virtual   (A) (A) (A) (A) (A) (A) (A) (A) (A) (A) (A) (A)
                 (A) (A) (A) (A) (A) (A) (A) (A) (A) (A) (A) (A)
                 (A) (A) (A) (A) (A) (A) (A) (A) (A) (A) (A) (A)
                 (A) (A) (A) (A) (A) (A) (A) (A) (A) (A)
 The electronic state is 1-A.
 Alpha  occ. eigenvalues --   -1.21027  -1.17590  -1.15484  -1.13968  -1.13624
 Alpha  occ. eigenvalues --   -1.13137  -1.11868  -1.10285  -1.09986  -1.08983
 Alpha  occ. eigenvalues --   -1.06664  -1.02264  -1.02076  -0.99811  -0.98585
 Alpha  occ. eigenvalues --   -0.94483  -0.90743  -0.88516  -0.86796  -0.84205
 Alpha  occ. eigenvalues --   -0.82201  -0.78186  -0.75334  -0.75317  -0.74446
 Alpha  occ. eigenvalues --   -0.71186  -0.70393  -0.69358  -0.68403  -0.66594
 Alpha  occ. eigenvalues --   -0.65625  -0.65215  -0.64187  -0.63238  -0.62737
 Alpha  occ. eigenvalues --   -0.62061  -0.60387  -0.59802  -0.59121  -0.58914
 Alpha  occ. eigenvalues --   -0.56937  -0.56368  -0.55606  -0.55061  -0.54114
 Alpha  occ. eigenvalues --   -0.53465  -0.51872  -0.51418  -0.50971  -0.50458
 Alpha  occ. eigenvalues --   -0.50362  -0.49982  -0.49526  -0.48711  -0.46686
 Alpha  occ. eigenvalues --   -0.45924  -0.45615  -0.44464  -0.44157  -0.43499
 Alpha  occ. eigenvalues --   -0.42638  -0.42379  -0.41732  -0.41025  -0.40237
 Alpha  occ. eigenvalues --   -0.39435  -0.39159  -0.38627
 Alpha virt. eigenvalues --   -0.00088   0.00870   0.02725   0.03638   0.04131
 Alpha virt. eigenvalues --    0.05448   0.05877   0.06357   0.06837   0.07446
 Alpha virt. eigenvalues --    0.07622   0.08149   0.08266   0.08545   0.08661
 Alpha virt. eigenvalues --    0.09272   0.09554   0.10409   0.10610   0.10665
 Alpha virt. eigenvalues --    0.10843   0.11425   0.12025   0.13279   0.13941
 Alpha virt. eigenvalues --    0.14551   0.15213   0.15558   0.16057   0.16219
 Alpha virt. eigenvalues --    0.16312   0.16515   0.16627   0.16910   0.17204
 Alpha virt. eigenvalues --    0.17988   0.18375   0.18587   0.18690   0.18872
 Alpha virt. eigenvalues --    0.19138   0.19176   0.19330   0.20191   0.21106
 Alpha virt. eigenvalues --    0.21506
          Condensed to atoms (all electrons):
               1          2          3          4          5          6
     1  O    6.551055   0.000000   0.000000   0.000000   0.000000   0.000000
     2  C    0.000000   3.919870   0.000000   0.000000   0.000000   0.000000
     3  C    0.000000   0.000000   3.920130   0.000000   0.000000   0.000000
     4  O    0.000000   0.000000   0.000000   6.551216   0.000000   0.000000
     5  C    0.000000   0.000000   0.000000   0.000000   3.978594   0.000000
     6  C    0.000000   0.000000   0.000000   0.000000   0.000000   3.681524
     7  O    0.000000   0.000000   0.000000   0.000000   0.000000   0.000000
     8  C    0.000000   0.000000   0.000000   0.000000   0.000000   0.000000
     9  C    0.000000   0.000000   0.000000   0.000000   0.000000   0.000000
    10  O    0.000000   0.000000   0.000000   0.000000   0.000000   0.000000
    11  O    0.000000   0.000000   0.000000   0.000000   0.000000   0.000000
    12  C    0.000000   0.000000   0.000000   0.000000   0.000000   0.000000
    13  C    0.000000   0.000000   0.000000   0.000000   0.000000   0.000000
    14  C    0.000000   0.000000   0.000000   0.000000   0.000000   0.000000
    15  C    0.000000   0.000000   0.000000   0.000000   0.000000   0.000000
    16  O    0.000000   0.000000   0.000000   0.000000   0.000000   0.000000
    17  C    0.000000   0.000000   0.000000   0.000000   0.000000   0.000000
    18  C    0.000000   0.000000   0.000000   0.000000   0.000000   0.000000
    19  O    0.000000   0.000000   0.000000   0.000000   0.000000   0.000000
    20  O    0.000000   0.000000   0.000000   0.000000   0.000000   0.000000
    21  O    0.000000   0.000000   0.000000   0.000000   0.000000   0.000000
    22  O    0.000000   0.000000   0.000000   0.000000   0.000000   0.000000
    23  O    0.000000   0.000000   0.000000   0.000000   0.000000   0.000000
    24  H    0.000000   0.000000   0.000000   0.000000   0.000000   0.000000
    25  H    0.000000   0.000000   0.000000   0.000000   0.000000   0.000000
    26  H    0.000000   0.000000   0.000000   0.000000   0.000000   0.000000
    27  H    0.000000   0.000000   0.000000   0.000000   0.000000   0.000000
    28  H    0.000000   0.000000   0.000000   0.000000   0.000000   0.000000
    29  H    0.000000   0.000000   0.000000   0.000000   0.000000   0.000000
    30  H    0.000000   0.000000   0.000000   0.000000   0.000000   0.000000
    31  H    0.000000   0.000000   0.000000   0.000000   0.000000   0.000000
    32  H    0.000000   0.000000   0.000000   0.000000   0.000000   0.000000
    33  H    0.000000   0.000000   0.000000   0.000000   0.000000   0.000000
    34  H    0.000000   0.000000   0.000000   0.000000   0.000000   0.000000
    35  H    0.000000   0.000000   0.000000   0.000000   0.000000   0.000000
    36  H    0.000000   0.000000   0.000000   0.000000   0.000000   0.000000
    37  H    0.000000   0.000000   0.000000   0.000000   0.000000   0.000000
    38  H    0.000000   0.000000   0.000000   0.000000   0.000000   0.000000
    39  H    0.000000   0.000000   0.000000   0.000000   0.000000   0.000000
    40  H    0.000000   0.000000   0.000000   0.000000   0.000000   0.000000
    41  H    0.000000   0.000000   0.000000   0.000000   0.000000   0.000000
    42  H    0.000000   0.000000   0.000000   0.000000   0.000000   0.000000
    43  H    0.000000   0.000000   0.000000   0.000000   0.000000   0.000000
    44  H    0.000000   0.000000   0.000000   0.000000   0.000000   0.000000
    45  H    0.000000   0.000000   0.000000   0.000000   0.000000   0.000000
               7          8          9         10         11         12
     1  O    0.000000   0.000000   0.000000   0.000000   0.000000   0.000000
     2  C    0.000000   0.000000   0.000000   0.000000   0.000000   0.000000
     3  C    0.000000   0.000000   0.000000   0.000000   0.000000   0.000000
     4  O    0.000000   0.000000   0.000000   0.000000   0.000000   0.000000
     5  C    0.000000   0.000000   0.000000   0.000000   0.000000   0.000000
     6  C    0.000000   0.000000   0.000000   0.000000   0.000000   0.000000
     7  O    6.516650   0.000000   0.000000   0.000000   0.000000   0.000000
     8  C    0.000000   3.941168   0.000000   0.000000   0.000000   0.000000
     9  C    0.000000   0.000000   4.042993   0.000000   0.000000   0.000000
    10  O    0.000000   0.000000   0.000000   6.558208   0.000000   0.000000
    11  O    0.000000   0.000000   0.000000   0.000000   6.565522   0.000000
    12  C    0.000000   0.000000   0.000000   0.000000   0.000000   3.917046
    13  C    0.000000   0.000000   0.000000   0.000000   0.000000   0.000000
    14  C    0.000000   0.000000   0.000000   0.000000   0.000000   0.000000
    15  C    0.000000   0.000000   0.000000   0.000000   0.000000   0.000000
    16  O    0.000000   0.000000   0.000000   0.000000   0.000000   0.000000
    17  C    0.000000   0.000000   0.000000   0.000000   0.000000   0.000000
    18  C    0.000000   0.000000   0.000000   0.000000   0.000000   0.000000
    19  O    0.000000   0.000000   0.000000   0.000000   0.000000   0.000000
    20  O    0.000000   0.000000   0.000000   0.000000   0.000000   0.000000
    21  O    0.000000   0.000000   0.000000   0.000000   0.000000   0.000000
    22  O    0.000000   0.000000   0.000000   0.000000   0.000000   0.000000
    23  O    0.000000   0.000000   0.000000   0.000000   0.000000   0.000000
    24  H    0.000000   0.000000   0.000000   0.000000   0.000000   0.000000
    25  H    0.000000   0.000000   0.000000   0.000000   0.000000   0.000000
    26  H    0.000000   0.000000   0.000000   0.000000   0.000000   0.000000
    27  H    0.000000   0.000000   0.000000   0.000000   0.000000   0.000000
    28  H    0.000000   0.000000   0.000000   0.000000   0.000000   0.000000
    29  H    0.000000   0.000000   0.000000   0.000000   0.000000   0.000000
    30  H    0.000000   0.000000   0.000000   0.000000   0.000000   0.000000
    31  H    0.000000   0.000000   0.000000   0.000000   0.000000   0.000000
    32  H    0.000000   0.000000   0.000000   0.000000   0.000000   0.000000
    33  H    0.000000   0.000000   0.000000   0.000000   0.000000   0.000000
    34  H    0.000000   0.000000   0.000000   0.000000   0.000000   0.000000
    35  H    0.000000   0.000000   0.000000   0.000000   0.000000   0.000000
    36  H    0.000000   0.000000   0.000000   0.000000   0.000000   0.000000
    37  H    0.000000   0.000000   0.000000   0.000000   0.000000   0.000000
    38  H    0.000000   0.000000   0.000000   0.000000   0.000000   0.000000
    39  H    0.000000   0.000000   0.000000   0.000000   0.000000   0.000000
    40  H    0.000000   0.000000   0.000000   0.000000   0.000000   0.000000
    41  H    0.000000   0.000000   0.000000   0.000000   0.000000   0.000000
    42  H    0.000000   0.000000   0.000000   0.000000   0.000000   0.000000
    43  H    0.000000   0.000000   0.000000   0.000000   0.000000   0.000000
    44  H    0.000000   0.000000   0.000000   0.000000   0.000000   0.000000
    45  H    0.000000   0.000000   0.000000   0.000000   0.000000   0.000000
              13         14         15         16         17         18
     1  O    0.000000   0.000000   0.000000   0.000000   0.000000   0.000000
     2  C    0.000000   0.000000   0.000000   0.000000   0.000000   0.000000
     3  C    0.000000   0.000000   0.000000   0.000000   0.000000   0.000000
     4  O    0.000000   0.000000   0.000000   0.000000   0.000000   0.000000
     5  C    0.000000   0.000000   0.000000   0.000000   0.000000   0.000000
     6  C    0.000000   0.000000   0.000000   0.000000   0.000000   0.000000
     7  O    0.000000   0.000000   0.000000   0.000000   0.000000   0.000000
     8  C    0.000000   0.000000   0.000000   0.000000   0.000000   0.000000
     9  C    0.000000   0.000000   0.000000   0.000000   0.000000   0.000000
    10  O    0.000000   0.000000   0.000000   0.000000   0.000000   0.000000
    11  O    0.000000   0.000000   0.000000   0.000000   0.000000   0.000000
    12  C    0.000000   0.000000   0.000000   0.000000   0.000000   0.000000
    13  C    3.997123   0.000000   0.000000   0.000000   0.000000   0.000000
[...]
 00010152,0.00036185,-0.00029708,0.00031837,-0.00042887,0.00113055,-0.0
 0129443,-0.00225800,0.00011427,0.00040362,-0.00059817,0.00027978,-0.00
 062571,0.00045952,-0.00072353,-0.00017412,-0.00016648,0.00023586,0.000
 13816,-0.00034669,-0.00009657,-0.00106880,0.00025232,-0.00047653,0.000
 02837,-0.00007927,0.00006959,-0.00000819,0.00000261,0.00000736,-0.0000
 0241,0.00000725,-0.00000397,-0.00001504,0.00002453,-0.00002367,0.00002
 517,0.00001597,0.00000968,0.00000007,0.00004431,-0.00000948,0.00000535
 ,0.00001502,0.00000096,0.00000263,0.00001499,0.00002860,-0.00000380,0.
 00002140,0.00001432,0.00010777,0.00003350,0.00007193,0.00032932,-0.002
 10738,0.00204678,-0.00017155,0.00052635,-0.00021522,0.00016851,-0.0000
 1280,0.00007088,-0.00003477,0.00002096,-0.00001179,-0.00010572,-0.0001
 5072,-0.00016125,-0.00000366,0.00003226,-0.00000816,-0.00007703,0.0000
 5788,0.00000461,0.00074100,-0.00016042,0.00042500,0.00007795,0.0002668
 5,-0.00005345,0.03530020,-0.00004392,0.00013093,0.00001253,-0.00002392
 ,-0.00005637,-0.00000486,0.00004937,-0.00007089,-0.00000177,-0.0000728
 0,0.00010887,-0.00005438,0.00004473,-0.00002880,0.00011639,0.00012817,
 -0.00016559,0.00019371,-0.00020351,0.00025819,0.00003116,0.00003315,-0
 .00013118,-0.00015587,0.00018157,-0.00003654,0.00000922,-0.00001617,0.
 00055229,0.00016039,-0.02433651,-0.02840069,-0.02331157,0.01104774,-0.
 00655231,0.03893758,0.00053869,-0.00388386,0.00359391,0.00006605,0.000
 11156,-0.00034948,-0.00020602,0.00087068,0.00067975,0.00060636,-0.0009
 6538,0.00132620,-0.00235648,-0.00384375,0.00191060,-0.00010239,0.00028
 106,-0.00023924,0.00020704,-0.00028380,0.00042204,0.00007411,-0.000122
 97,-0.00031433,-0.00001846,0.00023575,-0.00023345,0.00038756,0.0023108
 3,-0.00091137,-0.00004013,0.00006270,-0.00015677,0.00001587,0.00001202
 ,-0.00002024,0.00001932,0.00000731,0.00000474,0.00002716,-0.00002437,0
 .00003987,-0.00001860,-0.00000946,0.00000073,0.00002435,-0.00000397,0.
 00002792,0.00002907,-0.00002173,-0.00001687,-0.00002055,-0.00002902,-0
 .00003674,-0.00002408,-0.00002730,0.00000527,-0.00007721,-0.00024474,-
 0.00000083,-0.00068588,0.00045174,0.00055993,0.00038522,-0.00054650,0.
 00012112,-0.00010487,0.00008153,0.00000251,-0.00001092,-0.00003184,-0.
 00004023,-0.00019756,-0.00017705,-0.00016467,0.00002566,-0.00001844,0.
 00001018,-0.00000331,-0.00001067,0.00004416,-0.00069432,0.00048883,-0.
 00053812,-0.00012602,-0.00092605,-0.00045484,0.01552614,0.04064445,0.0
 0000889,-0.00002974,-0.00008248,0.00003107,0.00002565,0.00003127,-0.00
 007108,0.00005626,0.00004983,0.00006923,-0.00008088,-0.00004490,0.0000
 5909,0.00003118,-0.00010470,-0.00077351,-0.00007072,0.00069677,0.00008
 626,-0.00002873,-0.00065078,0.00004704,0.00023605,0.00009456,-0.000005
 60,-0.00002445,-0.00012084,0.00002884,0.00007328,-0.00024870,-0.054890
 31,0.00554466,-0.17697297,-0.00518497,0.01423306,-0.03786168,-0.000062
 07,0.00075514,0.00291963,0.00003578,0.00036964,-0.00041428,-0.00029796
 ,0.00104085,-0.00025047,0.00023666,-0.00123550,0.00016161,0.00067057,0
 .00264478,-0.00260989,0.00000275,-0.00039454,0.00004532,-0.00011155,0.
 00067139,0.00067277,-0.00019266,-0.00052685,0.00031504,0.00078478,-0.0
 0095429,-0.00042492,0.00021901,0.00118314,-0.00274562,0.00007214,-0.00
 008613,-0.00004570,-0.00002299,-0.00001346,0.00001888,-0.00000969,-0.0
 0000902,-0.00000389,-0.00003262,0.00001851,0.00000941,0.00000888,0.000
 02041,0.00002046,0.00000113,0.00005588,-0.00001119,0.00000596,-0.00014
 559,0.00006121,0.00000625,-0.00001312,0.00005590,-0.00000103,0.0000097
 9,0.00003690,0.00002395,0.00008589,0.00027621,0.00154829,-0.00078593,0
 .00048151,-0.00046271,-0.00001104,0.00016587,0.00012791,0.00008009,0.0
 0001462,-0.00009436,0.00000384,-0.00000994,-0.00016531,-0.00003849,0.0
 0024670,0.00010702,0.00003584,-0.00014505,-0.00009710,-0.00000553,-0.0
 0012477,0.00002444,-0.00119239,-0.00105078,-0.00036698,-0.00035895,0.0
 0072783,0.05855609,-0.02135365,0.21680376,-0.00014574,-0.00047785,-0.0
 0032238,0.00092359,0.00009022,-0.00011462,-0.00254074,0.00096869,-0.00
 334549,0.00029821,-0.00033252,0.00041302,0.01168830,-0.00057101,-0.011
 92202,0.00188879,-0.00087878,-0.00318144,-0.00050058,0.00067650,0.0003
 7150,0.00016469,-0.00015521,-0.00003571,0.00033517,-0.00018513,-0.0001
 0618,-0.00038324,0.00024751,0.00023748,-0.00002559,-0.00003276,0.00012
 182,-0.00000742,0.00003201,-0.00002921,-0.00007666,0.00001240,-0.00015
 546,-0.00035406,-0.00043073,-0.00004152,0.00012007,0.00126535,-0.00075
 585,0.00004550,-0.00055817,0.00016718,0.00005438,0.00017038,-0.0002381
 6,-0.00004948,0.00000281,0.00001511,0.00000791,-0.00007915,0.00005627,
 -0.00009499,-0.00130768,0.00007198,-0.00077644,0.00005861,0.00156619,-
 0.00000941,0.00011487,0.00032255,-0.11886916,0.00221664,0.10385982,-0.
 00020501,0.00002485,-0.00015127,-0.00037787,-0.00009433,-0.00002631,-0
 .00021915,0.00001596,-0.00020279,0.00064060,0.00067806,-0.00245519,-0.
 00011396,-0.00012287,-0.00006896,-0.00000484,-0.00005368,0.00008416,0.
 00001269,0.00002355,0.00004742,0.00006160,0.00006224,-0.00001527,0.000
 11242,-0.00001842,-0.00022206,-0.00000379,0.00001082,-0.00000624,0.000
 07108,-0.00004295,-0.00002361,-0.00003615,0.00020156,-0.00002875,0.000
 17357,0.00002825,0.00007432,0.00003715,-0.00000084,0.00000493,0.000002
 77,0.00001576,0.00000240,0.00001445,0.00000793,0.00000232,0.00002195,0
 .00002063,-0.00003141,0.00011024,-0.00019178,-0.00012896,0.00000277,-0
 .00001904,-0.00005164,0.10807294,-0.00003701,-0.00039431,0.00015460,0.
 00019261,0.00017716,0.00001848,-0.00005046,0.00116135,-0.00072700,-0.0
 0018874,-0.00063537,0.00062722,-0.00246713,-0.00336267,0.00336923,0.00
 063374,-0.00065582,0.00421329,-0.00001600,-0.00083075,-0.00080963,0.00
 004056,0.00056907,0.00020654,-0.00006296,-0.00001599,-0.00000239,0.000
 00089,-0.00024050,-0.00011237,-0.00003776,0.00015615,-0.00015604,-0.00
 002025,-0.00014154,0.00003560,0.00012007,-0.00004200,0.00027298,-0.000
 17405,-0.00001956,0.00014594,0.00057208,-0.00102938,0.00012702,-0.0003
 3320,0.00067245,-0.00003040,-0.00007130,-0.00020307,0.00026860,0.00007
 858,-0.00008972,0.00003231,-0.00005857,0.00016685,-0.00006935,-0.00086
 254,0.00037629,0.00031398,-0.00034650,-0.00017616,-0.00106911,-0.00012
 832,-0.00010248,-0.00036145,0.00393751,-0.00169933,0.00002454,-0.00000
 242,-0.00000097,-0.00000505,-0.00000460,0.00004567,0.00001713,0.000375
 29,0.00046366,-0.00044556,-0.00016369,0.00095984,-0.00159559,0.0001186
 9,-0.00042030,0.00044131,-0.00001058,-0.00010702,-0.00007346,-0.000004
 25,0.00002883,0.00001374,-0.00000971,0.00009793,-0.00006026,0.00008153
 ,0.00014784,0.00014705,0.00005539,0.00000160,0.00000125,-0.00000415,0.
 00000341,0.00001242,0.00013861,0.00003322,-0.00001217,0.00018313,-0.00
 023158,0.00000094,0.00000106,-0.00002049,-0.00000877,0.00002879,-0.000
 00148,-0.00002643,-0.00001958,-0.00000828,-0.00001132,-0.00001207,-0.0
 0006174,0.00001718,-0.00001316,0.00013984,0.00013133,0.00004626,-0.000
 02552,0.00007726,-0.00173687,0.00502934,-0.00005014,0.00021254,0.00025
 376,0.00052326,-0.00033889,-0.00055598,-0.00161728,-0.00072113,-0.0054
 8234,-0.00059095,0.00104467,0.00036593,0.02197582,0.00287100,-0.051233
 63,-0.00159633,0.00242665,-0.00148405,0.00029733,-0.00083583,0.0010788
 3,-0.00008185,-0.00031551,-0.00012898,-0.00024292,0.00016352,0.0002032
 5,0.00032242,-0.00021743,-0.00006824,0.00002177,-0.00014685,-0.0000691
 8,0.00001005,0.00012199,0.00004144,0.00002473,-0.00011946,-0.00004099,
 -0.00002365,0.00105330,0.00029790,-0.00014226,-0.00091217,0.00150586,-
 0.00009515,0.00026961,-0.00046116,0.00000762,-0.00014751,0.00023609,0.
 00002030,0.00001869,-0.00002167,-0.00000076,0.00000803,-0.00009311,-0.
 00004021,0.00105160,-0.00087213,0.00110473,-0.00124280,-0.00075160,0.0
 0007731,-0.00017082,-0.00021635,0.06470674,0.00180721,-0.11972794,0.00
 003280,0.00005383,-0.00015177,-0.00015052,0.00019605,0.00020841,0.0004
 5573,-0.00050163,0.00007872,-0.00071836,-0.00146506,0.00048055,0.00027
 111,0.00038459,0.00014634,0.00002124,0.00011600,-0.00005246,-0.0000064
 6,-0.00004321,-0.00008498,-0.00003948,-0.00002303,-0.00008180,-0.00017
 229,0.00004646,0.00001220,-0.00002085,-0.00001311,-0.00000126,-0.00006
 041,0.00006917,0.00003698,-0.00003725,-0.00019646,-0.00004051,-0.00000
 457,-0.00003332,0.00001097,-0.00000770,0.00001981,0.00000188,-0.000005
 98,-0.00001470,0.00002256,0.00000624,-0.00000664,0.00001426,-0.0000206
 7,0.00002436,0.00005682,-0.00013599,0.00023794,0.00007136,-0.00002841,
 0.00005848,0.00002186,-0.08399854,-0.00464998,0.17664010,-0.00000629,-
 0.00017405,-0.00004061,0.00004429,0.00009386,0.00004867,-0.00010248,0.
 00011878,0.00002689,0.00007719,-0.00019555,0.00003476,-0.00002076,0.00
 004594,-0.00011548,-0.00058728,-0.00000637,0.00059261,0.00005510,-0.00
 022297,-0.00046293,0.00000974,0.00027078,0.00017366,0.00002134,-0.0000
 5140,-0.00006406,-0.00015421,-0.00020607,-0.00005783,-0.00018524,0.000
 30459,-0.00034578,0.00001769,-0.00028062,0.00015735,-0.00010405,-0.000
 47849,0.00021002,0.00018206,0.00337114,-0.00013262,-0.01937722,-0.0130
 9346,0.01650846,-0.00134892,0.00033111,-0.00128659,-0.00071495,-0.0004
 0052,0.00137019,0.00020179,-0.00022996,0.00000867,-0.00031320,0.000438
 60,-0.00012264,-0.17902037,0.01949617,0.06392655,0.00033876,-0.0007350
 1,-0.00058177,-0.00039681,-0.00011395,-0.00097400,0.00006584,-0.000265
 54,0.00001278,-0.00002130,-0.00000697,0.00001260,-0.00000922,0.0000012
 3,-0.00000245,-0.00002051,0.00005653,-0.00004072,0.00008588,0.00005909
 ,0.00001172,-0.00002426,0.00010448,0.00008751,-0.00001272,-0.00004549,
 -0.00000128,0.00001135,0.00002891,0.00003332,0.00002423,0.00004507,0.0
 0000311,0.00020304,0.00018783,0.00007401,0.00029187,0.00004911,-0.0000
 7684,-0.00010322,0.00003892,0.00008261,0.00099199,0.00023051,-0.000319
 59,-0.00113448,-0.00039478,0.00057616,-0.00013850,-0.00005338,-0.00002
 590,0.00027351,0.00023044,-0.00018639,-0.00006414,0.00000639,-0.000001
 14,-0.00000065,-0.00013572,0.00000106,-0.00007703,0.00026309,0.0002096
 2,0.00013301,-0.00004363,0.00014191,-0.00000225,0.00024767,-0.00002233
 ,0.20092697,-0.00002188,-0.00000249,0.00004304,-0.00000890,-0.00000332
 ,-0.00001074,0.00002263,-0.00003236,-0.00002423,-0.00006045,0.00001395
 ,0.00002896,-0.00004169,-0.00000997,0.00004006,0.00013903,0.00002602,-
 0.00030394,-0.00000109,-0.00005125,0.00018878,-0.00001038,-0.00004844,
 0.00000837,-0.00001635,0.00001121,0.00003550,-0.00001765,-0.00011949,0
 .00003586,0.00002887,-0.00017388,-0.00035238,-0.00005614,0.00034971,0.
 00018182,-0.00027668,0.00004773,-0.00022814,0.00016882,0.00046881,0.00
 038873,-0.03599969,-0.00397023,0.01815865,0.00010744,0.00018323,-0.001
 12810,0.00021758,-0.00138484,0.00066314,0.00023213,-0.00008365,0.00001
 163,-0.00001148,0.00031681,-0.00031773,0.04634376,-0.02377896,-0.00056
 080,-0.00009017,-0.00059218,0.00004497,0.00014021,-0.00014029,-0.00005
 682,-0.00007955,-0.00008657,0.00001769,0.00001387,0.00000409,-0.000007
 16,0.00001325,0.00001544,0.00001064,0.00004411,0.00000188,-0.00001402,
 0.00006277,0.00001986,-0.00003848,-0.00000179,-0.00000978,-0.00000201,
 -0.00000037,0.00002602,-0.00001179,0.00000179,0.00000089,-0.00001853,0
 .00001225,0.00001433,-0.00003089,0.00003732,0.00009112,-0.00007329,0.0
 0001079,-0.00002333,0.00004977,-0.00001913,-0.00006027,0.00000199,0.00
 000111,0.00040810,-0.00006609,-0.00178438,-0.00341819,0.00485742,-0.00
 009774,0.00022059,-0.00009508,-0.00002228,-0.00023414,0.00004332,-0.00
 003708,-0.00006258,-0.00003332,-0.00010225,-0.00006303,0.00014750,-0.0
 0004003,0.00011194,0.00004257,0.00000442,0.00008499,0.00009793,0.00013
 269,0.00013451,-0.00001490,-0.00895507,0.03179999,-0.00004156,0.000152
 43,0.00006629,-0.00005084,-0.00008360,-0.00004575,0.00011127,-0.000157
 44,-0.00004596,-0.00015008,0.00020997,-0.00003873,-0.00008350,-0.00009
 808,0.00019004,0.00098375,0.00005095,-0.00099410,-0.00014453,0.0000444
 8,0.00066110,-0.00001448,-0.00026390,-0.00011640,0.00007172,-0.0000030
 7,0.00007497,-0.00004507,0.00009892,0.00021217,-0.00001675,-0.00035669
 ,0.00005487,0.00001771,0.00037356,-0.00001811,-0.00024879,0.00019934,-
 0.00042067,0.00060473,0.00067614,-0.00202977,0.03814533,0.00361953,-0.
 02136738,-0.00162247,0.00115849,0.00072420,0.00058399,-0.00052765,-0.0
 0043904,-0.00002493,-0.00008645,0.00009003,0.00006418,-0.00013937,-0.0
 0018259,0.04132728,0.01377185,-0.03339688,-0.00085110,0.00022434,0.000
 98329,0.00012714,-0.00015847,0.00042040,-0.00016328,0.00018011,-0.0000
 7157,0.00003292,0.00001429,-0.00002087,0.00002977,0.00002400,0.0000210
 9,0.00006854,-0.00005483,0.00005343,0.00001776,-0.00005338,-0.00004490
 ,-0.00002401,0.00007198,0.00006337,0.00001225,0.00006172,-0.00001722,-
 0.00001271,-0.00002277,-0.00005177,-0.00000355,-0.00002787,-0.00003891
 ,-0.00002134,-0.00006891,-0.00029759,-0.00003527,0.00003505,-0.0000208
 5,0.00007375,-0.00006344,0.00007825,-0.00026828,0.00032517,-0.00094592
 ,0.00087998,0.00278280,-0.00138476,0.00001520,0.00003055,-0.00002394,-
 0.00006520,-0.00009712,0.00018698,0.00002028,-0.00003716,0.00003135,-0
 .00002680,0.00007879,0.00008451,0.00001305,-0.00000183,-0.00016453,-0.
 00004963,0.00007829,-0.00004512,0.00016611,-0.00020846,0.00003702,-0.0
 7944282,-0.02168212,0.05820664,-0.05993580,0.07558270,-0.04828630,0.00
 734881,-0.01492256,0.00909026,0.00171949,-0.00358022,-0.00074472,-0.00
 364824,-0.00006219,-0.00169877,-0.00021650,0.00022225,0.00067568,-0.00
 042636,-0.00015084,0.00063641,0.00046985,-0.00064189,-0.00077835,-0.00
 208202,-0.00061851,-0.00024290,-0.00044478,0.00006839,-0.00013619,0.00
 020035,-0.00032281,0.00000736,0.00000166,-0.00008597,0.00002782,0.0000
 0744,0.00007414,-0.00002044,0.00002306,-0.00001315,0.00001837,-0.00006
 044,0.00016944,0.00005166,-0.00002183,0.00005827,0.00014365,0.00000381
 ,-0.00009091,-0.00006139,0.00001870,0.00001090,-0.00000264,-0.00002102
 ,0.00002469,-0.00001170,0.00000793,-0.00004986,-0.00000548,0.00001501,
 -0.00001139,-0.00009846,0.00022122,-0.00014200,-0.00021927,0.00001776,
 -0.00012280,-0.00007671,-0.00020966,0.00014871,-0.00045883,-0.00107886
 ,-0.00316372,-0.00177507,-0.00000242,0.00052357,-0.00006464,0.00094297
 ,0.00124859,0.00068318,0.00009635,0.00022148,0.00023399,0.00005824,0.0
 0005267,-0.00002218,0.00004122,0.00005402,-0.00012338,-0.00001244,0.00
 005958,-0.00014017,-0.00016492,0.00037684,-0.00002772,-0.00004870,0.00
 013543,0.00007886,-0.00001236,-0.00000176,0.00000022,-0.00000537,0.000
 01897,0.00001164,-0.00000899,-0.00000766,0.00000389,0.00001101,-0.0000
 0100,-0.00000579,0.00000822,0.00000714,0.00000133,-0.00000346,0.000001
 69,0.00000917,0.00000902,0.00000255,0.00000665,0.00000273,0.00002885,0
 .00000862,-0.00004009,0.00016179,0.00004675,-0.00001392,0.00002888,-0.
 00001177,-0.00006368,-0.00001673,0.00003061,-0.00001463,0.00001721,0.0
 0004002,0.05731145,0.04938901,-0.13365155,0.03899157,0.01153335,-0.051
 34175,0.00683488,-0.00118816,0.00002711,-0.00376486,-0.00317327,-0.003
 72606,-0.00533062,0.00014567,-0.00035113,-0.00049996,0.00075554,0.0000
 4488,-0.00080218,0.00014054,0.00008177,0.00111344,-0.00138374,-0.00425
 292,-0.00183800,0.00090608,-0.00036337,-0.00031935,-0.00090333,0.00051
 547,0.00043713,-0.00002685,0.00014325,-0.00002125,-0.00001098,-0.00011
 684,0.00002607,-0.00005422,0.00002242,-0.00005230,-0.00000108,-0.00032
 463,-0.00008966,0.00007867,-0.00006530,-0.00028978,-0.00003302,0.00013
 161,0.00011390,-0.00003252,-0.00000337,-0.00000470,0.00003368,-0.00005
 466,0.00002838,-0.00002601,0.00008537,0.00001141,-0.00011161,-0.000040
 98,0.00020163,-0.00053395,0.00027418,0.00041528,-0.00005970,0.00021236
 ,0.00019133,-0.00018704,-0.00025901,0.00081944,-0.00106849,-0.00076874
 ,0.00093284,0.00003387,-0.00071723,0.00051603,-0.00012142,0.00052244,-
 0.00045311,0.00013725,0.00022305,-0.00007421,-0.00008734,-0.00009584,0
 .00003935,0.00007239,-0.00017311,0.00027009,0.00022743,0.00002299,0.00
 015449,0.00021467,0.00016095,-0.00012039,0.00010384,-0.00000069,-0.000
 30356,0.00003371,0.00000459,-0.00000185,0.00002062,-0.00003205,-0.0000
 2490,0.00004716,0.00005338,-0.00000317,0.00000276,-0.00000420,0.000013
 19,-0.00000401,-0.00001147,-0.00000315,0.00001350,0.00000151,-0.000019
 18,-0.00001294,-0.00000234,-0.00001199,0.00000302,-0.00004856,-0.00002
 140,0.00010405,-0.00030408,-0.00013186,0.00003665,-0.00005521,0.000008
 36,0.00021147,0.00015145,-0.00012531,0.00006754,-0.00000195,-0.0000699
 5,-0.05529273,0.19408867,-0.04909645,0.05741096,-0.03800764,0.00867205
 ,-0.01148503,0.00370354,0.00007123,-0.00739240,-0.00076448,-0.00277367
 ,0.00017797,-0.00310875,-0.00001590,0.00015576,0.00009628,-0.00026621,
 -0.00078543,0.00168388,0.00060943,-0.00110281,-0.00201317,-0.00178656,
 -0.00265967,-0.00046068,-0.00065396,0.00019899,-0.00020462,0.00037792,
 -0.00018926,-0.00032715,0.00000767,0.00002290,-0.00007590,-0.00000338,
 -0.00002467,0.00000312,0.00006041,-0.00000521,0.00016804,-0.00000959,-
 0.00004329,-0.00008612,0.00000521,-0.00017749,0.00006629,-0.00003058,0
 .00013595,-0.00002979,-0.00000797,-0.00006075,0.00006569,0.00001550,-0
 .00000962,0.00000194,-0.00000558,0.00002579,-0.00003302,0.00001114,0.0
 0014539,-0.00004603,0.00011690,0.00033928,-0.00021228,-0.00000229,-0.0
 0008634,-0.00024245,-0.00016281,0.00069065,0.00012543,0.00050694,0.000
 21570,0.00026886,-0.00026063,0.00044055,0.00003907,0.00093149,0.001474
 27,-0.00010081,0.00013894,-0.00030296,-0.00018030,-0.00001976,0.000125
 15,-0.00013083,0.00023782,-0.00000262,-0.00005420,0.00001347,-0.000021
 26,0.00004369,0.00015907,-0.00029298,0.00025209,-0.00002787,-0.0000433
 2,0.00024924,0.00000315,-0.00000303,0.00000477,-0.00002314,0.00000833,
 0.00002214,0.00000294,0.00001299,0.00002747,0.00001191,-0.00001530,-0.
 00000759,-0.00000071,-0.00000083,-0.00000104,-0.00000063,-0.00000397,0
 .00000228,-0.00000181,-0.00000179,0.00000174,-0.00000700,-0.00000514,0
 .00001913,-0.00007702,0.00012756,0.00013545,-0.00000032,0.00001265,0.0
 0004213,0.00007500,-0.00023497,-0.00020254,-0.00000039,-0.00002817,-0.
 00001572,0.04320631,-0.03674277,0.03928340\\-0.00005989,0.00007984,0.0
 0000650,0.00006597,-0.00004722,-0.00001322,-0.00017738,0.00003490,0.00
 007148,0.00004409,-0.00001916,0.00000187,0.00019166,-0.00013176,-0.000
 00724,0.00006287,-0.00000208,0.00010119,-0.00000124,0.00005198,-0.0000
 0799,-0.00015005,-0.00007895,-0.00015168,0.00006701,0.00019113,0.00008
 169,0.00000010,-0.00010702,-0.00005207,-0.00001867,-0.00001174,0.00003
 473,0.00005711,-0.00002140,-0.00002711,-0.00006425,0.00005574,0.000004
 93,-0.00001589,0.00009166,0.00006875,-0.00007654,-0.00003932,0.0001256
 2,0.00000411,-0.00005599,0.00002686,0.00002402,0.00000041,-0.00005402,
 -0.00001910,0.00000630,-0.00002422,0.00003121,0.00002912,0.00002629,-0
 .00001254,0.00011517,-0.00000919,-0.00003721,-0.00004036,-0.00002517,0
 .00003007,-0.00004981,-0.00006390,-0.00003279,0.00004971,-0.00003167,-
 0.00000895,0.00002155,0.00001850,0.00004580,0.00001129,0.00000053,-0.0
 0000810,0.00000120,-0.00001808,-0.00004945,0.00002653,-0.00000051,-0.0
 0000392,0.00001334,-0.00002789,0.00002328,-0.00001835,0.00004633,-0.00
 001461,-0.00002081,-0.00002065,-0.00000904,-0.00003045,-0.00001647,0.0
 0005238,-0.00003372,0.00004214,-0.00002505,-0.00001241,-0.00001254,0.0
 0001849,-0.00002144,-0.00000079,0.00002622,0.00002181,-0.00005353,0.00
 002891,-0.00003024,-0.00005768,0.00000846,-0.00000829,0.00000672,-0.00
 000939,-0.00001709,0.00000477,-0.00001059,0.00000245,0.00000720,-0.000
 01557,-0.00001341,-0.00000751,-0.00003546,0.00009312,0.00003866,0.0000
 0643,0.00000651,-0.00000695,-0.00000906,-0.00001024,0.00000909,0.00004
 379,-0.00003449,-0.00003329,0.00003277,-0.00004797,-0.00000048\\\@


 It is also a good rule not to put too much confidence in
 experimental results until they have been confirmed by
 Theory.
                             -- Sir Arthur Eddington
 Job cpu time:       0 days  0 hours  0 minutes 11.0 seconds.
 Elapsed time:       0 days  0 hours  0 minutes  0.9 seconds.
 File lengths (MBytes):  RWF=    217 Int=      0 D2E=      0 Chk=      4 Scr=      1
 Normal termination of Gaussian 16 at Tue Jun 22 14:21:42 2021.
