 Entering Gaussian System, Link 0=g16
 Input=input.com
 Output=input.log
 Initial command:
 /home/matma/Programs/gaussian/G16_x86_SSE4/tar/g16/l1.exe "/scratch-data/gaussian/Gau-24794.inp" -scrdir="/scratch-data/gaussian/"
 Entering Link 1 = /home/matma/Programs/gaussian/G16_x86_SSE4/tar/g16/l1.exe PID=     24796.
  
 Copyright (c) 1988-2017, Gaussian, Inc.  All Rights Reserved.
  
 This is part of the Gaussian(R) 16 program.  It is based on
 the Gaussian(R) 09 system (copyright 2009, Gaussian, Inc.),
 the Gaussian(R) 03 system (copyright 2003, Gaussian, Inc.),
 the Gaussian(R) 98 system (copyright 1998, Gaussian, Inc.),
 the Gaussian(R) 94 system (copyright 1995, Gaussian, Inc.),
 the Gaussian 92(TM) system (copyright 1992, Gaussian, Inc.),
 the Gaussian 90(TM) system (copyright 1990, Gaussian, Inc.),
 the Gaussian 88(TM) system (copyright 1988, Gaussian, Inc.),
 the Gaussian 86(TM) system (copyright 1986, Carnegie Mellon
 University), and the Gaussian 82(TM) system (copyright 1983,
 Carnegie Mellon University). Gaussian is a federally registered
 trademark of Gaussian, Inc.
  
 This software contains proprietary and confidential information,
 including trade secrets, belonging to Gaussian, Inc.
  
 This software is provided under written license and may be
 used, copied, transmitted, or stored only in accord with that
 written license.
  
 The following legend is applicable only to US Government
 contracts under FAR:
  
                    RESTRICTED RIGHTS LEGEND
  
 Use, reproduction and disclosure by the US Government is
 subject to restrictions as set forth in subparagraphs (a)
 and (c) of the Commercial Computer Software - Restricted
 Rights clause in FAR 52.227-19.
  
 Gaussian, Inc.
 340 Quinnipiac St., Bldg. 40, Wallingford CT 06492
  
  
 ---------------------------------------------------------------
 Warning -- This program may not be used in any manner that
 competes with the business of Gaussian, Inc. or will provide
 assistance to any competitor of Gaussian, Inc.  The licensee
 of this program is prohibited from giving any competitor of
 Gaussian, Inc. access to this program.  By using this program,
 the user acknowledges that Gaussian, Inc. is engaged in the
 business of creating and licensing software in the field of
 computational chemistry and represents and warrants to the
 licensee that it is not a competitor of Gaussian, Inc. and that
 it will not use this program in any manner prohibited above.
 ---------------------------------------------------------------
  

 Cite this work as:
 Gaussian 16, Revision B.01,
 M. J. Frisch, G. W. Trucks, H. B. Schlegel, G. E. Scuseria, 
 M. A. Robb, J. R. Cheeseman, G. Scalmani, V. Barone, 
 G. A. Petersson, H. Nakatsuji, X. Li, M. Caricato, A. V. Marenich, 
 J. Bloino, B. G. Janesko, R. Gomperts, B. Mennucci, H. P. Hratchian, 
 J. V. Ortiz, A. F. Izmaylov, J. L. Sonnenberg, D. Williams-Young, 
 F. Ding, F. Lipparini, F. Egidi, J. Goings, B. Peng, A. Petrone, 
 T. Henderson, D. Ranasinghe, V. G. Zakrzewski, J. Gao, N. Rega, 
 G. Zheng, W. Liang, M. Hada, M. Ehara, K. Toyota, R. Fukuda, 
 J. Hasegawa, M. Ishida, T. Nakajima, Y. Honda, O. Kitao, H. Nakai, 
 T. Vreven, K. Throssell, J. A. Montgomery, Jr., J. E. Peralta, 
 F. Ogliaro, M. J. Bearpark, J. J. Heyd, E. N. Brothers, K. N. Kudin, 
 V. N. Staroverov, T. A. Keith, R. Kobayashi, J. Normand, 
 K. Raghavachari, A. P. Rendell, J. C. Burant, S. S. Iyengar, 
 J. Tomasi, M. Cossi, J. M. Millam, M. Klene, C. Adamo, R. Cammi, 
 J. W. Ochterski, R. L. Martin, K. Morokuma, O. Farkas, 
 J. B. Foresman, and D. J. Fox, Gaussian, Inc., Wallingford CT, 2016.
 
 ******************************************
 Gaussian 16:  ES64L-G16RevB.01 20-Dec-2017
                28-Jun-2021 
 ******************************************
 %nproc=12
 Will use up to   12 processors via shared memory.
 %mem=16GB
 --------------------------------------
 #P pm6 opt=loose freq int=(grid=99590)
 --------------------------------------
 1/7=-1,18=20,19=15,26=1,38=1/1,3;
 2/9=110,12=2,17=6,18=5,40=1/2;
 3/5=2,25=1,41=3900000,71=1,75=99590/1,2,3;
 4/35=1/1;
 5/5=2,35=1,38=5/2;
 6/7=2,8=2,9=2,10=2,28=1/1;
 7//1,2,3,16;
 1/7=-1,18=20,19=15,26=1/3(2);
 2/9=110/2;
 99//99;
 2/9=110/2;
 3/5=2,25=1,41=3900000,71=1,75=99590,135=20/1,2,3;
 4/5=5,16=3,35=1/1;
 5/5=2,35=1,38=5/2;
 7//1,2,3,16;
 1/7=-1,18=20,19=15,26=1/3(-5);
 2/9=110/2;
 6/7=2,8=2,9=2,10=2,19=2,28=1/1;
 99/9=1/99;
 Leave Link    1 at Mon Jun 28 19:27:27 2021, MaxMem=  2147483648 cpu:               0.2 elap:               0.0
 (Enter /home/matma/Programs/gaussian/G16_x86_SSE4/tar/g16/l101.exe)
 ------------
 offspring-04
 ------------
 Symbolic Z-matrix:
 Charge =  1 Multiplicity = 1
 C                    -3.351     3.031     0.086 
 H                    -3.604     3.927     0.694 
 O                    -3.601     3.222    -1.296 
 H                    -4.52      3.54     -1.46 
 C                    -4.152     0.712    -0.002 
 H                    -4.427     0.793    -1.079 
 O                    -4.238     2.039     0.587 
 C                    -1.865     2.579     0.179 
 H                    -1.595     2.478     1.276 
 N                    -0.98      3.579    -0.435 
 H                    -1.294     4.       -1.311 
 C                     0.29      3.787     0.111 
 O                     0.579     3.165     1.138 
 C                     1.196     4.739    -0.578 
 H                     2.068     4.186    -0.999 
 H                     1.623     5.466     0.137 
 H                     0.75      5.316    -1.397 
 C                    -1.748     1.205    -0.517 
 H                    -1.931     1.273    -1.62 
 O                    -0.381     0.7      -0.473 
 H                    -0.385    -0.505    -0.441 
 C                    -2.703     0.215     0.174 
 H                    -2.458     0.066     1.253 
 O                    -2.518    -1.013    -0.561 
 C                    -5.193    -0.11      0.776 
 H                    -5.608    -0.92      0.142 
 H                    -6.014     0.541     1.137 
 O                    -4.591    -0.815     1.865 
 H                    -4.561    -0.247     2.669 
 C                    -2.343    -2.182     0.266 
 H                    -3.162    -2.267     1.02 
 C                    -0.021    -2.764     0.81 
 H                    -0.312    -3.791     1.158 
 O                    -1.162    -1.896     1.029 
 C                    -2.252    -3.342    -0.754 
 H                    -3.03     -3.203    -1.546 
 O                    -2.446    -4.554    -0.023 
 H                    -3.392    -4.834    -0.036 
 C                    -0.868    -3.535    -1.424 
 H                    -0.654    -4.626    -1.521 
 O                    -0.99     -2.908    -2.71 
 H                    -0.507    -3.423    -3.403 
 C                     0.279    -2.793    -0.696 
 H                     1.296    -3.203    -0.912 
 O                     0.351    -1.424    -1.208 
 H                    -0.208    -1.373    -2.076 
 C                     1.067    -2.175     1.717 
 H                     1.328    -2.869     2.541 
 H                     0.741    -1.2       2.14 
 O                     2.26     -2.045     0.907 
 C                     3.038    -0.871     1.208 
 H                     3.096    -0.688     2.299 
 C                     5.31     -0.213     0.703 
 H                     5.379     0.201     1.733 
 O                     4.308    -1.276     0.687 
 C                     2.449     0.321     0.407 
 H                     1.942    -0.05     -0.521 
 O                     1.376     0.807     1.269 
 H                     1.545     1.78      1.55 
 C                     3.457     1.437     0.074 
 H                     3.518     2.187     0.898 
 O                     2.956     2.182    -1.031 
 H                     3.256     1.758    -1.892 
 C                     4.847     0.859    -0.305 
 H                     5.597     1.677    -0.43 
 O                     4.711     0.329    -1.624 
 H                     4.41     -0.62     -1.577 
 C                     6.582    -0.922     0.288 
 H                     6.594    -1.956     0.675 
 H                     7.477    -0.418     0.673 
 H                     6.689    -0.997    -0.805 
 H                     0.169     0.97      0.486 
 
 Add virtual bond connecting atoms H72        and O20        Dist= 2.15D+00.
 Add virtual bond connecting atoms H21        and O20        Dist= 2.28D+00.
 ITRead=  0  0  0  0  0  0  0  0  0  0  0  0  0  0  0  0  0  0  0  0
 ITRead=  0  0  0  0  0  0  0  0  0  0  0  0  0  0  0  0  0  0  0  0
 ITRead=  0  0  0  0  0  0  0  0  0  0  0  0  0  0  0  0  0  0  0  0
 ITRead=  0  0  0  0  0  0  0  0  0  0  0  0
 MicOpt= -1 -1 -1 -1 -1 -1 -1 -1 -1 -1 -1 -1 -1 -1 -1 -1 -1 -1 -1 -1
 MicOpt= -1 -1 -1 -1 -1 -1 -1 -1 -1 -1 -1 -1 -1 -1 -1 -1 -1 -1 -1 -1
 MicOpt= -1 -1 -1 -1 -1 -1 -1 -1 -1 -1 -1 -1 -1 -1 -1 -1 -1 -1 -1 -1
 MicOpt= -1 -1 -1 -1 -1 -1 -1 -1 -1 -1 -1 -1
 NAtoms=     72 NQM=       72 NQMF=       0 NMMI=      0 NMMIF=      0
                NMic=       0 NMicF=      0.
                    Isotopes and Nuclear Properties:
 (Nuclear quadrupole moments (NQMom) in fm**2, nuclear magnetic moments (NMagM)
  in nuclear magnetons)

  Atom         1           2           3           4           5           6           7           8           9          10
 IAtWgt=          12           1          16           1          12           1          16          12           1          14
 AtmWgt=  12.0000000   1.0078250  15.9949146   1.0078250  12.0000000   1.0078250  15.9949146  12.0000000   1.0078250  14.0030740
 NucSpn=           0           1           0           1           0           1           0           0           1           2
 AtZEff=  -0.0000000  -0.0000000  -0.0000000  -0.0000000  -0.0000000  -0.0000000  -0.0000000  -0.0000000  -0.0000000  -0.0000000
 NQMom=    0.0000000   0.0000000   0.0000000   0.0000000   0.0000000   0.0000000   0.0000000   0.0000000   0.0000000   2.0440000
 NMagM=    0.0000000   2.7928460   0.0000000   2.7928460   0.0000000   2.7928460   0.0000000   0.0000000   2.7928460   0.4037610
 AtZNuc=   6.0000000   1.0000000   8.0000000   1.0000000   6.0000000   1.0000000   8.0000000   6.0000000   1.0000000   7.0000000

  Atom        11          12          13          14          15          16          17          18          19          20
 IAtWgt=           1          12          16          12           1           1           1          12           1          16
 AtmWgt=   1.0078250  12.0000000  15.9949146  12.0000000   1.0078250   1.0078250   1.0078250  12.0000000   1.0078250  15.9949146
 NucSpn=           1           0           0           0           1           1           1           0           1           0
 AtZEff=  -0.0000000  -0.0000000  -0.0000000  -0.0000000  -0.0000000  -0.0000000  -0.0000000  -0.0000000  -0.0000000  -0.0000000
 NQMom=    0.0000000   0.0000000   0.0000000   0.0000000   0.0000000   0.0000000   0.0000000   0.0000000   0.0000000   0.0000000
 NMagM=    2.7928460   0.0000000   0.0000000   0.0000000   2.7928460   2.7928460   2.7928460   0.0000000   2.7928460   0.0000000
 AtZNuc=   1.0000000   6.0000000   8.0000000   6.0000000   1.0000000   1.0000000   1.0000000   6.0000000   1.0000000   8.0000000

  Atom        21          22          23          24          25          26          27          28          29          30
 IAtWgt=           1          12           1          16          12           1           1          16           1          12
 AtmWgt=   1.0078250  12.0000000   1.0078250  15.9949146  12.0000000   1.0078250   1.0078250  15.9949146   1.0078250  12.0000000
 NucSpn=           1           0           1           0           0           1           1           0           1           0
 AtZEff=  -0.0000000  -0.0000000  -0.0000000  -0.0000000  -0.0000000  -0.0000000  -0.0000000  -0.0000000  -0.0000000  -0.0000000
 NQMom=    0.0000000   0.0000000   0.0000000   0.0000000   0.0000000   0.0000000   0.0000000   0.0000000   0.0000000   0.0000000
 NMagM=    2.7928460   0.0000000   2.7928460   0.0000000   0.0000000   2.7928460   2.7928460   0.0000000   2.7928460   0.0000000
 AtZNuc=   1.0000000   6.0000000   1.0000000   8.0000000   6.0000000   1.0000000   1.0000000   8.0000000   1.0000000   6.0000000

  Atom        31          32          33          34          35          36          37          38          39          40
 IAtWgt=           1          12           1          16          12           1          16           1          12           1
 AtmWgt=   1.0078250  12.0000000   1.0078250  15.9949146  12.0000000   1.0078250  15.9949146   1.0078250  12.0000000   1.0078250
 NucSpn=           1           0           1           0           0           1           0           1           0           1
 AtZEff=  -0.0000000  -0.0000000  -0.0000000  -0.0000000  -0.0000000  -0.0000000  -0.0000000  -0.0000000  -0.0000000  -0.0000000
 NQMom=    0.0000000   0.0000000   0.0000000   0.0000000   0.0000000   0.0000000   0.0000000   0.0000000   0.0000000   0.0000000
 NMagM=    2.7928460   0.0000000   2.7928460   0.0000000   0.0000000   2.7928460   0.0000000   2.7928460   0.0000000   2.7928460
 AtZNuc=   1.0000000   6.0000000   1.0000000   8.0000000   6.0000000   1.0000000   8.0000000   1.0000000   6.0000000   1.0000000

  Atom        41          42          43          44          45          46          47          48          49          50
 IAtWgt=          16           1          12           1          16           1          12           1           1          16
 AtmWgt=  15.9949146   1.0078250  12.0000000   1.0078250  15.9949146   1.0078250  12.0000000   1.0078250   1.0078250  15.9949146
 NucSpn=           0           1           0           1           0           1           0           1           1           0
 AtZEff=  -0.0000000  -0.0000000  -0.0000000  -0.0000000  -0.0000000  -0.0000000  -0.0000000  -0.0000000  -0.0000000  -0.0000000
 NQMom=    0.0000000   0.0000000   0.0000000   0.0000000   0.0000000   0.0000000   0.0000000   0.0000000   0.0000000   0.0000000
 NMagM=    0.0000000   2.7928460   0.0000000   2.7928460   0.0000000   2.7928460   0.0000000   2.7928460   2.7928460   0.0000000
 AtZNuc=   8.0000000   1.0000000   6.0000000   1.0000000   8.0000000   1.0000000   6.0000000   1.0000000   1.0000000   8.0000000

  Atom        51          52          53          54          55          56          57          58          59          60
 IAtWgt=          12           1          12           1          16          12           1          16           1          12
 AtmWgt=  12.0000000   1.0078250  12.0000000   1.0078250  15.9949146  12.0000000   1.0078250  15.9949146   1.0078250  12.0000000
 NucSpn=           0           1           0           1           0           0           1           0           1           0
 AtZEff=  -0.0000000  -0.0000000  -0.0000000  -0.0000000  -0.0000000  -0.0000000  -0.0000000  -0.0000000  -0.0000000  -0.0000000
 NQMom=    0.0000000   0.0000000   0.0000000   0.0000000   0.0000000   0.0000000   0.0000000   0.0000000   0.0000000   0.0000000
 NMagM=    0.0000000   2.7928460   0.0000000   2.7928460   0.0000000   0.0000000   2.7928460   0.0000000   2.7928460   0.0000000
 AtZNuc=   6.0000000   1.0000000   6.0000000   1.0000000   8.0000000   6.0000000   1.0000000   8.0000000   1.0000000   6.0000000

  Atom        61          62          63          64          65          66          67          68          69          70
 IAtWgt=           1          16           1          12           1          16           1          12           1           1
 AtmWgt=   1.0078250  15.9949146   1.0078250  12.0000000   1.0078250  15.9949146   1.0078250  12.0000000   1.0078250   1.0078250
 NucSpn=           1           0           1           0           1           0           1           0           1           1
 AtZEff=  -0.0000000  -0.0000000  -0.0000000  -0.0000000  -0.0000000  -0.0000000  -0.0000000  -0.0000000  -0.0000000  -0.0000000
 NQMom=    0.0000000   0.0000000   0.0000000   0.0000000   0.0000000   0.0000000   0.0000000   0.0000000   0.0000000   0.0000000
 NMagM=    2.7928460   0.0000000   2.7928460   0.0000000   2.7928460   0.0000000   2.7928460   0.0000000   2.7928460   2.7928460
 AtZNuc=   1.0000000   8.0000000   1.0000000   6.0000000   1.0000000   8.0000000   1.0000000   6.0000000   1.0000000   1.0000000

  Atom        71          72
 IAtWgt=           1           1
 AtmWgt=   1.0078250   1.0078250
 NucSpn=           1           1
 AtZEff=  -0.0000000  -0.0000000
 NQMom=    0.0000000   0.0000000
 NMagM=    2.7928460   2.7928460
 AtZNuc=   1.0000000   1.0000000
 Leave Link  101 at Mon Jun 28 19:27:27 2021, MaxMem=  2147483648 cpu:               3.4 elap:               0.3
 (Enter /home/matma/Programs/gaussian/G16_x86_SSE4/tar/g16/l103.exe)

 GradGradGradGradGradGradGradGradGradGradGradGradGradGradGradGradGradGrad
 Berny optimization.
 Initialization pass.
                           ----------------------------
                           !    Initial Parameters    !
                           ! (Angstroms and Degrees)  !
 --------------------------                            --------------------------
 ! Name  Definition              Value          Derivative Info.                !
 --------------------------------------------------------------------------------
 ! R1    R(1,2)                  1.112          estimate D2E/DX2                !
 ! R2    R(1,3)                  1.4174         estimate D2E/DX2                !
 ! R3    R(1,7)                  1.4219         estimate D2E/DX2                !
 ! R4    R(1,8)                  1.556          estimate D2E/DX2                !
 ! R5    R(3,4)                  0.9862         estimate D2E/DX2                !
 ! R6    R(5,6)                  1.1145         estimate D2E/DX2                !
 ! R7    R(5,7)                  1.4544         estimate D2E/DX2                !
 ! R8    R(5,22)                 1.5419         estimate D2E/DX2                !
 ! R9    R(5,25)                 1.5377         estimate D2E/DX2                !
 ! R10   R(8,9)                  1.1342         estimate D2E/DX2                !
 ! R11   R(8,10)                 1.4698         estimate D2E/DX2                !
 ! R12   R(8,18)                 1.5447         estimate D2E/DX2                !
 ! R13   R(10,11)                1.0214         estimate D2E/DX2                !
 ! R14   R(10,12)                1.398          estimate D2E/DX2                !
 ! R15   R(12,13)                1.235          estimate D2E/DX2                !
 ! R16   R(12,14)                1.4839         estimate D2E/DX2                !
 ! R17   R(14,15)                1.1151         estimate D2E/DX2                !
 ! R18   R(14,16)                1.1055         estimate D2E/DX2                !
 ! R19   R(14,17)                1.0966         estimate D2E/DX2                !
 ! R20   R(18,19)                1.1201         estimate D2E/DX2                !
 ! R21   R(18,20)                1.458          estimate D2E/DX2                !
 ! R22   R(18,22)                1.5394         estimate D2E/DX2                !
 ! R23   R(20,21)                1.2054         estimate D2E/DX2                !
 ! R24   R(20,72)                1.138          estimate D2E/DX2                !
 ! R25   R(22,23)                1.1165         estimate D2E/DX2                !
 ! R26   R(22,24)                1.4431         estimate D2E/DX2                !
 ! R27   R(24,30)                1.4426         estimate D2E/DX2                !
 ! R28   R(25,26)                1.1092         estimate D2E/DX2                !
 ! R29   R(25,27)                1.1082         estimate D2E/DX2                !
 ! R30   R(25,28)                1.4302         estimate D2E/DX2                !
 ! R31   R(28,29)                0.9849         estimate D2E/DX2                !
 ! R32   R(30,31)                1.1165         estimate D2E/DX2                !
 ! R33   R(30,34)                1.4348         estimate D2E/DX2                !
 ! R34   R(30,35)                1.5473         estimate D2E/DX2                !
 ! R35   R(32,33)                1.1227         estimate D2E/DX2                !
 ! R36   R(32,34)                1.4503         estimate D2E/DX2                !
 ! R37   R(32,43)                1.5359         estimate D2E/DX2                !
 ! R38   R(32,47)                1.5341         estimate D2E/DX2                !
 ! R39   R(35,36)                1.1189         estimate D2E/DX2                !
 ! R40   R(35,37)                1.4286         estimate D2E/DX2                !
 ! R41   R(35,39)                1.5497         estimate D2E/DX2                !
 ! R42   R(37,38)                0.9867         estimate D2E/DX2                !
 ! R43   R(39,40)                1.116          estimate D2E/DX2                !
 ! R44   R(39,41)                1.4359         estimate D2E/DX2                !
 ! R45   R(39,43)                1.548          estimate D2E/DX2                !
 ! R46   R(41,42)                0.9893         estimate D2E/DX2                !
 ! R47   R(43,44)                1.1176         estimate D2E/DX2                !
 ! R48   R(43,45)                1.4634         estimate D2E/DX2                !
 ! R49   R(45,46)                1.0337         estimate D2E/DX2                !
 ! R50   R(47,48)                1.1085         estimate D2E/DX2                !
 ! R51   R(47,49)                1.1117         estimate D2E/DX2                !
 ! R52   R(47,50)                1.4478         estimate D2E/DX2                !
 ! R53   R(50,51)                1.4402         estimate D2E/DX2                !
 ! R54   R(51,52)                1.1078         estimate D2E/DX2                !
 ! R55   R(51,55)                1.4312         estimate D2E/DX2                !
 ! R56   R(51,56)                1.5522         estimate D2E/DX2                !
 ! R57   R(53,54)                1.1122         estimate D2E/DX2                !
 ! R58   R(53,55)                1.4609         estimate D2E/DX2                !
 ! R59   R(53,64)                1.5426         estimate D2E/DX2                !
 ! R60   R(53,68)                1.5142         estimate D2E/DX2                !
 ! R61   R(56,57)                1.1207         estimate D2E/DX2                !
 ! R62   R(56,58)                1.4596         estimate D2E/DX2                !
 ! R63   R(56,60)                1.5403         estimate D2E/DX2                !
 ! R64   R(58,59)                1.0268         estimate D2E/DX2                !
 ! R65   R(60,61)                1.1159         estimate D2E/DX2                !
 ! R66   R(60,62)                1.4237         estimate D2E/DX2                !
 ! R67   R(60,64)                1.5524         estimate D2E/DX2                !
 ! R68   R(62,63)                1.0055         estimate D2E/DX2                !
 ! R69   R(64,65)                1.1168         estimate D2E/DX2                !
 ! R70   R(64,66)                1.428          estimate D2E/DX2                !
 ! R71   R(66,67)                0.9967         estimate D2E/DX2                !
 ! R72   R(68,69)                1.1041         estimate D2E/DX2                !
 ! R73   R(68,70)                1.0969         estimate D2E/DX2                !
 ! R74   R(68,71)                1.1008         estimate D2E/DX2                !
 ! A1    A(2,1,3)              112.6077         estimate D2E/DX2                !
 ! A2    A(2,1,7)              103.1539         estimate D2E/DX2                !
 ! A3    A(2,1,8)              114.7509         estimate D2E/DX2                !
 ! A4    A(3,1,7)              109.1193         estimate D2E/DX2                !
 ! A5    A(3,1,8)              105.4188         estimate D2E/DX2                !
 ! A6    A(7,1,8)              111.8405         estimate D2E/DX2                !
 ! A7    A(1,3,4)              111.7135         estimate D2E/DX2                !
 ! A8    A(6,5,7)              108.0864         estimate D2E/DX2                !
 ! A9    A(6,5,22)             111.4446         estimate D2E/DX2                !
 ! A10   A(6,5,25)             111.1446         estimate D2E/DX2                !
 ! A11   A(7,5,22)             107.6638         estimate D2E/DX2                !
 ! A12   A(7,5,25)             104.0521         estimate D2E/DX2                !
 ! A13   A(22,5,25)            113.9611         estimate D2E/DX2                !
 ! A14   A(1,7,5)              117.1915         estimate D2E/DX2                !
 ! A15   A(1,8,9)              108.1199         estimate D2E/DX2                !
 ! A16   A(1,8,10)             110.6363         estimate D2E/DX2                !
 ! A17   A(1,8,18)             107.6859         estimate D2E/DX2                !
 ! A18   A(9,8,10)             108.7407         estimate D2E/DX2                !
 ! A19   A(9,8,18)             109.7886         estimate D2E/DX2                !
 ! A20   A(10,8,18)            111.7999         estimate D2E/DX2                !
 ! A21   A(8,10,11)            116.9764         estimate D2E/DX2                !
 ! A22   A(8,10,12)            119.0185         estimate D2E/DX2                !
 ! A23   A(11,10,12)           123.5688         estimate D2E/DX2                !
 ! A24   A(10,12,13)           117.5457         estimate D2E/DX2                !
 ! A25   A(10,12,14)           117.9556         estimate D2E/DX2                !
 ! A26   A(13,12,14)           124.4985         estimate D2E/DX2                !
 ! A27   A(12,14,15)           109.5482         estimate D2E/DX2                !
 ! A28   A(12,14,16)           110.9428         estimate D2E/DX2                !
 ! A29   A(12,14,17)           115.8503         estimate D2E/DX2                !
 ! A30   A(15,14,16)           105.5615         estimate D2E/DX2                !
 ! A31   A(15,14,17)           107.2779         estimate D2E/DX2                !
 ! A32   A(16,14,17)           107.104          estimate D2E/DX2                !
 ! A33   A(8,18,19)            112.1674         estimate D2E/DX2                !
 ! A34   A(8,18,20)            111.4399         estimate D2E/DX2                !
 ! A35   A(8,18,22)            108.8334         estimate D2E/DX2                !
 ! A36   A(19,18,20)           101.7665         estimate D2E/DX2                !
 ! A37   A(19,18,22)           112.3156         estimate D2E/DX2                !
 ! A38   A(20,18,22)           110.2047         estimate D2E/DX2                !
 ! A39   A(18,20,21)           110.1171         estimate D2E/DX2                !
 ! A40   A(18,20,72)           113.3532         estimate D2E/DX2                !
 ! A41   A(21,20,72)           102.4979         estimate D2E/DX2                !
 ! A42   A(5,22,18)            108.9332         estimate D2E/DX2                !
 ! A43   A(5,22,23)            111.0724         estimate D2E/DX2                !
 ! A44   A(5,22,24)            109.6711         estimate D2E/DX2                !
 ! A45   A(18,22,23)           112.5519         estimate D2E/DX2                !
 ! A46   A(18,22,24)           103.8341         estimate D2E/DX2                !
 ! A47   A(23,22,24)           110.5207         estimate D2E/DX2                !
 ! A48   A(22,24,30)           114.4022         estimate D2E/DX2                !
 ! A49   A(5,25,26)            110.7605         estimate D2E/DX2                !
 ! A50   A(5,25,27)            110.6288         estimate D2E/DX2                !
 ! A51   A(5,25,28)            111.3337         estimate D2E/DX2                !
 ! A52   A(26,25,27)           109.7547         estimate D2E/DX2                !
 ! A53   A(26,25,28)           103.4588         estimate D2E/DX2                !
 ! A54   A(27,25,28)           110.6935         estimate D2E/DX2                !
 ! A55   A(25,28,29)           110.4961         estimate D2E/DX2                !
 ! A56   A(24,30,31)           111.0915         estimate D2E/DX2                !
 ! A57   A(24,30,34)           104.0739         estimate D2E/DX2                !
 ! A58   A(24,30,35)           103.6934         estimate D2E/DX2                !
 ! A59   A(31,30,34)           105.0605         estimate D2E/DX2                !
 ! A60   A(31,30,35)           115.5468         estimate D2E/DX2                !
 ! A61   A(34,30,35)           116.844          estimate D2E/DX2                !
 ! A62   A(33,32,34)           107.2629         estimate D2E/DX2                !
 ! A63   A(33,32,43)           109.7118         estimate D2E/DX2                !
 ! A64   A(33,32,47)           110.5961         estimate D2E/DX2                !
 ! A65   A(34,32,43)           108.243          estimate D2E/DX2                !
 ! A66   A(34,32,47)           103.8222         estimate D2E/DX2                !
 ! A67   A(43,32,47)           116.6452         estimate D2E/DX2                !
 ! A68   A(30,34,32)           116.6137         estimate D2E/DX2                !
 ! A69   A(30,35,36)           109.4259         estimate D2E/DX2                !
 ! A70   A(30,35,37)           106.9008         estimate D2E/DX2                !
 ! A71   A(30,35,39)           115.5234         estimate D2E/DX2                !
 ! A72   A(36,35,37)           111.9113         estimate D2E/DX2                !
 ! A73   A(36,35,39)           109.2948         estimate D2E/DX2                !
 ! A74   A(37,35,39)           103.7001         estimate D2E/DX2                !
 ! A75   A(35,37,38)           111.3594         estimate D2E/DX2                !
 ! A76   A(35,39,40)           109.3037         estimate D2E/DX2                !
 ! A77   A(35,39,41)           104.8888         estimate D2E/DX2                !
 ! A78   A(35,39,43)           113.4982         estimate D2E/DX2                !
 ! A79   A(40,39,41)           111.4274         estimate D2E/DX2                !
 ! A80   A(40,39,43)           111.5548         estimate D2E/DX2                !
 ! A81   A(41,39,43)           105.953          estimate D2E/DX2                !
 ! A82   A(39,41,42)           111.0121         estimate D2E/DX2                !
 ! A83   A(32,43,39)           108.994          estimate D2E/DX2                !
 ! A84   A(32,43,44)           111.974          estimate D2E/DX2                !
 ! A85   A(32,43,45)           109.5736         estimate D2E/DX2                !
 ! A86   A(39,43,44)           114.0499         estimate D2E/DX2                !
 ! A87   A(39,43,45)           108.6834         estimate D2E/DX2                !
 ! A88   A(44,43,45)           103.3443         estimate D2E/DX2                !
 ! A89   A(43,45,46)           108.2608         estimate D2E/DX2                !
 ! A90   A(32,47,48)           111.4763         estimate D2E/DX2                !
 ! A91   A(32,47,49)           110.7159         estimate D2E/DX2                !
 ! A92   A(32,47,50)           106.7441         estimate D2E/DX2                !
 ! A93   A(48,47,49)           109.5909         estimate D2E/DX2                !
 ! A94   A(48,47,50)           106.1454         estimate D2E/DX2                !
 ! A95   A(49,47,50)           112.0712         estimate D2E/DX2                !
 ! A96   A(47,50,51)           113.665          estimate D2E/DX2                !
 ! A97   A(50,51,52)           111.6407         estimate D2E/DX2                !
 ! A98   A(50,51,55)            99.9391         estimate D2E/DX2                !
 ! A99   A(50,51,56)           108.2497         estimate D2E/DX2                !
 ! A100  A(52,51,55)           111.0269         estimate D2E/DX2                !
 ! A101  A(52,51,56)           113.6553         estimate D2E/DX2                !
 ! A102  A(55,51,56)           111.4797         estimate D2E/DX2                !
 ! A103  A(54,53,55)           108.8769         estimate D2E/DX2                !
 ! A104  A(54,53,64)           111.4125         estimate D2E/DX2                !
 ! A105  A(54,53,68)           112.0846         estimate D2E/DX2                !
 ! A106  A(55,53,64)           107.0159         estimate D2E/DX2                !
 ! A107  A(55,53,68)           103.442          estimate D2E/DX2                !
 ! A108  A(64,53,68)           113.4798         estimate D2E/DX2                !
 ! A109  A(51,55,53)           113.4989         estimate D2E/DX2                !
 ! A110  A(51,56,57)           110.1674         estimate D2E/DX2                !
 ! A111  A(51,56,58)           103.2903         estimate D2E/DX2                !
 ! A112  A(51,56,60)           114.812          estimate D2E/DX2                !
 ! A113  A(57,56,58)           105.467          estimate D2E/DX2                !
 ! A114  A(57,56,60)           110.9107         estimate D2E/DX2                !
 ! A115  A(58,56,60)           111.5622         estimate D2E/DX2                !
 ! A116  A(56,58,59)           110.8637         estimate D2E/DX2                !
 ! A117  A(56,60,61)           111.2913         estimate D2E/DX2                !
 ! A118  A(56,60,62)           108.46           estimate D2E/DX2                !
 ! A119  A(56,60,64)           111.6535         estimate D2E/DX2                !
 ! A120  A(61,60,62)           103.925          estimate D2E/DX2                !
 ! A121  A(61,60,64)           112.432          estimate D2E/DX2                !
 ! A122  A(62,60,64)           108.689          estimate D2E/DX2                !
 ! A123  A(60,62,63)           109.8119         estimate D2E/DX2                !
 ! A124  A(53,64,60)           111.5901         estimate D2E/DX2                !
 ! A125  A(53,64,65)           112.3693         estimate D2E/DX2                !
 ! A126  A(53,64,66)           111.9767         estimate D2E/DX2                !
 ! A127  A(60,64,65)           110.8505         estimate D2E/DX2                !
 ! A128  A(60,64,66)           106.1662         estimate D2E/DX2                !
 ! A129  A(65,64,66)           103.4398         estimate D2E/DX2                !
 ! A130  A(64,66,67)           109.7912         estimate D2E/DX2                !
 ! A131  A(53,68,69)           110.5827         estimate D2E/DX2                !
 ! A132  A(53,68,70)           111.9666         estimate D2E/DX2                !
 ! A133  A(53,68,71)           112.6863         estimate D2E/DX2                !
 ! A134  A(69,68,70)           107.3613         estimate D2E/DX2                !
 ! A135  A(69,68,71)           106.4492         estimate D2E/DX2                !
 ! A136  A(70,68,71)           107.4871         estimate D2E/DX2                !
 ! D1    D(2,1,3,4)            -52.4131         estimate D2E/DX2                !
 ! D2    D(7,1,3,4)             61.494          estimate D2E/DX2                !
 ! D3    D(8,1,3,4)           -178.2375         estimate D2E/DX2                !
 ! D4    D(2,1,7,5)           -179.3675         estimate D2E/DX2                !
 ! D5    D(3,1,7,5)             60.7093         estimate D2E/DX2                !
 ! D6    D(8,1,7,5)            -55.5281         estimate D2E/DX2                !
 ! D7    D(2,1,8,9)             51.853          estimate D2E/DX2                !
 ! D8    D(2,1,8,10)           -67.1244         estimate D2E/DX2                !
 ! D9    D(2,1,8,18)           170.4231         estimate D2E/DX2                !
 ! D10   D(3,1,8,9)            176.3428         estimate D2E/DX2                !
 ! D11   D(3,1,8,10)            57.3654         estimate D2E/DX2                !
 ! D12   D(3,1,8,18)           -65.0871         estimate D2E/DX2                !
 ! D13   D(7,1,8,9)            -65.1951         estimate D2E/DX2                !
 ! D14   D(7,1,8,10)           175.8275         estimate D2E/DX2                !
 ! D15   D(7,1,8,18)            53.3749         estimate D2E/DX2                !
 ! D16   D(6,5,7,1)            -63.3592         estimate D2E/DX2                !
 ! D17   D(22,5,7,1)            57.1472         estimate D2E/DX2                !
 ! D18   D(25,5,7,1)           178.4166         estimate D2E/DX2                !
 ! D19   D(6,5,22,18)           59.5583         estimate D2E/DX2                !
 ! D20   D(6,5,22,23)         -175.9222         estimate D2E/DX2                !
 ! D21   D(6,5,22,24)          -53.4634         estimate D2E/DX2                !
 ! D22   D(7,5,22,18)          -58.8093         estimate D2E/DX2                !
 ! D23   D(7,5,22,23)           65.7101         estimate D2E/DX2                !
 ! D24   D(7,5,22,24)         -171.8311         estimate D2E/DX2                !
 ! D25   D(25,5,22,18)        -173.6674         estimate D2E/DX2                !
 ! D26   D(25,5,22,23)         -49.1479         estimate D2E/DX2                !
 ! D27   D(25,5,22,24)          73.3109         estimate D2E/DX2                !
 ! D28   D(6,5,25,26)           34.4146         estimate D2E/DX2                !
 ! D29   D(6,5,25,27)          -87.5186         estimate D2E/DX2                !
 ! D30   D(6,5,25,28)          148.9509         estimate D2E/DX2                !
 ! D31   D(7,5,25,26)          150.5143         estimate D2E/DX2                !
 ! D32   D(7,5,25,27)           28.5811         estimate D2E/DX2                !
 ! D33   D(7,5,25,28)          -94.9494         estimate D2E/DX2                !
 ! D34   D(22,5,25,26)         -92.5157         estimate D2E/DX2                !
 ! D35   D(22,5,25,27)         145.5511         estimate D2E/DX2                !
 ! D36   D(22,5,25,28)          22.0206         estimate D2E/DX2                !
 ! D37   D(1,8,10,11)          -41.5177         estimate D2E/DX2                !
 ! D38   D(1,8,10,12)          145.789          estimate D2E/DX2                !
 ! D39   D(9,8,10,11)         -160.1187         estimate D2E/DX2                !
 ! D40   D(9,8,10,12)           27.188          estimate D2E/DX2                !
 ! D41   D(18,8,10,11)          78.4995         estimate D2E/DX2                !
 ! D42   D(18,8,10,12)         -94.1938         estimate D2E/DX2                !
 ! D43   D(1,8,18,19)           66.8313         estimate D2E/DX2                !
 ! D44   D(1,8,18,20)         -179.8049         estimate D2E/DX2                !
 ! D45   D(1,8,18,22)          -58.0705         estimate D2E/DX2                !
 ! D46   D(9,8,18,19)         -175.675          estimate D2E/DX2                !
 ! D47   D(9,8,18,20)          -62.3113         estimate D2E/DX2                !
 ! D48   D(9,8,18,22)           59.4231         estimate D2E/DX2                !
 ! D49   D(10,8,18,19)         -54.9009         estimate D2E/DX2                !
 ! D50   D(10,8,18,20)          58.4629         estimate D2E/DX2                !
 ! D51   D(10,8,18,22)        -179.8027         estimate D2E/DX2                !
 ! D52   D(8,10,12,13)          -3.9335         estimate D2E/DX2                !
 ! D53   D(8,10,12,14)         176.1966         estimate D2E/DX2                !
 ! D54   D(11,10,12,13)       -176.1153         estimate D2E/DX2                !
 ! D55   D(11,10,12,14)          4.0148         estimate D2E/DX2                !
 ! D56   D(10,12,14,15)       -113.5301         estimate D2E/DX2                !
 ! D57   D(10,12,14,16)        130.3209         estimate D2E/DX2                !
 ! D58   D(10,12,14,17)          7.953          estimate D2E/DX2                !
 ! D59   D(13,12,14,15)         66.6098         estimate D2E/DX2                !
 ! D60   D(13,12,14,16)        -49.5392         estimate D2E/DX2                !
 ! D61   D(13,12,14,17)       -171.9071         estimate D2E/DX2                !
 ! D62   D(8,18,20,21)         149.2668         estimate D2E/DX2                !
 ! D63   D(8,18,20,72)          35.1136         estimate D2E/DX2                !
 ! D64   D(19,18,20,21)        -91.0064         estimate D2E/DX2                !
 ! D65   D(19,18,20,72)        154.8404         estimate D2E/DX2                !
 ! D66   D(22,18,20,21)         28.3308         estimate D2E/DX2                !
 ! D67   D(22,18,20,72)        -85.8224         estimate D2E/DX2                !
 ! D68   D(8,18,22,5)           62.6573         estimate D2E/DX2                !
 ! D69   D(8,18,22,23)         -60.9869         estimate D2E/DX2                !
 ! D70   D(8,18,22,24)         179.4637         estimate D2E/DX2                !
 ! D71   D(19,18,22,5)         -62.1575         estimate D2E/DX2                !
 ! D72   D(19,18,22,23)        174.1983         estimate D2E/DX2                !
 ! D73   D(19,18,22,24)         54.6489         estimate D2E/DX2                !
 ! D74   D(20,18,22,5)        -174.8596         estimate D2E/DX2                !
 ! D75   D(20,18,22,23)         61.4962         estimate D2E/DX2                !
 ! D76   D(20,18,22,24)        -58.0532         estimate D2E/DX2                !
 ! D77   D(5,22,24,30)        -110.5883         estimate D2E/DX2                !
 ! D78   D(18,22,24,30)        133.1226         estimate D2E/DX2                !
 ! D79   D(23,22,24,30)         12.1978         estimate D2E/DX2                !
 ! D80   D(22,24,30,31)         52.1026         estimate D2E/DX2                !
 ! D81   D(22,24,30,34)        -60.4672         estimate D2E/DX2                !
 ! D82   D(22,24,30,35)        176.8328         estimate D2E/DX2                !
 ! D83   D(5,25,28,29)          87.1575         estimate D2E/DX2                !
 ! D84   D(26,25,28,29)       -153.8462         estimate D2E/DX2                !
 ! D85   D(27,25,28,29)        -36.3361         estimate D2E/DX2                !
 ! D86   D(24,30,34,32)       -116.3515         estimate D2E/DX2                !
 ! D87   D(31,30,34,32)        126.7989         estimate D2E/DX2                !
 ! D88   D(35,30,34,32)         -2.7478         estimate D2E/DX2                !
 ! D89   D(24,30,35,36)        -43.0522         estimate D2E/DX2                !
 ! D90   D(24,30,35,37)       -164.4322         estimate D2E/DX2                !
 ! D91   D(24,30,35,39)         80.7726         estimate D2E/DX2                !
 ! D92   D(31,30,35,36)         78.7496         estimate D2E/DX2                !
 ! D93   D(31,30,35,37)        -42.6303         estimate D2E/DX2                !
 ! D94   D(31,30,35,39)       -157.4256         estimate D2E/DX2                !
 ! D95   D(34,30,35,36)       -156.8699         estimate D2E/DX2                !
 ! D96   D(34,30,35,37)         81.7501         estimate D2E/DX2                !
 ! D97   D(34,30,35,39)        -33.0452         estimate D2E/DX2                !
 ! D98   D(33,32,34,30)        -64.7805         estimate D2E/DX2                !
 ! D99   D(43,32,34,30)         53.5346         estimate D2E/DX2                !
 ! D100  D(47,32,34,30)        178.1021         estimate D2E/DX2                !
 ! D101  D(33,32,43,39)         48.0945         estimate D2E/DX2                !
 ! D102  D(33,32,43,44)        -79.0373         estimate D2E/DX2                !
 ! D103  D(33,32,43,45)        166.9075         estimate D2E/DX2                !
 ! D104  D(34,32,43,39)        -68.6496         estimate D2E/DX2                !
 ! D105  D(34,32,43,44)        164.2186         estimate D2E/DX2                !
 ! D106  D(34,32,43,45)         50.1634         estimate D2E/DX2                !
 ! D107  D(47,32,43,39)        174.81           estimate D2E/DX2                !
 ! D108  D(47,32,43,44)         47.6783         estimate D2E/DX2                !
 ! D109  D(47,32,43,45)        -66.377          estimate D2E/DX2                !
 ! D110  D(33,32,47,48)         -1.2725         estimate D2E/DX2                !
 ! D111  D(33,32,47,49)       -123.5496         estimate D2E/DX2                !
 ! D112  D(33,32,47,50)        114.2218         estimate D2E/DX2                !
 ! D113  D(34,32,47,48)        113.4947         estimate D2E/DX2                !
 ! D114  D(34,32,47,49)         -8.7824         estimate D2E/DX2                !
 ! D115  D(34,32,47,50)       -131.011          estimate D2E/DX2                !
 ! D116  D(43,32,47,48)       -127.5493         estimate D2E/DX2                !
 ! D117  D(43,32,47,49)        110.1735         estimate D2E/DX2                !
 ! D118  D(43,32,47,50)        -12.0551         estimate D2E/DX2                !
 ! D119  D(30,35,37,38)         93.8068         estimate D2E/DX2                !
 ! D120  D(36,35,37,38)        -25.9868         estimate D2E/DX2                !
 ! D121  D(39,35,37,38)       -143.6737         estimate D2E/DX2                !
 ! D122  D(30,35,39,40)        140.6937         estimate D2E/DX2                !
 ! D123  D(30,35,39,41)        -99.725          estimate D2E/DX2                !
 ! D124  D(30,35,39,43)         15.4705         estimate D2E/DX2                !
 ! D125  D(36,35,39,40)        -95.4128         estimate D2E/DX2                !
 ! D126  D(36,35,39,41)         24.1684         estimate D2E/DX2                !
 ! D127  D(36,35,39,43)        139.3639         estimate D2E/DX2                !
 ! D128  D(37,35,39,40)         24.0791         estimate D2E/DX2                !
 ! D129  D(37,35,39,41)        143.6604         estimate D2E/DX2                !
 ! D130  D(37,35,39,43)       -101.1441         estimate D2E/DX2                !
 ! D131  D(35,39,41,42)       -142.0655         estimate D2E/DX2                !
 ! D132  D(40,39,41,42)        -23.9145         estimate D2E/DX2                !
 ! D133  D(43,39,41,42)         97.5965         estimate D2E/DX2                !
 ! D134  D(35,39,43,32)         32.6032         estimate D2E/DX2                !
 ! D135  D(35,39,43,44)        158.545          estimate D2E/DX2                !
 ! D136  D(35,39,43,45)        -86.7647         estimate D2E/DX2                !
 ! D137  D(40,39,43,32)        -91.4052         estimate D2E/DX2                !
 ! D138  D(40,39,43,44)         34.5366         estimate D2E/DX2                !
 ! D139  D(40,39,43,45)        149.2269         estimate D2E/DX2                !
 ! D140  D(41,39,43,32)        147.1657         estimate D2E/DX2                !
 ! D141  D(41,39,43,44)        -86.8925         estimate D2E/DX2                !
 ! D142  D(41,39,43,45)         27.7978         estimate D2E/DX2                !
 ! D143  D(32,43,45,46)       -133.1422         estimate D2E/DX2                !
 ! D144  D(39,43,45,46)        -14.1372         estimate D2E/DX2                !
 ! D145  D(44,43,45,46)        107.353          estimate D2E/DX2                !
 ! D146  D(32,47,50,51)        143.3907         estimate D2E/DX2                !
 ! D147  D(48,47,50,51)        -97.5889         estimate D2E/DX2                !
 ! D148  D(49,47,50,51)         22.0185         estimate D2E/DX2                !
 ! D149  D(47,50,51,52)         41.1519         estimate D2E/DX2                !
 ! D150  D(47,50,51,55)        158.6306         estimate D2E/DX2                !
 ! D151  D(47,50,51,56)        -84.6757         estimate D2E/DX2                !
 ! D152  D(50,51,55,53)        173.2947         estimate D2E/DX2                !
 ! D153  D(52,51,55,53)        -68.7701         estimate D2E/DX2                !
 ! D154  D(56,51,55,53)         59.0514         estimate D2E/DX2                !
 ! D155  D(50,51,56,57)        -26.86           estimate D2E/DX2                !
 ! D156  D(50,51,56,58)         85.3917         estimate D2E/DX2                !
 ! D157  D(50,51,56,60)       -152.9243         estimate D2E/DX2                !
 ! D158  D(52,51,56,57)       -151.4973         estimate D2E/DX2                !
 ! D159  D(52,51,56,58)        -39.2456         estimate D2E/DX2                !
 ! D160  D(52,51,56,60)         82.4384         estimate D2E/DX2                !
 ! D161  D(55,51,56,57)         82.1093         estimate D2E/DX2                !
 ! D162  D(55,51,56,58)       -165.639          estimate D2E/DX2                !
 ! D163  D(55,51,56,60)        -43.955          estimate D2E/DX2                !
 ! D164  D(54,53,55,51)         53.4799         estimate D2E/DX2                !
 ! D165  D(64,53,55,51)        -67.0599         estimate D2E/DX2                !
 ! D166  D(68,53,55,51)        172.8377         estimate D2E/DX2                !
 ! D167  D(54,53,64,60)        -59.1831         estimate D2E/DX2                !
 ! D168  D(54,53,64,65)         66.0424         estimate D2E/DX2                !
 ! D169  D(54,53,64,66)       -178.038          estimate D2E/DX2                !
 ! D170  D(55,53,64,60)         59.7275         estimate D2E/DX2                !
 ! D171  D(55,53,64,65)       -175.047          estimate D2E/DX2                !
 ! D172  D(55,53,64,66)        -59.1274         estimate D2E/DX2                !
 ! D173  D(68,53,64,60)        173.18           estimate D2E/DX2                !
 ! D174  D(68,53,64,65)        -61.5945         estimate D2E/DX2                !
 ! D175  D(68,53,64,66)         54.3251         estimate D2E/DX2                !
 ! D176  D(54,53,68,69)         82.7911         estimate D2E/DX2                !
 ! D177  D(54,53,68,70)        -36.8895         estimate D2E/DX2                !
 ! D178  D(54,53,68,71)       -158.2082         estimate D2E/DX2                !
 ! D179  D(55,53,68,69)        -34.3359         estimate D2E/DX2                !
 ! D180  D(55,53,68,70)       -154.0166         estimate D2E/DX2                !
 ! D181  D(55,53,68,71)         84.6648         estimate D2E/DX2                !
 ! D182  D(64,53,68,69)       -149.9219         estimate D2E/DX2                !
 ! D183  D(64,53,68,70)         90.3975         estimate D2E/DX2                !
 ! D184  D(64,53,68,71)        -30.9211         estimate D2E/DX2                !
 ! D185  D(51,56,58,59)        119.092          estimate D2E/DX2                !
 ! D186  D(57,56,58,59)       -125.2548         estimate D2E/DX2                !
 ! D187  D(60,56,58,59)         -4.7551         estimate D2E/DX2                !
 ! D188  D(51,56,60,61)        -87.4223         estimate D2E/DX2                !
 ! D189  D(51,56,60,62)        158.8505         estimate D2E/DX2                !
 ! D190  D(51,56,60,64)         39.1155         estimate D2E/DX2                !
 ! D191  D(57,56,60,61)        146.8985         estimate D2E/DX2                !
 ! D192  D(57,56,60,62)         33.1713         estimate D2E/DX2                !
 ! D193  D(57,56,60,64)        -86.5638         estimate D2E/DX2                !
 ! D194  D(58,56,60,61)         29.6435         estimate D2E/DX2                !
 ! D195  D(58,56,60,62)        -84.0837         estimate D2E/DX2                !
 ! D196  D(58,56,60,64)        156.1813         estimate D2E/DX2                !
 ! D197  D(56,60,62,63)        -87.9149         estimate D2E/DX2                !
 ! D198  D(61,60,62,63)        153.5848         estimate D2E/DX2                !
 ! D199  D(64,60,62,63)         33.658          estimate D2E/DX2                !
 ! D200  D(56,60,64,53)        -47.4751         estimate D2E/DX2                !
 ! D201  D(56,60,64,65)       -173.5395         estimate D2E/DX2                !
 ! D202  D(56,60,64,66)         74.7843         estimate D2E/DX2                !
 ! D203  D(61,60,64,53)         78.4379         estimate D2E/DX2                !
 ! D204  D(61,60,64,65)        -47.6265         estimate D2E/DX2                !
 ! D205  D(61,60,64,66)       -159.3027         estimate D2E/DX2                !
 ! D206  D(62,60,64,53)       -167.075          estimate D2E/DX2                !
 ! D207  D(62,60,64,65)         66.8606         estimate D2E/DX2                !
 ! D208  D(62,60,64,66)        -44.8156         estimate D2E/DX2                !
 ! D209  D(53,64,66,67)         33.3881         estimate D2E/DX2                !
 ! D210  D(60,64,66,67)        -88.6254         estimate D2E/DX2                !
 ! D211  D(65,64,66,67)        154.6121         estimate D2E/DX2                !
 --------------------------------------------------------------------------------
 Trust Radius=3.00D-01 FncErr=1.00D-07 GrdErr=1.00D-07 EigMax=2.50D+02 EigMin=1.00D-04
 Number of steps in this run=    431 maximum allowed number of steps=    432.
 GradGradGradGradGradGradGradGradGradGradGradGradGradGradGradGradGradGrad

 Leave Link  103 at Mon Jun 28 19:27:27 2021, MaxMem=  2147483648 cpu:               0.1 elap:               0.0
 (Enter /home/matma/Programs/gaussian/G16_x86_SSE4/tar/g16/l202.exe)
 Stoichiometry    C20H36NO15(1+)
 Framework group  C1[X(C20H36NO15)]
 Deg. of freedom   210
 Full point group                 C1      NOp   1
 Largest Abelian subgroup         C1      NOp   1
 Largest concise Abelian subgroup C1      NOp   1
                         Standard orientation:                         
 ---------------------------------------------------------------------
 Center     Atomic      Atomic             Coordinates (Angstroms)
 Number     Number       Type             X           Y           Z
 ---------------------------------------------------------------------
      1          6           0        3.351009    3.030941   -0.086014
      2          1           0        3.604030    3.926935   -0.694014
      3          8           0        3.601014    3.221935    1.295986
      4          1           0        4.520021    3.539913    1.459986
      5          6           0        4.151953    0.711922    0.001986
      6          1           0        4.426955    0.792915    1.078986
      7          8           0        4.237985    2.038920   -0.587014
      8          6           0        1.864998    2.578977   -0.179014
      9          1           0        1.594996    2.477983   -1.276014
     10          7           0        0.980022    3.578998    0.434986
     11          1           0        1.294032    3.999990    1.310986
     12          6           0       -0.289973    3.787028   -0.111014
     13          8           0       -0.578988    3.165035   -1.138014
     14          6           0       -1.195950    4.739050    0.577986
     15          1           0       -2.067963    4.186071    0.998986
     16          1           0       -1.622933    5.466060   -0.137014
     17          1           0       -0.749936    5.316039    1.396986
     18          6           0        1.747965    1.204979    0.516986
     19          1           0        1.930967    1.272975    1.619986
     20          8           0        0.380953    0.700012    0.472986
     21          1           0        0.384924   -0.504988    0.440986
     22          6           0        2.702942    0.214956   -0.174014
     23          1           0        2.457938    0.065962   -1.253014
     24          8           0        2.517912   -1.013039    0.560986
     25          6           0        5.192934   -0.110103   -0.776014
     26          1           0        5.607914   -0.920113   -0.142014
     27          1           0        6.013949    0.540877   -1.137014
     28          8           0        4.590917   -0.815089   -1.865014
     29          1           0        4.560930   -0.247088   -2.669014
     30          6           0        2.342884   -2.182035   -0.266014
     31          1           0        3.161882   -2.267055   -1.020014
     32          6           0        0.020870   -2.763979   -0.810014
     33          1           0        0.311846   -3.790986   -1.158014
     34          8           0        1.161891   -1.896007   -1.029014
     35          6           0        2.251856   -3.342033    0.753986
     36          1           0        3.029860   -3.203051    1.545986
     37          8           0        2.445827   -4.554037    0.022986
     38          1           0        3.391821   -4.834060    0.035986
     39          6           0        0.867852   -3.535000    1.423986
     40          1           0        0.653826   -4.625994    1.520986
     41          8           0        0.989867   -2.908003    2.709986
     42          1           0        0.506854   -3.422991    3.402986
     43          6           0       -0.279131   -2.792972    0.695986
     44          1           0       -1.296140   -3.202948    0.911986
     45          8           0       -0.351098   -1.423970    1.207986
     46          1           0        0.207904   -1.372984    2.075986
     47          6           0       -1.067116   -2.174953   -1.717014
     48          1           0       -1.328132   -2.868947   -2.541014
     49          1           0       -0.741092   -1.199961   -2.140014
     50          8           0       -2.260113   -2.044925   -0.907014
     51          6           0       -3.038084   -0.870906   -1.208014
     52          1           0       -3.096080   -0.687905   -2.299014
     53          6           0       -5.310069   -0.212852   -0.703014
     54          1           0       -5.379059    0.201150   -1.733014
     55          8           0       -4.308094   -1.275876   -0.687014
     56          6           0       -2.449056    0.321080   -0.407014
     57          1           0       -1.942065   -0.049932    0.520986
     58          8           0       -1.376044    0.807054   -1.269014
     59          1           0       -1.545021    1.780058   -1.550014
     60          6           0       -3.457029    1.437104   -0.074014
     61          1           0       -3.518011    2.187105   -0.898014
     62          8           0       -2.956011    2.182092    1.030986
     63          1           0       -3.256021    1.758099    1.891986
     64          6           0       -4.847043    0.859137    0.304986
     65          1           0       -5.597023    1.677155    0.429986
     66          8           0       -4.711056    0.329134    1.623986
     67          1           0       -4.410078   -0.619873    1.576986
     68          6           0       -6.582086   -0.921821   -0.288014
     69          1           0       -6.594110   -1.955821   -0.675014
     70          1           0       -7.477074   -0.417800   -0.673014
     71          1           0       -6.689087   -0.996819    0.804986
     72          1           0       -0.169040    0.970025   -0.486014
 ---------------------------------------------------------------------
 Rotational constants (GHZ):           0.1450251           0.0917322           0.0646039
 Leave Link  202 at Mon Jun 28 19:27:27 2021, MaxMem=  2147483648 cpu:               0.0 elap:               0.0
 (Enter /home/matma/Programs/gaussian/G16_x86_SSE4/tar/g16/l301.exe)
 Standard basis: VSTO-6G (5D, 7F)
 Ernie: Thresh=  0.10000D-02 Tol=  0.10000D-05 Strict=F.
  NNHCO=     0 NNPyr=     1 NCTC=     0               EPep=        -0.000738380
    EC=      2538.081864641  ECS=        14.425066905   EG=         1.185220710
   EHC=         0.003770268  EAt=      -264.256368941  AtH=        10.039461169
 EPDDG=         0.000000000  ECC=      2553.695184144 EAtT=       274.295830110
 There are   180 symmetry adapted cartesian basis functions of A   symmetry.
 There are   180 symmetry adapted basis functions of A   symmetry.
   180 basis functions,  1080 primitive gaussians,   180 cartesian basis functions
   105 alpha electrons      105 beta electrons
       nuclear repulsion energy      2827.9910142533 Hartrees.
 IExCor=    0 DFT=F Ex=HF Corr=None ExCW=0 ScaHFX=  1.000000
 ScaDFX=  1.000000  1.000000  1.000000  1.000000 ScalE2=  1.000000  1.000000
 IRadAn=  99590 IRanWt=     -1 IRanGd=            0 ICorTp=0 IEmpDi=  4
 Integral buffers will be    131072 words long.
 Regular integral format.
 Two-electron integral symmetry is turned off.
 Leave Link  301 at Mon Jun 28 19:27:27 2021, MaxMem=  2147483648 cpu:               0.2 elap:               0.0
 (Enter /home/matma/Programs/gaussian/G16_x86_SSE4/tar/g16/l302.exe)
 Do NDO integrals.
 NPDir=0 NMtPBC=     1 NCelOv=     1 NCel=       1 NClECP=     1 NCelD=      1
         NCelK=      1 NCelE2=     1 NClLst=     1 CellRange=     0.0.
 One-electron integrals computed using PRISM.
 NBasis=   180 RedAO= F EigKep=  0.00D+00  NBF=   180
 NBsUse=   180 1.00D-04 EigRej=  0.00D+00 NBFU=   180
 Leave Link  302 at Mon Jun 28 19:27:27 2021, MaxMem=  2147483648 cpu:               1.0 elap:               0.1
 (Enter /home/matma/Programs/gaussian/G16_x86_SSE4/tar/g16/l303.exe)
 DipDrv:  MaxL=1.
 Leave Link  303 at Mon Jun 28 19:27:27 2021, MaxMem=  2147483648 cpu:               0.1 elap:               0.0
 (Enter /home/matma/Programs/gaussian/G16_x86_SSE4/tar/g16/l401.exe)
 Simple Huckel Guess.
 JPrj=0 DoOrth=F DoCkMO=F.
 Leave Link  401 at Mon Jun 28 19:27:27 2021, MaxMem=  2147483648 cpu:               0.4 elap:               0.0
 (Enter /home/matma/Programs/gaussian/G16_x86_SSE4/tar/g16/l502.exe)
 Keep J ints in memory in canonical form, NReq=939849.
 FoFCou: FMM=F IPFlag=           0 FMFlag=           0 FMFlg1=        2000
         NFxFlg=           0 DoJE=F BraDBF=F KetDBF=F FulRan=T
         wScrn=  0.000000 ICntrl=       600 IOpCl=  2 I1Cent=           0 NGrid=           0
         NMat0=    1 NMatS0=    396 NMatT0=    0 NMatD0=    1 NMtDS0=    0 NMtDT0=    0
 Symmetry not used in FoFCou.
 Two-electron integral symmetry not used.
 Closed shell SCF:
 Using DIIS extrapolation, IDIIS=  1040.
 Overlap will be assumed to be unity.
 NGot=  2147483648 LenX=  2147275908 LenY=  2147243067
 Requested convergence on RMS density matrix=1.00D-08 within 128 cycles.
 Requested convergence on MAX density matrix=1.00D-06.
 Requested convergence on             energy=1.00D-06.
 No special actions if energy rises.

 Cycle   1  Pass 1  IDiag  1:
 E=  1.06498195866698    
 DIIS: error= 5.87D-02 at cycle   1 NSaved=   1.
 NSaved= 1 IEnMin= 1 EnMin=  1.06498195866698     IErMin= 1 ErrMin= 5.87D-02
 ErrMax= 5.87D-02  0.00D+00 EMaxC= 1.00D-01 BMatC= 5.16D-01 BMatP= 5.16D-01
 IDIUse=3 WtCom= 4.13D-01 WtEn= 5.87D-01
 Coeff-Com:  0.100D+01
 Coeff-En:   0.100D+01
 Coeff:      0.100D+01
 GapD=    2.000 DampG=2.000 DampE=0.500 DampFc=1.0000 IDamp=-1.
 RMSDP=6.65D-03 MaxDP=1.41D-01              OVMax= 0.00D+00

 Cycle   2  Pass 1  IDiag  1:
 E=-0.534880791007254     Delta-E=       -1.599862749674 Rises=F Damp=F
 DIIS: error= 1.70D-02 at cycle   2 NSaved=   2.
 NSaved= 2 IEnMin= 2 EnMin=-0.534880791007254     IErMin= 2 ErrMin= 1.70D-02
 ErrMax= 1.70D-02  0.00D+00 EMaxC= 1.00D-01 BMatC= 6.75D-02 BMatP= 5.16D-01
 IDIUse=3 WtCom= 8.30D-01 WtEn= 1.70D-01
 Coeff-Com: -0.398D+00 0.140D+01
 Coeff-En:   0.000D+00 0.100D+01
 Coeff:     -0.330D+00 0.133D+01
 RMSDP=3.58D-03 MaxDP=5.94D-02 DE=-1.60D+00 OVMax= 0.00D+00

 Cycle   3  Pass 1  IDiag  3:
 E=-0.830543306443360     Delta-E=       -0.295662515436 Rises=F Damp=F
 DIIS: error= 6.03D-03 at cycle   3 NSaved=   3.
 NSaved= 3 IEnMin= 3 EnMin=-0.830543306443360     IErMin= 3 ErrMin= 6.03D-03
 ErrMax= 6.03D-03  0.00D+00 EMaxC= 1.00D-01 BMatC= 6.78D-03 BMatP= 6.75D-02
 IDIUse=3 WtCom= 9.40D-01 WtEn= 6.03D-02
 Coeff-Com:  0.199D+00-0.894D+00 0.169D+01
 Coeff-En:   0.000D+00 0.000D+00 0.100D+01
 Coeff:      0.187D+00-0.840D+00 0.165D+01
 Gap=     0.370 Goal=   None    Shift=    0.000
 RMSDP=1.76D-03 MaxDP=4.02D-02 DE=-2.96D-01 OVMax= 2.33D-02

 Cycle   4  Pass 1  IDiag  3:
 E=-0.873974159789668     Delta-E=       -0.043430853346 Rises=F Damp=F
 DIIS: error= 1.32D-03 at cycle   4 NSaved=   4.
 NSaved= 4 IEnMin= 4 EnMin=-0.873974159789668     IErMin= 4 ErrMin= 1.32D-03
 ErrMax= 1.32D-03  0.00D+00 EMaxC= 1.00D-01 BMatC= 3.86D-04 BMatP= 6.78D-03
 IDIUse=3 WtCom= 9.87D-01 WtEn= 1.32D-02
 Coeff-Com: -0.414D-01 0.222D+00-0.641D+00 0.146D+01
 Coeff-En:   0.000D+00 0.000D+00 0.000D+00 0.100D+01
 Coeff:     -0.409D-01 0.219D+00-0.633D+00 0.145D+01
 Gap=     0.372 Goal=   None    Shift=    0.000
 RMSDP=4.90D-04 MaxDP=1.20D-02 DE=-4.34D-02 OVMax= 7.97D-03

 Cycle   5  Pass 1  IDiag  3:
 E=-0.876718944065942     Delta-E=       -0.002744784276 Rises=F Damp=F
 DIIS: error= 3.35D-04 at cycle   5 NSaved=   5.
 NSaved= 5 IEnMin= 5 EnMin=-0.876718944065942     IErMin= 5 ErrMin= 3.35D-04
 ErrMax= 3.35D-04  0.00D+00 EMaxC= 1.00D-01 BMatC= 2.18D-05 BMatP= 3.86D-04
 IDIUse=3 WtCom= 9.97D-01 WtEn= 3.35D-03
 Coeff-Com:  0.437D-02-0.293D-01 0.133D+00-0.531D+00 0.142D+01
 Coeff-En:   0.000D+00 0.000D+00 0.000D+00 0.000D+00 0.100D+01
 Coeff:      0.436D-02-0.292D-01 0.133D+00-0.529D+00 0.142D+01
 Gap=     0.372 Goal=   None    Shift=    0.000
 RMSDP=1.06D-04 MaxDP=1.91D-03 DE=-2.74D-03 OVMax= 1.74D-03

 Cycle   6  Pass 1  IDiag  3:
 E=-0.876858995964085     Delta-E=       -0.000140051898 Rises=F Damp=F
 DIIS: error= 1.42D-04 at cycle   6 NSaved=   6.
 NSaved= 6 IEnMin= 6 EnMin=-0.876858995964085     IErMin= 6 ErrMin= 1.42D-04
 ErrMax= 1.42D-04  0.00D+00 EMaxC= 1.00D-01 BMatC= 1.57D-06 BMatP= 2.18D-05
 IDIUse=3 WtCom= 9.99D-01 WtEn= 1.42D-03
 Coeff-Com:  0.618D-03-0.569D-04-0.221D-01 0.151D+00-0.636D+00 0.151D+01
 Coeff-En:   0.000D+00 0.000D+00 0.000D+00 0.000D+00 0.000D+00 0.100D+01
 Coeff:      0.617D-03-0.569D-04-0.221D-01 0.151D+00-0.635D+00 0.151D+01
 Gap=     0.372 Goal=   None    Shift=    0.000
 RMSDP=2.82D-05 MaxDP=8.02D-04 DE=-1.40D-04 OVMax= 4.52D-04

 Cycle   7  Pass 1  IDiag  3:
 E=-0.876869311888640     Delta-E=       -0.000010315925 Rises=F Damp=F
 DIIS: error= 5.18D-05 at cycle   7 NSaved=   7.
 NSaved= 7 IEnMin= 7 EnMin=-0.876869311888640     IErMin= 7 ErrMin= 5.18D-05
 ErrMax= 5.18D-05  0.00D+00 EMaxC= 1.00D-01 BMatC= 1.34D-07 BMatP= 1.57D-06
 IDIUse=1 WtCom= 1.00D+00 WtEn= 0.00D+00
 Coeff-Com: -0.363D-03 0.675D-03 0.646D-02-0.525D-01 0.246D+00-0.784D+00
 Coeff-Com:  0.158D+01
 Coeff:     -0.363D-03 0.675D-03 0.646D-02-0.525D-01 0.246D+00-0.784D+00
 Coeff:      0.158D+01
 Gap=     0.372 Goal=   None    Shift=    0.000
 RMSDP=8.70D-06 MaxDP=3.66D-04 DE=-1.03D-05 OVMax= 1.33D-04

 Cycle   8  Pass 1  IDiag  3:
 E=-0.876870279238574     Delta-E=       -0.000000967350 Rises=F Damp=F
 DIIS: error= 1.50D-05 at cycle   8 NSaved=   8.
 NSaved= 8 IEnMin= 8 EnMin=-0.876870279238574     IErMin= 8 ErrMin= 1.50D-05
 ErrMax= 1.50D-05  0.00D+00 EMaxC= 1.00D-01 BMatC= 1.38D-08 BMatP= 1.34D-07
 IDIUse=1 WtCom= 1.00D+00 WtEn= 0.00D+00
 Coeff-Com:  0.910D-04-0.187D-03-0.169D-02 0.140D-01-0.681D-01 0.257D+00
 Coeff-Com: -0.825D+00 0.162D+01
 Coeff:      0.910D-04-0.187D-03-0.169D-02 0.140D-01-0.681D-01 0.257D+00
 Coeff:     -0.825D+00 0.162D+01
 Gap=     0.372 Goal=   None    Shift=    0.000
 RMSDP=3.17D-06 MaxDP=1.40D-04 DE=-9.67D-07 OVMax= 6.57D-05

 Cycle   9  Pass 1  IDiag  3:
 E=-0.876870385690836     Delta-E=       -0.000000106452 Rises=F Damp=F
 DIIS: error= 3.60D-06 at cycle   9 NSaved=   9.
 NSaved= 9 IEnMin= 9 EnMin=-0.876870385690836     IErMin= 9 ErrMin= 3.60D-06
 ErrMax= 3.60D-06  0.00D+00 EMaxC= 1.00D-01 BMatC= 8.81D-10 BMatP= 1.38D-08
 IDIUse=1 WtCom= 1.00D+00 WtEn= 0.00D+00
 Coeff-Com: -0.135D-04 0.278D-04 0.303D-03-0.244D-02 0.122D-01-0.537D-01
 Coeff-Com:  0.222D+00-0.649D+00 0.147D+01
 Coeff:     -0.135D-04 0.278D-04 0.303D-03-0.244D-02 0.122D-01-0.537D-01
 Coeff:      0.222D+00-0.649D+00 0.147D+01
 Gap=     0.372 Goal=   None    Shift=    0.000
 RMSDP=7.54D-07 MaxDP=3.09D-05 DE=-1.06D-07 OVMax= 1.78D-05

 Cycle  10  Pass 1  IDiag  3:
 E=-0.876870392148248     Delta-E=       -0.000000006457 Rises=F Damp=F
 DIIS: error= 1.02D-06 at cycle  10 NSaved=  10.
 NSaved=10 IEnMin=10 EnMin=-0.876870392148248     IErMin=10 ErrMin= 1.02D-06
 ErrMax= 1.02D-06  0.00D+00 EMaxC= 1.00D-01 BMatC= 7.53D-11 BMatP= 8.81D-10
 IDIUse=1 WtCom= 1.00D+00 WtEn= 0.00D+00
 Coeff-Com:  0.533D-05-0.219D-04 0.174D-04 0.984D-04-0.841D-03 0.541D-02
 Coeff-Com: -0.314D-01 0.132D+00-0.569D+00 0.146D+01
 Coeff:      0.533D-05-0.219D-04 0.174D-04 0.984D-04-0.841D-03 0.541D-02
 Coeff:     -0.314D-01 0.132D+00-0.569D+00 0.146D+01
 Gap=     0.372 Goal=   None    Shift=    0.000
 RMSDP=2.14D-07 MaxDP=9.75D-06 DE=-6.46D-09 OVMax= 4.75D-06

 Cycle  11  Pass 1  IDiag  3:
 E=-0.876870392740784     Delta-E=       -0.000000000593 Rises=F Damp=F
 DIIS: error= 2.72D-07 at cycle  11 NSaved=  11.
 NSaved=11 IEnMin=11 EnMin=-0.876870392740784     IErMin=11 ErrMin= 2.72D-07
 ErrMax= 2.72D-07  0.00D+00 EMaxC= 1.00D-01 BMatC= 7.00D-12 BMatP= 7.53D-11
 IDIUse=1 WtCom= 1.00D+00 WtEn= 0.00D+00
 Coeff-Com: -0.183D-05 0.925D-05-0.264D-04 0.934D-04-0.316D-03 0.635D-03
 Coeff-Com:  0.899D-03-0.160D-01 0.132D+00-0.594D+00 0.148D+01
 Coeff:     -0.183D-05 0.925D-05-0.264D-04 0.934D-04-0.316D-03 0.635D-03
 Coeff:      0.899D-03-0.160D-01 0.132D+00-0.594D+00 0.148D+01
 Gap=     0.372 Goal=   None    Shift=    0.000
 RMSDP=6.32D-08 MaxDP=2.98D-06 DE=-5.93D-10 OVMax= 1.19D-06

 Cycle  12  Pass 1  IDiag  3:
 E=-0.876870392772162     Delta-E=       -0.000000000031 Rises=F Damp=F
 DIIS: error= 1.23D-07 at cycle  12 NSaved=  12.
 NSaved=12 IEnMin=12 EnMin=-0.876870392772162     IErMin=12 ErrMin= 1.23D-07
 ErrMax= 1.23D-07  0.00D+00 EMaxC= 1.00D-01 BMatC= 8.88D-13 BMatP= 7.00D-12
 IDIUse=1 WtCom= 1.00D+00 WtEn= 0.00D+00
 Coeff-Com:  0.519D-06-0.301D-05 0.109D-04-0.463D-04 0.186D-03-0.541D-03
 Coeff-Com:  0.112D-02-0.771D-04-0.257D-01 0.184D+00-0.782D+00 0.162D+01
 Coeff:      0.519D-06-0.301D-05 0.109D-04-0.463D-04 0.186D-03-0.541D-03
 Coeff:      0.112D-02-0.771D-04-0.257D-01 0.184D+00-0.782D+00 0.162D+01
 Gap=     0.372 Goal=   None    Shift=    0.000
 RMSDP=2.52D-08 MaxDP=1.12D-06 DE=-3.14D-11 OVMax= 4.17D-07

 Cycle  13  Pass 1  IDiag  3:
 E=-0.876870392777164     Delta-E=       -0.000000000005 Rises=F Damp=F
 DIIS: error= 4.18D-08 at cycle  13 NSaved=  13.
 NSaved=13 IEnMin=13 EnMin=-0.876870392777164     IErMin=13 ErrMin= 4.18D-08
 ErrMax= 4.18D-08  0.00D+00 EMaxC= 1.00D-01 BMatC= 8.72D-14 BMatP= 8.88D-13
 IDIUse=1 WtCom= 1.00D+00 WtEn= 0.00D+00
 Coeff-Com: -0.437D-07 0.474D-06-0.320D-05 0.178D-04-0.821D-04 0.276D-03
 Coeff-Com: -0.766D-03 0.141D-02 0.262D-02-0.402D-01 0.237D+00-0.790D+00
 Coeff-Com:  0.159D+01
 Coeff:     -0.437D-07 0.474D-06-0.320D-05 0.178D-04-0.821D-04 0.276D-03
 Coeff:     -0.766D-03 0.141D-02 0.262D-02-0.402D-01 0.237D+00-0.790D+00
 Coeff:      0.159D+01
 Gap=     0.372 Goal=   None    Shift=    0.000
 RMSDP=8.38D-09 MaxDP=3.80D-07 DE=-5.00D-12 OVMax= 1.36D-07

 Cycle  14  Pass 2  IDiag  1:
 SCF Done:  E(RPM6) = -0.876870392777     A.U. after   14 cycles
            NFock= 13  Conv=0.84D-08     -V/T= 0.9981
 KE=-4.555224477618D+02 PE=-5.035176770693D+03 EE= 2.661831333809D+03
 Leave Link  502 at Mon Jun 28 19:27:27 2021, MaxMem=  2147483648 cpu:               1.1 elap:               0.1
 (Enter /home/matma/Programs/gaussian/G16_x86_SSE4/tar/g16/l601.exe)
 Copying SCF densities to generalized density rwf, IOpCl= 0 IROHF=0.

 **********************************************************************

            Population analysis using the SCF Density.

 **********************************************************************

 Orbital symmetries:
       Occupied  (A) (A) (A) (A) (A) (A) (A) (A) (A) (A) (A) (A)
                 (A) (A) (A) (A) (A) (A) (A) (A) (A) (A) (A) (A)
                 (A) (A) (A) (A) (A) (A) (A) (A) (A) (A) (A) (A)
                 (A) (A) (A) (A) (A) (A) (A) (A) (A) (A) (A) (A)
                 (A) (A) (A) (A) (A) (A) (A) (A) (A) (A) (A) (A)
                 (A) (A) (A) (A) (A) (A) (A) (A) (A) (A) (A) (A)
                 (A) (A) (A) (A) (A) (A) (A) (A) (A) (A) (A) (A)
                 (A) (A) (A) (A) (A) (A) (A) (A) (A) (A) (A) (A)
                 (A) (A) (A) (A) (A) (A) (A) (A) (A)
       Virtual   (A) (A) (A) (A) (A) (A) (A) (A) (A) (A) (A) (A)
                 (A) (A) (A) (A) (A) (A) (A) (A) (A) (A) (A) (A)
                 (A) (A) (A) (A) (A) (A) (A) (A) (A) (A) (A) (A)
                 (A) (A) (A) (A) (A) (A) (A) (A) (A) (A) (A) (A)
                 (A) (A) (A) (A) (A) (A) (A) (A) (A) (A) (A) (A)
                 (A) (A) (A) (A) (A) (A) (A) (A) (A) (A) (A) (A)
                 (A) (A) (A)
 The electronic state is 1-A.
 Alpha  occ. eigenvalues --   -1.32186  -1.28524  -1.26390  -1.26032  -1.24494
 Alpha  occ. eigenvalues --   -1.23839  -1.22844  -1.22493  -1.21953  -1.21390
 Alpha  occ. eigenvalues --   -1.20602  -1.20597  -1.19199  -1.19136  -1.18488
 Alpha  occ. eigenvalues --   -1.16892  -1.13423  -1.12422  -1.11736  -1.10413
 Alpha  occ. eigenvalues --   -1.08816  -1.08071  -1.06777  -1.02628  -1.00827
 Alpha  occ. eigenvalues --   -1.00502  -0.98205  -0.95840  -0.94981  -0.92899
 Alpha  occ. eigenvalues --   -0.92356  -0.90571  -0.89626  -0.87232  -0.86812
 Alpha  occ. eigenvalues --   -0.85659  -0.84195  -0.82306  -0.81410  -0.79914
 Alpha  occ. eigenvalues --   -0.79539  -0.78845  -0.78271  -0.77880  -0.77071
 Alpha  occ. eigenvalues --   -0.76326  -0.75715  -0.75255  -0.74967  -0.73947
 Alpha  occ. eigenvalues --   -0.73693  -0.73239  -0.72961  -0.71948  -0.71329
 Alpha  occ. eigenvalues --   -0.70629  -0.70401  -0.69782  -0.68113  -0.67741
 Alpha  occ. eigenvalues --   -0.67397  -0.66760  -0.66217  -0.66041  -0.65450
 Alpha  occ. eigenvalues --   -0.64597  -0.64463  -0.63860  -0.63049  -0.62927
 Alpha  occ. eigenvalues --   -0.62266  -0.62126  -0.61851  -0.61531  -0.60975
 Alpha  occ. eigenvalues --   -0.60645  -0.60364  -0.60196  -0.59333  -0.58653
 Alpha  occ. eigenvalues --   -0.58598  -0.57810  -0.57624  -0.57421  -0.57060
 Alpha  occ. eigenvalues --   -0.56351  -0.56219  -0.56042  -0.55773  -0.54796
 Alpha  occ. eigenvalues --   -0.54177  -0.53305  -0.53280  -0.53022  -0.52750
 Alpha  occ. eigenvalues --   -0.51837  -0.51487  -0.51309  -0.50584  -0.50272
 Alpha  occ. eigenvalues --   -0.49808  -0.49660  -0.48412  -0.48212  -0.46984
 Alpha virt. eigenvalues --   -0.10367  -0.08038  -0.08030  -0.07892  -0.07065
 Alpha virt. eigenvalues --   -0.06285  -0.05963  -0.05121  -0.04850  -0.04127
 Alpha virt. eigenvalues --   -0.03331  -0.03094  -0.02948  -0.02489  -0.02378
 Alpha virt. eigenvalues --   -0.02196  -0.02053  -0.01615  -0.01516  -0.01394
 Alpha virt. eigenvalues --   -0.01239  -0.00706  -0.00487  -0.00077   0.00200
 Alpha virt. eigenvalues --    0.00495   0.00790   0.01076   0.01148   0.01815
 Alpha virt. eigenvalues --    0.01987   0.02012   0.02174   0.02975   0.03121
 Alpha virt. eigenvalues --    0.03321   0.03670   0.04428   0.04850   0.05766
 Alpha virt. eigenvalues --    0.05960   0.06102   0.06387   0.06417   0.06523
 Alpha virt. eigenvalues --    0.06659   0.06760   0.06871   0.06933   0.07306
 Alpha virt. eigenvalues --    0.07456   0.07651   0.07830   0.07993   0.08111
 Alpha virt. eigenvalues --    0.08389   0.08567   0.08627   0.08660   0.08787
 Alpha virt. eigenvalues --    0.08971   0.09016   0.09318   0.09505   0.09582
 Alpha virt. eigenvalues --    0.09847   0.10086   0.10458   0.10883   0.11412
 Alpha virt. eigenvalues --    0.12230   0.12379   0.12443   0.13607   0.15896
          Condensed to atoms (all electrons):
 Mulliken charges:
               1
     1  C    0.347465
     2  H    0.159205
     3  O   -0.580270
     4  H    0.345151
     5  C    0.062319
     6  H    0.156657
     7  O   -0.487772
     8  C   -0.069744
     9  H    0.197516
    10  N   -0.492769
    11  H    0.303439
    12  C    0.695501
    13  O   -0.652905
    14  C   -0.617339
    15  H    0.236667
    16  H    0.218444
    17  H    0.198244
    18  C    0.061058
    19  H    0.190776
    20  O   -0.480151
    21  H    0.424186
    22  C    0.041864
    23  H    0.175428
    24  O   -0.491790
    25  C   -0.028523
    26  H    0.163360
    27  H    0.157493
    28  O   -0.546570
    29  H    0.326349
    30  C    0.312008
    31  H    0.182846
    32  C    0.093288
    33  H    0.170234
    34  O   -0.507352
    35  C    0.043248
    36  H    0.178792
    37  O   -0.532215
    38  H    0.335439
    39  C    0.059126
    40  H    0.173297
    41  O   -0.540532
    42  H    0.338801
    43  C    0.034976
    44  H    0.192567
    45  O   -0.480853
    46  H    0.366050
    47  C   -0.050865
    48  H    0.160588
    49  H    0.167324
    50  O   -0.451149
    51  C    0.345422
    52  H    0.127729
    53  C    0.145709
    54  H    0.127893
    55  O   -0.460143
    56  C   -0.046280
    57  H    0.192368
    58  O   -0.540839
    59  H    0.379048
    60  C    0.059100
    61  H    0.161342
    62  O   -0.554627
    63  H    0.348036
    64  C    0.020207
    65  H    0.179859
    66  O   -0.529671
    67  H    0.334418
    68  C   -0.510975
    69  H    0.195289
    70  H    0.178768
    71  H    0.185541
    72  H    0.402898
 Sum of Mulliken charges =   1.00000
 Mulliken charges with hydrogens summed into heavy atoms:
               1
     1  C    0.506671
     3  O   -0.235119
     5  C    0.218976
     7  O   -0.487772
     8  C    0.127772
    10  N   -0.189330
    12  C    0.695501
    13  O   -0.652905
    14  C    0.036015
    18  C    0.251834
    20  O    0.346932
    22  C    0.217292
    24  O   -0.491790
    25  C    0.292330
    28  O   -0.220221
    30  C    0.494854
    32  C    0.263522
    34  O   -0.507352
    35  C    0.222040
    37  O   -0.196776
    39  C    0.232423
    41  O   -0.201731
    43  C    0.227542
    45  O   -0.114803
    47  C    0.277046
    50  O   -0.451149
    51  C    0.473151
    53  C    0.273602
    55  O   -0.460143
    56  C    0.146088
    58  O   -0.161791
    60  C    0.220443
    62  O   -0.206591
    64  C    0.200066
    66  O   -0.195252
    68  C    0.048623
 Charge=              1.0000 electrons
 Dipole moment (field-independent basis, Debye):
    X=              2.6343    Y=              0.5936    Z=              1.5577  Tot=              3.1174
 N-N= 2.827991014253D+03 E-N=-5.035176771159D+03  KE=-4.555224477618D+02
 Leave Link  601 at Mon Jun 28 19:27:27 2021, MaxMem=  2147483648 cpu:               0.2 elap:               0.0
 (Enter /home/matma/Programs/gaussian/G16_x86_SSE4/tar/g16/l701.exe)
 ... and contract with generalized density number  0.
 Compute integral first derivatives.
 Leave Link  701 at Mon Jun 28 19:27:27 2021, MaxMem=  2147483648 cpu:               1.0 elap:               0.1
 (Enter /home/matma/Programs/gaussian/G16_x86_SSE4/tar/g16/l702.exe)
 L702 exits ... SP integral derivatives will be done elsewhere.
 Leave Link  702 at Mon Jun 28 19:27:27 2021, MaxMem=  2147483648 cpu:               0.1 elap:               0.0
 (Enter /home/matma/Programs/gaussian/G16_x86_SSE4/tar/g16/l703.exe)
 Integral derivatives from FoFJK, PRISM(SPDF).
 Compute integral first derivatives, UseDBF=F ICtDFT=           0.
 Calling FoFJK, ICntrl=      2127 FMM=F ISym2X=0 I1Cent= 0 IOpClX= 0 NMat=1 NMatS=1 NMatT=0.
 FoFJK:  IHMeth=40 ICntrl=    2127 DoSepK=F KAlg= 0 I1Cent=           0 FoldK=F
 IRaf=         0 NMat=       1 IRICut=       1 DoRegI=T DoRafI=F ISym2E= 0 IDoP0=3 IntGTp=3.
 FoFCou: FMM=F IPFlag=           0 FMFlag=      100000 FMFlg1=        2800
         NFxFlg=           0 DoJE=F BraDBF=F KetDBF=F FulRan=T
         wScrn=  0.000000 ICntrl=      2127 IOpCl=  0 I1Cent=           0 NGrid=           0
         NMat0=    1 NMatS0=      1 NMatT0=    0 NMatD0=    1 NMtDS0=    0 NMtDT0=    0
 Symmetry not used in FoFCou.
 Leave Link  703 at Mon Jun 28 19:27:27 2021, MaxMem=  2147483648 cpu:               0.2 elap:               0.0
 (Enter /home/matma/Programs/gaussian/G16_x86_SSE4/tar/g16/l716.exe)
 Dipole        = 1.03640418D+00 2.33525179D-01 6.12840853D-01
 ***** Axes restored to original set *****
 -------------------------------------------------------------------
 Center     Atomic                   Forces (Hartrees/Bohr)
 Number     Number              X              Y              Z
 -------------------------------------------------------------------
      1        6          -0.000034284    0.000278962   -0.000144668
      2        1           0.000022040   -0.000115083   -0.000031571
      3        8           0.000087601   -0.000086418    0.000155313
      4        1          -0.000132969    0.000063043   -0.000064358
      5        6          -0.000618761   -0.000451663    0.000077873
      6        1           0.000046842   -0.000001302   -0.000043764
      7        8          -0.000020047    0.000228606    0.000155640
      8        6          -0.000188345   -0.000601540    0.000415631
      9        1          -0.000019987    0.000012998   -0.000156615
[...]
 000473,0.00000941,0.00000381,-0.00004439,0.00001866,0.00000365,0.00000
 173,-0.00000138,-0.00000105,0.00006823,-0.00001827,0.00002423,-0.00002
 919,0.00001822,0.00001072,-0.00000163,0.00000629,0.00000083,-0.0000025
 5,-0.00000002,0.00000539,0.00002025,-0.00000767,-0.00000010,0.00000313
 ,-0.00000945,0.00000853,-0.00000262,0.00000011,-0.00000050,-0.00000308
 ,0.00000251,0.00000077,0.00000717,0.00000327,-0.00001760,-0.00000376,0
 .00000079,0.00001002,-0.00002001,-0.00000427,-0.00001919,-0.00000558,-
 0.00000001,0.00000994,0.00000086,0.00002466,-0.00002166,-0.00000017,-0
 .00001350,0.00001154,0.00004528,0.00000758,-0.00000128,-0.00000423,-0.
 00001578,0.00001336,-0.00000359,0.00000108,-0.00000329,0.00001998,0.00
 002105,-0.00001069,-0.00001150,-0.00000663,0.00000200,-0.00000811,0.00
 000237,0.00000001,0.00000049,-0.00000701,0.00000176,0.00001949,0.00001
 360,0.00000152,-0.00000956,-0.00000595,-0.00000130,0.00000733,-0.00002
 539,0.00000091,-0.00001337,-0.00000563,0.00000019,0.00002856,0.0000067
 0,-0.00000865,-0.00001844,-0.00000533,-0.00000625,-0.00004680,0.000030
 33,0.00009266,0.00002292,-0.00001762,0.00002756,-0.00000654,0.00000678
 ,0.00001968,0.00026241,0.00006088,-0.00022887,0.00002716,0.00039636,0.
 00039693,0.00003175,0.00000762,0.00010356,0.00331067,0.00107920,0.0051
 6487,0.00088736,-0.00011522,0.00030698,0.00113090,-0.00047528,-0.00085
 734,-0.00008007,0.00005802,-0.00001731,-0.00002312,-0.00000219,-0.0000
 1491,0.00013954,-0.00012041,-0.00008326,0.00000747,0.00006531,0.000045
 03,0.00011836,0.00002842,-0.00009429,0.00003171,0.00003792,0.00004957,
 0.00008256,-0.00006787,0.00001062,-0.00006206,0.00003051,0.00000898,-0
 .00027965,0.00021890,-0.00009932,-0.00013034,0.00012356,0.00005324,0.0
 0028030,-0.00003225,-0.00020616,-0.00011631,-0.00006022,0.00000748,-0.
 05416691,-0.03096023,-0.05663619,0.00391986,0.00333057,0.00553762,0.06
 214112,0.03887797,0.06107536,-0.00003856,0.00000077,-0.00001687,0.0000
 0078,0.00000789,0.00000757,0.00003240,-0.00001937,0.00001660,-0.000016
 07,0.00001036,-0.00000535,-0.00000950,0.00002046,0.00000332,-0.0000022
 6,-0.00000086,-0.00000508,0.00002511,-0.00001309,-0.00000248,0.0000083
 5,0.00000191,0.00000807,-0.00000632,0.00000348,0.00000539,0.00006854,-
 0.00003782,0.00001136,-0.00001363,0.00002487,-0.00000456,-0.00009429,0
 .00008404,-0.00006416,0.00006375,-0.00010961,0.00003438,0.00002754,-0.
 00008237,-0.00000357,-0.00001681,0.00004354,0.00000081,0.00000204,0.00
 002438,0.00000744,-0.00000365,0.00001881,-0.00000556,-0.00008112,0.000
 03383,0.00001118,0.00000308,-0.00000128,-0.00001014,0.00013115,-0.0000
 3908,0.00005804,-0.00005458,0.00004499,0.00001680,-0.00000205,0.000013
 04,0.00000696,-0.00000631,0.00000129,0.00000302,0.00004054,-0.00002732
 ,0.00001092,0.00000437,-0.00001114,0.00000584,-0.00000608,-0.00000119,
 -0.00000193,-0.00000661,0.00000423,0.00000082,0.00002032,0.00000449,-0
 .00001477,-0.00001057,-0.00000038,0.00000993,-0.00005741,0.00000268,-0
 .00005670,-0.00000846,-0.00000015,0.00001656,-0.00003505,0.00004026,-0
 .00000808,-0.00000460,-0.00001962,0.00001035,0.00009824,0.00000331,0.0
 0001297,-0.00000083,-0.00002767,0.00002717,-0.00000891,0.00000231,-0.0
 0001048,0.00003679,0.00003852,-0.00000878,-0.00002218,-0.00001434,-0.0
 0000132,-0.00001868,0.00000780,-0.00002558,-0.00000018,-0.00001418,0.0
 0000097,0.00003279,0.00002704,0.00004223,-0.00001066,-0.00001617,-0.00
 002118,0.00002377,-0.00003281,-0.00000079,-0.00004885,-0.00000716,-0.0
 0000210,0.00006862,-0.00000629,0.00000241,-0.00004188,-0.00000899,-0.0
 0003348,-0.00010778,-0.00004059,0.00005516,0.00001404,-0.00001089,0.00
 001826,-0.00000363,0.00000635,0.00000819,0.00018525,0.00011441,-0.0001
 0375,-0.00055995,-0.00001001,0.00009520,0.00008144,-0.00000739,0.00001
 066,-0.01011532,0.00827541,0.02676466,-0.00179147,0.00149426,0.0006507
 3,0.00036153,0.00018830,-0.00027015,-0.00010614,0.00001358,0.00007951,
 -0.00004799,-0.00000039,-0.00000864,0.00022256,-0.00016192,-0.00008781
 ,-0.00001804,0.00010341,0.00003623,0.00010979,-0.00014308,-0.00003488,
 0.00005510,0.00003925,0.00005043,0.00015712,-0.00015889,0.00005399,-0.
 00010967,0.00013093,-0.00004311,-0.00117206,0.00151212,0.00097632,0.00
 021164,0.00020602,-0.00002316,0.00023508,-0.00060921,-0.00024161,-0.00
 135730,0.00023525,-0.00057194,-0.03585645,0.00050631,0.01412818,0.0039
 3349,-0.00062807,0.00160967,0.00004010,-0.00305102,-0.01745532,0.04572
 771,0.00003320,0.00001555,-0.00001275,-0.00000128,-0.00000135,0.000000
 24,-0.00001767,-0.00000729,0.00000175,0.00000729,0.00000260,0.00000191
 ,-0.00000197,0.00000986,0.00000833,0.00000121,0.00000115,0.00000083,-0
 .00001975,-0.00002783,0.00000108,0.00000833,0.00002286,-0.00001197,0.0
 0000583,0.00000147,-0.00000271,-0.00009547,-0.00001950,-0.00001138,0.0
 0000729,-0.00000782,0.00000105,0.00016314,0.00000691,0.00004273,-0.000
 07154,0.00001467,-0.00001164,-0.00009453,0.00002796,0.00001326,0.00004
 648,-0.00003055,-0.00000342,0.00001860,-0.00001174,-0.00000155,0.00001
 182,-0.00000843,0.00000181,0.00001167,-0.00001750,-0.00000482,0.000000
 50,0.00000473,0.00000226,-0.00004702,-0.00008150,-0.00003801,-0.000019
 47,0.00012988,0.00003178,-0.00000154,0.00002733,0.00001161,0.00000008,
 0.00000259,-0.00000229,0.00000446,-0.00005325,0.00000208,-0.00000249,0
 .00000095,-0.00001205,0.00000051,0.00000279,0.00000263,0.00000129,0.00
 000038,0.00000095,-0.00000013,-0.00000927,0.00000779,0.00000248,0.0000
 0284,-0.00000191,-0.00001370,0.00003235,-0.00002705,-0.00000113,-0.000
 00014,0.00000235,-0.00003628,0.00001178,0.00001786,-0.00000376,0.00000
 917,-0.00000221,0.00003085,-0.00003290,0.00000608,0.00000383,0.0000125
 8,0.00000452,-0.00000140,0.00000133,-0.00000117,0.00000273,-0.00001846
 ,-0.00000105,-0.00000091,0.00000306,0.00000198,-0.00000320,-0.00001663
 ,-0.00000432,-0.00000923,0.00001230,-0.00000011,0.00001007,-0.00002289
 ,-0.00000841,-0.00001582,0.00001188,0.00000632,0.00002923,0.00004338,-
 0.00003125,-0.00005512,0.00001651,0.00001030,0.00003097,-0.00010580,-0
 .00001879,-0.00000006,0.00002375,0.00000598,0.00001399,-0.00005088,-0.
 00002717,-0.00000687,0.00001374,-0.00000343,0.00000332,0.00002014,-0.0
 0000486,-0.00006547,-0.00011135,0.00004340,-0.00000873,-0.00003690,-0.
 00017169,0.00005848,-0.00004029,-0.00000217,0.00918039,-0.00049933,-0.
 01543893,0.00143631,-0.00059982,-0.00055486,-0.00071378,-0.00043883,0.
 00018461,0.00005474,0.00000092,-0.00007687,0.00001988,0.00002558,0.000
 02277,-0.00013154,-0.00007637,0.00005371,0.00004802,0.00002391,-0.0000
 2365,-0.00007144,0.00007989,-0.00000537,-0.00002920,-0.00002678,-0.000
 03059,-0.00023796,0.00002925,0.00000111,0.00015954,-0.00002695,0.00003
 006,0.00163056,-0.00163487,-0.00075297,0.00032061,-0.00036314,-0.00003
 804,-0.00081753,-0.00040453,-0.00004741,0.00040729,0.00079677,0.000111
 74,0.00023513,-0.03422419,-0.01025769,-0.00060539,-0.00192794,0.020915
 41,-0.00290669,0.00165390,-0.01249448,-0.00798338,0.03781458,0.0000224
 6,-0.00001050,0.00002801,-0.00000043,-0.00000209,-0.00000285,-0.000021
 30,0.00001198,-0.00002652,0.00000978,-0.00000574,0.00000570,0.00000602
 ,-0.00000769,-0.00000458,0.00000120,0.00000051,0.00000661,-0.00001148,
 0.00001020,-0.00000768,-0.00000656,0.00000314,-0.00000941,0.00000628,-
 0.00000258,0.00000567,-0.00005230,0.00001204,-0.00004057,0.00000310,-0
 .00001094,0.00001693,0.00006984,-0.00006611,0.00012543,-0.00005687,0.0
 0009808,-0.00009289,0.00000310,0.00003143,-0.00005017,-0.00000377,-0.0
 0001006,0.00002092,0.00000010,-0.00000856,0.00000829,-0.00000148,-0.00
 000607,0.00001436,0.00003587,-0.00002114,-0.00001958,-0.00000497,0.000
 00166,0.00001819,-0.00009560,-0.00002616,-0.00009752,0.00000098,0.0000
 4956,0.00004810,-0.00000019,-0.00000370,-0.00000818,0.00000639,-0.0000
 0266,0.00000564,-0.00002227,0.00002720,-0.00002798,-0.00000080,-0.0000
 0095,0.00000489,0.00000348,0.00000215,0.00000217,0.00000324,-0.0000011
 7,0.00000027,-0.00001489,-0.00000122,-0.00000804,0.00000770,0.00000182
 ,0.00000222,0.00006633,-0.00000711,0.00007326,-0.00000167,-0.00000119,
 -0.00001040,0.00001263,-0.00002820,0.00003934,0.00000145,0.00001013,-0
 .00001058,-0.00008427,-0.00000987,-0.00005558,-0.00000887,0.00001352,-
 0.00001182,0.00000524,-0.00000177,0.00000808,-0.00001031,-0.00001999,-
 0.00001194,0.00000755,0.00000808,0.00000570,0.00000605,-0.00001563,0.0
 0005654,-0.00000576,0.00001012,0.00000373,0.00002337,-0.00001082,-0.00
 009576,-0.00003553,0.00001101,0.00003792,0.00000319,-0.00002092,0.0000
 1467,-0.00001848,0.00000941,0.00003302,0.00000469,-0.00001724,-0.00011
 521,0.00000195,0.00001004,0.00006672,0.00010533,0.00000139,-0.00012370
 ,-0.00000113,0.00000693,-0.00000410,0.00002151,-0.00000598,-0.00000251
 ,-0.00035925,-0.00010243,0.00007044,0.00083866,-0.00025908,-0.00011741
 ,-0.00004175,0.00001631,-0.00005024,0.01433493,-0.00794003,-0.01403550
 ,0.00041865,-0.00024475,-0.00039587,-0.00095505,0.00027098,-0.00011638
 ,0.00002157,-0.00003679,-0.00009621,0.00001362,0.00004189,0.00007717,-
 0.00022909,0.00015843,-0.00003359,0.00002922,-0.00009237,0.00001224,0.
 00018095,-0.00017566,-0.00016387,0.00005398,-0.00003657,0.00000717,-0.
 00012583,0.00015648,-0.00044514,-0.00017153,0.00015344,0.00022316,-0.0
 0013965,0.00055328,0.00170784,-0.00006128,-0.00011632,0.00006785,0.001
 25440,-0.00133397,-0.00093564,-0.00078244,0.00005821,0.00037112,0.0169
 2518,-0.01313836,-0.21535417,0.00081969,0.00822692,-0.01504608,-0.0065
 6949,-0.00469307,-0.01462008,-0.02562357,0.01853172,0.25889563,-0.0012
 0270,-0.00019923,-0.00101562,0.00026180,0.00032008,0.00034251,0.000726
 87,-0.00098852,0.00055959,-0.00036657,0.00040196,-0.00010025,-0.000396
 07,0.00147320,0.00011058,0.00000402,-0.00007312,-0.00019094,0.00054320
 ,-0.00090278,-0.00017882,0.00014795,0.00474190,-0.00200443,0.00010912,
 0.00043623,0.00120059,-0.00737112,-0.00342453,-0.00302866,-0.00042384,
 0.00035608,0.00009826,0.01169354,-0.00158840,0.01084615,-0.00711040,0.
 00736644,-0.00691925,-0.00191208,0.00051071,-0.00112367,0.00052698,-0.
 00054954,0.00022325,0.00017763,-0.00023499,0.00016242,0.00021705,0.000
 01426,0.00007177,-0.02985305,0.00298616,-0.01412190,-0.00102169,0.0004
 0289,-0.00154918,-0.00792147,0.01435891,-0.00268682,0.00662000,-0.0223
 8889,-0.00228766,-0.00150437,-0.00135668,-0.00140744,-0.00028865,-0.00
 014827,0.00086853,0.00119344,0.00332479,-0.00053082,0.00028173,-0.0006
 8297,0.00067406,-0.00014896,-0.00008579,-0.00011112,-0.00016049,0.0001
 7954,-0.00002479,0.00036174,0.00038910,-0.00095199,-0.00020062,0.00001
 870,0.00050715,0.00132718,-0.00283273,0.00249185,-0.00038229,0.0000306
 1,-0.00000856,0.00199091,-0.00103715,0.00032438,-0.00011478,-0.0000441
 9,-0.00008739,-0.00234909,0.00217874,-0.00232796,-0.00030602,-0.000789
 05,-0.00002345,-0.00009619,-0.00004796,-0.00006751,0.00036333,0.000933
 63,-0.00025836,-0.00029542,-0.00016204,0.00000519,0.00002119,0.0003781
 9,0.00000351,0.00007768,-0.00024607,0.00006075,-0.00007689,0.00077664,
 0.00040175,0.00015552,-0.00018987,-0.00034600,-0.00170517,-0.00207245,
 0.00195595,0.00084625,0.00039534,-0.00003471,-0.00434967,0.00801317,0.
 00213428,0.00025629,-0.00157734,-0.00097281,0.00187021,-0.00003410,-0.
 00081135,-0.00011163,0.00003623,-0.00012964,0.00046317,0.00113667,0.00
 006364,-0.00326772,-0.00354089,0.00010964,-0.00021875,0.00651746,-0.00
 040458,-0.00006234,-0.00056454,-0.00020891,-0.00091322,-0.00059287,-0.
 00029860,-0.00018638,0.00000484,-0.00009762,0.00298203,-0.00166617,-0.
 00040481,-0.02114433,0.00706997,0.01122869,0.00058668,0.00184586,0.003
 09448,0.00801403,0.00315815,-0.01104698,0.00093226,-0.01461066,-0.0025
 7226,0.00074393,-0.00228152,0.00220385,-0.00013973,-0.00023588,-0.0003
 3805,-0.00010186,0.00117752,-0.00360722,-0.00006392,0.00029826,0.00142
 921,-0.00016940,0.00185255,0.00116387,-0.00008143,-0.00048650,-0.00001
 576,0.00006138,-0.00112445,-0.00151605,0.00004993,0.00057003,0.0004553
 2,0.00087489,-0.00025172,-0.00005927,-0.00015425,0.00022980,-0.0000330
 3,-0.00020623,-0.00002032,-0.00007380,-0.00015094,0.00009108,0.0001880
 1,0.05204934,0.00096641,0.00035751,-0.00047974,-0.00005717,-0.00001534
 ,0.00003509,-0.00045603,-0.00032501,-0.00002967,0.00010120,0.00010375,
 -0.00002106,-0.00013351,0.00080192,0.00037254,0.00003367,-0.00002494,-
 0.00003498,-0.00052690,-0.00100045,-0.00003881,0.00226800,0.00059857,0
 .00007099,0.00086966,-0.00013838,-0.00035593,-0.00334149,-0.00005711,-
 0.00069044,0.00019377,-0.00035638,0.00036958,0.00317973,-0.00675082,0.
 00621208,-0.00004117,0.00587352,-0.00165372,0.00059706,0.00082438,-0.0
 0084229,-0.00034096,0.00000651,0.00014253,-0.00018660,-0.00023082,-0.0
 0012102,0.00006404,-0.00013947,0.00014585,-0.00162135,0.00377888,0.009
 62140,0.00259275,-0.00046600,0.00000551,-0.00594499,-0.03265903,-0.031
 04843,-0.00583590,-0.00286302,-0.01317062,-0.00059125,0.00023722,-0.00
 016254,-0.00030511,0.00010469,0.00019145,0.00053015,-0.00034920,0.0002
 5988,0.00002982,-0.00021016,-0.00002709,-0.00004368,0.00000268,0.00001
 231,-0.00001953,0.00005977,0.00000837,0.00015093,-0.00003558,-0.000094
 24,-0.00004622,0.00005136,0.00008227,-0.00083916,-0.00017906,-0.000515
 31,-0.00007634,-0.00000652,0.00015572,0.00033376,-0.00018669,-0.000073
 14,-0.00003814,-0.00010842,0.00003422,0.00071984,0.00104939,-0.0001703
 1,0.00004558,-0.00024361,0.00016180,-0.00006561,0.00002996,-0.00004672
 ,0.00017951,0.00027428,-0.00005901,-0.00012723,-0.00007036,-0.00000204
 ,-0.00002830,0.00015126,-0.00017020,0.00002943,-0.00008056,0.00001178,
 0.00002415,0.00018112,0.00032101,0.00005488,-0.00006444,-0.00013715,0.
 00022677,-0.00047753,-0.00005482,0.00014558,-0.00013082,0.00002369,0.0
 0014359,-0.00095110,0.00038156,0.00008966,-0.00020781,-0.00057290,0.00
 023092,0.00020624,-0.00025766,-0.00001959,-0.00003464,0.00015989,0.000
 26929,-0.00034650,0.00047195,-0.00097600,-0.00030255,-0.00009560,0.001
 23581,0.00054671,-0.00004478,-0.00000230,-0.00000232,0.00005159,0.0001
 9290,0.00026599,-0.00007629,-0.00001017,-0.00000264,0.00001323,-0.0002
 8026,-0.00034549,0.00010570,0.00163029,-0.00066128,0.00169441,0.001109
 22,0.00036263,-0.00033983,0.01797737,-0.01133265,0.00868957,-0.0073468
 5,0.00174044,-0.00558914,-0.00034744,0.00044215,-0.00046162,-0.0002268
 4,0.00002070,0.00008148,0.00070389,-0.00037060,-0.00003040,-0.00008265
 ,0.00011550,0.00016844,-0.00008187,-0.00010004,0.00017223,0.00000433,0
 .00001780,0.00000242,0.00001953,-0.00024124,-0.00010739,0.00008081,0.0
 0013193,-0.00000074,-0.00006561,-0.00011815,0.00001684,0.00002075,0.00
 001911,-0.00000033,-0.00000025,0.00001937,0.00000319,0.00000609,0.0000
 2363,-0.00000251,-0.00694433,0.04378783,-0.00063240,-0.00030337,-0.000
 19059,0.00021526,0.00026773,0.00030491,0.00045241,-0.00099369,0.000122
 10,-0.00026458,0.00035234,-0.00015525,-0.00011342,0.00192260,-0.000231
 88,-0.00012194,-0.00006742,-0.00012295,0.00019514,-0.00074225,-0.00045
 029,-0.00021451,0.00376972,-0.00117049,0.00093124,-0.00042345,0.001356
 10,-0.00570076,-0.00367336,-0.00361754,-0.00044800,0.00060837,0.000361
 65,0.00890974,-0.00101674,0.01179193,-0.00421663,0.00846572,-0.0083105
 9,-0.00104594,0.00003793,-0.00164391,0.00033444,-0.00006586,0.00024472
 ,0.00004091,-0.00015414,0.00017363,0.00017407,0.00010466,0.00012882,-0
 .01768724,0.01323566,0.00708723,0.00311470,-0.00160727,-0.00127199,-0.
 03120465,-0.02199756,-0.09673654,0.00714969,-0.02257350,-0.00078095,0.
 00145279,-0.00195177,-0.00027302,0.00040895,-0.00008219,0.00120976,0.0
 0115881,0.00257557,-0.00112771,0.00039435,-0.00081190,0.00074939,-0.00
 009873,-0.00005352,-0.00009715,-0.00009242,0.00020131,-0.00002480,0.00
 000464,0.00026734,-0.00105800,0.00001349,0.00011348,0.00049931,0.00160
 080,-0.00242958,0.00253918,-0.00036080,0.00008996,-0.00002382,0.001145
 01,-0.00053165,0.00053413,-0.00002509,-0.00009337,-0.00010758,-0.00181
 438,0.00099131,-0.00258876,-0.00037918,-0.00062264,-0.00000270,-0.0000
 7233,-0.00007033,-0.00005933,0.00038114,0.00073161,-0.00028642,-0.0002
 6289,-0.00012145,0.00001693,-0.00009163,0.00040380,0.00004196,0.000099
 76,-0.00023285,0.00008444,0.00012026,0.00088747,0.00031892,0.00010501,
 -0.00018690,-0.00032449,-0.00168971,-0.00261801,0.00235608,0.00075474,
 0.00047790,-0.00014714,-0.00428231,0.00992937,0.00289681,-0.00025040,-
 0.00134882,-0.00106080,0.00121354,-0.00044006,-0.00051333,-0.00011125,
 0.00004789,-0.00013995,-0.00003477,0.00149363,0.00011108,-0.00218036,-
 0.00230696,-0.00020168,0.00089293,0.00402424,-0.00165242,-0.00019720,-
 0.00015624,-0.00024889,-0.00078137,-0.00065020,-0.00017286,-0.00014843
 ,0.00002156,-0.00005618,0.00250007,-0.00142455,-0.00025150,-0.00433011
 ,0.00368687,0.01591152,0.00184219,0.00045294,0.00248872,0.02084636,-0.
 00130903,-0.01571743,0.00027954,-0.01053435,0.00040669,0.00195916,-0.0
 0236813,0.00132943,-0.00009201,-0.00021822,-0.00013337,-0.00125967,0.0
 0039072,-0.00282082,0.00036823,0.00038219,0.00091029,-0.00006052,0.001
 60776,0.00089739,-0.00001545,-0.00036225,-0.00000704,-0.00024177,-0.00
 080464,-0.00125840,0.00016432,0.00038129,0.00040341,0.00066474,-0.0001
 0509,-0.00011855,-0.00012248,0.00016720,-0.00000676,-0.00014096,-0.000
 02302,-0.00004510,-0.00010068,0.00005703,0.00016316,0.02099995,0.02732
 877,0.08977062\\0.00001183,0.00005412,-0.00003941,0.00001164,-0.000014
 79,-0.00000884,0.00002142,-0.00001289,0.00003918,0.00000152,-0.0000042
 0,0.00001075,-0.00003897,-0.00005793,0.00000958,0.00003192,0.00001611,
 -0.00000759,0.00001683,0.00000158,-0.00000720,0.00002368,0.00001696,0.
 00001090,0.00001165,0.00002372,-0.00004950,0.00000464,-0.00002800,0.00
 003581,-0.00000614,-0.00002185,0.00002582,-0.00005184,-0.00009653,0.00
 008612,-0.00003455,0.00001338,-0.00006840,0.00002460,-0.00002035,0.000
 02483,-0.00001083,0.00003602,-0.00000207,0.00000716,0.00000881,-0.0000
 0714,-0.00001171,0.00003392,-0.00004444,0.00007514,0.00002608,0.000003
 14,-0.00001758,-0.00000106,-0.00002781,0.00001778,0.00007016,0.0000280
 2,-0.00000008,-0.00007652,0.00004932,-0.00005488,0.00005540,-0.0000186
 8,-0.00001262,-0.00002177,0.00002781,0.00004092,-0.00002104,-0.0000315
 2,0.00003160,-0.00001199,-0.00000119,-0.00001281,-0.00000214,-0.000015
 90,-0.00002421,0.00000976,-0.00000365,-0.00000565,0.00000721,0.0000339
 7,0.00001333,-0.00001869,0.00001873,0.00004219,0.00000127,0.00007621,0
 .00001735,0.00002073,-0.00001159,0.00005174,0.00001831,-0.00003747,-0.
 00001812,-0.00001237,0.00005051,-0.00009556,-0.00001947,0.00002753,0.0
 0005137,-0.00007430,-0.00001057,-0.00001978,0.00001014,-0.00002140,0.0
 0000092,0.00004493,-0.00000734,0.00000621,-0.00000253,-0.00000967,-0.0
 0004062,0.00001841,-0.00000230,0.00000088,-0.00003458,-0.00001735,0.00
 001828,0.00000045,0.00001048,-0.00002611,0.00000936,0.00004338,-0.0000
 3932,0.00005889,0.00000865,0.00001435,-0.00000239,-0.00001978,0.000007
 52,0.00004401,-0.00008643,0.00003670,-0.00001836,-0.00001333,-0.000036
 06,0.00001216,0.00009899,-0.00003101,0.00001698,-0.00002912,-0.0000239
 1,-0.00004778,-0.00001694,0.00004031,0.00005258,-0.00007085,-0.0000212
 0,-0.00002374,0.00004093,0.00001140,0.00002819,-0.00002486,-0.00002221
 ,0.00000281,-0.00004010,-0.00000944,0.00001905,0.00000641,0.00001966,0
 .00002058,-0.00000825,-0.00001299,0.00000358,-0.00005465,0.00000853,0.
 00000318,0.00001704,0.00008934,-0.00002515,0.00007045,-0.00004522,0.00
 004031,-0.00000182,0.00002280,-0.00008553,0.00001884,-0.00001236,0.000
 00145,-0.00000167,0.00000876,-0.00003312,-0.00001019,-0.00000159,-0.00
 000591,0.00001634,0.00000110,0.00001983,0.00001481,-0.00002177,-0.0000
 3138,0.00000608,0.00000553,-0.00000086,0.00001309,0.00000092,0.0000092
 4,0.00000863,-0.00006359,-0.00001872,-0.00003488,0.00001146,-0.0000029
 7,-0.00000360,0.00004644,0.00001931,0.00001800,0.00001071,-0.00000266,
 0.00000544,-0.00004743,0.00000263,-0.00008831\\\@


 THE HURRIEDER I GO, THE BEHINDER I GET.
 Job cpu time:       0 days  0 hours  0 minutes 27.1 seconds.
 Elapsed time:       0 days  0 hours  0 minutes  2.3 seconds.
 File lengths (MBytes):  RWF=    873 Int=      0 D2E=      0 Chk=      8 Scr=      1
 Normal termination of Gaussian 16 at Mon Jun 28 19:27:37 2021.
