 Entering Gaussian System, Link 0=g09
 Initial command:
 /share/apps//g09/l1.exe "/scratch/Gau-21175.inp" -scrdir="/scratch/"
 Entering Link 1 = /share/apps//g09/l1.exe PID=     21176.
  
 Copyright (c) 1988,1990,1992,1993,1995,1998,2003,2009,2013,
            Gaussian, Inc.  All Rights Reserved.
  
 This is part of the Gaussian(R) 09 program.  It is based on
 the Gaussian(R) 03 system (copyright 2003, Gaussian, Inc.),
 the Gaussian(R) 98 system (copyright 1998, Gaussian, Inc.),
 the Gaussian(R) 94 system (copyright 1995, Gaussian, Inc.),
 the Gaussian 92(TM) system (copyright 1992, Gaussian, Inc.),
 the Gaussian 90(TM) system (copyright 1990, Gaussian, Inc.),
 the Gaussian 88(TM) system (copyright 1988, Gaussian, Inc.),
 the Gaussian 86(TM) system (copyright 1986, Carnegie Mellon
 University), and the Gaussian 82(TM) system (copyright 1983,
 Carnegie Mellon University). Gaussian is a federally registered
 trademark of Gaussian, Inc.
  
 This software contains proprietary and confidential information,
 including trade secrets, belonging to Gaussian, Inc.
  
 This software is provided under written license and may be
 used, copied, transmitted, or stored only in accord with that
 written license.
  
 The following legend is applicable only to US Government
 contracts under FAR:
  
                    RESTRICTED RIGHTS LEGEND
  
 Use, reproduction and disclosure by the US Government is
 subject to restrictions as set forth in subparagraphs (a)
 and (c) of the Commercial Computer Software - Restricted
 Rights clause in FAR 52.227-19.
  
 Gaussian, Inc.
 340 Quinnipiac St., Bldg. 40, Wallingford CT 06492
  
  
 ---------------------------------------------------------------
 Warning -- This program may not be used in any manner that
 competes with the business of Gaussian, Inc. or will provide
 assistance to any competitor of Gaussian, Inc.  The licensee
 of this program is prohibited from giving any competitor of
 Gaussian, Inc. access to this program.  By using this program,
 the user acknowledges that Gaussian, Inc. is engaged in the
 business of creating and licensing software in the field of
 computational chemistry and represents and warrants to the
 licensee that it is not a competitor of Gaussian, Inc. and that
 it will not use this program in any manner prohibited above.
 ---------------------------------------------------------------
  

 Cite this work as:
 Gaussian 09, Revision D.01,
 M. J. Frisch, G. W. Trucks, H. B. Schlegel, G. E. Scuseria, 
 M. A. Robb, J. R. Cheeseman, G. Scalmani, V. Barone, B. Mennucci, 
 G. A. Petersson, H. Nakatsuji, M. Caricato, X. Li, H. P. Hratchian, 
 A. F. Izmaylov, J. Bloino, G. Zheng, J. L. Sonnenberg, M. Hada, 
 M. Ehara, K. Toyota, R. Fukuda, J. Hasegawa, M. Ishida, T. Nakajima, 
 Y. Honda, O. Kitao, H. Nakai, T. Vreven, J. A. Montgomery, Jr., 
 J. E. Peralta, F. Ogliaro, M. Bearpark, J. J. Heyd, E. Brothers, 
 K. N. Kudin, V. N. Staroverov, T. Keith, R. Kobayashi, J. Normand, 
 K. Raghavachari, A. Rendell, J. C. Burant, S. S. Iyengar, J. Tomasi, 
 M. Cossi, N. Rega, J. M. Millam, M. Klene, J. E. Knox, J. B. Cross, 
 V. Bakken, C. Adamo, J. Jaramillo, R. Gomperts, R. E. Stratmann, 
 O. Yazyev, A. J. Austin, R. Cammi, C. Pomelli, J. W. Ochterski, 
 R. L. Martin, K. Morokuma, V. G. Zakrzewski, G. A. Voth, 
 P. Salvador, J. J. Dannenberg, S. Dapprich, A. D. Daniels, 
 O. Farkas, J. B. Foresman, J. V. Ortiz, J. Cioslowski, 
 and D. J. Fox, Gaussian, Inc., Wallingford CT, 2013.
 
 ******************************************
 Gaussian 09:  EM64L-G09RevD.01 24-Apr-2013
                22-Mar-2016 
 ******************************************
 %nproc=20
 Will use up to   20 processors via shared memory.
 %mem=80GB
 %chk=Tri_A154_of.chk
 -------------------------------------------------------------------
 #P PBE1PBE/6-311+G(d,p) opt optcyc=999 freq EmpiricalDispersion=GD3
 -------------------------------------------------------------------
 1/6=999,14=-1,18=20,19=15,26=3,38=1/1,3;
 2/9=110,12=2,17=6,18=5,40=1/2;
 3/5=4,6=6,7=111,11=2,16=1,25=1,30=1,71=1,74=-13,124=31/1,2,3;
 4//1;
 5/5=2,38=5/2;
 6/7=2,8=2,9=2,10=2,28=1/1;
 7//1,2,3,16;
 1/6=999,14=-1,18=20,19=15,26=3/3(2);
 2/9=110/2;
 99//99;
 2/9=110/2;
 3/5=4,6=6,7=111,11=2,16=1,25=1,30=1,71=1,74=-13,124=31/1,2,3;
 4/5=5,16=3,69=1/1;
 5/5=2,38=5/2;
 7//1,2,3,16;
 1/6=999,14=-1,18=20,19=15,26=3/3(-5);
 2/9=110/2;
 6/7=2,8=2,9=2,10=2,19=2,28=1/1;
 99/9=1/99;
 Leave Link    1 at Tue Mar 22 23:35:02 2016, MaxMem= 10737418240 cpu:         1.7
 (Enter /share/apps//g09/l101.exe)
 -------
 disacch
 -------
 Symbolic Z-matrix:
 Charge =  1 Multiplicity = 1
 O                    -3.61034   1.29015   1.1925 
 C                    -2.34664   1.91892   1.32781 
 C                    -1.71803   2.25832  -0.01757 
 C                    -2.68079   2.83662  -1.02785 
 C                    -3.93644   1.99314  -1.10791 
 C                    -4.53863   1.87632   0.29149 
 C                    -5.78813   1.01268   0.3382 
 O                    -5.58336  -0.28687  -0.18397 
 O                    -3.59363   0.73898  -1.64614 
 O                    -2.06282   2.85858  -2.30437 
 O                    -0.65483   3.16366   0.12585 
 O                    -1.47831   0.98708   1.8431 
 C                    -1.54299   0.5541    3.19375 
 C                    -0.23513   0.93132   3.85774 
 O                    -0.13072   2.33063   3.89824 
 C                     0.89388   0.33846   3.03889 
 C                     0.71944  -1.15873   2.76238 
 O                    -0.60005  -1.50781   2.40718 
 C                    -1.63347  -0.97171   3.19614 
 C                    -2.93676  -1.56782   2.69361 
 O                    -3.20252  -1.33862   1.32347 
 O                     1.54734  -1.60596   1.73432 
 C                     1.38646  -0.99143   0.47134 
 C                     2.67628  -0.29764   0.07253 
 C                     2.53023   0.28608  -1.31655 
 C                     2.175    -0.8043   -2.30663 
 O                     1.05822  -1.53073  -1.87953 
 C                     1.05321  -2.06699  -0.56624 
 C                    -0.33605  -2.64532  -0.41065 
 O                    -1.30815  -1.6537   -0.67871 
 O                     1.79705  -0.19763  -3.49937 
 C                     1.95724  -1.00744  -4.67285 
 C                     0.91057  -0.62439  -5.70704 
 C                    -0.27124  -1.58281  -5.8232 
 C                    -1.13291  -1.80062  -4.58297 
 C                    -1.85256  -0.55791  -4.07501 
 N                    -1.13224   0.07395  -2.94096 
 O                     3.74883   0.90551  -1.63411 
 O                     2.99025   0.7269    0.98875 
 O                     2.10324   0.58526   3.69944 
 H                    -2.44779   2.80301   1.97203 
 H                    -1.36716   1.29567  -0.40818 
 H                    -2.95955   3.85367  -0.72956 
 H                    -4.66354   2.50638  -1.7506 
 H                    -4.81153   2.88129   0.64118 
 H                    -6.56036   1.47922  -0.27472 
 H                    -6.15546   0.96943   1.36665 
 H                    -5.13079  -0.83997   0.46362 
 H                    -4.29333   0.11929  -1.38006 
 H                    -1.33276   3.48128  -2.25783 
 H                    -0.07834   2.8638    0.83434 
 H                    -2.39095   1.00505   3.71615 
 H                    -0.22205   0.51142   4.87253 
 H                     0.75662   2.54076   4.20244 
 H                     0.88014   0.86724   2.08579 
 H                     1.03793  -1.72167   3.64714 
 H                    -1.53416  -1.30066   4.24239 
 H                    -2.89204  -2.64855   2.82636 
 H                    -3.75487  -1.18634   3.31472 
 H                    -3.2794   -0.37437   1.20034 
 H                     0.56063  -0.27429   0.48627 
 H                     3.482    -1.04497   0.06382 
 H                     1.70813   1.01692  -1.3026 
 H                     3.04202  -1.464    -2.46026 
 H                     1.79006  -2.87615  -0.4753 
 H                    -0.44767  -3.46356  -1.12797 
 H                    -0.4506   -3.0428    0.59627 
 H                    -1.92051  -1.5851    0.07618 
 H                     1.86097  -2.06143  -4.39821 
 H                     2.96774  -0.84446  -5.05396 
 H                     1.38979  -0.56997  -6.68603 
 H                     0.57904   0.39747  -5.49518 
 H                     0.10867  -2.55671  -6.14376 
 H                    -0.91527  -1.235    -6.6361 
 H                    -0.54425  -2.23122  -3.76831 
 H                    -1.88681  -2.54901  -4.8313 
 H                    -1.95675   0.19265  -4.8595 
 H                    -2.84895  -0.78569  -3.70497 
 H                    -1.19953  -0.53044  -2.09677 
 H                    -1.54083   0.9905   -2.71592 
 H                    -0.1331    0.16908  -3.15328 
 H                     3.6534    1.3944   -2.45336 
 H                     3.72788   1.21945   0.61679 
 H                     2.78681   0.59117   3.01967 
 
 NAtoms=     84 NQM=       84 NQMF=       0 NMMI=      0 NMMIF=      0
                NMic=       0 NMicF=      0.
                    Isotopes and Nuclear Properties:
 (Nuclear quadrupole moments (NQMom) in fm**2, nuclear magnetic moments (NMagM)
  in nuclear magnetons)

  Atom         1           2           3           4           5           6           7           8           9          10
 IAtWgt=          16          12          12          12          12          12          12          16          16          16
 AtmWgt=  15.9949146  12.0000000  12.0000000  12.0000000  12.0000000  12.0000000  12.0000000  15.9949146  15.9949146  15.9949146
 NucSpn=           0           0           0           0           0           0           0           0           0           0
 AtZEff=   0.0000000   0.0000000   0.0000000   0.0000000   0.0000000   0.0000000   0.0000000   0.0000000   0.0000000   0.0000000
 NQMom=    0.0000000   0.0000000   0.0000000   0.0000000   0.0000000   0.0000000   0.0000000   0.0000000   0.0000000   0.0000000
 NMagM=    0.0000000   0.0000000   0.0000000   0.0000000   0.0000000   0.0000000   0.0000000   0.0000000   0.0000000   0.0000000
 AtZNuc=   8.0000000   6.0000000   6.0000000   6.0000000   6.0000000   6.0000000   6.0000000   8.0000000   8.0000000   8.0000000

  Atom        11          12          13          14          15          16          17          18          19          20
 IAtWgt=          16          16          12          12          16          12          12          16          12          12
 AtmWgt=  15.9949146  15.9949146  12.0000000  12.0000000  15.9949146  12.0000000  12.0000000  15.9949146  12.0000000  12.0000000
 NucSpn=           0           0           0           0           0           0           0           0           0           0
 AtZEff=   0.0000000   0.0000000   0.0000000   0.0000000   0.0000000   0.0000000   0.0000000   0.0000000   0.0000000   0.0000000
 NQMom=    0.0000000   0.0000000   0.0000000   0.0000000   0.0000000   0.0000000   0.0000000   0.0000000   0.0000000   0.0000000
 NMagM=    0.0000000   0.0000000   0.0000000   0.0000000   0.0000000   0.0000000   0.0000000   0.0000000   0.0000000   0.0000000
 AtZNuc=   8.0000000   8.0000000   6.0000000   6.0000000   8.0000000   6.0000000   6.0000000   8.0000000   6.0000000   6.0000000

  Atom        21          22          23          24          25          26          27          28          29          30
 IAtWgt=          16          16          12          12          12          12          16          12          12          16
 AtmWgt=  15.9949146  15.9949146  12.0000000  12.0000000  12.0000000  12.0000000  15.9949146  12.0000000  12.0000000  15.9949146
 NucSpn=           0           0           0           0           0           0           0           0           0           0
 AtZEff=   0.0000000   0.0000000   0.0000000   0.0000000   0.0000000   0.0000000   0.0000000   0.0000000   0.0000000   0.0000000
 NQMom=    0.0000000   0.0000000   0.0000000   0.0000000   0.0000000   0.0000000   0.0000000   0.0000000   0.0000000   0.0000000
 NMagM=    0.0000000   0.0000000   0.0000000   0.0000000   0.0000000   0.0000000   0.0000000   0.0000000   0.0000000   0.0000000
 AtZNuc=   8.0000000   8.0000000   6.0000000   6.0000000   6.0000000   6.0000000   8.0000000   6.0000000   6.0000000   8.0000000

  Atom        31          32          33          34          35          36          37          38          39          40
 IAtWgt=          16          12          12          12          12          12          14          16          16          16
 AtmWgt=  15.9949146  12.0000000  12.0000000  12.0000000  12.0000000  12.0000000  14.0030740  15.9949146  15.9949146  15.9949146
 NucSpn=           0           0           0           0           0           0           2           0           0           0
 AtZEff=   0.0000000   0.0000000   0.0000000   0.0000000   0.0000000   0.0000000   0.0000000   0.0000000   0.0000000   0.0000000
 NQMom=    0.0000000   0.0000000   0.0000000   0.0000000   0.0000000   0.0000000   2.0440000   0.0000000   0.0000000   0.0000000
 NMagM=    0.0000000   0.0000000   0.0000000   0.0000000   0.0000000   0.0000000   0.4037610   0.0000000   0.0000000   0.0000000
 AtZNuc=   8.0000000   6.0000000   6.0000000   6.0000000   6.0000000   6.0000000   7.0000000   8.0000000   8.0000000   8.0000000

  Atom        41          42          43          44          45          46          47          48          49          50
 IAtWgt=           1           1           1           1           1           1           1           1           1           1
 AtmWgt=   1.0078250   1.0078250   1.0078250   1.0078250   1.0078250   1.0078250   1.0078250   1.0078250   1.0078250   1.0078250
 NucSpn=           1           1           1           1           1           1           1           1           1           1
 AtZEff=   0.0000000   0.0000000   0.0000000   0.0000000   0.0000000   0.0000000   0.0000000   0.0000000   0.0000000   0.0000000
 NQMom=    0.0000000   0.0000000   0.0000000   0.0000000   0.0000000   0.0000000   0.0000000   0.0000000   0.0000000   0.0000000
 NMagM=    2.7928460   2.7928460   2.7928460   2.7928460   2.7928460   2.7928460   2.7928460   2.7928460   2.7928460   2.7928460
 AtZNuc=   1.0000000   1.0000000   1.0000000   1.0000000   1.0000000   1.0000000   1.0000000   1.0000000   1.0000000   1.0000000

  Atom        51          52          53          54          55          56          57          58          59          60
 IAtWgt=           1           1           1           1           1           1           1           1           1           1
 AtmWgt=   1.0078250   1.0078250   1.0078250   1.0078250   1.0078250   1.0078250   1.0078250   1.0078250   1.0078250   1.0078250
 NucSpn=           1           1           1           1           1           1           1           1           1           1
 AtZEff=   0.0000000   0.0000000   0.0000000   0.0000000   0.0000000   0.0000000   0.0000000   0.0000000   0.0000000   0.0000000
 NQMom=    0.0000000   0.0000000   0.0000000   0.0000000   0.0000000   0.0000000   0.0000000   0.0000000   0.0000000   0.0000000
 NMagM=    2.7928460   2.7928460   2.7928460   2.7928460   2.7928460   2.7928460   2.7928460   2.7928460   2.7928460   2.7928460
 AtZNuc=   1.0000000   1.0000000   1.0000000   1.0000000   1.0000000   1.0000000   1.0000000   1.0000000   1.0000000   1.0000000

  Atom        61          62          63          64          65          66          67          68          69          70
 IAtWgt=           1           1           1           1           1           1           1           1           1           1
 AtmWgt=   1.0078250   1.0078250   1.0078250   1.0078250   1.0078250   1.0078250   1.0078250   1.0078250   1.0078250   1.0078250
 NucSpn=           1           1           1           1           1           1           1           1           1           1
 AtZEff=   0.0000000   0.0000000   0.0000000   0.0000000   0.0000000   0.0000000   0.0000000   0.0000000   0.0000000   0.0000000
 NQMom=    0.0000000   0.0000000   0.0000000   0.0000000   0.0000000   0.0000000   0.0000000   0.0000000   0.0000000   0.0000000
 NMagM=    2.7928460   2.7928460   2.7928460   2.7928460   2.7928460   2.7928460   2.7928460   2.7928460   2.7928460   2.7928460
 AtZNuc=   1.0000000   1.0000000   1.0000000   1.0000000   1.0000000   1.0000000   1.0000000   1.0000000   1.0000000   1.0000000

  Atom        71          72          73          74          75          76          77          78          79          80
 IAtWgt=           1           1           1           1           1           1           1           1           1           1
 AtmWgt=   1.0078250   1.0078250   1.0078250   1.0078250   1.0078250   1.0078250   1.0078250   1.0078250   1.0078250   1.0078250
 NucSpn=           1           1           1           1           1           1           1           1           1           1
 AtZEff=   0.0000000   0.0000000   0.0000000   0.0000000   0.0000000   0.0000000   0.0000000   0.0000000   0.0000000   0.0000000
 NQMom=    0.0000000   0.0000000   0.0000000   0.0000000   0.0000000   0.0000000   0.0000000   0.0000000   0.0000000   0.0000000
 NMagM=    2.7928460   2.7928460   2.7928460   2.7928460   2.7928460   2.7928460   2.7928460   2.7928460   2.7928460   2.7928460
 AtZNuc=   1.0000000   1.0000000   1.0000000   1.0000000   1.0000000   1.0000000   1.0000000   1.0000000   1.0000000   1.0000000

  Atom        81          82          83          84
 IAtWgt=           1           1           1           1
 AtmWgt=   1.0078250   1.0078250   1.0078250   1.0078250
 NucSpn=           1           1           1           1
 AtZEff=   0.0000000   0.0000000   0.0000000   0.0000000
 NQMom=    0.0000000   0.0000000   0.0000000   0.0000000
 NMagM=    2.7928460   2.7928460   2.7928460   2.7928460
 AtZNuc=   1.0000000   1.0000000   1.0000000   1.0000000
 Leave Link  101 at Tue Mar 22 23:35:02 2016, MaxMem= 10737418240 cpu:         5.5
 (Enter /share/apps//g09/l103.exe)

 GradGradGradGradGradGradGradGradGradGradGradGradGradGradGradGradGradGrad
 Berny optimization.
 Initialization pass.
                           ----------------------------
                           !    Initial Parameters    !
                           ! (Angstroms and Degrees)  !
 --------------------------                            --------------------------
 ! Name  Definition              Value          Derivative Info.                !
 --------------------------------------------------------------------------------
 ! R1    R(1,2)                  1.418          estimate D2E/DX2                !
 ! R2    R(1,6)                  1.4203         estimate D2E/DX2                !
 ! R3    R(2,3)                  1.5233         estimate D2E/DX2                !
 ! R4    R(2,12)                 1.374          estimate D2E/DX2                !
 ! R5    R(2,41)                 1.0986         estimate D2E/DX2                !
 ! R6    R(3,4)                  1.5106         estimate D2E/DX2                !
 ! R7    R(3,11)                 1.4038         estimate D2E/DX2                !
 ! R8    R(3,42)                 1.0965         estimate D2E/DX2                !
 ! R9    R(4,5)                  1.5148         estimate D2E/DX2                !
 ! R10   R(4,10)                 1.4184         estimate D2E/DX2                !
 ! R11   R(4,43)                 1.0959         estimate D2E/DX2                !
 ! R12   R(5,6)                  1.5279         estimate D2E/DX2                !
 ! R13   R(5,9)                  1.4072         estimate D2E/DX2                !
 ! R14   R(5,44)                 1.0978         estimate D2E/DX2                !
 ! R15   R(6,7)                  1.5196         estimate D2E/DX2                !
 ! R16   R(6,45)                 1.0985         estimate D2E/DX2                !
 ! R17   R(7,8)                  1.4154         estimate D2E/DX2                !
 ! R18   R(7,46)                 1.0907         estimate D2E/DX2                !
 ! R19   R(7,47)                 1.0929         estimate D2E/DX2                !
 ! R20   R(8,48)                 0.9644         estimate D2E/DX2                !
 ! R21   R(9,49)                 0.9718         estimate D2E/DX2                !
 ! R22   R(10,50)                0.9607         estimate D2E/DX2                !
 ! R23   R(11,51)                0.9614         estimate D2E/DX2                !
 ! R24   R(12,13)                1.4198         estimate D2E/DX2                !
 ! R25   R(13,14)                1.5145         estimate D2E/DX2                !
 ! R26   R(13,19)                1.5285         estimate D2E/DX2                !
 ! R27   R(13,52)                1.0933         estimate D2E/DX2                !
 ! R28   R(14,15)                1.4038         estimate D2E/DX2                !
 ! R29   R(14,16)                1.5155         estimate D2E/DX2                !
 ! R30   R(14,53)                1.0983         estimate D2E/DX2                !
 ! R31   R(15,54)                0.9613         estimate D2E/DX2                !
 ! R32   R(16,17)                1.5325         estimate D2E/DX2                !
 ! R33   R(16,40)                1.3999         estimate D2E/DX2                !
 ! R34   R(16,55)                1.09           estimate D2E/DX2                !
 ! R35   R(17,18)                1.4103         estimate D2E/DX2                !
 ! R36   R(17,22)                1.3937         estimate D2E/DX2                !
 ! R37   R(17,56)                1.096          estimate D2E/DX2                !
 ! R38   R(18,19)                1.4063         estimate D2E/DX2                !
 ! R39   R(19,20)                1.5187         estimate D2E/DX2                !
 ! R40   R(19,57)                1.1012         estimate D2E/DX2                !
 ! R41   R(20,21)                1.4144         estimate D2E/DX2                !
 ! R42   R(20,58)                1.0898         estimate D2E/DX2                !
 ! R43   R(20,59)                1.0957         estimate D2E/DX2                !
 ! R44   R(21,60)                0.9751         estimate D2E/DX2                !
 ! R45   R(22,23)                1.4137         estimate D2E/DX2                !
 ! R46   R(23,24)                1.5179         estimate D2E/DX2                !
 ! R47   R(23,28)                1.5312         estimate D2E/DX2                !
 ! R48   R(23,61)                1.0939         estimate D2E/DX2                !
 ! R49   R(24,25)                1.5138         estimate D2E/DX2                !
 ! R50   R(24,39)                1.4099         estimate D2E/DX2                !
 ! R51   R(24,62)                1.099          estimate D2E/DX2                !
 ! R52   R(25,26)                1.515          estimate D2E/DX2                !
 ! R53   R(25,38)                1.4034         estimate D2E/DX2                !
 ! R54   R(25,63)                1.1001         estimate D2E/DX2                !
 ! R55   R(26,27)                1.399          estimate D2E/DX2                !
 ! R56   R(26,31)                1.3905         estimate D2E/DX2                !
 ! R57   R(26,64)                1.1002         estimate D2E/DX2                !
 ! R58   R(27,28)                1.4186         estimate D2E/DX2                !
 ! R59   R(28,29)                1.5129         estimate D2E/DX2                !
 ! R60   R(28,65)                1.0982         estimate D2E/DX2                !
 ! R61   R(29,30)                1.4143         estimate D2E/DX2                !
 ! R62   R(29,66)                1.0939         estimate D2E/DX2                !
 ! R63   R(29,67)                1.0886         estimate D2E/DX2                !
 ! R64   R(30,68)                0.9744         estimate D2E/DX2                !
 ! R65   R(31,32)                1.4348         estimate D2E/DX2                !
 ! R66   R(32,33)                1.5205         estimate D2E/DX2                !
 ! R67   R(32,69)                1.0934         estimate D2E/DX2                !
 ! R68   R(32,70)                1.0922         estimate D2E/DX2                !
 ! R69   R(33,34)                1.526          estimate D2E/DX2                !
 ! R70   R(33,71)                1.0913         estimate D2E/DX2                !
 ! R71   R(33,72)                1.095          estimate D2E/DX2                !
 ! R72   R(34,35)                1.5258         estimate D2E/DX2                !
 ! R73   R(34,73)                1.0934         estimate D2E/DX2                !
 ! R74   R(34,74)                1.0939         estimate D2E/DX2                !
 ! R75   R(35,36)                1.5232         estimate D2E/DX2                !
 ! R76   R(35,75)                1.0934         estimate D2E/DX2                !
 ! R77   R(35,76)                1.0909         estimate D2E/DX2                !
 ! R78   R(36,37)                1.4846         estimate D2E/DX2                !
 ! R79   R(36,77)                1.0907         estimate D2E/DX2                !
 ! R80   R(36,78)                1.087          estimate D2E/DX2                !
 ! R81   R(37,79)                1.0404         estimate D2E/DX2                !
 ! R82   R(37,80)                1.0284         estimate D2E/DX2                !
 ! R83   R(37,81)                1.0259         estimate D2E/DX2                !
 ! R84   R(38,82)                0.9588         estimate D2E/DX2                !
 ! R85   R(39,83)                0.9618         estimate D2E/DX2                !
 ! R86   R(40,84)                0.964          estimate D2E/DX2                !
 ! A1    A(2,1,6)              117.3888         estimate D2E/DX2                !
 ! A2    A(1,2,3)              112.4759         estimate D2E/DX2                !
 ! A3    A(1,2,12)             107.3541         estimate D2E/DX2                !
 ! A4    A(1,2,41)             109.3149         estimate D2E/DX2                !
 ! A5    A(3,2,12)             102.7998         estimate D2E/DX2                !
 ! A6    A(3,2,41)             112.1242         estimate D2E/DX2                !
 ! A7    A(12,2,41)            112.585          estimate D2E/DX2                !
 ! A8    A(2,3,4)              114.3913         estimate D2E/DX2                !
 ! A9    A(2,3,11)             111.4696         estimate D2E/DX2                !
 ! A10   A(2,3,42)             104.5404         estimate D2E/DX2                !
 ! A11   A(4,3,11)             107.706          estimate D2E/DX2                !
 ! A12   A(4,3,42)             107.5643         estimate D2E/DX2                !
 ! A13   A(11,3,42)            111.1144         estimate D2E/DX2                !
 ! A14   A(3,4,5)              110.5167         estimate D2E/DX2                !
 ! A15   A(3,4,10)             109.2773         estimate D2E/DX2                !
 ! A16   A(3,4,43)             109.5936         estimate D2E/DX2                !
 ! A17   A(5,4,10)             108.7964         estimate D2E/DX2                !
 ! A18   A(5,4,43)             108.6807         estimate D2E/DX2                !
 ! A19   A(10,4,43)            109.9624         estimate D2E/DX2                !
 ! A20   A(4,5,6)              108.7154         estimate D2E/DX2                !
 ! A21   A(4,5,9)              108.3344         estimate D2E/DX2                !
 ! A22   A(4,5,44)             108.6412         estimate D2E/DX2                !
 ! A23   A(6,5,9)              112.2213         estimate D2E/DX2                !
 ! A24   A(6,5,44)             108.1133         estimate D2E/DX2                !
 ! A25   A(9,5,44)             110.7392         estimate D2E/DX2                !
 ! A26   A(1,6,5)              110.7925         estimate D2E/DX2                !
 ! A27   A(1,6,7)              106.4609         estimate D2E/DX2                !
 ! A28   A(1,6,45)             109.7552         estimate D2E/DX2                !
 ! A29   A(5,6,7)              113.3072         estimate D2E/DX2                !
 ! A30   A(5,6,45)             108.6336         estimate D2E/DX2                !
 ! A31   A(7,6,45)             107.8108         estimate D2E/DX2                !
 ! A32   A(6,7,8)              113.0479         estimate D2E/DX2                !
 ! A33   A(6,7,46)             108.7705         estimate D2E/DX2                !
 ! A34   A(6,7,47)             109.133          estimate D2E/DX2                !
 ! A35   A(8,7,46)             106.7286         estimate D2E/DX2                !
 ! A36   A(8,7,47)             111.0657         estimate D2E/DX2                !
 ! A37   A(46,7,47)            107.924          estimate D2E/DX2                !
 ! A38   A(7,8,48)             110.2871         estimate D2E/DX2                !
 ! A39   A(5,9,49)             106.7504         estimate D2E/DX2                !
 ! A40   A(4,10,50)            107.3091         estimate D2E/DX2                !
 ! A41   A(3,11,51)            109.1659         estimate D2E/DX2                !
 ! A42   A(2,12,13)            122.3296         estimate D2E/DX2                !
 ! A43   A(12,13,14)           107.5639         estimate D2E/DX2                !
 ! A44   A(12,13,19)           107.975          estimate D2E/DX2                !
 ! A45   A(12,13,52)           111.3516         estimate D2E/DX2                !
 ! A46   A(14,13,19)           107.4018         estimate D2E/DX2                !
 ! A47   A(14,13,52)           110.9503         estimate D2E/DX2                !
 ! A48   A(19,13,52)           111.4129         estimate D2E/DX2                !
 ! A49   A(13,14,15)           108.9752         estimate D2E/DX2                !
 ! A50   A(13,14,16)           107.9998         estimate D2E/DX2                !
 ! A51   A(13,14,53)           108.6717         estimate D2E/DX2                !
 ! A52   A(15,14,16)           110.4956         estimate D2E/DX2                !
 ! A53   A(15,14,53)           110.7048         estimate D2E/DX2                !
 ! A54   A(16,14,53)           109.9257         estimate D2E/DX2                !
 ! A55   A(14,15,54)           107.1985         estimate D2E/DX2                !
 ! A56   A(14,16,17)           113.2591         estimate D2E/DX2                !
 ! A57   A(14,16,40)           108.6422         estimate D2E/DX2                !
 ! A58   A(14,16,55)           105.8596         estimate D2E/DX2                !
 ! A59   A(17,16,40)           110.8369         estimate D2E/DX2                !
 ! A60   A(17,16,55)           108.3446         estimate D2E/DX2                !
 ! A61   A(40,16,55)           109.7512         estimate D2E/DX2                !
 ! A62   A(16,17,18)           113.1883         estimate D2E/DX2                !
 ! A63   A(16,17,22)           112.2712         estimate D2E/DX2                !
 ! A64   A(16,17,56)           108.8494         estimate D2E/DX2                !
 ! A65   A(18,17,22)           106.8916         estimate D2E/DX2                !
 ! A66   A(18,17,56)           110.369          estimate D2E/DX2                !
 ! A67   A(22,17,56)           104.9541         estimate D2E/DX2                !
 ! A68   A(17,18,19)           116.8621         estimate D2E/DX2                !
 ! A69   A(13,19,18)           109.6428         estimate D2E/DX2                !
 ! A70   A(13,19,20)           116.2384         estimate D2E/DX2                !
 ! A71   A(13,19,57)           107.1176         estimate D2E/DX2                !
 ! A72   A(18,19,20)           107.178          estimate D2E/DX2                !
 ! A73   A(18,19,57)           110.662          estimate D2E/DX2                !
 ! A74   A(20,19,57)           105.9332         estimate D2E/DX2                !
 ! A75   A(19,20,21)           114.7203         estimate D2E/DX2                !
 ! A76   A(19,20,58)           108.2844         estimate D2E/DX2                !
 ! A77   A(19,20,59)           108.4523         estimate D2E/DX2                !
 ! A78   A(21,20,58)           106.6439         estimate D2E/DX2                !
 ! A79   A(21,20,59)           110.6348         estimate D2E/DX2                !
 ! A80   A(58,20,59)           107.8697         estimate D2E/DX2                !
 ! A81   A(20,21,60)           107.3005         estimate D2E/DX2                !
 ! A82   A(17,22,23)           116.8661         estimate D2E/DX2                !
 ! A83   A(22,23,24)           109.6762         estimate D2E/DX2                !
 ! A84   A(22,23,28)           108.9538         estimate D2E/DX2                !
 ! A85   A(22,23,61)           111.0207         estimate D2E/DX2                !
 ! A86   A(24,23,28)           109.1455         estimate D2E/DX2                !
 ! A87   A(24,23,61)           110.2097         estimate D2E/DX2                !
 ! A88   A(28,23,61)           107.7861         estimate D2E/DX2                !
 ! A89   A(23,24,25)           109.5941         estimate D2E/DX2                !
 ! A90   A(23,24,39)           110.5265         estimate D2E/DX2                !
 ! A91   A(23,24,62)           108.3156         estimate D2E/DX2                !
 ! A92   A(25,24,39)           109.7304         estimate D2E/DX2                !
 ! A93   A(25,24,62)           109.0065         estimate D2E/DX2                !
 ! A94   A(39,24,62)           109.6363         estimate D2E/DX2                !
 ! A95   A(24,25,26)           110.1672         estimate D2E/DX2                !
 ! A96   A(24,25,38)           107.101          estimate D2E/DX2                !
 ! A97   A(24,25,63)           108.4597         estimate D2E/DX2                !
 ! A98   A(26,25,38)           111.9242         estimate D2E/DX2                !
 ! A99   A(26,25,63)           108.1316         estimate D2E/DX2                !
 ! A100  A(38,25,63)           111.0108         estimate D2E/DX2                !
 ! A101  A(25,26,27)           111.1835         estimate D2E/DX2                !
 ! A102  A(25,26,31)           108.0761         estimate D2E/DX2                !
 ! A103  A(25,26,64)           109.7558         estimate D2E/DX2                !
 ! A104  A(27,26,31)           105.7494         estimate D2E/DX2                !
 ! A105  A(27,26,64)           111.1209         estimate D2E/DX2                !
 ! A106  A(31,26,64)           110.8558         estimate D2E/DX2                !
 ! A107  A(26,27,28)           118.7985         estimate D2E/DX2                !
 ! A108  A(23,28,27)           111.1639         estimate D2E/DX2                !
 ! A109  A(23,28,29)           113.4971         estimate D2E/DX2                !
 ! A110  A(23,28,65)           108.3869         estimate D2E/DX2                !
 ! A111  A(27,28,29)           104.0618         estimate D2E/DX2                !
 ! A112  A(27,28,65)           110.6611         estimate D2E/DX2                !
 ! A113  A(29,28,65)           109.0249         estimate D2E/DX2                !
 ! A114  A(28,29,30)           110.1007         estimate D2E/DX2                !
 ! A115  A(28,29,66)           108.193          estimate D2E/DX2                !
 ! A116  A(28,29,67)           109.3506         estimate D2E/DX2                !
 ! A117  A(30,29,66)           109.272          estimate D2E/DX2                !
 ! A118  A(30,29,67)           111.0395         estimate D2E/DX2                !
 ! A119  A(66,29,67)           108.8268         estimate D2E/DX2                !
 ! A120  A(29,30,68)           109.5404         estimate D2E/DX2                !
 ! A121  A(26,31,32)           115.1486         estimate D2E/DX2                !
 ! A122  A(31,32,33)           109.7104         estimate D2E/DX2                !
 ! A123  A(31,32,69)           109.1961         estimate D2E/DX2                !
 ! A124  A(31,32,70)           107.7261         estimate D2E/DX2                !
 ! A125  A(33,32,69)           110.6757         estimate D2E/DX2                !
 ! A126  A(33,32,70)           111.2206         estimate D2E/DX2                !
 ! A127  A(69,32,70)           108.2364         estimate D2E/DX2                !
 ! A128  A(32,33,34)           115.2562         estimate D2E/DX2                !
 ! A129  A(32,33,71)           108.6896         estimate D2E/DX2                !
 ! A130  A(32,33,72)           108.1754         estimate D2E/DX2                !
 ! A131  A(34,33,71)           107.6438         estimate D2E/DX2                !
 ! A132  A(34,33,72)           111.4912         estimate D2E/DX2                !
 ! A133  A(71,33,72)           105.0687         estimate D2E/DX2                !
 ! A134  A(33,34,35)           117.7188         estimate D2E/DX2                !
 ! A135  A(33,34,73)           108.2182         estimate D2E/DX2                !
 ! A136  A(33,34,74)           108.2299         estimate D2E/DX2                !
 ! A137  A(35,34,73)           107.9008         estimate D2E/DX2                !
 ! A138  A(35,34,74)           108.4785         estimate D2E/DX2                !
 ! A139  A(73,34,74)           105.6586         estimate D2E/DX2                !
 ! A140  A(34,35,36)           114.9233         estimate D2E/DX2                !
 ! A141  A(34,35,75)           110.9644         estimate D2E/DX2                !
 ! A142  A(34,35,76)           107.6479         estimate D2E/DX2                !
 ! A143  A(36,35,75)           109.0972         estimate D2E/DX2                !
 ! A144  A(36,35,76)           108.0045         estimate D2E/DX2                !
 ! A145  A(75,35,76)           105.7524         estimate D2E/DX2                !
 ! A146  A(35,36,37)           111.8834         estimate D2E/DX2                !
 ! A147  A(35,36,77)           111.5118         estimate D2E/DX2                !
 ! A148  A(35,36,78)           112.0629         estimate D2E/DX2                !
 ! A149  A(37,36,77)           107.6306         estimate D2E/DX2                !
 ! A150  A(37,36,78)           105.8954         estimate D2E/DX2                !
 ! A151  A(77,36,78)           107.5468         estimate D2E/DX2                !
 ! A152  A(36,37,79)           109.9483         estimate D2E/DX2                !
 ! A153  A(36,37,80)           110.7129         estimate D2E/DX2                !
 ! A154  A(36,37,81)           110.7268         estimate D2E/DX2                !
 ! A155  A(79,37,80)           108.329          estimate D2E/DX2                !
 ! A156  A(79,37,81)           106.5463         estimate D2E/DX2                !
 ! A157  A(80,37,81)           110.4623         estimate D2E/DX2                !
 ! A158  A(25,38,82)           109.389          estimate D2E/DX2                !
 ! A159  A(24,39,83)           106.9547         estimate D2E/DX2                !
 ! A160  A(16,40,84)           106.3147         estimate D2E/DX2                !
 ! D1    D(6,1,2,3)            -47.1092         estimate D2E/DX2                !
 ! D2    D(6,1,2,12)          -159.4726         estimate D2E/DX2                !
 ! D3    D(6,1,2,41)            78.1227         estimate D2E/DX2                !
 ! D4    D(2,1,6,5)             56.2596         estimate D2E/DX2                !
 ! D5    D(2,1,6,7)            179.8676         estimate D2E/DX2                !
 ! D6    D(2,1,6,45)           -63.7085         estimate D2E/DX2                !
 ! D7    D(1,2,3,4)             42.5543         estimate D2E/DX2                !
 ! D8    D(1,2,3,11)           165.0457         estimate D2E/DX2                !
 ! D9    D(1,2,3,42)           -74.8279         estimate D2E/DX2                !
 ! D10   D(12,2,3,4)           157.7059         estimate D2E/DX2                !
 ! D11   D(12,2,3,11)          -79.8027         estimate D2E/DX2                !
 ! D12   D(12,2,3,42)           40.3237         estimate D2E/DX2                !
 ! D13   D(41,2,3,4)           -81.1289         estimate D2E/DX2                !
 ! D14   D(41,2,3,11)           41.3626         estimate D2E/DX2                !
 ! D15   D(41,2,3,42)          161.489          estimate D2E/DX2                !
 ! D16   D(1,2,12,13)          -72.3481         estimate D2E/DX2                !
 ! D17   D(3,2,12,13)          168.8534         estimate D2E/DX2                !
 ! D18   D(41,2,12,13)          48.0034         estimate D2E/DX2                !
 ! D19   D(2,3,4,5)            -48.5896         estimate D2E/DX2                !
 ! D20   D(2,3,4,10)          -168.2821         estimate D2E/DX2                !
 ! D21   D(2,3,4,43)            71.1601         estimate D2E/DX2                !
 ! D22   D(11,3,4,5)          -173.1047         estimate D2E/DX2                !
 ! D23   D(11,3,4,10)           67.2028         estimate D2E/DX2                !
 ! D24   D(11,3,4,43)          -53.355          estimate D2E/DX2                !
 ! D25   D(42,3,4,5)            67.0479         estimate D2E/DX2                !
 ! D26   D(42,3,4,10)          -52.6446         estimate D2E/DX2                !
 ! D27   D(42,3,4,43)         -173.2024         estimate D2E/DX2                !
 ! D28   D(2,3,11,51)           47.568          estimate D2E/DX2                !
 ! D29   D(4,3,11,51)          173.8235         estimate D2E/DX2                !
 ! D30   D(42,3,11,51)         -68.6044         estimate D2E/DX2                !
 ! D31   D(3,4,5,6)             55.4503         estimate D2E/DX2                !
 ! D32   D(3,4,5,9)            -66.7525         estimate D2E/DX2                !
 ! D33   D(3,4,5,44)           172.8833         estimate D2E/DX2                !
 ! D34   D(10,4,5,6)           175.432          estimate D2E/DX2                !
 ! D35   D(10,4,5,9)            53.2292         estimate D2E/DX2                !
 ! D36   D(10,4,5,44)          -67.135          estimate D2E/DX2                !
 ! D37   D(43,4,5,6)           -64.8475         estimate D2E/DX2                !
 ! D38   D(43,4,5,9)           172.9497         estimate D2E/DX2                !
 ! D39   D(43,4,5,44)           52.5855         estimate D2E/DX2                !
 ! D40   D(3,4,10,50)          -65.9813         estimate D2E/DX2                !
 ! D41   D(5,4,10,50)          173.2712         estimate D2E/DX2                !
 ! D42   D(43,4,10,50)          54.3509         estimate D2E/DX2                !
 ! D43   D(4,5,6,1)            -58.7446         estimate D2E/DX2                !
 ! D44   D(4,5,6,7)           -178.3234         estimate D2E/DX2                !
 ! D45   D(4,5,6,45)            61.8916         estimate D2E/DX2                !
 ! D46   D(9,5,6,1)             61.0683         estimate D2E/DX2                !
 ! D47   D(9,5,6,7)            -58.5105         estimate D2E/DX2                !
 ! D48   D(9,5,6,45)          -178.2955         estimate D2E/DX2                !
 ! D49   D(44,5,6,1)          -176.5131         estimate D2E/DX2                !
 ! D50   D(44,5,6,7)            63.9081         estimate D2E/DX2                !
 ! D51   D(44,5,6,45)          -55.8768         estimate D2E/DX2                !
 ! D52   D(4,5,9,49)           158.6861         estimate D2E/DX2                !
 ! D53   D(6,5,9,49)            38.6514         estimate D2E/DX2                !
 ! D54   D(44,5,9,49)          -82.2657         estimate D2E/DX2                !
 ! D55   D(1,6,7,8)            -66.6057         estimate D2E/DX2                !
 ! D56   D(1,6,7,46)           175.0367         estimate D2E/DX2                !
 ! D57   D(1,6,7,47)            57.5235         estimate D2E/DX2                !
 ! D58   D(5,6,7,8)             55.4228         estimate D2E/DX2                !
 ! D59   D(5,6,7,46)           -62.9348         estimate D2E/DX2                !
 ! D60   D(5,6,7,47)           179.552          estimate D2E/DX2                !
 ! D61   D(45,6,7,8)           175.6765         estimate D2E/DX2                !
 ! D62   D(45,6,7,46)           57.3189         estimate D2E/DX2                !
 ! D63   D(45,6,7,47)          -60.1943         estimate D2E/DX2                !
 ! D64   D(6,7,8,48)            78.3006         estimate D2E/DX2                !
 ! D65   D(46,7,8,48)         -162.16           estimate D2E/DX2                !
 ! D66   D(47,7,8,48)          -44.7639         estimate D2E/DX2                !
 ! D67   D(2,12,13,14)        -118.1345         estimate D2E/DX2                !
 ! D68   D(2,12,13,19)         126.2402         estimate D2E/DX2                !
 ! D69   D(2,12,13,52)           3.6291         estimate D2E/DX2                !
 ! D70   D(12,13,14,15)         65.2084         estimate D2E/DX2                !
 ! D71   D(12,13,14,16)        -54.8598         estimate D2E/DX2                !
 ! D72   D(12,13,14,53)       -174.0721         estimate D2E/DX2                !
 ! D73   D(19,13,14,15)       -178.7884         estimate D2E/DX2                !
 ! D74   D(19,13,14,16)         61.1434         estimate D2E/DX2                !
 ! D75   D(19,13,14,53)        -58.0689         estimate D2E/DX2                !
 ! D76   D(52,13,14,15)        -56.8048         estimate D2E/DX2                !
 ! D77   D(52,13,14,16)       -176.8729         estimate D2E/DX2                !
 ! D78   D(52,13,14,53)         63.9148         estimate D2E/DX2                !
 ! D79   D(12,13,19,18)         51.7482         estimate D2E/DX2                !
 ! D80   D(12,13,19,20)        -69.9564         estimate D2E/DX2                !
 ! D81   D(12,13,19,57)        171.8771         estimate D2E/DX2                !
 ! D82   D(14,13,19,18)        -63.9833         estimate D2E/DX2                !
 ! D83   D(14,13,19,20)        174.3122         estimate D2E/DX2                !
 ! D84   D(14,13,19,57)         56.1456         estimate D2E/DX2                !
 ! D85   D(52,13,19,18)        174.3218         estimate D2E/DX2                !
 ! D86   D(52,13,19,20)         52.6172         estimate D2E/DX2                !
 ! D87   D(52,13,19,57)        -65.5493         estimate D2E/DX2                !
 ! D88   D(13,14,15,54)       -171.8189         estimate D2E/DX2                !
 ! D89   D(16,14,15,54)        -53.3043         estimate D2E/DX2                !
 ! D90   D(53,14,15,54)         68.7171         estimate D2E/DX2                !
 ! D91   D(13,14,16,17)        -51.5969         estimate D2E/DX2                !
 ! D92   D(13,14,16,40)       -175.2125         estimate D2E/DX2                !
 ! D93   D(13,14,16,55)         66.9735         estimate D2E/DX2                !
 ! D94   D(15,14,16,17)       -170.7045         estimate D2E/DX2                !
 ! D95   D(15,14,16,40)         65.68           estimate D2E/DX2                !
 ! D96   D(15,14,16,55)        -52.134          estimate D2E/DX2                !
 ! D97   D(53,14,16,17)         66.817          estimate D2E/DX2                !
 ! D98   D(53,14,16,40)        -56.7985         estimate D2E/DX2                !
 ! D99   D(53,14,16,55)       -174.6126         estimate D2E/DX2                !
 ! D100  D(14,16,17,18)         42.8068         estimate D2E/DX2                !
 ! D101  D(14,16,17,22)        163.9388         estimate D2E/DX2                !
 ! D102  D(14,16,17,56)        -80.3101         estimate D2E/DX2                !
 ! D103  D(40,16,17,18)        165.2101         estimate D2E/DX2                !
 ! D104  D(40,16,17,22)        -73.658          estimate D2E/DX2                !
 ! D105  D(40,16,17,56)         42.0932         estimate D2E/DX2                !
 ! D106  D(55,16,17,18)        -74.3161         estimate D2E/DX2                !
 ! D107  D(55,16,17,22)         46.8158         estimate D2E/DX2                !
 ! D108  D(55,16,17,56)        162.567          estimate D2E/DX2                !
 ! D109  D(14,16,40,84)       -153.9567         estimate D2E/DX2                !
 ! D110  D(17,16,40,84)         80.9914         estimate D2E/DX2                !
 ! D111  D(55,16,40,84)        -38.6431         estimate D2E/DX2                !
 ! D112  D(16,17,18,19)        -46.167          estimate D2E/DX2                !
 ! D113  D(22,17,18,19)       -170.2896         estimate D2E/DX2                !
 ! D114  D(56,17,18,19)         76.1064         estimate D2E/DX2                !
 ! D115  D(16,17,22,23)        -59.2727         estimate D2E/DX2                !
 ! D116  D(18,17,22,23)         65.4109         estimate D2E/DX2                !
 ! D117  D(56,17,22,23)       -177.3557         estimate D2E/DX2                !
 ! D118  D(17,18,19,13)         57.2954         estimate D2E/DX2                !
 ! D119  D(17,18,19,20)       -175.7144         estimate D2E/DX2                !
 ! D120  D(17,18,19,57)        -60.6484         estimate D2E/DX2                !
 ! D121  D(13,19,20,21)         65.5645         estimate D2E/DX2                !
 ! D122  D(13,19,20,58)       -175.4753         estimate D2E/DX2                !
 ! D123  D(13,19,20,59)        -58.6716         estimate D2E/DX2                !
 ! D124  D(18,19,20,21)        -57.4353         estimate D2E/DX2                !
 ! D125  D(18,19,20,58)         61.5248         estimate D2E/DX2                !
 ! D126  D(18,19,20,59)        178.3285         estimate D2E/DX2                !
 ! D127  D(57,19,20,21)       -175.6214         estimate D2E/DX2                !
 ! D128  D(57,19,20,58)        -56.6613         estimate D2E/DX2                !
 ! D129  D(57,19,20,59)         60.1425         estimate D2E/DX2                !
 ! D130  D(19,20,21,60)        -62.306          estimate D2E/DX2                !
 ! D131  D(58,20,21,60)        177.8185         estimate D2E/DX2                !
 ! D132  D(59,20,21,60)         60.7663         estimate D2E/DX2                !
 ! D133  D(17,22,23,24)        118.4188         estimate D2E/DX2                !
 ! D134  D(17,22,23,28)       -122.1699         estimate D2E/DX2                !
 ! D135  D(17,22,23,61)         -3.6168         estimate D2E/DX2                !
 ! D136  D(22,23,24,25)        176.5074         estimate D2E/DX2                !
 ! D137  D(22,23,24,39)        -62.4338         estimate D2E/DX2                !
 ! D138  D(22,23,24,62)         57.693          estimate D2E/DX2                !
 ! D139  D(28,23,24,25)         57.2138         estimate D2E/DX2                !
 ! D140  D(28,23,24,39)        178.2726         estimate D2E/DX2                !
 ! D141  D(28,23,24,62)        -61.6006         estimate D2E/DX2                !
 ! D142  D(61,23,24,25)        -60.974          estimate D2E/DX2                !
 ! D143  D(61,23,24,39)         60.0848         estimate D2E/DX2                !
 ! D144  D(61,23,24,62)       -179.7884         estimate D2E/DX2                !
 ! D145  D(22,23,28,27)       -172.1478         estimate D2E/DX2                !
 ! D146  D(22,23,28,29)         70.9535         estimate D2E/DX2                !
 ! D147  D(22,23,28,65)        -50.3175         estimate D2E/DX2                !
 ! D148  D(24,23,28,27)        -52.407          estimate D2E/DX2                !
 ! D149  D(24,23,28,29)       -169.3056         estimate D2E/DX2                !
 ! D150  D(24,23,28,65)         69.4233         estimate D2E/DX2                !
 ! D151  D(61,23,28,27)         67.2898         estimate D2E/DX2                !
 ! D152  D(61,23,28,29)        -49.6089         estimate D2E/DX2                !
 ! D153  D(61,23,28,65)       -170.8799         estimate D2E/DX2                !
 ! D154  D(23,24,25,26)        -57.7334         estimate D2E/DX2                !
 ! D155  D(23,24,25,38)       -179.6824         estimate D2E/DX2                !
 ! D156  D(23,24,25,63)         60.4381         estimate D2E/DX2                !
 ! D157  D(39,24,25,26)       -179.2721         estimate D2E/DX2                !
 ! D158  D(39,24,25,38)         58.7789         estimate D2E/DX2                !
 ! D159  D(39,24,25,63)        -61.1006         estimate D2E/DX2                !
 ! D160  D(62,24,25,26)         60.653          estimate D2E/DX2                !
 ! D161  D(62,24,25,38)        -61.2959         estimate D2E/DX2                !
 ! D162  D(62,24,25,63)        178.8245         estimate D2E/DX2                !
 ! D163  D(23,24,39,83)       -171.1401         estimate D2E/DX2                !
 ! D164  D(25,24,39,83)        -50.1623         estimate D2E/DX2                !
 ! D165  D(62,24,39,83)         69.5283         estimate D2E/DX2                !
 ! D166  D(24,25,26,27)         52.9043         estimate D2E/DX2                !
 ! D167  D(24,25,26,31)        168.5436         estimate D2E/DX2                !
 ! D168  D(24,25,26,64)        -70.4493         estimate D2E/DX2                !
 ! D169  D(38,25,26,27)        171.9502         estimate D2E/DX2                !
 ! D170  D(38,25,26,31)        -72.4105         estimate D2E/DX2                !
 ! D171  D(38,25,26,64)         48.5966         estimate D2E/DX2                !
 ! D172  D(63,25,26,27)        -65.4688         estimate D2E/DX2                !
 ! D173  D(63,25,26,31)         50.1704         estimate D2E/DX2                !
 ! D174  D(63,25,26,64)        171.1775         estimate D2E/DX2                !
 ! D175  D(24,25,38,82)       -171.9305         estimate D2E/DX2                !
 ! D176  D(26,25,38,82)         67.2284         estimate D2E/DX2                !
 ! D177  D(63,25,38,82)        -53.6984         estimate D2E/DX2                !
 ! D178  D(25,26,27,28)        -51.7219         estimate D2E/DX2                !
 ! D179  D(31,26,27,28)       -168.7894         estimate D2E/DX2                !
 ! D180  D(64,26,27,28)         70.8472         estimate D2E/DX2                !
 ! D181  D(25,26,31,32)        155.4394         estimate D2E/DX2                !
 ! D182  D(27,26,31,32)        -85.4176         estimate D2E/DX2                !
 ! D183  D(64,26,31,32)         35.1189         estimate D2E/DX2                !
 ! D184  D(26,27,28,23)         51.7866         estimate D2E/DX2                !
 ! D185  D(26,27,28,29)        174.3151         estimate D2E/DX2                !
 ! D186  D(26,27,28,65)        -68.7101         estimate D2E/DX2                !
 ! D187  D(23,28,29,30)         65.9113         estimate D2E/DX2                !
 ! D188  D(23,28,29,66)       -174.7332         estimate D2E/DX2                !
 ! D189  D(23,28,29,67)        -56.3449         estimate D2E/DX2                !
 ! D190  D(27,28,29,30)        -55.0686         estimate D2E/DX2                !
 ! D191  D(27,28,29,66)         64.2869         estimate D2E/DX2                !
 ! D192  D(27,28,29,67)       -177.3248         estimate D2E/DX2                !
 ! D193  D(65,28,29,30)       -173.1758         estimate D2E/DX2                !
 ! D194  D(65,28,29,66)        -53.8203         estimate D2E/DX2                !
 ! D195  D(65,28,29,67)         64.5679         estimate D2E/DX2                !
 ! D196  D(28,29,30,68)       -125.577          estimate D2E/DX2                !
 ! D197  D(66,29,30,68)        115.7269         estimate D2E/DX2                !
 ! D198  D(67,29,30,68)         -4.3245         estimate D2E/DX2                !
 ! D199  D(26,31,32,33)        149.884          estimate D2E/DX2                !
 ! D200  D(26,31,32,69)         28.4266         estimate D2E/DX2                !
 ! D201  D(26,31,32,70)        -88.9068         estimate D2E/DX2                !
 ! D202  D(31,32,33,34)       -102.6448         estimate D2E/DX2                !
 ! D203  D(31,32,33,71)        136.4661         estimate D2E/DX2                !
 ! D204  D(31,32,33,72)         22.8929         estimate D2E/DX2                !
 ! D205  D(69,32,33,34)         17.9199         estimate D2E/DX2                !
 ! D206  D(69,32,33,71)       -102.9692         estimate D2E/DX2                !
 ! D207  D(69,32,33,72)        143.4575         estimate D2E/DX2                !
 ! D208  D(70,32,33,34)        138.2741         estimate D2E/DX2                !
 ! D209  D(70,32,33,71)         17.385          estimate D2E/DX2                !
 ! D210  D(70,32,33,72)        -96.1883         estimate D2E/DX2                !
 ! D211  D(32,33,34,35)         60.1461         estimate D2E/DX2                !
 ! D212  D(32,33,34,73)        -62.4339         estimate D2E/DX2                !
 ! D213  D(32,33,34,74)       -176.486          estimate D2E/DX2                !
 ! D214  D(71,33,34,35)       -178.3976         estimate D2E/DX2                !
 ! D215  D(71,33,34,73)         59.0225         estimate D2E/DX2                !
 ! D216  D(71,33,34,74)        -55.0297         estimate D2E/DX2                !
 ! D217  D(72,33,34,35)        -63.6623         estimate D2E/DX2                !
 ! D218  D(72,33,34,73)        173.7578         estimate D2E/DX2                !
 ! D219  D(72,33,34,74)         59.7056         estimate D2E/DX2                !
 ! D220  D(33,34,35,36)         62.7247         estimate D2E/DX2                !
 ! D221  D(33,34,35,75)        -61.635          estimate D2E/DX2                !
 ! D222  D(33,34,35,76)       -176.911          estimate D2E/DX2                !
 ! D223  D(73,34,35,36)       -174.5339         estimate D2E/DX2                !
 ! D224  D(73,34,35,75)         61.1064         estimate D2E/DX2                !
 ! D225  D(73,34,35,76)        -54.1696         estimate D2E/DX2                !
 ! D226  D(74,34,35,36)        -60.5177         estimate D2E/DX2                !
 ! D227  D(74,34,35,75)        175.1226         estimate D2E/DX2                !
 ! D228  D(74,34,35,76)         59.8466         estimate D2E/DX2                !
 ! D229  D(34,35,36,37)        -98.8226         estimate D2E/DX2                !
 ! D230  D(34,35,36,77)         21.7846         estimate D2E/DX2                !
 ! D231  D(34,35,36,78)        142.4093         estimate D2E/DX2                !
 ! D232  D(75,35,36,37)         26.5148         estimate D2E/DX2                !
 ! D233  D(75,35,36,77)        147.122          estimate D2E/DX2                !
 ! D234  D(75,35,36,78)        -92.2533         estimate D2E/DX2                !
 ! D235  D(76,35,36,37)        141.0095         estimate D2E/DX2                !
 ! D236  D(76,35,36,77)        -98.3832         estimate D2E/DX2                !
 ! D237  D(76,35,36,78)         22.2414         estimate D2E/DX2                !
 ! D238  D(35,36,37,79)        -69.8867         estimate D2E/DX2                !
 ! D239  D(35,36,37,80)        170.4499         estimate D2E/DX2                !
 ! D240  D(35,36,37,81)         47.5826         estimate D2E/DX2                !
 ! D241  D(77,36,37,79)        167.2734         estimate D2E/DX2                !
 ! D242  D(77,36,37,80)         47.61           estimate D2E/DX2                !
 ! D243  D(77,36,37,81)        -75.2573         estimate D2E/DX2                !
 ! D244  D(78,36,37,79)         52.4753         estimate D2E/DX2                !
 ! D245  D(78,36,37,80)        -67.1881         estimate D2E/DX2                !
 ! D246  D(78,36,37,81)        169.9446         estimate D2E/DX2                !
 --------------------------------------------------------------------------------
 Trust Radius=3.00D-01 FncErr=1.00D-07 GrdErr=1.00D-06
 Number of steps in this run=    504 maximum allowed number of steps=    504.
 GradGradGradGradGradGradGradGradGradGradGradGradGradGradGradGradGradGrad

 Leave Link  103 at Tue Mar 22 23:35:03 2016, MaxMem= 10737418240 cpu:         0.4
 (Enter /share/apps//g09/l202.exe)
 Stoichiometry    C23H44NO16(1+)
 Framework group  C1[X(C23H44NO16)]
 Deg. of freedom   246
 Full point group                 C1      NOp   1
 Largest Abelian subgroup         C1      NOp   1
 Largest concise Abelian subgroup C1      NOp   1
                         Standard orientation:                         
 ---------------------------------------------------------------------
 Center     Atomic      Atomic             Coordinates (Angstroms)
 Number     Number       Type             X           Y           Z
 ---------------------------------------------------------------------
      1          8           0       -2.757485    2.072513    0.348667
      2          6           0       -2.460246    0.993534    1.219330
      3          6           0       -1.076138    1.113606    1.844003
      4          6           0       -0.721168    2.505640    2.311165
      5          6           0       -1.019645    3.521439    1.227842
      6          6           0       -2.485311    3.384990    0.818200
      7          6           0       -2.888446    4.333935   -0.298175
      8          8           0       -2.075805    4.210901   -1.450520
      9          8           0       -0.142671    3.291480    0.151663
     10          8           0        0.662667    2.557961    2.617982
     11          8           0       -0.928922    0.245773    2.937528
     12          8           0       -2.348627   -0.137426    0.447114
     13          6           0       -3.475227   -0.766837   -0.144937
     14          6           0       -3.572265   -2.164687    0.429758
     15          8           0       -3.848673   -2.075395    1.803161
     16          6           0       -2.244892   -2.858807    0.199671
     17          6           0       -1.771229   -2.791661   -1.256214
     18          8           0       -1.956363   -1.522357   -1.842448
     19          6           0       -3.204676   -0.906173   -1.642828
     20          6           0       -3.202877    0.381854   -2.447461
     21          8           0       -2.159929    1.280448   -2.123066
     22          8           0       -0.419478   -3.104784   -1.386849
     23          6           0        0.495776   -2.292609   -0.678803
     24          6           0        1.260459   -3.138292    0.323250
     25          6           0        2.299234   -2.285199    1.019514
     26          6           0        3.239090   -1.672011    0.001650
     27          8           0        2.530781   -0.995506   -0.997325
     28          6           0        1.483829   -1.674591   -1.671910
     29          6           0        0.866489   -0.612996   -2.555441
     30          8           0        0.480636    0.503025   -1.777137
     31          8           0        4.000666   -0.703438    0.646160
     32          6           0        5.266538   -0.416607    0.034766
     33          6           0        5.646242    1.032098    0.297205
     34          6           0        5.434793    1.983578   -0.876981
     35          6           0        4.017834    2.133418   -1.422749
     36          6           0        3.007404    2.705560   -0.436883
     37          7           0        2.191992    1.640948    0.200206
     38          8           0        2.976997   -3.116701    1.924370
     39          8           0        0.381188   -3.690609    1.276953
     40          8           0       -2.354717   -4.187441    0.626822
     41          1           0       -3.250651    0.910259    1.977743
     42          1           0       -0.384981    0.849896    1.034596
     43          1           0       -1.311214    2.756664    3.199933
     44          1           0       -0.872924    4.528031    1.640620
     45          1           0       -3.115543    3.605404    1.690523
     46          1           0       -2.777801    5.359611    0.055968
     47          1           0       -3.941875    4.173881   -0.541443
     48          1           0       -2.337001    3.436642   -1.962781
     49          1           0       -0.551510    3.692583   -0.633423
     50          1           0        0.809197    1.986209    3.375965
     51          1           0       -1.241967   -0.629010    2.690602
     52          1           0       -4.391929   -0.201892    0.044236
     53          1           0       -4.372819   -2.705045   -0.093130
     54          1           0       -3.776568   -2.962694    2.165883
     55          1           0       -1.521083   -2.330872    0.820623
     56          1           0       -2.296660   -3.559601   -1.835289
     57          1           0       -4.014298   -1.523584   -2.062382
     58          1           0       -3.079550    0.127352   -3.499895
     59          1           0       -4.179289    0.865147   -2.330596
     60          1           0       -2.281781    1.542053   -1.191634
     61          1           0       -0.019715   -1.474529   -0.167411
     62          1           0        1.767983   -3.945948   -0.222527
     63          1           0        1.783413   -1.467978    1.545108
     64          1           0        3.882511   -2.453845   -0.428786
     65          1           0        1.886713   -2.476843   -2.304393
     66          1           0        1.616002   -0.300325   -3.288238
     67          1           0        0.013270   -1.034816   -3.083727
     68          1           0       -0.460788    0.699817   -1.933799
     69          1           0        5.198930   -0.609487   -1.039392
     70          1           0        6.003707   -1.101640    0.459302
     71          1           0        6.702137    1.072952    0.570065
     72          1           0        5.108440    1.369944    1.189182
     73          1           0        6.079191    1.660468   -1.699126
     74          1           0        5.800709    2.972569   -0.586198
     75          1           0        3.643418    1.180277   -1.806082
     76          1           0        4.064067    2.801400   -2.284017
     77          1           0        3.498734    3.266324    0.359206
     78          1           0        2.299282    3.374126   -0.919778
     79          1           0        1.544434    1.223501   -0.498992
     80          1           0        1.630906    2.025140    0.971718
     81          1           0        2.789764    0.878167    0.536726
     82          1           0        3.556100   -2.584823    2.473038
     83          1           0        0.925406   -4.094085    1.959662
     84          1           0       -1.463850   -4.470664    0.862473
 ---------------------------------------------------------------------
 Rotational constants (GHZ):      0.1105682      0.0903238      0.0657940
 Leave Link  202 at Tue Mar 22 23:35:03 2016, MaxMem= 10737418240 cpu:         0.9
 (Enter /share/apps//g09/l301.exe)
 Standard basis: 6-311+G(d,p) (5D, 7F)
 Ernie: Thresh=  0.10000D-02 Tol=  0.10000D-05 Strict=F.
 There are  1184 symmetry adapted cartesian basis functions of A   symmetry.
 There are  1144 symmetry adapted basis functions of A   symmetry.
  1144 basis functions,  1792 primitive gaussians,  1184 cartesian basis functions
   158 alpha electrons      158 beta electrons
       nuclear repulsion energy      6131.8440230500 Hartrees.
 IExCor= 1009 DFT=T Ex+Corr=PBE1PBE ExCW=0 ScaHFX=  0.250000
 ScaDFX=  0.750000  0.750000  1.000000  1.000000 ScalE2=  1.000000  1.000000
 IRadAn=      0 IRanWt=     -1 IRanGd=            0 ICorTp=0 IEmpDi=131
 NAtoms=   84 NActive=   84 NUniq=   84 SFac= 1.00D+00 NAtFMM=   60 NAOKFM=T Big=T
 Integral buffers will be    131072 words long.
 Raffenetti 2 integral format.
 Two-electron integral symmetry is turned on.
 R6Disp:  Grimme-D3 Dispersion energy=       -0.0903720494 Hartrees.
 Nuclear repulsion after empirical dispersion term =     6131.7536510006 Hartrees.
 Leave Link  301 at Tue Mar 22 23:35:03 2016, MaxMem= 10737418240 cpu:         1.8
 (Enter /share/apps//g09/l302.exe)
 NPDir=0 NMtPBC=     1 NCelOv=     1 NCel=       1 NClECP=     1 NCelD=      1
         NCelK=      1 NCelE2=     1 NClLst=     1 CellRange=     0.0.
 One-electron integrals computed using PRISM.
 NBasis=  1144 RedAO= T EigKep=  1.28D-06  NBF=  1144
 NBsUse=  1144 1.00D-06 EigRej= -1.00D+00 NBFU=  1144
 Precomputing XC quadrature grid using
 IXCGrd= 4 IRadAn=           0 IRanWt=          -1 IRanGd=           0 AccXCQ= 0.00D+00.
 Generated NRdTot=       0 NPtTot=           0 NUsed=           0 NTot=          32
 NSgBfM=  1111  1111  1111  1111  1114 MxSgAt=    84 MxSgA2=    84.
 Leave Link  302 at Tue Mar 22 23:35:05 2016, MaxMem= 10737418240 cpu:        32.0
 (Enter /share/apps//g09/l303.exe)
 DipDrv:  MaxL=1.
 Leave Link  303 at Tue Mar 22 23:35:08 2016, MaxMem= 10737418240 cpu:        29.3
 (Enter /share/apps//g09/l401.exe)
 ExpMin= 4.38D-02 ExpMax= 8.59D+03 ExpMxC= 1.30D+03 IAcc=2 IRadAn=         4 AccDes= 0.00D+00
 Harris functional with IExCor= 1009 and IRadAn=       4 diagonalized for initial guess.
 HarFok:  IExCor= 1009 AccDes= 0.00D+00 IRadAn=         4 IDoV= 1 UseB2=F ITyADJ=14
 ICtDFT=  3500011 ScaDFX=  1.000000  1.000000  1.000000  1.000000
 FoFCou: FMM=F IPFlag=           0 FMFlag=      100000 FMFlg1=        2001
         NFxFlg=           0 DoJE=T BraDBF=F KetDBF=T FulRan=T
         wScrn=  0.000000 ICntrl=     500 IOpCl=  0 I1Cent=   200000004 NGrid=           0
         NMat0=    1 NMatS0=      1 NMatT0=    0 NMatD0=    1 NMtDS0=    0 NMtDT0=    0
 Petite list used in FoFCou.
 Harris En= -2159.74350722903    
 JPrj=0 DoOrth=F DoCkMO=F.
 Leave Link  401 at Tue Mar 22 23:35:14 2016, MaxMem= 10737418240 cpu:       120.1
 (Enter /share/apps//g09/l502.exe)
 Closed shell SCF:
 Using DIIS extrapolation, IDIIS=  1040.
 Integral symmetry usage will be decided dynamically.
 IVT=     4256630 IEndB=     4256630 NGot= 10737418240 MDV= 10734581291
 LenX= 10734581291 LenY= 10733178251
 Requested convergence on RMS density matrix=1.00D-08 within 128 cycles.
 Requested convergence on MAX density matrix=1.00D-06.
 Requested convergence on             energy=1.00D-06.
 No special actions if energy rises.
 Fock matrices will be formed incrementally for  20 cycles.

 Cycle   1  Pass 1  IDiag  1:
 FoFJK:  IHMeth= 1 ICntrl=       0 DoSepK=F KAlg= 0 I1Cent=   0 FoldK=F
 IRaf= 810000000 NMat=   1 IRICut=       1 DoRegI=T DoRafI=F ISym2E= 0.
 FoFCou: FMM=T IPFlag=           0 FMFlag=      100000 FMFlg1=        2001
         NFxFlg=           0 DoJE=F BraDBF=F KetDBF=F FulRan=T
         wScrn=  0.000000 ICntrl=       0 IOpCl=  0 I1Cent=           0 NGrid=           0
         NMat0=    1 NMatS0=      1 NMatT0=    0 NMatD0=    1 NMtDS0=    0 NMtDT0=    0
 Symmetry not used in FoFCou.
 FMM levels:  10  Number of levels for PrismC:   9
 E= -2158.68504352987    
 DIIS: error= 1.27D-02 at cycle   1 NSaved=   1.
 NSaved= 1 IEnMin= 1 EnMin= -2158.68504352987     IErMin= 1 ErrMin= 1.27D-02
 ErrMax= 1.27D-02  0.00D+00 EMaxC= 1.00D-01 BMatC= 1.06D+00 BMatP= 1.06D+00
 IDIUse=3 WtCom= 8.73D-01 WtEn= 1.27D-01
 Coeff-Com:  0.100D+01
 Coeff-En:   0.100D+01
 Coeff:      0.100D+01
 Gap=     0.257 Goal=   None    Shift=    0.000
 GapD=    0.257 DampG=1.000 DampE=0.500 DampFc=0.5000 IDamp=-1.
 Damping current iteration by 5.00D-01
 RMSDP=1.20D-02 MaxDP=2.92D+00              OVMax= 1.40D-01

 Cycle   2  Pass 1  IDiag  1:
 RMSU=  6.01D-03    CP:  9.99D-01
 E= -2158.98508217138     Delta-E=       -0.300038641506 Rises=F Damp=T
 DIIS: error= 2.96D-03 at cycle   2 NSaved=   2.
 NSaved= 2 IEnMin= 2 EnMin= -2158.98508217138     IErMin= 2 ErrMin= 2.96D-03
 ErrMax= 2.96D-03  0.00D+00 EMaxC= 1.00D-01 BMatC= 8.08D-02 BMatP= 1.06D+00
 IDIUse=3 WtCom= 9.70D-01 WtEn= 2.96D-02
 Coeff-Com:  0.514D-01 0.949D+00
 Coeff-En:   0.142D+00 0.858D+00
 Coeff:      0.541D-01 0.946D+00
 Gap=     0.273 Goal=   None    Shift=    0.000
 RMSDP=4.65D-03 MaxDP=1.11D+00 DE=-3.00D-01 OVMax= 7.69D-02

 Cycle   3  Pass 1  IDiag  1:
 RMSU=  3.13D-03    CP:  9.26D-01  9.88D-01
 E= -2159.36739135217     Delta-E=       -0.382309180786 Rises=F Damp=F
 DIIS: error= 3.16D-03 at cycle   3 NSaved=   3.
 NSaved= 3 IEnMin= 3 EnMin= -2159.36739135217     IErMin= 2 ErrMin= 2.96D-03
 ErrMax= 3.16D-03  0.00D+00 EMaxC= 1.00D-01 BMatC= 4.42D-02 BMatP= 8.08D-02
 IDIUse=3 WtCom= 9.68D-01 WtEn= 3.16D-02
 Coeff-Com: -0.682D-01 0.408D+00 0.660D+00
 Coeff-En:   0.000D+00 0.000D+00 0.100D+01
 Coeff:     -0.661D-01 0.395D+00 0.671D+00
 Gap=     0.269 Goal=   None    Shift=    0.000
 RMSDP=1.63D-03 MaxDP=3.89D-01 DE=-3.82D-01 OVMax= 1.67D-02

 Cycle   4  Pass 1  IDiag  1:
 RMSU=  1.31D-03    CP:  9.42D-01  1.07D+00  9.05D-01
 E= -2159.39521505468     Delta-E=       -0.027823702516 Rises=F Damp=F
 DIIS: error= 1.07D-03 at cycle   4 NSaved=   4.
 NSaved= 4 IEnMin= 4 EnMin= -2159.39521505468     IErMin= 4 ErrMin= 1.07D-03
 ErrMax= 1.07D-03  0.00D+00 EMaxC= 1.00D-01 BMatC= 5.51D-03 BMatP= 4.42D-02
 IDIUse=3 WtCom= 9.89D-01 WtEn= 1.07D-02
 Coeff-Com: -0.355D-01 0.122D+00 0.335D+00 0.579D+00
 Coeff-En:   0.000D+00 0.000D+00 0.569D-01 0.943D+00
 Coeff:     -0.352D-01 0.121D+00 0.332D+00 0.583D+00
 Gap=     0.262 Goal=   None    Shift=    0.000
 RMSDP=1.36D-03 MaxDP=4.04D-01 DE=-2.78D-02 OVMax= 5.80D-03

 Cycle   5  Pass 1  IDiag  1:
 RMSU=  3.72D-04    CP:  9.17D-01  1.05D+00  8.74D-01  5.97D-01
 E= -2159.39981329202     Delta-E=       -0.004598237339 Rises=F Damp=F
 DIIS: error= 2.89D-04 at cycle   5 NSaved=   5.
 NSaved= 5 IEnMin= 5 EnMin= -2159.39981329202     IErMin= 5 ErrMin= 2.89D-04
 ErrMax= 2.89D-04  0.00D+00 EMaxC= 1.00D-01 BMatC= 2.89D-04 BMatP= 5.51D-03
 IDIUse=3 WtCom= 9.97D-01 WtEn= 2.89D-03
 Coeff-Com: -0.118D-01 0.274D-01 0.105D+00 0.262D+00 0.617D+00
 Coeff-En:   0.000D+00 0.000D+00 0.000D+00 0.000D+00 0.100D+01
 Coeff:     -0.117D-01 0.274D-01 0.104D+00 0.262D+00 0.619D+00
 Gap=     0.262 Goal=   None    Shift=    0.000
 RMSDP=2.17D-04 MaxDP=5.59D-02 DE=-4.60D-03 OVMax= 1.45D-03

 Cycle   6  Pass 1  IDiag  1:
 RMSU=  8.11D-05    CP:  9.21D-01  1.06D+00  8.94D-01  6.05D-01  7.20D-01
 E= -2159.40002149873     Delta-E=       -0.000208206704 Rises=F Damp=F
 DIIS: error= 7.10D-05 at cycle   6 NSaved=   6.
 NSaved= 6 IEnMin= 6 EnMin= -2159.40002149873     IErMin= 6 ErrMin= 7.10D-05
 ErrMax= 7.10D-05  0.00D+00 EMaxC= 1.00D-01 BMatC= 2.41D-05 BMatP= 2.89D-04
 IDIUse=1 WtCom= 1.00D+00 WtEn= 0.00D+00
 Coeff-Com: -0.395D-02 0.716D-02 0.342D-01 0.101D+00 0.313D+00 0.548D+00
 Coeff:     -0.395D-02 0.716D-02 0.342D-01 0.101D+00 0.313D+00 0.548D+00
 Gap=     0.262 Goal=   None    Shift=    0.000
 RMSDP=4.49D-05 MaxDP=1.54D-02 DE=-2.08D-04 OVMax= 4.54D-04

 Cycle   7  Pass 1  IDiag  1:
 RMSU=  1.99D-05    CP:  9.21D-01  1.06D+00  8.95D-01  6.21D-01  7.27D-01
                    CP:  7.29D-01
 E= -2159.40003792894     Delta-E=       -0.000016430218 Rises=F Damp=F
 DIIS: error= 2.38D-05 at cycle   7 NSaved=   7.
 NSaved= 7 IEnMin= 7 EnMin= -2159.40003792894     IErMin= 7 ErrMin= 2.38D-05
 ErrMax= 2.38D-05  0.00D+00 EMaxC= 1.00D-01 BMatC= 1.87D-06 BMatP= 2.41D-05
 IDIUse=1 WtCom= 1.00D+00 WtEn= 0.00D+00
 Coeff-Com: -0.106D-02 0.152D-02 0.945D-02 0.320D-01 0.113D+00 0.280D+00
 Coeff-Com:  0.566D+00
 Coeff:     -0.106D-02 0.152D-02 0.945D-02 0.320D-01 0.113D+00 0.280D+00
 Coeff:      0.566D+00
 Gap=     0.262 Goal=   None    Shift=    0.000
 RMSDP=1.23D-05 MaxDP=2.51D-03 DE=-1.64D-05 OVMax= 1.31D-04

 Cycle   8  Pass 1  IDiag  1:
 RMSU=  9.14D-06    CP:  9.21D-01  1.06D+00  8.94D-01  6.23D-01  7.36D-01
                    CP:  7.01D-01  7.98D-01
 E= -2159.40003918813     Delta-E=       -0.000001259185 Rises=F Damp=F
 DIIS: error= 5.81D-06 at cycle   8 NSaved=   8.
 NSaved= 8 IEnMin= 8 EnMin= -2159.40003918813     IErMin= 8 ErrMin= 5.81D-06
 ErrMax= 5.81D-06  0.00D+00 EMaxC= 1.00D-01 BMatC= 1.38D-07 BMatP= 1.87D-06
 IDIUse=1 WtCom= 1.00D+00 WtEn= 0.00D+00
 Coeff-Com: -0.886D-05-0.168D-03 0.242D-03 0.260D-02 0.127D-01 0.556D-01
 Coeff-Com:  0.252D+00 0.677D+00
 Coeff:     -0.886D-05-0.168D-03 0.242D-03 0.260D-02 0.127D-01 0.556D-01
 Coeff:      0.252D+00 0.677D+00
 Gap=     0.262 Goal=   None    Shift=    0.000
 RMSDP=3.77D-06 MaxDP=6.12D-04 DE=-1.26D-06 OVMax= 3.16D-05

 Cycle   9  Pass 1  IDiag  1:
 RMSU=  2.18D-06    CP:  9.21D-01  1.06D+00  8.94D-01  6.22D-01  7.38D-01
                    CP:  7.09D-01  8.52D-01  7.98D-01
 E= -2159.40003929263     Delta-E=       -0.000000104501 Rises=F Damp=F
 DIIS: error= 1.23D-06 at cycle   9 NSaved=   9.
 NSaved= 9 IEnMin= 9 EnMin= -2159.40003929263     IErMin= 9 ErrMin= 1.23D-06
 ErrMax= 1.23D-06  0.00D+00 EMaxC= 1.00D-01 BMatC= 1.23D-08 BMatP= 1.38D-07
 IDIUse=1 WtCom= 1.00D+00 WtEn= 0.00D+00
 Coeff-Com:  0.646D-04-0.175D-03-0.538D-03-0.964D-03-0.215D-02 0.551D-02
 Coeff-Com:  0.768D-01 0.315D+00 0.606D+00
 Coeff:      0.646D-04-0.175D-03-0.538D-03-0.964D-03-0.215D-02 0.551D-02
 Coeff:      0.768D-01 0.315D+00 0.606D+00
 Gap=     0.262 Goal=   None    Shift=    0.000
 RMSDP=8.34D-07 MaxDP=1.80D-04 DE=-1.05D-07 OVMax= 1.00D-05

 Cycle  10  Pass 1  IDiag  1:
 RMSU=  4.88D-07    CP:  9.21D-01  1.06D+00  8.94D-01  6.22D-01  7.38D-01
                    CP:  7.13D-01  8.54D-01  8.35D-01  8.33D-01
 E= -2159.40003930147     Delta-E=       -0.000000008840 Rises=F Damp=F
 DIIS: error= 5.49D-07 at cycle  10 NSaved=  10.
 NSaved=10 IEnMin=10 EnMin= -2159.40003930147     IErMin=10 ErrMin= 5.49D-07
 ErrMax= 5.49D-07  0.00D+00 EMaxC= 1.00D-01 BMatC= 1.31D-09 BMatP= 1.23D-08
 IDIUse=1 WtCom= 1.00D+00 WtEn= 0.00D+00
 Coeff-Com:  0.294D-04-0.676D-04-0.278D-03-0.633D-03-0.192D-02-0.143D-02
 Coeff-Com:  0.184D-01 0.104D+00 0.308D+00 0.574D+00
 Coeff:      0.294D-04-0.676D-04-0.278D-03-0.633D-03-0.192D-02-0.143D-02
 Coeff:      0.184D-01 0.104D+00 0.308D+00 0.574D+00
 Gap=     0.262 Goal=   None    Shift=    0.000
 RMSDP=2.61D-07 MaxDP=4.62D-05 DE=-8.84D-09 OVMax= 3.54D-06

 Cycle  11  Pass 1  IDiag  1:
 RMSU=  1.65D-07    CP:  9.21D-01  1.06D+00  8.94D-01  6.22D-01  7.38D-01
                    CP:  7.12D-01  8.58D-01  8.44D-01  8.12D-01  7.70D-01
 E= -2159.40003930246     Delta-E=       -0.000000000990 Rises=F Damp=F
 DIIS: error= 1.45D-07 at cycle  11 NSaved=  11.
 NSaved=11 IEnMin=11 EnMin= -2159.40003930246     IErMin=11 ErrMin= 1.45D-07
 ErrMax= 1.45D-07  0.00D+00 EMaxC= 1.00D-01 BMatC= 9.07D-11 BMatP= 1.31D-09
 IDIUse=1 WtCom= 1.00D+00 WtEn= 0.00D+00
 Coeff-Com:  0.716D-05-0.153D-04-0.832D-04-0.202D-03-0.671D-03-0.987D-03
 Coeff-Com:  0.235D-02 0.215D-01 0.896D-01 0.267D+00 0.621D+00
 Coeff:      0.716D-05-0.153D-04-0.832D-04-0.202D-03-0.671D-03-0.987D-03
 Coeff:      0.235D-02 0.215D-01 0.896D-01 0.267D+00 0.621D+00
 Gap=     0.262 Goal=   None    Shift=    0.000
 RMSDP=8.84D-08 MaxDP=1.82D-05 DE=-9.90D-10 OVMax= 9.02D-07

 Cycle  12  Pass 1  IDiag  1:
 RMSU=  5.24D-08    CP:  9.21D-01  1.06D+00  8.94D-01  6.22D-01  7.38D-01
                    CP:  7.12D-01  8.58D-01  8.47D-01  8.24D-01  7.81D-01
                    CP:  7.24D-01
 E= -2159.40003930255     Delta-E=       -0.000000000095 Rises=F Damp=F
 DIIS: error= 4.14D-08 at cycle  12 NSaved=  12.
 NSaved=12 IEnMin=12 EnMin= -2159.40003930255     IErMin=12 ErrMin= 4.14D-08
 ErrMax= 4.14D-08  0.00D+00 EMaxC= 1.00D-01 BMatC= 7.06D-12 BMatP= 9.07D-11
 IDIUse=1 WtCom= 1.00D+00 WtEn= 0.00D+00
 Coeff-Com:  0.441D-06-0.627D-06-0.133D-04-0.345D-04-0.130D-03-0.321D-03
 Coeff-Com: -0.686D-03-0.335D-03 0.114D-01 0.656D-01 0.273D+00 0.651D+00
 Coeff:      0.441D-06-0.627D-06-0.133D-04-0.345D-04-0.130D-03-0.321D-03
 Coeff:     -0.686D-03-0.335D-03 0.114D-01 0.656D-01 0.273D+00 0.651D+00
 Gap=     0.262 Goal=   None    Shift=    0.000
 RMSDP=3.09D-08 MaxDP=9.14D-06 DE=-9.46D-11 OVMax= 2.69D-07

 Cycle  13  Pass 1  IDiag  1:
 RMSU=  1.72D-08    CP:  9.21D-01  1.06D+00  8.94D-01  6.22D-01  7.38D-01
                    CP:  7.12D-01  8.58D-01  8.46D-01  8.30D-01  7.86D-01
                    CP:  7.28D-01  8.18D-01
 E= -2159.40003930263     Delta-E=       -0.000000000080 Rises=F Damp=F
 DIIS: error= 1.68D-08 at cycle  13 NSaved=  13.
 NSaved=13 IEnMin=13 EnMin= -2159.40003930263     IErMin=13 ErrMin= 1.68D-08
 ErrMax= 1.68D-08  0.00D+00 EMaxC= 1.00D-01 BMatC= 7.04D-13 BMatP= 7.06D-12
 IDIUse=1 WtCom= 1.00D+00 WtEn= 0.00D+00
 Coeff-Com: -0.356D-06 0.897D-06 0.134D-06-0.430D-06-0.867D-05-0.680D-04
 Coeff-Com: -0.488D-03-0.185D-02-0.175D-02 0.969D-02 0.798D-01 0.308D+00
 Coeff-Com:  0.607D+00
 Coeff:     -0.356D-06 0.897D-06 0.134D-06-0.430D-06-0.867D-05-0.680D-04
 Coeff:     -0.488D-03-0.185D-02-0.175D-02 0.969D-02 0.798D-01 0.308D+00
 Coeff:      0.607D+00
 Gap=     0.262 Goal=   None    Shift=    0.000
 RMSDP=9.54D-09 MaxDP=2.71D-06 DE=-8.00D-11 OVMax= 1.03D-07

 Cycle  14  Pass 1  IDiag  1:
 RMSU=  4.52D-09    CP:  9.21D-01  1.06D+00  8.94D-01  6.22D-01  7.38D-01
[...]
 0007290,-0.00016973,-0.00009936,0.00004062,0.00010264,-0.00001078,0.00
 011863,0.00037920,0.00087454,0.00019968,-0.00015978,-0.00020149,-0.000
 03962,0.00001884,0.00005343,-0.00000543,-0.00001390,0.00000074,0.00000
 511,0.00000616,-0.00000300,-0.00003865,-0.00003410,-0.00006822,0.00005
 420,0.00003597,0.00004878,-0.00084418,0.00112130,0.00062398,-0.2929345
 0,-0.21185561,0.13962580,0.00027096,-0.00004630,-0.00097047,-0.0000012
 4,0.00000556,-0.00000013,0.00000047,0.00001299,0.00000824,-0.00000347,
 -0.00000483,-0.00000452,0.00002086,0.00000626,0.00000929,-0.00000112,-
 0.00000713,0.00000251,0.00000089,0.00000132,0.00000572,0.00000097,0.00
 000659,-0.00000599,-0.00002460,-0.00001378,0.00000183,-0.00003936,-0.0
 0002400,0.00001133,-0.00006428,0.00005216,-0.00006646,-0.00050021,0.00
 001945,0.00022636,0.00000726,-0.00000288,-0.00000841,-0.00003553,0.000
 04451,0.00000089,-0.00001311,0.00001581,0.00012253,-0.00010213,-0.0003
 2170,0.00029181,0.00003007,-0.00001510,-0.00005732,0.00000362,0.000010
 49,-0.00001812,-0.00000282,0.00000496,0.00000241,0.00000904,-0.0000044
 7,-0.00000396,-0.00002073,-0.00004476,0.00001130,0.00028086,0.00014558
 ,0.00005166,0.00073841,0.00149785,0.00078052,-0.00056387,0.00004197,-0
 .00041086,0.00002685,0.00019988,0.00015192,-0.00002259,-0.00005819,-0.
 00007388,-0.00004473,0.00001283,0.00003696,0.00001245,-0.00000392,-0.0
 0000699,-0.00004526,-0.00001484,0.00001795,-0.00000730,0.00001998,0.00
 001589,-0.00002416,0.00001294,0.00003291,0.00001960,0.00000514,0.00003
 272,0.00000204,0.00001076,-0.00001571,-0.00000544,0.00000753,-0.000001
 05,0.00001436,-0.00000124,0.00000465,-0.00000943,-0.00001654,-0.000001
 18,0.00000726,0.00000593,0.00000732,0.00000062,0.00000142,0.00000713,0
 .00000609,0.00000529,0.00000652,-0.00003708,-0.00003220,0.00000631,-0.
 00003527,-0.00001087,-0.00002537,-0.00009262,-0.00002046,-0.00005697,-
 0.00032507,-0.00010925,-0.00033194,0.29991895,0.00004352,-0.00010218,0
 .00009423,-0.00014050,0.00019862,-0.00016402,0.00021659,0.00024061,0.0
 0008598,-0.00002644,-0.00001199,-0.00003645,0.00000727,0.00006395,0.,-
 0.00002977,0.00002131,-0.00004932,0.00000102,0.00002836,0.00001439,0.0
 0001568,-0.00004017,0.00000893,0.00000012,-0.00007209,-0.00000345,-0.0
 0003801,-0.00007395,0.00003481,-0.00036121,-0.00028758,-0.00001819,0.0
 0014220,-0.00020504,0.00018548,-0.00007699,-0.00002398,-0.00013593,-0.
 00010266,0.00057251,-0.00008819,-0.00002894,-0.00039854,0.00001701,0.0
 0063992,-0.00017326,-0.00026641,-0.00038359,-0.00021541,0.00008330,0.0
 0038220,0.00004187,-0.00005777,-0.00015048,0.00006810,0.00012510,-0.00
 003011,-0.00000149,-0.00006898,0.00007044,-0.00005423,0.00006197,0.000
 60776,0.00058141,-0.00037780,0.00092452,-0.00370877,-0.00367078,-0.026
 96276,-0.02134397,0.00874634,-0.00037965,0.00254360,-0.00004996,-0.000
 59994,-0.00056614,0.00008414,0.00015103,-0.00000319,0.00005786,-0.0014
 5911,-0.00005472,0.00057046,0.00004068,-0.00035565,-0.00037800,0.00012
 585,0.00006342,0.00006933,0.00024652,0.00009548,0.00057797,0.00010563,
 -0.00008711,-0.00012072,-0.00002966,0.00002581,0.00002813,0.00000037,-
 0.00001566,0.00000628,-0.00000475,0.00000915,-0.00000690,-0.00000853,-
 0.00000168,-0.00001320,0.00004530,-0.00004569,0.00000901,-0.00006082,-
 0.00199398,-0.00000941,-0.18873526,-0.16193592,0.07340092,0.00035088,-
 0.00020857,-0.00032907,0.00002857,-0.00001942,-0.00001332,-0.00004099,
 -0.00004930,-0.00003560,0.00001999,-0.00000864,0.00000681,-0.00000182,
 -0.00001007,0.00000398,0.00000725,-0.00000922,-0.00000207,0.00000535,-
 0.00000077,0.00000249,-0.00000687,-0.00000352,-0.00000081,-0.00002985,
 0.00001889,-0.00001625,0.00000107,0.00001585,-0.00001420,0.00005908,0.
 00003809,0.00001555,0.00027078,0.00031700,-0.00009124,0.00003970,-0.00
 000882,0.00001935,0.00009956,-0.00008678,-0.00007058,0.00004733,0.0001
 8757,-0.00005168,-0.00065221,0.00028117,0.00012072,-0.00000135,0.00005
 463,0.00001184,0.00000557,-0.00001742,-0.00001920,-0.00000591,-0.00000
 241,0.00000704,0.00001916,-0.00000288,0.00000648,-0.00003699,0.0000750
 6,-0.00002493,0.00011019,0.00021032,-0.00008760,-0.00010507,-0.0001878
 9,0.00072817,0.00025272,-0.00005441,0.00010951,0.00004786,-0.00008336,
 -0.00007060,0.00003836,-0.00002938,0.00005832,-0.00011770,-0.00004398,
 0.00003621,0.00001128,-0.00000719,-0.00000771,-0.00004515,-0.00000274,
 -0.00001408,-0.00001497,-0.00000125,0.00000775,-0.00001017,0.00001628,
 0.00000895,0.00001305,0.00000618,0.00002056,0.00000939,-0.00000221,-0.
 00000926,-0.00000227,-0.00000173,-0.00000552,0.00001222,0.00000176,0.0
 0000638,-0.00000677,-0.00001188,-0.00000028,0.00000512,-0.00000069,0.0
 0000074,-0.00000003,-0.00000003,0.00000840,0.00000126,0.00000587,0.000
 00055,-0.00003476,0.00003890,-0.00004389,-0.00001453,0.00008169,0.0000
 2143,-0.00008412,0.00003802,-0.00000710,0.00050420,0.00047758,0.000521
 97,0.21549807,0.18600617,-0.00003732,0.00003409,-0.00007822,0.00007693
 ,-0.00006139,0.00011741,-0.00007317,-0.00000991,-0.00001682,-0.0000613
 6,-0.00001543,0.00012423,-0.00001351,0.00002188,0.00000496,0.00002243,
 -0.00000982,0.00005299,-0.00001268,-0.00000006,-0.00000332,0.00001637,
 0.00001487,-0.00002932,0.00004697,0.00000058,-0.00005864,0.00013128,-0
 .00003112,-0.00012576,0.00013545,-0.00003827,-0.00015721,-0.00005015,0
 .00008247,-0.00012996,-0.00000140,-0.00001906,0.00012731,-0.00011334,0
 .00022157,-0.00015893,-0.00011497,-0.00015453,0.00001023,0.00031946,-0
 .00012861,0.00039239,-0.00015493,-0.00015889,-0.00001152,-0.00012415,-
 0.00003678,-0.00003592,0.00002320,-0.00001955,-0.00003523,0.00002414,-
 0.00001339,0.00005726,-0.00003023,0.00003216,-0.00006713,0.00054947,0.
 00053559,0.00025585,-0.00071432,-0.00382969,-0.00537353,-0.02403355,-0
 .01895071,0.00898014,-0.00564432,-0.00428538,-0.00013992,-0.00036097,-
 0.00087387,0.00005711,0.00111583,0.00127598,-0.00046538,-0.00146017,-0
 .00100027,0.00198173,0.00024296,-0.00041562,-0.00051753,-0.00007287,0.
 00016386,-0.00012060,0.00042200,0.00060174,0.00026987,-0.00000744,-0.0
 0023442,-0.00030789,-0.00001807,0.00001365,-0.00000226,-0.00003462,-0.
 00003331,0.00001544,0.00000948,0.00001580,0.00001283,-0.00002077,-0.00
 001831,-0.00004470,0.00011401,0.00003875,-0.00005069,0.00125163,0.0009
 5386,0.00179564,0.16829877,0.10511044,-0.11371013,-0.00006549,-0.00050
 381,-0.00111870,0.00000284,0.00000300,-0.00000733,-0.00000751,-0.00003
 014,0.00002296,0.00000816,-0.00000895,-0.00001403,0.00000051,-0.000002
 96,-0.00000068,-0.00000274,0.00000149,-0.00000353,-0.00000449,-0.00000
 011,0.00000041,0.00000609,0.00000319,-0.00000455,0.00001089,-0.0000131
 1,0.00001605,-0.00002221,-0.00002258,0.00003480,-0.00008230,0.00004073
 ,0.00003036,0.00004792,0.00004090,0.00018469,-0.00000587,0.00000246,-0
 .00000991,0.00008072,-0.00005820,-0.00002666,0.00014325,0.00004725,-0.
 00007389,-0.00022455,0.00024335,-0.00028616,0.00000814,0.00004900,0.00
 000310,-0.00000537,0.00001074,-0.00000026,-0.00000051,0.00000122,-0.00
 000378,-0.00000354,-0.00000066,-0.00000530,0.00001792,-0.00003726,0.00
 002222,0.00010956,0.00021826,-0.00002556,0.00052843,-0.00077438,-0.000
 05275,0.00038845,0.00023048,-0.00019930,0.00004204,-0.00000541,0.00004
 400,-0.00002311,0.00003493,-0.00008310,-0.00023519,-0.00010189,-0.0000
 0019,0.00007611,0.00003069,-0.00000567,-0.00000341,0.00002054,0.000011
 83,-0.00000799,0.00005038,0.00003930,-0.00000151,-0.00000874,-0.000008
 73,0.00002004,0.00000233,0.00001965,-0.00001286,0.00000880,-0.00001167
 ,0.00000257,0.00001049,-0.00000715,0.00003110,0.00000691,0.00000399,-0
 .00002694,-0.00002522,0.00000564,0.00002207,0.00000469,0.00000487,-0.0
 0001209,0.00000426,0.00000168,0.00001647,0.00000880,0.00001177,-0.0000
 6141,-0.00010919,0.00017110,-0.00007052,0.00004094,0.00003355,-0.00025
 671,-0.00003355,-0.00001053,0.00080903,0.00138961,0.00034570,-0.142747
 91,-0.08089859,0.10736904,0.00032477,-0.00003833,0.00017638,-0.0003838
 5,0.00024316,-0.00032222,-0.00002987,-0.00002980,-0.00003046,0.0000050
 6,0.00004642,-0.00011974,-0.00000656,-0.00003492,-0.00000919,-0.000086
 00,0.00008250,-0.00012055,-0.00000816,-0.00002314,0.00001598,0.0000433
 4,0.00000511,0.00002715,0.00001372,0.00002109,0.00006896,-0.00003505,-
 0.00001947,0.00014447,0.00001739,-0.00004212,0.00016722,0.00089404,-0.
 00023324,0.00030251,-0.00111222,0.00085423,0.00130680,-0.00540585,-0.0
 0221929,-0.00408794,0.00108557,-0.00054513,-0.00013261,-0.03656443,-0.
 00186310,0.02431592,-0.00096477,-0.00179754,-0.00047208,0.00106873,0.0
 0072269,0.00024415,-0.00033491,0.00025951,0.00032994,-0.00008631,-0.00
 004909,-0.00013323,0.00011814,-0.00000077,0.00015489,0.00025477,0.0006
 5677,0.00131208,0.00023301,0.00012598,-0.00110489,0.00048832,0.0015916
 1,0.00046934,0.00000003,-0.00040176,-0.00029504,0.00038511,0.00034780,
 -0.00012975,-0.00023199,-0.00013441,0.00035479,-0.00017407,-0.00004586
 ,-0.00015430,0.00004637,-0.00006884,-0.00006692,-0.00005421,0.00007204
 ,0.00015821,-0.00012237,-0.00010063,-0.00006874,-0.00000104,0.00002341
 ,-0.00000161,0.00000630,-0.00000841,0.00000025,0.00001218,0.00000777,-
 0.00001103,-0.00000013,-0.00000497,-0.00000491,-0.00001447,-0.00001480
 ,-0.00002559,-0.00002999,0.00000528,0.00006225,-0.00021144,-0.00012762
 ,0.00004646,-0.00362043,-0.00127769,-0.00124426,-0.25989955,-0.0183611
 6,0.20603069,0.00001616,-0.00002563,0.00000827,-0.00000150,0.00000710,
 -0.00002912,0.00000062,0.00000024,0.00000886,0.00001094,0.00000356,0.0
 0001461,0.00000607,-0.00001610,0.00000947,0.00001106,0.00000397,0.0000
 0703,-0.00001052,0.00000240,-0.00000158,-0.00005663,0.00000453,-0.0000
 2843,-0.00001193,-0.00000128,-0.00003318,0.00001668,0.00002032,-0.0000
 4920,-0.00003557,0.00018524,-0.00025948,-0.00031356,-0.00019832,-0.000
 25101,0.00032470,-0.00017301,-0.00018917,-0.00037486,0.00081076,0.0002
 9870,0.00223321,0.00059989,0.00119114,-0.00003119,0.00000766,-0.000005
 33,0.00000741,-0.00005045,-0.00001897,-0.00000728,-0.00000675,0.000005
 17,0.00005421,-0.00000092,0.00002232,-0.00006927,0.00001922,-0.0000316
 5,-0.00020244,-0.00009163,-0.00012173,0.00000088,0.00001501,0.00014992
 ,-0.00005558,0.00003160,-0.00001083,-0.00004095,-0.00000197,0.00001161
 ,0.00000821,0.00006535,0.00004996,-0.00000539,0.00000921,0.00003920,-0
 .00002342,-0.00006231,-0.00003413,0.00000614,-0.00004838,-0.00013031,0
 .00000769,-0.00000498,-0.00000660,-0.00000709,-0.00000397,0.00000670,-
 0.00000845,0.00000027,-0.00000010,0.00000277,0.00000484,-0.00000236,-0
 .00000478,0.00000196,0.00000448,-0.00000614,-0.00000482,0.00000132,0.0
 0000761,0.00000148,-0.00000311,-0.00000501,0.00000169,0.00000100,0.000
 00568,-0.00000075,0.00000375,-0.00000620,-0.00000300,-0.00000489,0.000
 02271,0.00004023,-0.00010031,0.00002704,-0.00003366,-0.00003882,0.0000
 8050,0.00000189,-0.00001575,-0.00000500,-0.00000830,0.00002335,0.00024
 439,-0.00040392,0.00186585,0.30256892,-0.00006207,-0.00011405,0.000043
 66,0.00002615,0.00013514,-0.00004763,0.00024067,0.00020495,0.00004996,
 -0.00002660,-0.00002070,0.00000795,0.00000977,0.00006129,-0.00000461,-
 0.00001900,0.00000222,-0.00002655,0.00000227,0.00004234,0.00000835,0.0
 0001003,-0.00005313,0.00001350,-0.00001311,-0.00007423,-0.00000160,-0.
 00002630,-0.00003930,-0.00000383,-0.00030852,-0.00015197,-0.00008572,-
 0.00023001,-0.00023739,0.00015436,0.00049975,-0.00002367,-0.00050799,0
 .00191907,0.00004385,0.00005994,0.00025440,0.00003977,0.00059595,-0.00
 615958,-0.00166114,0.00413484,-0.00481868,-0.00011849,0.00103061,0.000
 79142,-0.00054446,-0.00039834,-0.00018335,0.00011559,0.00014721,0.0000
 0934,-0.00002140,-0.00013847,0.00007765,-0.00008981,0.00008856,0.00212
 422,0.00100624,0.00132701,-0.00040209,0.00065995,-0.00208784,0.0004830
 6,0.00184155,-0.00088132,-0.00002152,-0.00042319,-0.00037674,0.0002330
 8,0.00039624,-0.00017827,-0.00011683,-0.00016044,0.00043708,-0.0000229
 6,-0.00007197,-0.00014691,-0.00008654,0.00002500,-0.00006614,0.0001249
 8,-0.00009697,0.00009439,-0.00003842,-0.00013252,-0.00001690,-0.000014
 96,0.00002387,-0.00000734,0.00000196,-0.00000117,-0.00000464,0.0000082
 1,-0.00000066,-0.00000253,-0.00000680,0.00000389,-0.00000809,-0.000000
 18,0.00000197,0.00000351,0.00000401,-0.00005043,0.00002400,-0.00012041
 ,-0.00024343,0.00004641,-0.00131082,-0.00496352,-0.00053264,-0.0156243
 9,-0.01038695,0.00514428,0.00002079,-0.00001521,-0.00001535,-0.0000163
 9,-0.00002703,-0.00001513,0.00001323,-0.00000631,0.00000334,-0.0000062
 4,-0.00001072,0.00000078,0.00000591,-0.00000654,-0.00000216,0.00000242
 ,-0.00000358,0.00000147,-0.00000625,-0.00000409,0.00000058,-0.00003077
 ,0.00002655,-0.00002040,0.00000668,0.00002449,-0.00001886,0.00002515,0
 .00001148,0.00002820,0.00031100,0.00002278,0.00012512,0.00018841,0.000
 00437,0.00013063,-0.00004575,-0.00005293,0.00007502,-0.00005647,0.0008
 0750,-0.00075302,0.00052775,0.00090549,-0.00084312,-0.00017160,-0.0001
 6180,0.00018336,0.00002010,-0.00000818,-0.00004658,-0.00001597,-0.0000
 1051,0.00000628,0.00003457,0.00001230,0.00002187,-0.00002595,0.0001184
 2,-0.00003310,0.00012955,-0.00012485,0.00022843,0.00011171,-0.00035165
 ,-0.00044513,0.00000864,-0.00002244,0.00008632,-0.00001905,-0.00002219
 ,-0.00000947,0.00002391,-0.00005686,-0.00004368,0.00001104,-0.00000658
 ,0.00002574,-0.00005627,-0.00005033,-0.00000043,-0.00005061,0.00001595
 ,-0.00001300,0.00000109,-0.00000887,-0.00000565,-0.00000224,0.00000245
 ,0.00000199,-0.00000395,0.00000116,0.00000051,0.00000477,-0.00000287,-
 0.00000092,-0.00000098,-0.00000200,-0.00000241,-0.00000108,-0.00000194
 ,0.00000448,0.00000426,-0.00000100,-0.00000320,-0.00000160,-0.00000129
 ,-0.00000214,0.00000082,-0.00000201,0.00000549,-0.00000338,0.00000496,
 -0.00000274,-0.00001156,0.00007625,-0.00008190,-0.00000500,0.00004915,
 0.00002018,0.00000542,0.00002497,-0.00000830,-0.00002526,0.00003020,0.
 00004141,0.00021387,0.00020174,0.00135046,0.02167839,0.01369873,-0.000
 19676,0.00008159,-0.00027287,0.00035169,-0.00033852,0.00042917,-0.0002
 8653,-0.00004436,0.00003229,-0.00002741,-0.00001773,0.00012672,-0.0000
 3583,0.00006876,0.00004838,0.00008497,-0.00006238,0.00015194,-0.000024
 62,0.00003421,-0.00000130,0.00002442,-0.00000521,-0.00007064,0.0000937
 9,-0.00004765,-0.00011168,0.00015279,-0.00004492,-0.00017785,0.0004119
 8,-0.00001034,-0.00022649,-0.00015870,0.00032861,-0.00064551,-0.000795
 37,0.00056074,0.00156310,-0.00377097,-0.00142066,-0.00252311,-0.000180
 25,0.00032886,0.00000813,-0.01900301,-0.00190677,0.01432657,-0.0026486
 7,0.00143781,0.00216785,-0.00058025,-0.00139371,-0.00103562,0.00027559
 ,0.00026432,-0.00013833,0.00018320,-0.00008818,0.00028492,-0.00002011,
 0.00002468,-0.00038888,0.00157145,0.00054705,-0.00201502,-0.00102835,-
 0.00060640,0.00087313,-0.00192062,-0.00590928,-0.00276831,0.00010471,0
 .00155535,0.00065932,-0.00072122,-0.00101820,-0.00027088,0.00038783,0.
 00031750,-0.00014122,0.00029028,-0.00008784,-0.00031839,-0.00034646,0.
 00018375,0.00022344,0.00045770,-0.00011719,-0.00020951,0.00034335,0.00
 035762,0.00094467,0.00013120,-0.00023326,-0.00031242,-0.00004572,0.000
 02991,0.00003469,-0.00001759,-0.00003921,0.00001203,-0.00000354,0.0000
 2736,-0.00000809,-0.00004258,-0.00002777,-0.00005340,0.00013820,-0.000
 02604,0.00000153,0.00000268,0.00007921,0.00065211,0.00096664,0.0018985
 6,0.00333004,0.25730820,0.01062122,-0.28726330,-0.00000902,0.00000852,
 -0.00001603,-0.00002710,-0.00001450,-0.00000355,0.00000639,-0.00001635
 ,-0.00001128,0.00001212,-0.00000743,-0.00001210,-0.00000812,0.00000830
 ,-0.00001222,-0.00001269,-0.00000528,-0.00000307,0.00001876,0.00000258
 ,-0.00001030,0.00002714,-0.00000937,0.00004717,-0.00005373,-0.00001954
 ,0.00007010,-0.00007456,0.00003927,0.00000863,-0.00034482,0.00006285,0
 .00033877,-0.00049448,-0.00005782,-0.00030967,0.00004645,-0.00020029,0
 .00008667,0.00044955,-0.00027648,-0.00032307,-0.00250755,0.00033304,-0
 .00046554,0.00020855,0.00020626,-0.00017423,0.00001536,0.00002097,-0.0
 0002868,-0.00002973,-0.00002097,-0.00002671,0.00000890,0.00001233,-0.0
 0004094,0.00003522,-0.00001134,0.00008852,-0.00006870,0.00005939,0.000
 03555,0.00000453,0.00066554,0.00042889,0.00003732,-0.00003657,-0.00008
 341,0.00006693,0.00002801,0.00003747,-0.00000615,-0.00000304,0.0000196
 6,0.00012459,0.00002490,-0.00000758,0.00000612,0.00003972,0.00003955,-
 0.00023013,0.00007352,0.00034781,-0.00001579,0.00002331,0.00001652,-0.
 00001357,0.00001408,0.00002326,0.00002698,0.00000538,0.00003577,0.0000
 0044,0.00000579,-0.00001511,-0.00000168,0.00000742,-0.00001156,0.00003
 031,0.00000231,0.00001304,-0.00002312,-0.00003292,-0.00000383,0.000021
 65,0.00000420,0.00000731,-0.00000741,0.00000105,0.00001241,0.00001320,
 0.00001880,0.00001215,-0.00011959,-0.00000347,0.00003670,-0.00009316,0
 .00010149,0.00005715,-0.00025012,0.00001927,-0.00004725,0.00010758,0.0
 0014382,-0.00009943,0.00120709,0.00134422,0.00096793,-0.22951008,-0.00
 786246,0.27205730\\-0.00000500,0.00000084,-0.00000184,0.00000958,0.000
 00474,-0.00000269,-0.00000177,-0.00001196,0.00001053,-0.00000470,0.000
 01223,0.00000864,-0.00000771,-0.00001324,0.00000154,-0.00000470,0.0000
 1178,-0.00000996,-0.00001099,-0.00000481,0.00000623,-0.00000616,0.0000
 1154,-0.00000741,-0.00000382,0.00000949,-0.00000659,0.00000231,0.00000
 093,-0.00001050,0.00000123,0.00000297,0.00000049,0.00000864,-0.0000095
 1,0.00000448,-0.00001285,-0.00001108,-0.00000674,0.00000478,-0.0000086
 9,0.00000568,-0.00000210,0.00000022,-0.00000105,-0.00001052,0.00001413
 ,0.00000030,-0.00000449,-0.00000084,0.00000706,-0.00000516,-0.00000561
 ,0.00000250,0.00000455,0.00001143,-0.00000135,-0.00000893,-0.00000828,
 0.00001508,0.00000584,-0.00001723,-0.00000296,-0.00000269,-0.00000044,
 -0.00002197,-0.00000190,-0.00000596,0.00002363,0.00000588,0.00000195,-
 0.00001106,-0.00000707,0.00000417,-0.00000160,0.00001385,-0.00000379,0
 .00001924,-0.00000334,-0.00000359,-0.00000671,0.00001298,-0.00000168,-
 0.00001015,-0.00000808,-0.00000351,0.00000417,0.00001052,0.00000323,-0
 .00001205,-0.00000624,0.00000145,-0.00001658,0.00000367,0.00000726,0.0
 0000752,-0.00000032,0.00000816,-0.00000474,0.00000163,-0.00000256,-0.0
 0000382,0.00000216,-0.00000166,-0.00000040,0.00000340,-0.00000328,-0.0
 0000129,0.00001988,0.00001063,-0.00000329,0.00000152,0.00000288,0.0000
 0078,0.00000400,-0.00000126,0.00000336,-0.00000305,0.00000296,-0.00000
 158,-0.00000331,-0.00000196,-0.00000478,-0.00000284,0.00000605,0.00000
 392,0.00000295,-0.00000347,-0.00000120,0.00000499,-0.00000314,0.000001
 34,0.00000379,-0.00000625,0.00000224,0.00000340,-0.00000014,-0.0000020
 3,-0.00000242,-0.00000254,-0.00000528,0.00000603,-0.00001335,0.0000045
 3,-0.00000417,-0.00000745,0.00000983,0.00000091,0.00000022,0.00000253,
 0.00000076,-0.00000264,0.00000515,0.00000289,0.00000044,-0.00000199,0.
 00000321,0.00000133,-0.00000151,-0.00000022,0.00000274,0.00000214,-0.0
 0000049,-0.00000277,0.00000782,-0.00000165,0.00000252,-0.00000209,0.00
 000032,0.00000125,-0.00000156,0.00000112,0.00000207,-0.00000299,0.0000
 0300,-0.00000127,-0.00000455,0.00000750,0.00002386,0.00000286,0.000003
 04,-0.00000157,-0.00000251,-0.00000524,0.00000136,0.00000228,0.0000024
 0,-0.00000416,0.00000157,-0.00000855,0.00000228,-0.00000081,-0.0000050
 5,0.00000477,0.00000321,0.00000331,0.00000237,-0.00000055,0.00000213,0
 .00000033,-0.00000228,-0.00000419,-0.00000500,0.00000452,0.00000069,0.
 00000165,-0.00000097,-0.00000239,-0.00000059,0.00000108,-0.00000122,-0
 .00000097,0.00000155,0.00000285,-0.00000254,0.00000059,0.,0.00000350,0
 .00000084,0.00000134,0.00000137,0.00000480,-0.00000207,0.00000271,-0.0
 0000282,0.00000230,0.00000210,-0.00000150,-0.00000117,-0.00000124,0.00
 000214,0.00000056,-0.00000070,-0.00000365,-0.00000632,0.00000211,0.000
 00087,-0.00000741,-0.00000264,0.00000303,0.00000064,-0.00000722,-0.000
 00028,-0.00000098,0.00000061,-0.00000165,0.00000215,0.00000413,0.00000
 021,0.00000259,-0.00000209,0.00000102\\\@


 COMMON SENSE IS NOT SO COMMON.   -- VOLTAIRE
 Job cpu time:      20 days 20 hours 16 minutes 33.6 seconds.
 File lengths (MBytes):  RWF=  23915 Int=      0 D2E=      0 Chk=     97 Scr=      1
 Normal termination of Gaussian 09 at Fri Mar 25 08:50:22 2016.
