 Entering Gaussian System, Link 0=g09
 Initial command:
 /share/apps//g09/l1.exe "/scratch/Gau-48680.inp" -scrdir="/scratch/"
 Entering Link 1 = /share/apps//g09/l1.exe PID=     48682.
  
 Copyright (c) 1988,1990,1992,1993,1995,1998,2003,2009,2013,
            Gaussian, Inc.  All Rights Reserved.
  
 This is part of the Gaussian(R) 09 program.  It is based on
 the Gaussian(R) 03 system (copyright 2003, Gaussian, Inc.),
 the Gaussian(R) 98 system (copyright 1998, Gaussian, Inc.),
 the Gaussian(R) 94 system (copyright 1995, Gaussian, Inc.),
 the Gaussian 92(TM) system (copyright 1992, Gaussian, Inc.),
 the Gaussian 90(TM) system (copyright 1990, Gaussian, Inc.),
 the Gaussian 88(TM) system (copyright 1988, Gaussian, Inc.),
 the Gaussian 86(TM) system (copyright 1986, Carnegie Mellon
 University), and the Gaussian 82(TM) system (copyright 1983,
 Carnegie Mellon University). Gaussian is a federally registered
 trademark of Gaussian, Inc.
  
 This software contains proprietary and confidential information,
 including trade secrets, belonging to Gaussian, Inc.
  
 This software is provided under written license and may be
 used, copied, transmitted, or stored only in accord with that
 written license.
  
 The following legend is applicable only to US Government
 contracts under FAR:
  
                    RESTRICTED RIGHTS LEGEND
  
 Use, reproduction and disclosure by the US Government is
 subject to restrictions as set forth in subparagraphs (a)
 and (c) of the Commercial Computer Software - Restricted
 Rights clause in FAR 52.227-19.
  
 Gaussian, Inc.
 340 Quinnipiac St., Bldg. 40, Wallingford CT 06492
  
  
 ---------------------------------------------------------------
 Warning -- This program may not be used in any manner that
 competes with the business of Gaussian, Inc. or will provide
 assistance to any competitor of Gaussian, Inc.  The licensee
 of this program is prohibited from giving any competitor of
 Gaussian, Inc. access to this program.  By using this program,
 the user acknowledges that Gaussian, Inc. is engaged in the
 business of creating and licensing software in the field of
 computational chemistry and represents and warrants to the
 licensee that it is not a competitor of Gaussian, Inc. and that
 it will not use this program in any manner prohibited above.
 ---------------------------------------------------------------
  

 Cite this work as:
 Gaussian 09, Revision D.01,
 M. J. Frisch, G. W. Trucks, H. B. Schlegel, G. E. Scuseria, 
 M. A. Robb, J. R. Cheeseman, G. Scalmani, V. Barone, B. Mennucci, 
 G. A. Petersson, H. Nakatsuji, M. Caricato, X. Li, H. P. Hratchian, 
 A. F. Izmaylov, J. Bloino, G. Zheng, J. L. Sonnenberg, M. Hada, 
 M. Ehara, K. Toyota, R. Fukuda, J. Hasegawa, M. Ishida, T. Nakajima, 
 Y. Honda, O. Kitao, H. Nakai, T. Vreven, J. A. Montgomery, Jr., 
 J. E. Peralta, F. Ogliaro, M. Bearpark, J. J. Heyd, E. Brothers, 
 K. N. Kudin, V. N. Staroverov, T. Keith, R. Kobayashi, J. Normand, 
 K. Raghavachari, A. Rendell, J. C. Burant, S. S. Iyengar, J. Tomasi, 
 M. Cossi, N. Rega, J. M. Millam, M. Klene, J. E. Knox, J. B. Cross, 
 V. Bakken, C. Adamo, J. Jaramillo, R. Gomperts, R. E. Stratmann, 
 O. Yazyev, A. J. Austin, R. Cammi, C. Pomelli, J. W. Ochterski, 
 R. L. Martin, K. Morokuma, V. G. Zakrzewski, G. A. Voth, 
 P. Salvador, J. J. Dannenberg, S. Dapprich, A. D. Daniels, 
 O. Farkas, J. B. Foresman, J. V. Ortiz, J. Cioslowski, 
 and D. J. Fox, Gaussian, Inc., Wallingford CT, 2013.
 
 ******************************************
 Gaussian 09:  EM64L-G09RevD.01 24-Apr-2013
                 6-Apr-2016 
 ******************************************
 %nproc=20
 Will use up to   20 processors via shared memory.
 %mem=80GB
 %chk=Tri_A131_of.chk
 ----------------------------------------------------------------------
 #P PBE1PBE/6-311+G(d,p) opt=ModRedundant freq optcyc=999 EmpiricalDisp
 ersion=GD3
 ----------------------------------------------------------------------
 1/6=999,14=-1,18=120,19=15,26=3,38=1/1,3;
 2/9=110,12=2,17=6,18=5,40=1/2;
 3/5=4,6=6,7=111,11=2,16=1,25=1,30=1,71=1,74=-13,124=31/1,2,3;
 4//1;
 5/5=2,38=5/2;
 6/7=2,8=2,9=2,10=2,28=1/1;
 7//1,2,3,16;
 1/6=999,14=-1,18=20,19=15,26=3/3(2);
 2/9=110/2;
 99//99;
 2/9=110/2;
 3/5=4,6=6,7=111,11=2,16=1,25=1,30=1,71=1,74=-13,124=31/1,2,3;
 4/5=5,16=3,69=1/1;
 5/5=2,38=5/2;
 7//1,2,3,16;
 1/6=999,14=-1,18=20,19=15,26=3/3(-5);
 2/9=110/2;
 6/7=2,8=2,9=2,10=2,19=2,28=1/1;
 99/9=1/99;
 Leave Link    1 at Wed Apr  6 15:55:04 2016, MaxMem= 10737418240 cpu:         1.9
 (Enter /share/apps//g09/l101.exe)
 -------
 disacch
 -------
 Symbolic Z-matrix:
 Charge =  1 Multiplicity = 1
 O                    -0.76929  -0.28232   7.34344 
 C                    -1.32274  -0.86601   6.19165 
 C                    -0.28734  -1.05801   5.06949 
 C                     0.90909  -1.85835   5.61115 
 C                     1.48585  -1.21498   6.87316 
 C                     0.37855  -0.95348   7.90272 
 H                    -2.1221   -0.17218   5.88769 
 H                     0.05606  -0.06281   4.74904 
 H                     0.57699  -2.88021   5.8472 
 H                     2.20536  -1.91519   7.33157 
 H                     0.08163  -1.93558   8.31228 
 O                     2.17324  -0.03617   6.42861 
 O                     1.95057  -1.99861   4.62936 
 O                    -0.88288  -1.6913    3.92983 
 O                    -1.86222  -2.17868   6.40188 
 C                     0.84216  -0.03014   9.03355 
 H                     0.77702   1.01043   8.6735 
 H                     0.172    -0.14241   9.90066 
 O                     2.19481  -0.38867   9.36278 
 H                     2.44971   0.09341   10.16659 
 H                     2.75142   0.24028   7.16418 
 H                     2.49597  -1.18686   4.70116 
 H                    -1.62808  -2.23528   4.26338 
 O                    -3.19281  -4.61561   6.07814 
 C                    -2.95872  -4.80261   7.49232 
 C                    -2.79151  -3.43513   8.22719 
 C                    -3.01146  -2.25112   7.2762 
 C                    -4.31644  -2.41447   6.48149 
 C                    -4.38292  -3.8367    5.82392 
 H                    -3.83778  -5.31379   7.92591 
 H                    -1.77263  -3.37193   8.63045 
 H                    -3.07004  -1.33369   7.87941 
 H                    -5.13107  -2.34272   7.21825 
 H                    -5.24473  -4.38369   6.25249 
 O                    -4.5382   -1.33858   5.5758 
 O                    -3.75831  -3.31913   9.27583 
 O                    -1.90352  -5.71141   7.65681 
 C                    -4.58266  -3.82589   4.32111 
 H                    -4.61157  -4.86376   3.95318 
 H                    -5.53635  -3.32804   4.08942 
 O                    -3.47607  -3.11367   3.70884 
 H                    -3.63848  -3.07023   2.75115 
 H                    -3.9864   -1.51027   4.78625 
 H                    -3.40386  -3.75935   10.06676 
 O                     1.17463  -5.93994   5.65348 
 C                     2.16197  -6.11561   6.68962 
 C                     1.84235  -5.15993   7.83828 
 C                     0.40365  -5.32988   8.33772 
 C                    -0.60254  -5.30806   7.18223 
 C                    -0.13483  -6.3132    6.10473 
 H                     2.13838  -7.17384   7.03033 
 H                     1.96442  -4.13622   7.43801 
 H                     0.32096  -6.31393   8.83962 
 H                    -0.10667  -7.32376   6.56322 
 H                    -0.655    -4.29875   6.74433 
 O                     0.09391  -4.28946   9.26932 
 O                     2.67822  -5.3628    8.97519 
 O                     3.40513  -5.76538   6.1815 
 C                    -1.028    -6.41541   4.87745 
 H                    -0.57308  -7.12964   4.17657 
 H                    -2.01483  -6.7967    5.17449 
 O                    -1.17433  -5.17303   4.1723 
 H                    -1.88089  -4.67121   4.63911 
 H                     0.80014  -4.30976   9.94205 
 H                     3.59505  -5.17007   8.70881 
 C                     3.95108  -6.70031   5.21346 
 H                     4.69167  -7.33717   5.72396 
 H                     3.1426   -7.34505   4.83668 
 C                     4.60737  -5.91702   4.08231 
 H                     5.03502  -6.64524   3.37282 
 H                     5.45823  -5.35281   4.49464 
 C                     3.67285  -4.93586   3.35756 
 H                     3.27429  -4.23842   4.11062 
 H                     4.27606  -4.33282   2.65887 
 C                     2.52733  -5.6037    2.58336 
 H                     2.93838  -6.27308   1.81026 
 H                     1.92534  -6.23296   3.25724 
 C                     1.59911  -4.62185   1.87243 
 H                     0.86546  -5.15198   1.2506 
 H                     2.16207  -3.93484   1.22426 
 N                     0.82446  -3.78208   2.84595 
 H                     0.22174  -3.08272   2.39159 
 H                     1.44004  -3.20914   3.47169 
 H                     0.17402  -4.36044   3.44651 
 
 The following ModRedundant input section has been read:
 B      62      84 B                                                           
 B      14      82 B                                                           
 B      13      83 B                                                           
 B      24      63 B                                                           
 B      11      56 B                                                           
 B      31      56 B                                                           
 
 NAtoms=     84 NQM=       84 NQMF=       0 NMMI=      0 NMMIF=      0
                NMic=       0 NMicF=      0.
                    Isotopes and Nuclear Properties:
 (Nuclear quadrupole moments (NQMom) in fm**2, nuclear magnetic moments (NMagM)
  in nuclear magnetons)

  Atom         1           2           3           4           5           6           7           8           9          10
 IAtWgt=          16          12          12          12          12          12           1           1           1           1
 AtmWgt=  15.9949146  12.0000000  12.0000000  12.0000000  12.0000000  12.0000000   1.0078250   1.0078250   1.0078250   1.0078250
 NucSpn=           0           0           0           0           0           0           1           1           1           1
 AtZEff=   0.0000000   0.0000000   0.0000000   0.0000000   0.0000000   0.0000000   0.0000000   0.0000000   0.0000000   0.0000000
 NQMom=    0.0000000   0.0000000   0.0000000   0.0000000   0.0000000   0.0000000   0.0000000   0.0000000   0.0000000   0.0000000
 NMagM=    0.0000000   0.0000000   0.0000000   0.0000000   0.0000000   0.0000000   2.7928460   2.7928460   2.7928460   2.7928460
 AtZNuc=   8.0000000   6.0000000   6.0000000   6.0000000   6.0000000   6.0000000   1.0000000   1.0000000   1.0000000   1.0000000

  Atom        11          12          13          14          15          16          17          18          19          20
 IAtWgt=           1          16          16          16          16          12           1           1          16           1
 AtmWgt=   1.0078250  15.9949146  15.9949146  15.9949146  15.9949146  12.0000000   1.0078250   1.0078250  15.9949146   1.0078250
 NucSpn=           1           0           0           0           0           0           1           1           0           1
 AtZEff=   0.0000000   0.0000000   0.0000000   0.0000000   0.0000000   0.0000000   0.0000000   0.0000000   0.0000000   0.0000000
 NQMom=    0.0000000   0.0000000   0.0000000   0.0000000   0.0000000   0.0000000   0.0000000   0.0000000   0.0000000   0.0000000
 NMagM=    2.7928460   0.0000000   0.0000000   0.0000000   0.0000000   0.0000000   2.7928460   2.7928460   0.0000000   2.7928460
 AtZNuc=   1.0000000   8.0000000   8.0000000   8.0000000   8.0000000   6.0000000   1.0000000   1.0000000   8.0000000   1.0000000

  Atom        21          22          23          24          25          26          27          28          29          30
 IAtWgt=           1           1           1          16          12          12          12          12          12           1
 AtmWgt=   1.0078250   1.0078250   1.0078250  15.9949146  12.0000000  12.0000000  12.0000000  12.0000000  12.0000000   1.0078250
 NucSpn=           1           1           1           0           0           0           0           0           0           1
 AtZEff=   0.0000000   0.0000000   0.0000000   0.0000000   0.0000000   0.0000000   0.0000000   0.0000000   0.0000000   0.0000000
 NQMom=    0.0000000   0.0000000   0.0000000   0.0000000   0.0000000   0.0000000   0.0000000   0.0000000   0.0000000   0.0000000
 NMagM=    2.7928460   2.7928460   2.7928460   0.0000000   0.0000000   0.0000000   0.0000000   0.0000000   0.0000000   2.7928460
 AtZNuc=   1.0000000   1.0000000   1.0000000   8.0000000   6.0000000   6.0000000   6.0000000   6.0000000   6.0000000   1.0000000

  Atom        31          32          33          34          35          36          37          38          39          40
 IAtWgt=           1           1           1           1          16          16          16          12           1           1
 AtmWgt=   1.0078250   1.0078250   1.0078250   1.0078250  15.9949146  15.9949146  15.9949146  12.0000000   1.0078250   1.0078250
 NucSpn=           1           1           1           1           0           0           0           0           1           1
 AtZEff=   0.0000000   0.0000000   0.0000000   0.0000000   0.0000000   0.0000000   0.0000000   0.0000000   0.0000000   0.0000000
 NQMom=    0.0000000   0.0000000   0.0000000   0.0000000   0.0000000   0.0000000   0.0000000   0.0000000   0.0000000   0.0000000
 NMagM=    2.7928460   2.7928460   2.7928460   2.7928460   0.0000000   0.0000000   0.0000000   0.0000000   2.7928460   2.7928460
 AtZNuc=   1.0000000   1.0000000   1.0000000   1.0000000   8.0000000   8.0000000   8.0000000   6.0000000   1.0000000   1.0000000

  Atom        41          42          43          44          45          46          47          48          49          50
 IAtWgt=          16           1           1           1          16          12          12          12          12          12
 AtmWgt=  15.9949146   1.0078250   1.0078250   1.0078250  15.9949146  12.0000000  12.0000000  12.0000000  12.0000000  12.0000000
 NucSpn=           0           1           1           1           0           0           0           0           0           0
 AtZEff=   0.0000000   0.0000000   0.0000000   0.0000000   0.0000000   0.0000000   0.0000000   0.0000000   0.0000000   0.0000000
 NQMom=    0.0000000   0.0000000   0.0000000   0.0000000   0.0000000   0.0000000   0.0000000   0.0000000   0.0000000   0.0000000
 NMagM=    0.0000000   2.7928460   2.7928460   2.7928460   0.0000000   0.0000000   0.0000000   0.0000000   0.0000000   0.0000000
 AtZNuc=   8.0000000   1.0000000   1.0000000   1.0000000   8.0000000   6.0000000   6.0000000   6.0000000   6.0000000   6.0000000

  Atom        51          52          53          54          55          56          57          58          59          60
 IAtWgt=           1           1           1           1           1          16          16          16          12           1
 AtmWgt=   1.0078250   1.0078250   1.0078250   1.0078250   1.0078250  15.9949146  15.9949146  15.9949146  12.0000000   1.0078250
 NucSpn=           1           1           1           1           1           0           0           0           0           1
 AtZEff=   0.0000000   0.0000000   0.0000000   0.0000000   0.0000000   0.0000000   0.0000000   0.0000000   0.0000000   0.0000000
 NQMom=    0.0000000   0.0000000   0.0000000   0.0000000   0.0000000   0.0000000   0.0000000   0.0000000   0.0000000   0.0000000
 NMagM=    2.7928460   2.7928460   2.7928460   2.7928460   2.7928460   0.0000000   0.0000000   0.0000000   0.0000000   2.7928460
 AtZNuc=   1.0000000   1.0000000   1.0000000   1.0000000   1.0000000   8.0000000   8.0000000   8.0000000   6.0000000   1.0000000

  Atom        61          62          63          64          65          66          67          68          69          70
 IAtWgt=           1          16           1           1           1          12           1           1          12           1
 AtmWgt=   1.0078250  15.9949146   1.0078250   1.0078250   1.0078250  12.0000000   1.0078250   1.0078250  12.0000000   1.0078250
 NucSpn=           1           0           1           1           1           0           1           1           0           1
 AtZEff=   0.0000000   0.0000000   0.0000000   0.0000000   0.0000000   0.0000000   0.0000000   0.0000000   0.0000000   0.0000000
 NQMom=    0.0000000   0.0000000   0.0000000   0.0000000   0.0000000   0.0000000   0.0000000   0.0000000   0.0000000   0.0000000
 NMagM=    2.7928460   0.0000000   2.7928460   2.7928460   2.7928460   0.0000000   2.7928460   2.7928460   0.0000000   2.7928460
 AtZNuc=   1.0000000   8.0000000   1.0000000   1.0000000   1.0000000   6.0000000   1.0000000   1.0000000   6.0000000   1.0000000

  Atom        71          72          73          74          75          76          77          78          79          80
 IAtWgt=           1          12           1           1          12           1           1          12           1           1
 AtmWgt=   1.0078250  12.0000000   1.0078250   1.0078250  12.0000000   1.0078250   1.0078250  12.0000000   1.0078250   1.0078250
 NucSpn=           1           0           1           1           0           1           1           0           1           1
 AtZEff=   0.0000000   0.0000000   0.0000000   0.0000000   0.0000000   0.0000000   0.0000000   0.0000000   0.0000000   0.0000000
 NQMom=    0.0000000   0.0000000   0.0000000   0.0000000   0.0000000   0.0000000   0.0000000   0.0000000   0.0000000   0.0000000
 NMagM=    2.7928460   0.0000000   2.7928460   2.7928460   0.0000000   2.7928460   2.7928460   0.0000000   2.7928460   2.7928460
 AtZNuc=   1.0000000   6.0000000   1.0000000   1.0000000   6.0000000   1.0000000   1.0000000   6.0000000   1.0000000   1.0000000

  Atom        81          82          83          84
 IAtWgt=          14           1           1           1
 AtmWgt=  14.0030740   1.0078250   1.0078250   1.0078250
 NucSpn=           2           1           1           1
 AtZEff=   0.0000000   0.0000000   0.0000000   0.0000000
 NQMom=    2.0440000   0.0000000   0.0000000   0.0000000
 NMagM=    0.4037610   2.7928460   2.7928460   2.7928460
 AtZNuc=   7.0000000   1.0000000   1.0000000   1.0000000
 Leave Link  101 at Wed Apr  6 15:55:05 2016, MaxMem= 10737418240 cpu:         4.0
 (Enter /share/apps//g09/l103.exe)

 GradGradGradGradGradGradGradGradGradGradGradGradGradGradGradGradGradGrad
 Berny optimization.
 Initialization pass.
                           ----------------------------
                           !    Initial Parameters    !
                           ! (Angstroms and Degrees)  !
 --------------------------                            --------------------------
 ! Name  Definition              Value          Derivative Info.                !
 --------------------------------------------------------------------------------
 ! R1    R(1,2)                  1.4049         estimate D2E/DX2                !
 ! R2    R(1,6)                  1.4425         estimate D2E/DX2                !
 ! R3    R(2,3)                  1.5389         estimate D2E/DX2                !
 ! R4    R(2,7)                  1.1013         estimate D2E/DX2                !
 ! R5    R(2,15)                 1.4347         estimate D2E/DX2                !
 ! R6    R(3,4)                  1.538          estimate D2E/DX2                !
 ! R7    R(3,8)                  1.1005         estimate D2E/DX2                !
 ! R8    R(3,14)                 1.4334         estimate D2E/DX2                !
 ! R9    R(4,5)                  1.5295         estimate D2E/DX2                !
 ! R10   R(4,9)                  1.1001         estimate D2E/DX2                !
 ! R11   R(4,13)                 1.4381         estimate D2E/DX2                !
 ! R12   R(5,6)                  1.5344         estimate D2E/DX2                !
 ! R13   R(5,10)                 1.1037         estimate D2E/DX2                !
 ! R14   R(5,12)                 1.4352         estimate D2E/DX2                !
 ! R15   R(6,11)                 1.1047         estimate D2E/DX2                !
 ! R16   R(6,16)                 1.5318         estimate D2E/DX2                !
 ! R17   R(11,56)                2.541          estimate D2E/DX2                !
 ! R18   R(12,21)                0.9756         estimate D2E/DX2                !
 ! R19   R(13,22)                0.9806         estimate D2E/DX2                !
 ! R20   R(13,83)                1.7511         estimate D2E/DX2                !
 ! R21   R(14,23)                0.9811         estimate D2E/DX2                !
 ! R22   R(14,82)                2.35           estimate D2E/DX2                !
 ! R23   R(15,27)                1.4458         estimate D2E/DX2                !
 ! R24   R(16,17)                1.103          estimate D2E/DX2                !
 ! R25   R(16,18)                1.1016         estimate D2E/DX2                !
 ! R26   R(16,19)                1.4376         estimate D2E/DX2                !
 ! R27   R(19,20)                0.9713         estimate D2E/DX2                !
 ! R28   R(24,25)                1.4456         estimate D2E/DX2                !
 ! R29   R(24,29)                1.4449         estimate D2E/DX2                !
 ! R30   R(24,63)                1.9481         estimate D2E/DX2                !
 ! R31   R(25,26)                1.5614         estimate D2E/DX2                !
 ! R32   R(25,30)                1.1055         estimate D2E/DX2                !
 ! R33   R(25,37)                1.4023         estimate D2E/DX2                !
 ! R34   R(26,27)                1.5345         estimate D2E/DX2                !
 ! R35   R(26,31)                1.0976         estimate D2E/DX2                !
 ! R36   R(26,36)                1.431          estimate D2E/DX2                !
 ! R37   R(27,28)                1.5366         estimate D2E/DX2                !
 ! R38   R(27,32)                1.0995         estimate D2E/DX2                !
 ! R39   R(28,29)                1.5683         estimate D2E/DX2                !
 ! R40   R(28,33)                1.1007         estimate D2E/DX2                !
 ! R41   R(28,35)                1.4237         estimate D2E/DX2                !
 ! R42   R(29,34)                1.1071         estimate D2E/DX2                !
 ! R43   R(29,38)                1.5161         estimate D2E/DX2                !
 ! R44   R(31,56)                2.1758         estimate D2E/DX2                !
 ! R45   R(35,43)                0.9784         estimate D2E/DX2                !
 ! R46   R(36,44)                0.9721         estimate D2E/DX2                !
 ! R47   R(37,49)                1.4424         estimate D2E/DX2                !
 ! R48   R(38,39)                1.1015         estimate D2E/DX2                !
 ! R49   R(38,40)                1.1005         estimate D2E/DX2                !
 ! R50   R(38,41)                1.4514         estimate D2E/DX2                !
 ! R51   R(41,42)                0.9723         estimate D2E/DX2                !
 ! R52   R(45,46)                1.442          estimate D2E/DX2                !
 ! R53   R(45,50)                1.4344         estimate D2E/DX2                !
 ! R54   R(46,47)                1.528          estimate D2E/DX2                !
 ! R55   R(46,51)                1.112          estimate D2E/DX2                !
 ! R56   R(46,58)                1.3879         estimate D2E/DX2                !
 ! R57   R(47,48)                1.5324         estimate D2E/DX2                !
 ! R58   R(47,52)                1.1059         estimate D2E/DX2                !
 ! R59   R(47,57)                1.4256         estimate D2E/DX2                !
 ! R60   R(48,49)                1.5323         estimate D2E/DX2                !
 ! R61   R(48,53)                1.1077         estimate D2E/DX2                !
 ! R62   R(48,56)                1.4305         estimate D2E/DX2                !
 ! R63   R(49,50)                1.546          estimate D2E/DX2                !
 ! R64   R(49,55)                1.1015         estimate D2E/DX2                !
 ! R65   R(50,54)                1.1101         estimate D2E/DX2                !
 ! R66   R(50,59)                1.5213         estimate D2E/DX2                !
 ! R67   R(56,64)                0.9756         estimate D2E/DX2                !
 ! R68   R(57,65)                0.974          estimate D2E/DX2                !
 ! R69   R(58,66)                1.4523         estimate D2E/DX2                !
 ! R70   R(59,60)                1.0992         estimate D2E/DX2                !
 ! R71   R(59,61)                1.0988         estimate D2E/DX2                !
 ! R72   R(59,62)                1.436          estimate D2E/DX2                !
 ! R73   R(62,63)                0.9844         estimate D2E/DX2                !
 ! R74   R(62,84)                1.7335         estimate D2E/DX2                !
 ! R75   R(66,67)                1.1021         estimate D2E/DX2                !
 ! R76   R(66,68)                1.1006         estimate D2E/DX2                !
 ! R77   R(66,69)                1.5244         estimate D2E/DX2                !
 ! R78   R(69,70)                1.103          estimate D2E/DX2                !
 ! R79   R(69,71)                1.1011         estimate D2E/DX2                !
 ! R80   R(69,72)                1.5366         estimate D2E/DX2                !
 ! R81   R(72,73)                1.1011         estimate D2E/DX2                !
 ! R82   R(72,74)                1.1026         estimate D2E/DX2                !
 ! R83   R(72,75)                1.5355         estimate D2E/DX2                !
 ! R84   R(75,76)                1.1021         estimate D2E/DX2                !
 ! R85   R(75,77)                1.1011         estimate D2E/DX2                !
 ! R86   R(75,78)                1.5268         estimate D2E/DX2                !
 ! R87   R(78,79)                1.0982         estimate D2E/DX2                !
 ! R88   R(78,80)                1.0996         estimate D2E/DX2                !
 ! R89   R(78,81)                1.501          estimate D2E/DX2                !
 ! R90   R(81,82)                1.029          estimate D2E/DX2                !
 ! R91   R(81,83)                1.0482         estimate D2E/DX2                !
 ! R92   R(81,84)                1.0575         estimate D2E/DX2                !
 ! A1    A(2,1,6)              115.9792         estimate D2E/DX2                !
 ! A2    A(1,2,3)              112.6203         estimate D2E/DX2                !
 ! A3    A(1,2,7)              104.506          estimate D2E/DX2                !
 ! A4    A(1,2,15)             114.0882         estimate D2E/DX2                !
 ! A5    A(3,2,7)              111.4516         estimate D2E/DX2                !
 ! A6    A(3,2,15)             104.2231         estimate D2E/DX2                !
 ! A7    A(7,2,15)             110.1179         estimate D2E/DX2                !
 ! A8    A(2,3,4)              109.3607         estimate D2E/DX2                !
 ! A9    A(2,3,8)              108.0269         estimate D2E/DX2                !
 ! A10   A(2,3,14)             110.8156         estimate D2E/DX2                !
 ! A11   A(4,3,8)              109.2937         estimate D2E/DX2                !
 ! A12   A(4,3,14)             111.9205         estimate D2E/DX2                !
 ! A13   A(8,3,14)             107.3183         estimate D2E/DX2                !
 ! A14   A(3,4,5)              111.4112         estimate D2E/DX2                !
 ! A15   A(3,4,9)              108.9113         estimate D2E/DX2                !
 ! A16   A(3,4,13)             111.9427         estimate D2E/DX2                !
 ! A17   A(5,4,9)              109.1187         estimate D2E/DX2                !
 ! A18   A(5,4,13)             109.3439         estimate D2E/DX2                !
 ! A19   A(9,4,13)             105.9328         estimate D2E/DX2                !
 ! A20   A(4,5,6)              110.6832         estimate D2E/DX2                !
 ! A21   A(4,5,10)             108.7645         estimate D2E/DX2                !
 ! A22   A(4,5,12)             105.6963         estimate D2E/DX2                !
 ! A23   A(6,5,10)             107.4504         estimate D2E/DX2                !
 ! A24   A(6,5,12)             114.4243         estimate D2E/DX2                !
 ! A25   A(10,5,12)            109.7255         estimate D2E/DX2                !
 ! A26   A(1,6,5)              113.1646         estimate D2E/DX2                !
 ! A27   A(1,6,11)             110.0903         estimate D2E/DX2                !
 ! A28   A(1,6,16)             104.2769         estimate D2E/DX2                !
 ! A29   A(5,6,11)             106.93           estimate D2E/DX2                !
 ! A30   A(5,6,16)             112.3129         estimate D2E/DX2                !
 ! A31   A(11,6,16)            110.0926         estimate D2E/DX2                !
 ! A32   A(6,11,56)            164.1238         estimate D2E/DX2                !
 ! A33   A(5,12,21)            106.4427         estimate D2E/DX2                !
 ! A34   A(4,13,22)            105.7872         estimate D2E/DX2                !
 ! A35   A(4,13,83)            107.9158         estimate D2E/DX2                !
 ! A36   A(22,13,83)           141.5223         estimate D2E/DX2                !
 ! A37   A(3,14,23)            106.873          estimate D2E/DX2                !
 ! A38   A(3,14,82)            125.9266         estimate D2E/DX2                !
 ! A39   A(23,14,82)           104.5536         estimate D2E/DX2                !
 ! A40   A(2,15,27)            115.6798         estimate D2E/DX2                !
 ! A41   A(6,16,17)            108.0478         estimate D2E/DX2                !
 ! A42   A(6,16,18)            109.6053         estimate D2E/DX2                !
 ! A43   A(6,16,19)            107.6694         estimate D2E/DX2                !
 ! A44   A(17,16,18)           108.4904         estimate D2E/DX2                !
 ! A45   A(17,16,19)           111.4447         estimate D2E/DX2                !
 ! A46   A(18,16,19)           111.5133         estimate D2E/DX2                !
 ! A47   A(16,19,20)           108.2198         estimate D2E/DX2                !
 ! A48   A(25,24,29)           112.0393         estimate D2E/DX2                !
 ! A49   A(25,24,63)           127.5825         estimate D2E/DX2                !
 ! A50   A(29,24,63)           116.111          estimate D2E/DX2                !
 ! A51   A(24,25,26)           111.3752         estimate D2E/DX2                !
 ! A52   A(24,25,30)           108.346          estimate D2E/DX2                !
 ! A53   A(24,25,37)           108.6898         estimate D2E/DX2                !
 ! A54   A(26,25,30)           107.7905         estimate D2E/DX2                !
 ! A55   A(26,25,37)           115.5818         estimate D2E/DX2                !
 ! A56   A(30,25,37)           104.6362         estimate D2E/DX2                !
 ! A57   A(25,26,27)           111.6378         estimate D2E/DX2                !
 ! A58   A(25,26,31)           108.8295         estimate D2E/DX2                !
 ! A59   A(25,26,36)           110.0921         estimate D2E/DX2                !
 ! A60   A(27,26,31)           108.4408         estimate D2E/DX2                !
 ! A61   A(27,26,36)           107.1431         estimate D2E/DX2                !
 ! A62   A(31,26,36)           110.6864         estimate D2E/DX2                !
 ! A63   A(15,27,26)           107.4273         estimate D2E/DX2                !
 ! A64   A(15,27,28)           111.5687         estimate D2E/DX2                !
 ! A65   A(15,27,32)           109.4081         estimate D2E/DX2                !
 ! A66   A(26,27,28)           111.114          estimate D2E/DX2                !
 ! A67   A(26,27,32)           108.1467         estimate D2E/DX2                !
 ! A68   A(28,27,32)           109.0977         estimate D2E/DX2                !
 ! A69   A(27,28,29)           110.4415         estimate D2E/DX2                !
 ! A70   A(27,28,33)           105.9871         estimate D2E/DX2                !
 ! A71   A(27,28,35)           112.3923         estimate D2E/DX2                !
 ! A72   A(29,28,33)           107.9622         estimate D2E/DX2                !
 ! A73   A(29,28,35)           114.3289         estimate D2E/DX2                !
 ! A74   A(33,28,35)           105.1449         estimate D2E/DX2                !
 ! A75   A(24,29,28)           112.3452         estimate D2E/DX2                !
 ! A76   A(24,29,34)           107.8624         estimate D2E/DX2                !
 ! A77   A(24,29,38)           106.6646         estimate D2E/DX2                !
 ! A78   A(28,29,34)           108.5877         estimate D2E/DX2                !
 ! A79   A(28,29,38)           114.5031         estimate D2E/DX2                !
 ! A80   A(34,29,38)           106.5409         estimate D2E/DX2                !
 ! A81   A(26,31,56)           151.6356         estimate D2E/DX2                !
 ! A82   A(28,35,43)           107.0309         estimate D2E/DX2                !
 ! A83   A(26,36,44)           108.2504         estimate D2E/DX2                !
 ! A84   A(25,37,49)           117.3154         estimate D2E/DX2                !
 ! A85   A(29,38,39)           109.1374         estimate D2E/DX2                !
 ! A86   A(29,38,40)           109.032          estimate D2E/DX2                !
 ! A87   A(29,38,41)           108.7356         estimate D2E/DX2                !
 ! A88   A(39,38,40)           109.4619         estimate D2E/DX2                !
 ! A89   A(39,38,41)           109.9651         estimate D2E/DX2                !
 ! A90   A(40,38,41)           110.482          estimate D2E/DX2                !
 ! A91   A(38,41,42)           108.0628         estimate D2E/DX2                !
 ! A92   A(46,45,50)           111.5497         estimate D2E/DX2                !
 ! A93   A(45,46,47)           108.7077         estimate D2E/DX2                !
 ! A94   A(45,46,51)           108.7584         estimate D2E/DX2                !
 ! A95   A(45,46,58)           108.6323         estimate D2E/DX2                !
 ! A96   A(47,46,51)           111.1269         estimate D2E/DX2                !
 ! A97   A(47,46,58)           107.7426         estimate D2E/DX2                !
 ! A98   A(51,46,58)           111.7973         estimate D2E/DX2                !
 ! A99   A(46,47,48)           111.8405         estimate D2E/DX2                !
 ! A100  A(46,47,52)           106.4854         estimate D2E/DX2                !
 ! A101  A(46,47,57)           112.8205         estimate D2E/DX2                !
 ! A102  A(48,47,52)           108.9202         estimate D2E/DX2                !
 ! A103  A(48,47,57)           105.9486         estimate D2E/DX2                !
 ! A104  A(52,47,57)           110.8325         estimate D2E/DX2                !
 ! A105  A(47,48,49)           111.663          estimate D2E/DX2                !
 ! A106  A(47,48,53)           108.4379         estimate D2E/DX2                !
 ! A107  A(47,48,56)           109.5655         estimate D2E/DX2                !
 ! A108  A(49,48,53)           107.7756         estimate D2E/DX2                !
 ! A109  A(49,48,56)           109.7885         estimate D2E/DX2                !
 ! A110  A(53,48,56)           109.5648         estimate D2E/DX2                !
 ! A111  A(37,49,48)           109.8875         estimate D2E/DX2                !
 ! A112  A(37,49,50)           108.686          estimate D2E/DX2                !
 ! A113  A(37,49,55)           110.1266         estimate D2E/DX2                !
 ! A114  A(48,49,50)           108.5209         estimate D2E/DX2                !
 ! A115  A(48,49,55)           110.1277         estimate D2E/DX2                !
 ! A116  A(50,49,55)           109.4564         estimate D2E/DX2                !
 ! A117  A(45,50,49)           109.041          estimate D2E/DX2                !
 ! A118  A(45,50,54)           110.1001         estimate D2E/DX2                !
 ! A119  A(45,50,59)           107.4366         estimate D2E/DX2                !
 ! A120  A(49,50,54)           108.1611         estimate D2E/DX2                !
 ! A121  A(49,50,59)           115.3611         estimate D2E/DX2                !
 ! A122  A(54,50,59)           106.6743         estimate D2E/DX2                !
 ! A123  A(11,56,31)            59.6434         estimate D2E/DX2                !
 ! A124  A(11,56,48)           115.4368         estimate D2E/DX2                !
 ! A125  A(11,56,64)           106.409          estimate D2E/DX2                !
 ! A126  A(31,56,48)           107.5322         estimate D2E/DX2                !
 ! A127  A(31,56,64)           146.3339         estimate D2E/DX2                !
 ! A128  A(48,56,64)           106.0933         estimate D2E/DX2                !
 ! A129  A(47,57,65)           107.7968         estimate D2E/DX2                !
 ! A130  A(46,58,66)           114.7265         estimate D2E/DX2                !
 ! A131  A(50,59,60)           108.364          estimate D2E/DX2                !
 ! A132  A(50,59,61)           109.4203         estimate D2E/DX2                !
 ! A133  A(50,59,62)           113.4429         estimate D2E/DX2                !
 ! A134  A(60,59,61)           108.5762         estimate D2E/DX2                !
 ! A135  A(60,59,62)           106.9307         estimate D2E/DX2                !
 ! A136  A(61,59,62)           109.964          estimate D2E/DX2                !
 ! A137  A(59,62,63)           106.3394         estimate D2E/DX2                !
 ! A138  A(59,62,84)           122.132          estimate D2E/DX2                !
 ! A139  A(63,62,84)           121.1903         estimate D2E/DX2                !
 ! A140  A(24,63,62)           148.0212         estimate D2E/DX2                !
 ! A141  A(58,66,67)           108.412          estimate D2E/DX2                !
 ! A142  A(58,66,68)           109.2178         estimate D2E/DX2                !
 ! A143  A(58,66,69)           109.0055         estimate D2E/DX2                !
 ! A144  A(67,66,68)           108.2812         estimate D2E/DX2                !
 ! A145  A(67,66,69)           110.5687         estimate D2E/DX2                !
 ! A146  A(68,66,69)           111.2995         estimate D2E/DX2                !
 ! A147  A(66,69,70)           107.7573         estimate D2E/DX2                !
 ! A148  A(66,69,71)           108.5494         estimate D2E/DX2                !
 ! A149  A(66,69,72)           114.5975         estimate D2E/DX2                !
 ! A150  A(70,69,71)           106.2357         estimate D2E/DX2                !
 ! A151  A(70,69,72)           110.7306         estimate D2E/DX2                !
 ! A152  A(71,69,72)           108.6267         estimate D2E/DX2                !
 ! A153  A(69,72,73)           107.5781         estimate D2E/DX2                !
 ! A154  A(69,72,74)           108.3839         estimate D2E/DX2                !
 ! A155  A(69,72,75)           114.4443         estimate D2E/DX2                !
 ! A156  A(73,72,74)           106.5583         estimate D2E/DX2                !
 ! A157  A(73,72,75)           110.5058         estimate D2E/DX2                !
 ! A158  A(74,72,75)           109.0581         estimate D2E/DX2                !
 ! A159  A(72,75,76)           109.8528         estimate D2E/DX2                !
 ! A160  A(72,75,77)           110.3559         estimate D2E/DX2                !
 ! A161  A(72,75,78)           114.1196         estimate D2E/DX2                !
 ! A162  A(76,75,77)           106.6247         estimate D2E/DX2                !
 ! A163  A(76,75,78)           106.8995         estimate D2E/DX2                !
 ! A164  A(77,75,78)           108.6689         estimate D2E/DX2                !
 ! A165  A(75,78,79)           111.0624         estimate D2E/DX2                !
 ! A166  A(75,78,80)           111.409          estimate D2E/DX2                !
 ! A167  A(75,78,81)           111.8108         estimate D2E/DX2                !
 ! A168  A(79,78,80)           108.0516         estimate D2E/DX2                !
 ! A169  A(79,78,81)           107.0108         estimate D2E/DX2                !
 ! A170  A(80,78,81)           107.2771         estimate D2E/DX2                !
 ! A171  A(78,81,82)           113.338          estimate D2E/DX2                !
 ! A172  A(78,81,83)           112.9478         estimate D2E/DX2                !
 ! A173  A(78,81,84)           112.3206         estimate D2E/DX2                !
 ! A174  A(82,81,83)           103.6557         estimate D2E/DX2                !
 ! A175  A(82,81,84)           105.2013         estimate D2E/DX2                !
 ! A176  A(83,81,84)           108.7319         estimate D2E/DX2                !
 ! A177  A(14,82,81)           112.8749         estimate D2E/DX2                !
 ! A178  A(13,83,81)           160.6905         estimate D2E/DX2                !
 ! A179  L(62,84,81,1,-1)      181.0992         estimate D2E/DX2                !
 ! A180  L(62,84,81,1,-2)      193.4598         estimate D2E/DX2                !
 ! D1    D(6,1,2,3)            -54.7261         estimate D2E/DX2                !
 ! D2    D(6,1,2,7)           -175.8604         estimate D2E/DX2                !
 ! D3    D(6,1,2,15)            63.8189         estimate D2E/DX2                !
 ! D4    D(2,1,6,5)             51.9908         estimate D2E/DX2                !
 ! D5    D(2,1,6,11)           -67.5969         estimate D2E/DX2                !
 ! D6    D(2,1,6,16)           174.3346         estimate D2E/DX2                !
 ! D7    D(1,2,3,4)             54.4359         estimate D2E/DX2                !
 ! D8    D(1,2,3,8)            -64.4226         estimate D2E/DX2                !
 ! D9    D(1,2,3,14)           178.2787         estimate D2E/DX2                !
 ! D10   D(7,2,3,4)            171.5188         estimate D2E/DX2                !
 ! D11   D(7,2,3,8)             52.6603         estimate D2E/DX2                !
 ! D12   D(7,2,3,14)           -64.6384         estimate D2E/DX2                !
 ! D13   D(15,2,3,4)           -69.7412         estimate D2E/DX2                !
 ! D14   D(15,2,3,8)           171.4003         estimate D2E/DX2                !
 ! D15   D(15,2,3,14)           54.1016         estimate D2E/DX2                !
 ! D16   D(1,2,15,27)           65.6908         estimate D2E/DX2                !
 ! D17   D(3,2,15,27)         -171.0825         estimate D2E/DX2                !
 ! D18   D(7,2,15,27)          -51.4364         estimate D2E/DX2                !
 ! D19   D(2,3,4,5)            -53.5796         estimate D2E/DX2                !
 ! D20   D(2,3,4,9)             66.8327         estimate D2E/DX2                !
 ! D21   D(2,3,4,13)          -176.3688         estimate D2E/DX2                !
 ! D22   D(8,3,4,5)             64.4898         estimate D2E/DX2                !
 ! D23   D(8,3,4,9)           -175.0979         estimate D2E/DX2                !
 ! D24   D(8,3,4,13)           -58.2994         estimate D2E/DX2                !
 ! D25   D(14,3,4,5)          -176.7696         estimate D2E/DX2                !
 ! D26   D(14,3,4,9)           -56.3573         estimate D2E/DX2                !
 ! D27   D(14,3,4,13)           60.4412         estimate D2E/DX2                !
 ! D28   D(2,3,14,23)          -27.5655         estimate D2E/DX2                !
 ! D29   D(2,3,14,82)         -150.5253         estimate D2E/DX2                !
 ! D30   D(4,3,14,23)           94.7982         estimate D2E/DX2                !
 ! D31   D(4,3,14,82)          -28.1617         estimate D2E/DX2                !
 ! D32   D(8,3,14,23)         -145.2976         estimate D2E/DX2                !
 ! D33   D(8,3,14,82)           91.7425         estimate D2E/DX2                !
 ! D34   D(3,4,5,6)             51.4587         estimate D2E/DX2                !
 ! D35   D(3,4,5,10)           169.2851         estimate D2E/DX2                !
 ! D36   D(3,4,5,12)           -72.9568         estimate D2E/DX2                !
 ! D37   D(9,4,5,6)            -68.8316         estimate D2E/DX2                !
 ! D38   D(9,4,5,10)            48.9948         estimate D2E/DX2                !
 ! D39   D(9,4,5,12)           166.7529         estimate D2E/DX2                !
 ! D40   D(13,4,5,6)           175.7256         estimate D2E/DX2                !
 ! D41   D(13,4,5,10)          -66.448          estimate D2E/DX2                !
 ! D42   D(13,4,5,12)           51.3101         estimate D2E/DX2                !
 ! D43   D(3,4,13,22)           85.2454         estimate D2E/DX2                !
 ! D44   D(3,4,13,83)          -75.9107         estimate D2E/DX2                !
 ! D45   D(5,4,13,22)          -38.7096         estimate D2E/DX2                !
 ! D46   D(5,4,13,83)          160.1342         estimate D2E/DX2                !
 ! D47   D(9,4,13,22)         -156.1747         estimate D2E/DX2                !
 ! D48   D(9,4,13,83)           42.6692         estimate D2E/DX2                !
 ! D49   D(4,5,6,1)            -49.0953         estimate D2E/DX2                !
 ! D50   D(4,5,6,11)            72.2899         estimate D2E/DX2                !
 ! D51   D(4,5,6,16)          -166.8404         estimate D2E/DX2                !
 ! D52   D(10,5,6,1)          -167.7222         estimate D2E/DX2                !
 ! D53   D(10,5,6,11)          -46.337          estimate D2E/DX2                !
 ! D54   D(10,5,6,16)           74.5327         estimate D2E/DX2                !
 ! D55   D(12,5,6,1)            70.1828         estimate D2E/DX2                !
 ! D56   D(12,5,6,11)         -168.432          estimate D2E/DX2                !
 ! D57   D(12,5,6,16)          -47.5623         estimate D2E/DX2                !
 ! D58   D(4,5,12,21)         -164.1511         estimate D2E/DX2                !
 ! D59   D(6,5,12,21)           73.8056         estimate D2E/DX2                !
 ! D60   D(10,5,12,21)         -47.0393         estimate D2E/DX2                !
 ! D61   D(1,6,11,56)          167.1563         estimate D2E/DX2                !
 ! D62   D(5,6,11,56)           43.8462         estimate D2E/DX2                !
 ! D63   D(16,6,11,56)         -78.4253         estimate D2E/DX2                !
 ! D64   D(1,6,16,17)          -41.6149         estimate D2E/DX2                !
 ! D65   D(1,6,16,18)           76.4288         estimate D2E/DX2                !
 ! D66   D(1,6,16,19)         -162.103          estimate D2E/DX2                !
 ! D67   D(5,6,16,17)           81.2865         estimate D2E/DX2                !
 ! D68   D(5,6,16,18)         -160.6697         estimate D2E/DX2                !
 ! D69   D(5,6,16,19)          -39.2015         estimate D2E/DX2                !
 ! D70   D(11,6,16,17)        -159.6818         estimate D2E/DX2                !
 ! D71   D(11,6,16,18)         -41.638          estimate D2E/DX2                !
 ! D72   D(11,6,16,19)          79.8301         estimate D2E/DX2                !
 ! D73   D(6,11,56,31)        -170.6616         estimate D2E/DX2                !
 ! D74   D(6,11,56,48)         -74.4605         estimate D2E/DX2                !
 ! D75   D(6,11,56,64)          42.9303         estimate D2E/DX2                !
 ! D76   D(4,13,83,81)          35.9327         estimate D2E/DX2                !
 ! D77   D(22,13,83,81)       -114.0989         estimate D2E/DX2                !
 ! D78   D(3,14,82,81)          45.5752         estimate D2E/DX2                !
 ! D79   D(23,14,82,81)        -78.3723         estimate D2E/DX2                !
 ! D80   D(2,15,27,26)        -135.482          estimate D2E/DX2                !
 ! D81   D(2,15,27,28)         102.5078         estimate D2E/DX2                !
 ! D82   D(2,15,27,32)         -18.308          estimate D2E/DX2                !
 ! D83   D(6,16,19,20)        -171.2978         estimate D2E/DX2                !
 ! D84   D(17,16,19,20)         70.3779         estimate D2E/DX2                !
 ! D85   D(18,16,19,20)        -51.0269         estimate D2E/DX2                !
 ! D86   D(29,24,25,26)        -59.5163         estimate D2E/DX2                !
 ! D87   D(29,24,25,30)         58.8735         estimate D2E/DX2                !
 ! D88   D(29,24,25,37)        172.0279         estimate D2E/DX2                !
 ! D89   D(63,24,25,26)         96.0864         estimate D2E/DX2                !
 ! D90   D(63,24,25,30)       -145.5237         estimate D2E/DX2                !
 ! D91   D(63,24,25,37)        -32.3694         estimate D2E/DX2                !
 ! D92   D(25,24,29,28)         58.9342         estimate D2E/DX2                !
 ! D93   D(25,24,29,34)        -60.7063         estimate D2E/DX2                !
 ! D94   D(25,24,29,38)       -174.8295         estimate D2E/DX2                !
 ! D95   D(63,24,29,28)        -99.6862         estimate D2E/DX2                !
 ! D96   D(63,24,29,34)        140.6733         estimate D2E/DX2                !
 ! D97   D(63,24,29,38)         26.5501         estimate D2E/DX2                !
 ! D98   D(25,24,63,62)         55.8505         estimate D2E/DX2                !
 ! D99   D(29,24,63,62)       -149.3884         estimate D2E/DX2                !
 ! D100  D(24,25,26,27)          3.7813         estimate D2E/DX2                !
 ! D101  D(24,25,26,31)       -115.8764         estimate D2E/DX2                !
 ! D102  D(24,25,26,36)        122.6472         estimate D2E/DX2                !
 ! D103  D(30,25,26,27)       -114.9414         estimate D2E/DX2                !
 ! D104  D(30,25,26,31)        125.4008         estimate D2E/DX2                !
 ! D105  D(30,25,26,36)          3.9244         estimate D2E/DX2                !
 ! D106  D(37,25,26,27)        128.454          estimate D2E/DX2                !
 ! D107  D(37,25,26,31)          8.7963         estimate D2E/DX2                !
 ! D108  D(37,25,26,36)       -112.6801         estimate D2E/DX2                !
 ! D109  D(24,25,37,49)         64.7482         estimate D2E/DX2                !
 ! D110  D(26,25,37,49)        -61.3044         estimate D2E/DX2                !
 ! D111  D(30,25,37,49)       -179.6722         estimate D2E/DX2                !
 ! D112  D(25,26,27,15)        -72.5436         estimate D2E/DX2                !
 ! D113  D(25,26,27,28)         49.7492         estimate D2E/DX2                !
 ! D114  D(25,26,27,32)        169.4614         estimate D2E/DX2                !
 ! D115  D(31,26,27,15)         47.3433         estimate D2E/DX2                !
 ! D116  D(31,26,27,28)        169.6361         estimate D2E/DX2                !
 ! D117  D(31,26,27,32)        -70.6517         estimate D2E/DX2                !
 ! D118  D(36,26,27,15)        166.8511         estimate D2E/DX2                !
 ! D119  D(36,26,27,28)        -70.8561         estimate D2E/DX2                !
 ! D120  D(36,26,27,32)         48.8561         estimate D2E/DX2                !
 ! D121  D(25,26,31,56)        -19.7252         estimate D2E/DX2                !
 ! D122  D(27,26,31,56)       -141.3518         estimate D2E/DX2                !
 ! D123  D(36,26,31,56)        101.3878         estimate D2E/DX2                !
 ! D124  D(25,26,36,44)         84.711          estimate D2E/DX2                !
 ! D125  D(27,26,36,44)       -153.7068         estimate D2E/DX2                !
 ! D126  D(31,26,36,44)        -35.6518         estimate D2E/DX2                !
 ! D127  D(15,27,28,29)         69.6659         estimate D2E/DX2                !
 ! D128  D(15,27,28,33)       -173.6456         estimate D2E/DX2                !
 ! D129  D(15,27,28,35)        -59.3164         estimate D2E/DX2                !
 ! D130  D(26,27,28,29)        -50.193          estimate D2E/DX2                !
 ! D131  D(26,27,28,33)         66.4955         estimate D2E/DX2                !
 ! D132  D(26,27,28,35)       -179.1753         estimate D2E/DX2                !
 ! D133  D(32,27,28,29)       -169.3371         estimate D2E/DX2                !
 ! D134  D(32,27,28,33)        -52.6486         estimate D2E/DX2                !
 ! D135  D(32,27,28,35)         61.6805         estimate D2E/DX2                !
 ! D136  D(27,28,29,24)         -2.2978         estimate D2E/DX2                !
 ! D137  D(27,28,29,34)        116.9194         estimate D2E/DX2                !
 ! D138  D(27,28,29,38)       -124.1743         estimate D2E/DX2                !
 ! D139  D(33,28,29,24)       -117.754          estimate D2E/DX2                !
 ! D140  D(33,28,29,34)          1.4631         estimate D2E/DX2                !
 ! D141  D(33,28,29,38)        120.3694         estimate D2E/DX2                !
 ! D142  D(35,28,29,24)        125.6312         estimate D2E/DX2                !
 ! D143  D(35,28,29,34)       -115.1516         estimate D2E/DX2                !
 ! D144  D(35,28,29,38)          3.7547         estimate D2E/DX2                !
 ! D145  D(27,28,35,43)         79.9334         estimate D2E/DX2                !
 ! D146  D(29,28,35,43)        -46.9958         estimate D2E/DX2                !
 ! D147  D(33,28,35,43)       -165.2247         estimate D2E/DX2                !
 ! D148  D(24,29,38,39)         54.8119         estimate D2E/DX2                !
 ! D149  D(24,29,38,40)        174.3343         estimate D2E/DX2                !
 ! D150  D(24,29,38,41)        -65.1446         estimate D2E/DX2                !
 ! D151  D(28,29,38,39)        179.7414         estimate D2E/DX2                !
 ! D152  D(28,29,38,40)        -60.7361         estimate D2E/DX2                !
 ! D153  D(28,29,38,41)         59.7849         estimate D2E/DX2                !
 ! D154  D(34,29,38,39)        -60.2062         estimate D2E/DX2                !
 ! D155  D(34,29,38,40)         59.3163         estimate D2E/DX2                !
 ! D156  D(34,29,38,41)        179.8374         estimate D2E/DX2                !
 ! D157  D(26,31,56,11)        150.0459         estimate D2E/DX2                !
 ! D158  D(26,31,56,48)         40.3527         estimate D2E/DX2                !
 ! D159  D(26,31,56,64)       -136.7377         estimate D2E/DX2                !
 ! D160  D(25,37,49,48)        121.4307         estimate D2E/DX2                !
 ! D161  D(25,37,49,50)       -119.9532         estimate D2E/DX2                !
 ! D162  D(25,37,49,55)         -0.0566         estimate D2E/DX2                !
 ! D163  D(29,38,41,42)       -176.9465         estimate D2E/DX2                !
 ! D164  D(39,38,41,42)         63.6124         estimate D2E/DX2                !
 ! D165  D(40,38,41,42)        -57.3249         estimate D2E/DX2                !
 ! D166  D(50,45,46,47)        -64.2673         estimate D2E/DX2                !
 ! D167  D(50,45,46,51)         56.8566         estimate D2E/DX2                !
 ! D168  D(50,45,46,58)        178.7508         estimate D2E/DX2                !
 ! D169  D(46,45,50,49)         67.653          estimate D2E/DX2                !
 ! D170  D(46,45,50,54)        -50.8638         estimate D2E/DX2                !
 ! D171  D(46,45,50,59)       -166.6615         estimate D2E/DX2                !
 ! D172  D(45,46,47,48)         54.1849         estimate D2E/DX2                !
 ! D173  D(45,46,47,52)        -64.6906         estimate D2E/DX2                !
 ! D174  D(45,46,47,57)        173.5128         estimate D2E/DX2                !
 ! D175  D(51,46,47,48)        -65.4736         estimate D2E/DX2                !
 ! D176  D(51,46,47,52)        175.6508         estimate D2E/DX2                !
 ! D177  D(51,46,47,57)         53.8542         estimate D2E/DX2                !
 ! D178  D(58,46,47,48)        171.734          estimate D2E/DX2                !
 ! D179  D(58,46,47,52)         52.8585         estimate D2E/DX2                !
 ! D180  D(58,46,47,57)        -68.9381         estimate D2E/DX2                !
 ! D181  D(45,46,58,66)        -71.2425         estimate D2E/DX2                !
 ! D182  D(47,46,58,66)        171.1596         estimate D2E/DX2                !
 ! D183  D(51,46,58,66)         48.7796         estimate D2E/DX2                !
 ! D184  D(46,47,48,49)        -49.7029         estimate D2E/DX2                !
 ! D185  D(46,47,48,53)         68.8969         estimate D2E/DX2                !
 ! D186  D(46,47,48,56)       -171.5577         estimate D2E/DX2                !
 ! D187  D(52,47,48,49)         67.7199         estimate D2E/DX2                !
 ! D188  D(52,47,48,53)       -173.6802         estimate D2E/DX2                !
 ! D189  D(52,47,48,56)        -54.1348         estimate D2E/DX2                !
 ! D190  D(57,47,48,49)       -173.0081         estimate D2E/DX2                !
 ! D191  D(57,47,48,53)        -54.4083         estimate D2E/DX2                !
 ! D192  D(57,47,48,56)         65.1371         estimate D2E/DX2                !
 ! D193  D(46,47,57,65)         63.0852         estimate D2E/DX2                !
 ! D194  D(48,47,57,65)       -174.2295         estimate D2E/DX2                !
 ! D195  D(52,47,57,65)        -56.2237         estimate D2E/DX2                !
 ! D196  D(47,48,49,37)        169.5696         estimate D2E/DX2                !
 ! D197  D(47,48,49,50)         50.8518         estimate D2E/DX2                !
 ! D198  D(47,48,49,55)        -68.9438         estimate D2E/DX2                !
 ! D199  D(53,48,49,37)         50.5758         estimate D2E/DX2                !
 ! D200  D(53,48,49,50)        -68.142          estimate D2E/DX2                !
 ! D201  D(53,48,49,55)        172.0624         estimate D2E/DX2                !
 ! D202  D(56,48,49,37)        -68.7043         estimate D2E/DX2                !
 ! D203  D(56,48,49,50)        172.5779         estimate D2E/DX2                !
 ! D204  D(56,48,49,55)         52.7823         estimate D2E/DX2                !
 ! D205  D(47,48,56,11)         64.6145         estimate D2E/DX2                !
 ! D206  D(47,48,56,31)        128.725          estimate D2E/DX2                !
 ! D207  D(47,48,56,64)        -52.9532         estimate D2E/DX2                !
 ! D208  D(49,48,56,11)        -58.3574         estimate D2E/DX2                !
 ! D209  D(49,48,56,31)          5.7531         estimate D2E/DX2                !
 ! D210  D(49,48,56,64)       -175.9251         estimate D2E/DX2                !
 ! D211  D(53,48,56,11)       -176.5345         estimate D2E/DX2                !
 ! D212  D(53,48,56,31)       -112.424          estimate D2E/DX2                !
 ! D213  D(53,48,56,64)         65.8978         estimate D2E/DX2                !
 ! D214  D(37,49,50,45)       -178.4367         estimate D2E/DX2                !
 ! D215  D(37,49,50,54)        -58.7124         estimate D2E/DX2                !
 ! D216  D(37,49,50,59)         60.6063         estimate D2E/DX2                !
 ! D217  D(48,49,50,45)        -58.9633         estimate D2E/DX2                !
 ! D218  D(48,49,50,54)         60.7609         estimate D2E/DX2                !
 ! D219  D(48,49,50,59)       -179.9203         estimate D2E/DX2                !
 ! D220  D(55,49,50,45)         61.2507         estimate D2E/DX2                !
 ! D221  D(55,49,50,54)       -179.0251         estimate D2E/DX2                !
 ! D222  D(55,49,50,59)        -59.7063         estimate D2E/DX2                !
 ! D223  D(45,50,59,60)         56.2001         estimate D2E/DX2                !
 ! D224  D(45,50,59,61)        174.4255         estimate D2E/DX2                !
 ! D225  D(45,50,59,62)        -62.3804         estimate D2E/DX2                !
 ! D226  D(49,50,59,60)        178.0236         estimate D2E/DX2                !
 ! D227  D(49,50,59,61)        -63.751          estimate D2E/DX2                !
 ! D228  D(49,50,59,62)         59.4431         estimate D2E/DX2                !
 ! D229  D(54,50,59,60)        -61.8408         estimate D2E/DX2                !
 ! D230  D(54,50,59,61)         56.3847         estimate D2E/DX2                !
 ! D231  D(54,50,59,62)        179.5787         estimate D2E/DX2                !
 ! D232  D(46,58,66,67)       -100.3189         estimate D2E/DX2                !
 ! D233  D(46,58,66,68)         17.4661         estimate D2E/DX2                !
 ! D234  D(46,58,66,69)        139.2639         estimate D2E/DX2                !
 ! D235  D(50,59,62,63)        -82.9979         estimate D2E/DX2                !
 ! D236  D(50,59,62,84)         62.2301         estimate D2E/DX2                !
 ! D237  D(60,59,62,63)        157.5987         estimate D2E/DX2                !
 ! D238  D(60,59,62,84)        -57.1733         estimate D2E/DX2                !
 ! D239  D(61,59,62,63)         39.897          estimate D2E/DX2                !
 ! D240  D(61,59,62,84)       -174.875          estimate D2E/DX2                !
 ! D241  D(59,62,63,24)         -1.4763         estimate D2E/DX2                !
 ! D242  D(84,62,63,24)       -147.1045         estimate D2E/DX2                !
 ! D243  D(59,62,81,78)         51.579          estimate D2E/DX2                !
 ! D244  D(59,62,81,82)        171.1647         estimate D2E/DX2                !
 ! D245  D(59,62,81,83)        -80.1393         estimate D2E/DX2                !
 ! D246  D(63,62,81,78)       -163.7149         estimate D2E/DX2                !
 ! D247  D(63,62,81,82)        -44.1292         estimate D2E/DX2                !
 ! D248  D(63,62,81,83)         64.5668         estimate D2E/DX2                !
 ! D249  D(58,66,69,70)        178.6781         estimate D2E/DX2                !
 ! D250  D(58,66,69,71)         64.0251         estimate D2E/DX2                !
 ! D251  D(58,66,69,72)        -57.5852         estimate D2E/DX2                !
 ! D252  D(67,66,69,70)         59.5965         estimate D2E/DX2                !
 ! D253  D(67,66,69,71)        -55.0564         estimate D2E/DX2                !
 ! D254  D(67,66,69,72)       -176.6667         estimate D2E/DX2                !
 ! D255  D(68,66,69,70)        -60.7947         estimate D2E/DX2                !
 ! D256  D(68,66,69,71)       -175.4477         estimate D2E/DX2                !
 ! D257  D(68,66,69,72)         62.9421         estimate D2E/DX2                !
 ! D258  D(66,69,72,73)         57.6689         estimate D2E/DX2                !
 ! D259  D(66,69,72,74)        172.5233         estimate D2E/DX2                !
 ! D260  D(66,69,72,75)        -65.5365         estimate D2E/DX2                !
 ! D261  D(70,69,72,73)        179.8032         estimate D2E/DX2                !
 ! D262  D(70,69,72,74)        -65.3424         estimate D2E/DX2                !
 ! D263  D(70,69,72,75)         56.5978         estimate D2E/DX2                !
 ! D264  D(71,69,72,73)        -63.899          estimate D2E/DX2                !
 ! D265  D(71,69,72,74)         50.9554         estimate D2E/DX2                !
 ! D266  D(71,69,72,75)        172.8956         estimate D2E/DX2                !
 ! D267  D(69,72,75,76)        -60.2951         estimate D2E/DX2                !
 ! D268  D(69,72,75,77)         56.989          estimate D2E/DX2                !
 ! D269  D(69,72,75,78)        179.6861         estimate D2E/DX2                !
 ! D270  D(73,72,75,76)        178.0914         estimate D2E/DX2                !
 ! D271  D(73,72,75,77)        -64.6246         estimate D2E/DX2                !
 ! D272  D(73,72,75,78)         58.0726         estimate D2E/DX2                !
 ! D273  D(74,72,75,76)         61.276          estimate D2E/DX2                !
 ! D274  D(74,72,75,77)        178.56           estimate D2E/DX2                !
 ! D275  D(74,72,75,78)        -58.7428         estimate D2E/DX2                !
 ! D276  D(72,75,78,79)        173.9889         estimate D2E/DX2                !
 ! D277  D(72,75,78,80)         53.4807         estimate D2E/DX2                !
 ! D278  D(72,75,78,81)        -66.5529         estimate D2E/DX2                !
 ! D279  D(76,75,78,79)         52.3268         estimate D2E/DX2                !
 ! D280  D(76,75,78,80)        -68.1815         estimate D2E/DX2                !
 ! D281  D(76,75,78,81)        171.7849         estimate D2E/DX2                !
 ! D282  D(77,75,78,79)        -62.3988         estimate D2E/DX2                !
 ! D283  D(77,75,78,80)        177.093          estimate D2E/DX2                !
 ! D284  D(77,75,78,81)         57.0594         estimate D2E/DX2                !
 ! D285  D(75,78,81,82)        177.4406         estimate D2E/DX2                !
 ! D286  D(75,78,81,83)         59.931          estimate D2E/DX2                !
 ! D287  D(75,78,81,84)        -63.4919         estimate D2E/DX2                !
 ! D288  D(79,78,81,82)        -60.7404         estimate D2E/DX2                !
 ! D289  D(79,78,81,83)       -178.25           estimate D2E/DX2                !
 ! D290  D(79,78,81,84)         58.3272         estimate D2E/DX2                !
 ! D291  D(80,78,81,82)         55.0142         estimate D2E/DX2                !
 ! D292  D(80,78,81,83)        -62.4955         estimate D2E/DX2                !
 ! D293  D(80,78,81,84)        174.0817         estimate D2E/DX2                !
 ! D294  D(78,81,82,14)       -176.501          estimate D2E/DX2                !
 ! D295  D(83,81,82,14)        -53.694          estimate D2E/DX2                !
 ! D296  D(84,81,82,14)         60.4154         estimate D2E/DX2                !
 ! D297  D(78,81,83,13)        167.3668         estimate D2E/DX2                !
 ! D298  D(82,81,83,13)         44.3024         estimate D2E/DX2                !
 ! D299  D(84,81,83,13)        -67.2479         estimate D2E/DX2                !
 --------------------------------------------------------------------------------
 Trust Radius=3.00D-01 FncErr=1.00D-07 GrdErr=1.00D-06
 Number of steps in this run=    504 maximum allowed number of steps=    504.
 GradGradGradGradGradGradGradGradGradGradGradGradGradGradGradGradGradGrad

 Leave Link  103 at Wed Apr  6 15:55:05 2016, MaxMem= 10737418240 cpu:         1.0
 (Enter /share/apps//g09/l202.exe)
 Stoichiometry    C23H44NO16(1+)
 Framework group  C1[X(C23H44NO16)]
 Deg. of freedom   246
 Full point group                 C1      NOp   1
 Largest Abelian subgroup         C1      NOp   1
 Largest concise Abelian subgroup C1      NOp   1
                         Standard orientation:                         
 ---------------------------------------------------------------------
 Center     Atomic      Atomic             Coordinates (Angstroms)
 Number     Number       Type             X           Y           Z
 ---------------------------------------------------------------------
      1          8           0       -2.166274    2.478513   -1.391543
      2          6           0       -2.119325    1.115205   -1.727410
      3          6           0       -0.842815    0.739699   -2.500507
      4          6           0        0.390052    1.184581   -1.695831
      5          6           0        0.311035    2.666820   -1.327091
      6          6           0       -1.032665    2.988357   -0.659577
      7          1           0       -3.022102    0.949802   -2.336019
      8          1           0       -0.859392    1.271246   -3.463948
      9          1           0        0.449107    0.586687   -0.774287
     10          1           0        1.106348    2.893752   -0.596265
     11          1           0       -1.003591    2.545161    0.351933
     12          8           0        0.554594    3.383744   -2.546280
     13          8           0        1.614771    0.935323   -2.407308
     14          8           0       -0.815975   -0.664250   -2.788179
     15          8           0       -2.118522    0.233080   -0.595954
     16          6           0       -1.289904    4.495487   -0.566539
     17          1           0       -1.673220    4.837628   -1.542589
     18          1           0       -2.057226    4.692949    0.198852
     19          8           0       -0.042947    5.131586   -0.239319
     20          1           0       -0.221137    6.065878   -0.042259
     21          1           0        0.760724    4.302244   -2.290061
     22          1           0        1.748057    1.712978   -2.989580
     23          1           0       -1.337341   -1.108814   -2.086016
     24          8           0       -2.221372   -2.030702    1.040695
     25          6           0       -2.306073   -1.094416    2.138814
     26          6           0       -2.900120    0.273373    1.675936
     27          6           0       -3.324386    0.236138    0.201741
     28          6           0       -4.198922   -0.992804   -0.091700
     29          6           0       -3.514360   -2.294711    0.452332
     30          1           0       -2.984043   -1.515600    2.903676
     31          1           0       -2.135245    1.051128    1.797561
     32          1           0       -3.901339    1.147481   -0.011689
     33          1           0       -5.133526   -0.840797    0.469543
     34          1           0       -4.161460   -2.732237    1.236819
     35          8           0       -4.592931   -1.064345   -1.457946
     36          8           0       -4.066777    0.587389    2.442818
     37          8           0       -1.056014   -1.028833    2.770853
     38          6           0       -3.305610   -3.377247   -0.588335
     39          1           0       -2.817774   -4.244014   -0.114929
     40          1           0       -4.283620   -3.681532   -0.990787
     41          8           0       -2.462669   -2.850732   -1.646119
     42          1           0       -2.375202   -3.535450   -2.330915
     43          1           0       -3.835185   -1.432137   -1.955842
     44          1           0       -3.782682    1.017794    3.266857
     45          8           0        2.256533   -1.060818    1.168801
     46          6           0        2.926346   -0.018503    1.906512
     47          6           0        1.963791    1.155560    2.079618
     48          6           0        0.639969    0.718402    2.715676
     49          6           0        0.046437   -0.502122    2.004275
     50          6           0        1.140545   -1.589263    1.898836
     51          1           0        3.243870   -0.425056    2.891592
     52          1           0        1.762035    1.548116    1.065570
     53          1           0        0.834053    0.434793    3.768763
     54          1           0        1.453856   -1.865714    2.927257
     55          1           0       -0.293028   -0.224047    0.994001
     56          8           0       -0.291938    1.802946    2.675615
     57          8           0        2.485521    2.178324    2.924693
     58          8           0        4.008101    0.427922    1.160318
     59          6           0        0.714769   -2.877697    1.211038
     60          1           0        1.583096   -3.550320    1.167508
     61          1           0       -0.074851   -3.363182    1.801167
     62          8           0        0.268076   -2.683506   -0.139856
     63          1           0       -0.675115   -2.407670   -0.082701
     64          1           0        0.162410    2.565025    3.081253
     65          1           0        3.281717    2.540882    2.496553
     66          6           0        5.114324   -0.509089    1.073497
     67          1           0        5.889159   -0.200637    1.794026
     68          1           0        4.761610   -1.513041    1.354508
     69          6           0        5.667400   -0.493965   -0.346939
     70          1           0        6.519647   -1.193179   -0.383556
     71          1           0        6.080576    0.505949   -0.551315
     72          6           0        4.638976   -0.832340   -1.437402
     73          1           0        3.813407   -0.108807   -1.351909
     74          1           0        5.106271   -0.661081   -2.421268
     75          6           0        4.102379   -2.269856   -1.380625
     76          1           0        4.932790   -2.984391   -1.501340
     77          1           0        3.653131   -2.472390   -0.395926
     78          6           0        3.075636   -2.595739   -2.462586
     79          1           0        2.805797   -3.660047   -2.442866
     80          1           0        3.460704   -2.360384   -3.465264
     81          7           0        1.805532   -1.817226   -2.278756
     82          1           0        1.112057   -1.987714   -3.019596
     83          1           0        1.953448   -0.780041   -2.312179
     84          1           0        1.312193   -2.060977   -1.375735
 ---------------------------------------------------------------------
 Rotational constants (GHZ):      0.1127436      0.0818984      0.0741100
 Leave Link  202 at Wed Apr  6 15:55:07 2016, MaxMem= 10737418240 cpu:         4.5
 (Enter /share/apps//g09/l301.exe)
 Standard basis: 6-311+G(d,p) (5D, 7F)
 Ernie: Thresh=  0.10000D-02 Tol=  0.10000D-05 Strict=F.
 There are  1184 symmetry adapted cartesian basis functions of A   symmetry.
 There are  1144 symmetry adapted basis functions of A   symmetry.
  1144 basis functions,  1792 primitive gaussians,  1184 cartesian basis functions
   158 alpha electrons      158 beta electrons
       nuclear repulsion energy      6107.6381261008 Hartrees.
 IExCor= 1009 DFT=T Ex+Corr=PBE1PBE ExCW=0 ScaHFX=  0.250000
 ScaDFX=  0.750000  0.750000  1.000000  1.000000 ScalE2=  1.000000  1.000000
 IRadAn=      0 IRanWt=     -1 IRanGd=            0 ICorTp=0 IEmpDi=131
 NAtoms=   84 NActive=   84 NUniq=   84 SFac= 1.00D+00 NAtFMM=   60 NAOKFM=T Big=T
 Integral buffers will be    131072 words long.
 Raffenetti 2 integral format.
 Two-electron integral symmetry is turned on.
 R6Disp:  Grimme-D3 Dispersion energy=       -0.0897599622 Hartrees.
 Nuclear repulsion after empirical dispersion term =     6107.5483661386 Hartrees.
 Leave Link  301 at Wed Apr  6 15:55:08 2016, MaxMem= 10737418240 cpu:         2.7
 (Enter /share/apps//g09/l302.exe)
 NPDir=0 NMtPBC=     1 NCelOv=     1 NCel=       1 NClECP=     1 NCelD=      1
         NCelK=      1 NCelE2=     1 NClLst=     1 CellRange=     0.0.
 One-electron integrals computed using PRISM.
 NBasis=  1144 RedAO= T EigKep=  1.25D-06  NBF=  1144
 NBsUse=  1143 1.00D-06 EigRej=  8.11D-07 NBFU=  1143
 Precomputing XC quadrature grid using
 IXCGrd= 4 IRadAn=           0 IRanWt=          -1 IRanGd=           0 AccXCQ= 0.00D+00.
 Generated NRdTot=       0 NPtTot=           0 NUsed=           0 NTot=          32
 NSgBfM=  1115  1122  1122  1128  1128 MxSgAt=    84 MxSgA2=    84.
 Leave Link  302 at Wed Apr  6 15:55:15 2016, MaxMem= 10737418240 cpu:        73.5
 (Enter /share/apps//g09/l303.exe)
 DipDrv:  MaxL=1.
 Leave Link  303 at Wed Apr  6 15:55:17 2016, MaxMem= 10737418240 cpu:        24.8
 (Enter /share/apps//g09/l401.exe)
 ExpMin= 4.38D-02 ExpMax= 8.59D+03 ExpMxC= 1.30D+03 IAcc=2 IRadAn=         4 AccDes= 0.00D+00
 Harris functional with IExCor= 1009 and IRadAn=       4 diagonalized for initial guess.
 HarFok:  IExCor= 1009 AccDes= 0.00D+00 IRadAn=         4 IDoV= 1 UseB2=F ITyADJ=14
 ICtDFT=  3500011 ScaDFX=  1.000000  1.000000  1.000000  1.000000
 FoFCou: FMM=F IPFlag=           0 FMFlag=      100000 FMFlg1=        2001
         NFxFlg=           0 DoJE=T BraDBF=F KetDBF=T FulRan=T
         wScrn=  0.000000 ICntrl=     500 IOpCl=  0 I1Cent=   200000004 NGrid=           0
         NMat0=    1 NMatS0=      1 NMatT0=    0 NMatD0=    1 NMtDS0=    0 NMtDT0=    0
 Petite list used in FoFCou.
 Harris En= -2159.71201160312    
 JPrj=0 DoOrth=F DoCkMO=F.
 Leave Link  401 at Wed Apr  6 15:55:25 2016, MaxMem= 10737418240 cpu:       125.8
 (Enter /share/apps//g09/l502.exe)
 Closed shell SCF:
 Using DIIS extrapolation, IDIIS=  1040.
 Integral symmetry usage will be decided dynamically.
 IVT=     4256630 IEndB=     4256630 NGot= 10737418240 MDV= 10734581291
 LenX= 10734581291 LenY= 10733178251
 Requested convergence on RMS density matrix=1.00D-08 within 128 cycles.
 Requested convergence on MAX density matrix=1.00D-06.
 Requested convergence on             energy=1.00D-06.
 No special actions if energy rises.
 Fock matrices will be formed incrementally for  20 cycles.

 Cycle   1  Pass 1  IDiag  1:
 FoFJK:  IHMeth= 1 ICntrl=       0 DoSepK=F KAlg= 0 I1Cent=   0 FoldK=F
 IRaf= 810000000 NMat=   1 IRICut=       1 DoRegI=T DoRafI=F ISym2E= 0.
 FoFCou: FMM=T IPFlag=           0 FMFlag=      100000 FMFlg1=        2001
         NFxFlg=           0 DoJE=F BraDBF=F KetDBF=F FulRan=T
         wScrn=  0.000000 ICntrl=       0 IOpCl=  0 I1Cent=           0 NGrid=           0
         NMat0=    1 NMatS0=      1 NMatT0=    0 NMatD0=    1 NMtDS0=    0 NMtDT0=    0
 Symmetry not used in FoFCou.
 FMM levels:  10  Number of levels for PrismC:   9
 E= -2158.69655444785    
 DIIS: error= 1.30D-02 at cycle   1 NSaved=   1.
 NSaved= 1 IEnMin= 1 EnMin= -2158.69655444785     IErMin= 1 ErrMin= 1.30D-02
 ErrMax= 1.30D-02  0.00D+00 EMaxC= 1.00D-01 BMatC= 1.02D+00 BMatP= 1.02D+00
 IDIUse=3 WtCom= 8.70D-01 WtEn= 1.30D-01
 Coeff-Com:  0.100D+01
 Coeff-En:   0.100D+01
 Coeff:      0.100D+01
 Gap=     0.264 Goal=   None    Shift=    0.000
 GapD=    0.264 DampG=1.000 DampE=0.500 DampFc=0.5000 IDamp=-1.
 Damping current iteration by 5.00D-01
 RMSDP=1.11D-02 MaxDP=3.32D+00              OVMax= 1.28D-01

 Cycle   2  Pass 1  IDiag  1:
 RMSU=  5.53D-03    CP:  1.01D+00
 E= -2158.97781195045     Delta-E=       -0.281257502596 Rises=F Damp=T
 DIIS: error= 3.18D-03 at cycle   2 NSaved=   2.
 NSaved= 2 IEnMin= 2 EnMin= -2158.97781195045     IErMin= 2 ErrMin= 3.18D-03
 ErrMax= 3.18D-03  0.00D+00 EMaxC= 1.00D-01 BMatC= 8.12D-02 BMatP= 1.02D+00
 IDIUse=3 WtCom= 9.68D-01 WtEn= 3.18D-02
 Coeff-Com:  0.617D-01 0.938D+00
 Coeff-En:   0.160D+00 0.840D+00
 Coeff:      0.648D-01 0.935D+00
 Gap=     0.278 Goal=   None    Shift=    0.000
 RMSDP=5.37D-03 MaxDP=1.45D+00 DE=-2.81D-01 OVMax= 7.94D-02

 Cycle   3  Pass 1  IDiag  1:
 RMSU=  2.72D-03    CP:  9.16D-01  7.66D-01
 E= -2159.34834434314     Delta-E=       -0.370532392693 Rises=F Damp=F
 DIIS: error= 3.30D-03 at cycle   3 NSaved=   3.
 NSaved= 3 IEnMin= 3 EnMin= -2159.34834434314     IErMin= 2 ErrMin= 3.18D-03
 ErrMax= 3.30D-03  0.00D+00 EMaxC= 1.00D-01 BMatC= 4.36D-02 BMatP= 8.12D-02
 IDIUse=3 WtCom= 9.67D-01 WtEn= 3.30D-02
 Coeff-Com: -0.671D-01 0.403D+00 0.664D+00
 Coeff-En:   0.000D+00 0.000D+00 0.100D+01
 Coeff:     -0.649D-01 0.390D+00 0.675D+00
 Gap=     0.268 Goal=   None    Shift=    0.000
 RMSDP=1.79D-03 MaxDP=4.50D-01 DE=-3.71D-01 OVMax= 1.69D-02

 Cycle   4  Pass 1  IDiag  1:
 RMSU=  1.26D-03    CP:  9.29D-01  9.33D-01  7.81D-01
 E= -2159.37538186968     Delta-E=       -0.027037526534 Rises=F Damp=F
 DIIS: error= 1.07D-03 at cycle   4 NSaved=   4.
 NSaved= 4 IEnMin= 4 EnMin= -2159.37538186968     IErMin= 4 ErrMin= 1.07D-03
 ErrMax= 1.07D-03  0.00D+00 EMaxC= 1.00D-01 BMatC= 6.03D-03 BMatP= 4.36D-02
 IDIUse=3 WtCom= 9.89D-01 WtEn= 1.07D-02
 Coeff-Com: -0.361D-01 0.126D+00 0.348D+00 0.562D+00
 Coeff-En:   0.000D+00 0.000D+00 0.816D-01 0.918D+00
 Coeff:     -0.358D-01 0.125D+00 0.345D+00 0.566D+00
 Gap=     0.259 Goal=   None    Shift=    0.000
 RMSDP=1.26D-03 MaxDP=4.03D-01 DE=-2.70D-02 OVMax= 5.89D-03

 Cycle   5  Pass 1  IDiag  1:
 RMSU=  3.90D-04    CP:  9.07D-01  8.83D-01  7.88D-01  6.25D-01
 E= -2159.38048877197     Delta-E=       -0.005106902288 Rises=F Damp=F
 DIIS: error= 3.53D-04 at cycle   5 NSaved=   5.
 NSaved= 5 IEnMin= 5 EnMin= -2159.38048877197     IErMin= 5 ErrMin= 3.53D-04
 ErrMax= 3.53D-04  0.00D+00 EMaxC= 1.00D-01 BMatC= 2.80D-04 BMatP= 6.03D-03
 IDIUse=3 WtCom= 9.96D-01 WtEn= 3.53D-03
 Coeff-Com: -0.114D-01 0.268D-01 0.104D+00 0.249D+00 0.631D+00
[...]
 268,-0.00001135,0.00000822,-0.00000284,-0.00001441,-0.00002351,-0.0000
 4779,-0.00011360,-0.00001328,-0.00004385,-0.00005539,-0.00011296,-0.00
 002997,-0.00009713,-0.00017595,-0.00007974,0.00016729,0.00000922,0.000
 00889,-0.00001930,0.00003716,0.00001238,-0.00001605,0.00033637,0.00001
 007,-0.00017651,-0.00010248,0.00003564,0.00001095,-0.00005314,0.000070
 22,0.00010514,0.00001403,0.00001810,0.00002057,-0.00072235,0.00011736,
 -0.00054310,0.00102264,0.00024904,0.00011466,-0.00001199,0.00020344,-0
 .00005861,0.00012827,0.00005078,0.00008188,0.00001065,0.00003189,0.000
 06608,0.00010360,-0.00001256,0.00008310,-0.00009660,-0.00005238,-0.000
 06023,0.00002792,-0.00004080,-0.00002020,-0.00003130,-0.00002144,0.000
 00025,-0.00002229,0.00001962,-0.00004336,0.00002802,0.00004961,0.00007
 044,-0.00012659,-0.00011842,-0.00005186,-0.00009953,-0.00011771,-0.000
 02846,-0.00046379,-0.00029998,0.00036250,0.00016243,-0.00063127,0.0005
 0653,-0.00001246,0.00002296,-0.00002606,-0.00000527,0.00012115,-0.0000
 8125,0.00070989,0.00069496,-0.00023674,-0.00030081,0.00007525,0.000219
 76,0.00004050,0.00003302,-0.00003338,0.00000962,0.00005658,-0.00004521
 ,0.00025528,0.00012869,-0.00008554,-0.00005675,-0.00005712,0.00007269,
 -0.00005902,-0.00008850,0.00001511,-0.00019635,-0.00055553,-0.00109948
 ,0.00030324,-0.00035106,0.00022321,-0.00008988,0.00007738,-0.00005079,
 0.00000682,0.00101802,0.00211339,-0.00138588,0.00037600,-0.00231877,-0
 .00020006,0.00000768,0.00010989,0.00103413,0.00017527,0.00053999,-0.00
 037251,-0.00022293,-0.00036770,-0.00019519,-0.00016684,-0.00011318,0.0
 2090781,0.01008565,0.01203843,-0.00310341,0.00363269,0.00402573,0.0002
 2764,-0.00017112,0.00041504,-0.17270863,-0.09221417,-0.10486722,-0.014
 67479,-0.01115787,-0.01235822,0.18546055,-0.00057558,-0.00018834,-0.00
 003846,0.00049014,0.00090195,-0.00103046,0.00076211,-0.00009842,0.0012
 8089,0.00809099,0.00142824,-0.00613236,-0.00168076,0.00043199,0.000813
 36,0.00121414,0.00058374,0.00027896,-0.00022683,-0.00004658,0.00023582
 ,0.00009617,-0.00027528,0.00002269,-0.00069962,-0.00017031,0.00071455,
 0.00003534,-0.00008460,-0.00015351,-0.00006698,0.00005950,0.00001749,-
 0.00028081,0.00043076,0.00121414,-0.00094161,0.00204461,0.00349890,-0.
 00157182,-0.00186725,-0.00116366,-0.00104369,-0.00077067,0.00055584,-0
 .00046084,-0.00005694,-0.00002130,0.00003883,-0.00002735,-0.00002452,0
 .00004318,0.00008829,0.00019834,0.00012057,-0.00007414,0.00034872,-0.0
 0008464,0.00003801,-0.00008354,-0.00024751,-0.00017499,-0.00012247,-0.
 00177367,-0.00204165,0.00276846,0.00008302,0.00093181,0.00043224,0.000
 17536,-0.00032043,-0.00031359,-0.00013334,0.00036536,0.00020746,-0.000
 02603,0.00011647,-0.00002650,0.00060849,0.00005232,-0.00033589,0.00001
 987,0.00013673,0.00008944,-0.00007596,0.00021271,-0.00000512,0.0000086
 7,-0.00002810,-0.00003006,-0.00001403,0.00005817,-0.00003739,-0.000007
 80,-0.00001769,0.00001296,-0.00004951,-0.00002443,-0.00003315,0.000012
 54,-0.00003361,-0.00001108,-0.00020494,-0.00025792,-0.00011785,-0.0000
 7158,-0.00019271,0.00005967,0.00029353,-0.00036984,-0.00022123,-0.0001
 1246,-0.00002797,0.00007505,-0.00004077,-0.00003776,-0.00002173,0.0000
 2843,0.00000689,0.00000870,0.00016099,-0.00036676,-0.00024589,-0.00024
 628,0.00017158,0.00008968,0.00015970,0.00020131,0.00017108,0.00000750,
 0.00005079,0.00001587,0.00018509,0.00026950,-0.00118615,0.00036631,-0.
 00000215,0.00098692,0.00004116,0.00053362,-0.00005939,-0.00000547,0.00
 022463,0.00027836,-0.00022395,0.00032037,0.00009437,-0.00069518,0.0000
 1579,0.00030941,-0.00003492,0.00001754,-0.00017920,-0.00003152,-0.0000
 2009,0.00002382,-0.00001922,-0.00008047,0.00002121,0.00007362,0.000034
 32,-0.00013849,0.00008860,0.00011859,0.00006375,0.00000335,-0.00050337
 ,-0.00024344,0.00001226,-0.00039324,-0.00022842,0.00012481,-0.00012371
 ,-0.00071764,0.00019634,-0.00068778,0.00036607,-0.00005514,-0.00005428
 ,-0.00006480,0.00003567,0.00015924,-0.00005760,0.00119474,0.00070487,-
 0.00079863,-0.00036727,0.00055706,0.00040051,0.00001273,0.00011405,-0.
 00002684,-0.00002020,0.00021673,0.00009992,-0.00012229,0.00008099,0.00
 041463,-0.00001482,0.00000723,-0.00013505,-0.00000243,-0.00015183,0.00
 004313,-0.00016216,-0.00010135,0.00051519,-0.00007603,0.00015022,-0.00
 012570,-0.00020308,0.00010120,-0.00015680,0.00057540,-0.00013146,-0.00
 075865,0.00086512,0.00140697,0.00134064,-0.00035050,0.00012771,0.00032
 163,-0.00053034,-0.00094867,0.00014674,-0.00041375,0.00042555,0.000012
 74,0.00008614,-0.00048472,0.00001020,-0.00565413,-0.00992654,-0.010599
 51,0.00112043,0.00015638,-0.00063765,-0.00034020,0.00098424,0.00107124
 ,-0.09676355,-0.13825036,-0.09148120,0.01709548,0.01658759,0.01761074,
 0.09444513,0.13785686,-0.00059589,-0.00010773,-0.00027813,0.00027804,0
 .00070332,-0.00068465,0.00116691,0.00035212,0.00227845,0.00582781,-0.0
 0179988,-0.00649013,-0.00080962,0.00043338,-0.00015503,0.00102342,0.00
 022312,0.00015853,-0.00022102,-0.00000598,0.00022355,-0.00003904,-0.00
 011519,-0.00006454,0.00007271,0.00001762,-0.00047323,-0.00003441,-0.00
 005856,-0.00015502,-0.00004595,0.00007033,-0.00000721,-0.00003426,0.00
 081686,0.00139373,0.00299958,0.00531686,-0.00574988,-0.00059913,-0.001
 43699,-0.00228641,-0.00089689,-0.00054328,0.00024711,-0.00030037,-0.00
 005243,-0.00003810,0.00003882,-0.00000966,-0.00002022,0.00002693,0.000
 06231,0.00015965,0.00006088,-0.00002460,0.00029320,-0.00007842,0.00002
 229,-0.00006934,-0.00025468,-0.00010526,-0.00010075,-0.00286302,-0.000
 32481,0.00457893,0.00015743,0.00031340,0.00022249,0.00008012,-0.000188
 75,-0.00052449,0.00018295,0.00009795,0.00038814,0.00001214,0.00009299,
 -0.00004864,0.00048161,0.00005804,-0.00025218,0.00003103,0.00007800,0.
 00013864,-0.00000742,0.00013990,0.00000989,-0.00002171,-0.00000810,-0.
 00004649,0.00000681,0.00002322,-0.00004065,-0.00000770,-0.00001081,0.0
 0000634,-0.00003838,-0.00001953,-0.00003143,0.00000765,-0.00002555,-0.
 00001288,-0.00017312,-0.00016855,-0.00018663,-0.00009953,-0.00013884,0
 .00004882,-0.00019878,-0.00024444,-0.00009279,-0.00019030,-0.00006806,
 0.00015641,-0.00001970,-0.00002349,-0.00002344,0.00003870,0.00001458,-
 0.00000683,0.00029158,-0.00024606,-0.00029922,-0.00022661,0.00013031,0
 .00007600,0.00009503,0.00017286,0.00019237,0.00002467,0.00003799,0.000
 00622,-0.00053295,-0.00064566,-0.00049530,0.00004341,0.00030404,0.0002
 4046,-0.00001604,0.00062418,-0.00028430,0.00013537,0.00007572,0.000071
 23,-0.00003475,0.00037699,-0.00003392,0.00041614,0.00027672,0.00012378
 ,0.00001303,-0.00009797,-0.00002303,-0.00002931,-0.00017410,-0.0000327
 8,-0.00004018,-0.00006821,0.00004404,-0.00012444,-0.00007359,-0.000055
 28,0.00014077,0.00003179,0.00006908,-0.00012426,-0.00030595,-0.0000594
 5,0.00009129,-0.00035007,0.00009475,0.00027903,-0.00049647,-0.00038316
 ,0.00069529,-0.00104916,0.00057218,-0.00006867,-0.00003621,-0.00002514
 ,-0.00003244,0.00031012,-0.00018111,0.00230258,0.00146522,-0.00304642,
 -0.00013143,0.00076697,0.00023943,0.00003248,0.00007505,-0.00007777,-0
 .00006948,0.00015714,0.00000787,-0.00030075,0.00042781,0.00045589,0.00
 003259,-0.00003869,-0.00011001,-0.00002765,-0.00012834,0.00000612,0.00
 013521,-0.00023287,-0.00026338,0.00010206,-0.00007180,-0.00000197,-0.0
 0015085,0.00007706,-0.00009411,0.00006255,0.00068588,0.00083061,-0.001
 04723,0.00066973,0.00040703,0.00029448,-0.00012475,-0.00027103,0.00008
 036,0.00034954,0.00166414,-0.00053275,0.00036276,-0.00038372,-0.000013
 64,-0.00000127,0.00006224,-0.00812083,-0.01220875,-0.01428062,0.001856
 64,-0.00048626,-0.00073235,-0.00062451,0.00066932,-0.00006375,-0.10410
 350,-0.08628980,-0.16269355,-0.01318831,-0.00767834,-0.01031119,0.1077
 3576,0.09091603,0.17499412,-0.00050988,-0.00025395,-0.00012165,0.00075
 551,0.00094153,-0.00032129,0.00019745,-0.00009092,0.00035513,0.0014911
 4,-0.00027265,-0.00141636,-0.00009972,0.00014882,-0.00011896,0.0004391
 6,0.00010168,0.00002189,-0.00006521,-0.00005860,0.00006523,-0.00007200
 ,-0.00012093,-0.00009974,0.00030298,0.00001545,-0.00011859,-0.00000830
 ,-0.00001624,-0.00004976,-0.00001273,0.00002931,0.00001824,-0.00017821
 ,0.00007772,0.00040525,-0.00004105,0.00141611,0.00169334,-0.00150871,-
 0.00072718,0.00030397,-0.00068609,-0.00086748,0.00019972,0.00000146,-0
 .00000057,0.00003266,0.00000121,-0.00001477,-0.00001170,-0.00000095,0.
 00003035,0.00005885,-0.00011374,-0.00003961,0.00005230,0.00000784,0.00
 002484,-0.00001871,0.00000887,-0.00001766,-0.00006301,-0.00028149,-0.0
 0015087,0.00010443,0.00009523,0.00171395,0.00046512,0.00113193,-0.0005
 8079,-0.00179155,0.00035111,-0.00001253,0.00130945,-0.00013020,0.00020
 353,0.00014023,0.00029997,0.00002770,-0.00009110,0.00005366,0.00031497
 ,0.00005843,-0.00069446,0.00057350,-0.00026064,-0.00000066,0.00003986,
 -0.00019576,0.00004166,-0.00002118,-0.00001989,-0.00000555,-0.00003913
 ,-0.00001270,-0.00002418,-0.00005476,-0.00003765,0.00016811,-0.0000634
 3,-0.00003031,-0.00007134,-0.00047332,-0.00008857,0.00008723,-0.000235
 07,-0.00027431,-0.00044562,-0.00019159,-0.00041152,-0.00052939,-0.0000
 5785,0.00033754,-0.00016276,-0.00003184,-0.00009800,0.00012226,-0.0000
 3466,-0.00003329,0.00096321,-0.00106911,-0.00009141,-0.00016939,0.0004
 6149,-0.00027074,0.00008326,0.00036366,0.00015636,0.00000392,0.0000517
 4,0.00011175,-0.00237557,-0.00082397,0.00074121,0.00114156,0.00018932,
 -0.00009337,0.00026134,0.00020140,-0.00014544,0.00056843,0.00016231,0.
 00016585,-0.00024152,0.00017975,0.00030933,0.00277200,0.00153613,-0.00
 034149,0.00001125,-0.00016045,0.00009202,-0.00001271,-0.00009681,-0.00
 003037,-0.00006949,-0.00005941,-0.00002117,-0.00075879,-0.00013091,-0.
 00032803,0.00014317,0.00021071,0.00029278,-0.00042096,-0.00026962,-0.0
 0027167,-0.00034340,-0.00006619,0.00006086,-0.00111051,-0.00018985,0.0
 0091088,0.00709590,-0.00816788,0.00251155,-0.00033986,0.00086282,-0.00
 001931,-0.00036212,0.00251876,-0.00145643,-0.00227285,0.00619945,-0.00
 531841,-0.00260573,0.00401552,0.00095489,0.00011561,0.00002197,-0.0000
 5002,0.00003217,0.00001409,-0.00010150,0.00032675,-0.00020506,-0.00053
 429,-0.00000344,0.00000180,0.00016931,0.00002303,0.00012578,-0.0000814
 8,-0.00004427,0.00023009,-0.00017263,-0.00000159,-0.00010990,0.0000626
 7,0.00012020,-0.00008986,0.00014037,-0.00042298,-0.00016878,0.00004827
 ,-0.00029220,-0.00010227,-0.00039378,0.00013452,-0.00003638,-0.0000135
 1,-0.00051134,-0.00073584,-0.00059714,0.00079835,-0.00022503,-0.000045
 74,0.00017237,0.00085991,-0.00019432,-0.01003634,-0.00284636,0.0103111
 8,0.00113104,-0.00060165,-0.00124575,0.00056295,0.00067987,0.00009108,
 -0.15528980,-0.09334051,0.09212722,0.01765009,0.01345018,-0.01494071,-
 0.01217851,-0.01224878,0.00971605,0.15583770,-0.00021892,-0.00013163,0
 .00045103,0.00076898,0.00057429,-0.00058015,-0.00088447,-0.00089894,-0
 .00108909,0.00041016,-0.00041755,-0.00054229,-0.00001684,0.00001849,-0
 .00033437,0.00014413,0.00020305,-0.00013557,-0.00001804,-0.00006504,0.
 00003484,0.00005132,0.00007793,0.00011076,0.00016529,0.00005382,-0.000
 43913,0.00008022,0.00002157,0.00004212,-0.00000672,0.00002495,0.000018
 18,0.00005032,0.00013967,0.00037606,0.00035300,0.00081468,0.00059679,-
 0.00094376,0.00278434,0.00121279,-0.00071742,-0.00065574,0.00062491,-0
 .00006817,-0.00001036,-0.00003932,0.00000463,-0.00002163,-0.00000935,0
 .00000306,0.00002495,0.00004966,0.00001864,-0.00004904,0.00013083,-0.0
 0000730,0.00002711,-0.00002826,-0.00003066,0.00000215,-0.00005652,-0.0
 0021761,-0.00009436,0.00012705,0.00155569,-0.00005953,-0.00057534,0.00
 102790,-0.00064627,-0.00120232,0.00003203,0.00025926,0.00069782,-0.000
 10392,0.00019445,0.00006268,0.00047607,0.00011840,-0.00025106,0.000032
 83,0.00026935,-0.00002446,-0.00061377,0.00051318,-0.00029768,0.0000210
 0,0.00000556,-0.00012462,0.00000023,0.00001018,-0.00002001,-0.00003870
 ,-0.00003719,0.00002520,-0.00004069,-0.00004747,-0.00003028,0.00013867
 ,-0.00006614,0.00001788,-0.00012211,-0.00038656,0.00006873,0.00005145,
 -0.00023120,-0.00011340,0.00013704,-0.00037298,-0.00035680,-0.00004410
 ,0.00031154,-0.00010805,-0.00017791,-0.00008273,-0.00005511,-0.0000150
 2,-0.00008265,0.00004001,-0.00013264,-0.00094308,0.00037988,0.00017683
 ,0.00024704,-0.00012330,0.00018834,0.00019473,0.00002465,-0.00001039,0
 .00004644,0.00006957,-0.00204672,-0.00042959,-0.00110074,0.00201602,0.
 00032106,0.00046828,0.00005363,0.00038160,-0.00001388,0.00027297,0.000
 17619,0.00028593,-0.00036200,0.00038771,0.00025175,0.00053444,0.000430
 61,0.00067368,-0.00013351,-0.00004813,-0.00016391,-0.00002715,-0.00007
 508,-0.00001444,-0.00003376,-0.00005989,0.00000865,-0.00026116,0.00001
 320,-0.00031000,0.00011841,0.00015622,0.00007784,-0.00017494,-0.000379
 20,-0.00032919,-0.00024702,-0.00023171,-0.00024276,-0.00097143,-0.0001
 6873,0.00052395,0.00018257,-0.00554788,0.00279356,-0.00025256,0.000040
 14,-0.00015440,0.00007195,0.00083466,-0.00060235,0.00633229,-0.0087726
 9,-0.00341285,0.00065278,0.00629836,-0.00031685,0.00005702,0.00004276,
 -0.00001368,0.00004813,0.00007962,-0.00000281,0.00041641,-0.00014103,-
 0.00030691,-0.00005895,-0.00000802,0.00007244,-0.00000999,-0.00002161,
 -0.00004070,0.00001313,0.00010510,-0.00007155,0.00000985,-0.00006345,0
 .00004852,0.00004041,-0.00005820,0.00006610,-0.00014034,-0.00032534,0.
 00058335,-0.00003243,0.00003721,-0.00023858,-0.00028912,-0.00014184,-0
 .00006258,0.00009692,0.00200509,-0.00166145,-0.00011800,-0.00032596,0.
 00031728,-0.00007456,-0.00091631,0.00083886,0.01350592,0.02022380,-0.0
 1200221,-0.00018274,0.00022141,-0.00043116,0.00337667,-0.00363384,-0.0
 0423748,-0.08932426,-0.15279102,0.08747560,-0.01477476,-0.01448253,0.0
 1240553,-0.00791887,-0.01006873,0.00848527,0.08817611,0.16529905,0.000
 24860,0.00020247,-0.00008610,-0.00052831,-0.00070015,0.00028210,0.0006
 7154,0.00003789,0.00008836,-0.00182987,-0.00108398,0.00147912,0.000159
 86,-0.00013369,-0.00034274,-0.00021195,-0.00020585,-0.00001017,0.00002
 407,0.00006726,-0.00002732,-0.00008977,0.00010523,-0.00004407,0.000084
 75,-0.00011846,-0.00053612,-0.00002633,0.00001616,0.00001189,0.0000267
 6,-0.00001151,-0.00003381,0.00027351,0.00020092,-0.00018437,0.00030621
 ,-0.00143329,-0.00336898,0.00019645,-0.00001867,-0.00138335,0.00025448
 ,0.00065775,-0.00019940,0.00002220,-0.00000408,-0.00003545,0.00000376,
 0.00002327,0.00000939,-0.00000063,-0.00002302,-0.00003351,0.00006063,0
 .00005900,-0.00003074,-0.00001391,-0.00002656,0.00000958,-0.00000588,0
 .00003733,0.00002101,0.00016373,0.00010554,-0.00008356,0.00003902,-0.0
 0079594,0.00036075,-0.00090432,0.00049120,0.00078347,0.00021542,-0.000
 29475,-0.00050945,0.00011993,-0.00013637,-0.00014285,-0.00009797,0.000
 00821,0.00005676,-0.00001932,-0.00021350,0.00007471,0.00063631,-0.0004
 3971,0.00025403,-0.00004802,-0.00000272,0.00009635,-0.00001287,-0.0000
 0960,-0.00000640,-0.00001740,0.00002970,0.00000903,0.00001367,0.000030
 69,0.00001433,-0.00013426,0.00004903,-0.00000799,0.00001273,0.00029579
 ,-0.00012832,-0.00012016,0.00016847,0.00019144,-0.00038614,0.00021824,
 0.00045090,0.00002766,-0.00021800,0.00005194,0.00013624,0.00003751,0.0
 0006686,-0.00000409,0.00007039,-0.00002426,-0.00004185,0.00065213,-0.0
 0049946,-0.00031515,-0.00008230,0.00023023,-0.00005706,-0.00012132,0.0
 0003628,0.00001865,-0.00003487,-0.00008265,0.00258245,-0.00038234,0.00
 149564,-0.00259488,-0.00041221,-0.00060692,-0.00013056,-0.00014581,-0.
 00014903,-0.00027699,-0.00026627,-0.00035274,0.00038663,0.00012605,-0.
 00049689,0.00009256,0.00033918,-0.00081103,0.00023881,-0.00000482,0.00
 025944,-0.00001710,-0.00001577,0.00001319,0.00005584,0.00003194,0.0000
 4324,0.00017720,-0.00013703,0.00033117,0.00002455,-0.00035997,-0.00034
 109,0.00016124,0.00032069,0.00035272,0.00037744,0.00011455,0.00033207,
 0.00134191,0.00002039,-0.00085864,-0.00217112,0.00546360,-0.00271251,0
 .00018152,-0.00069675,0.00025533,0.00004792,-0.00137572,0.00072827,-0.
 00564922,-0.00304091,-0.00105003,0.00157736,-0.00287662,-0.00144186,-0
 .00006276,-0.00002955,-0.00001915,-0.00009268,-0.00004082,0.00001861,-
 0.00053590,0.00040083,0.00061401,0.00006218,-0.00002763,-0.00013250,-0
 .00001392,-0.00004520,0.00005651,0.00000517,-0.00023198,0.00012028,0.0
 0002748,0.00007924,-0.00006729,-0.00009551,0.00008972,-0.00011696,0.00
 006620,0.00042716,-0.00028428,-0.00007137,-0.00010017,0.00026787,0.000
 08091,-0.00003047,-0.00013493,-0.00082978,-0.00016115,0.00201045,-0.00
 057459,0.00038104,-0.00031190,0.00031975,-0.00023406,0.00057100,0.0138
 0251,0.00775997,-0.01468826,-0.00063242,0.00075554,-0.00005325,0.00066
 583,-0.00210569,-0.00081657,0.08704149,0.08649564,-0.14741567,0.009001
 70,0.01112327,-0.00921913,-0.01126909,-0.01039266,0.02158018,-0.092151
 66,-0.08827110,0.15625317\\0.00000411,0.00000407,0.00000099,-0.0000029
 5,-0.00000611,-0.00000474,0.00000063,0.00000129,0.00000587,-0.00000201
 ,-0.00000303,-0.00000316,-0.00000062,-0.00000824,-0.00000197,0.0000081
 2,0.00000622,0.00001500,0.00000340,0.00000055,0.00000026,-0.00000080,-
 0.00000093,0.00000043,0.00000046,-0.00000004,-0.00000108,0.00000321,0.
 00000131,-0.00000326,0.00000934,-0.00000141,-0.00001803,0.00000417,0.0
 0000437,-0.00000305,0.00000364,0.00000554,-0.00000346,-0.00000441,0.00
 000530,0.00001879,0.00001132,0.00000984,0.00000334,-0.00001476,0.00000
 407,-0.00000866,0.00000911,-0.00000444,-0.00000415,0.00001315,-0.00000
 025,-0.00000208,0.00001961,0.00000168,0.00000308,0.00000595,-0.0000040
 0,-0.00000768,0.00000281,-0.00000342,-0.00000741,-0.00000140,-0.000005
 52,-0.00000021,0.00000398,-0.00000348,-0.00000883,0.00000515,-0.000001
 07,0.00000037,-0.00000134,0.00000295,0.00001375,0.00001068,0.00000576,
 -0.00001201,-0.00000830,0.00000385,0.00000531,0.00000848,-0.00000533,0
 .00000788,-0.00000587,0.00001238,-0.00000039,0.00000283,0.00000346,0.0
 0000195,0.00000883,-0.00001037,0.00000845,0.00000579,0.00000132,0.0000
 0162,0.00000274,0.00000599,0.00000595,0.00000004,0.00000059,0.00000596
 ,0.00000523,-0.00000005,0.00000086,0.00000011,-0.00000200,0.00001522,-
 0.00001163,0.00000242,0.00001393,-0.00000950,-0.00000256,0.00001642,-0
 .00000048,0.00000282,0.00000841,0.00000141,0.00000168,0.00000655,0.000
 00231,0.00000220,-0.00000666,-0.00000371,0.00000400,0.00000893,-0.0000
 0421,0.00000082,0.00001226,0.00000527,0.00000821,0.00000159,0.00001557
 ,0.00000245,-0.00000191,-0.00000585,0.00000048,-0.00000416,-0.00001182
 ,-0.00000380,-0.00001199,0.00000988,0.00000539,0.00000028,0.00002134,0
 .00000063,-0.00001613,-0.00002783,0.00000258,0.00000809,0.00000094,0.0
 0000054,-0.00000255,0.00000071,-0.00000103,-0.00000019,0.00000075,0.00
 000306,-0.00000098,0.00000196,0.00000183,-0.00000024,0.00000077,-0.000
 00079,0.00000341,0.00000049,-0.00001274,0.00000763,0.00001302,0.000002
 58,0.00000232,-0.00000337,0.00000338,0.00000127,-0.00000278,-0.0000160
 2,0.00000670,-0.00000408,0.00000233,0.00000347,-0.00000163,0.00000423,
 0.00000205,-0.00000648,0.00000447,0.00000623,0.00000021,0.00000087,-0.
 00000129,-0.00000179,0.00001089,-0.00000304,-0.00000143,-0.00000391,-0
 .00000493,0.00000599,-0.00001394,-0.00001538,-0.00000433,0.00000017,-0
 .00000540,-0.00000298,0.00000181,-0.00000032,-0.00000765,-0.00000254,-
 0.00000122,-0.00000444,-0.00000301,-0.00000633,-0.00000357,-0.00000594
 ,-0.00000661,-0.00000366,-0.00000261,-0.00000463,-0.00000140,-0.000002
 82,-0.00000514,-0.00000588,-0.00000325,-0.00000428,-0.00000647,-0.0000
 0217,-0.00000428,-0.00000715,-0.00000246,-0.00000176,-0.00000509,-0.00
 000164,-0.00000260,-0.00000608,-0.00000369,-0.00000218,-0.00000700,-0.
 00000018,0.00000057,-0.00000642,-0.00000329,-0.00000270,-0.00001236,0.
 00000211,0.00002317,-0.00000383,-0.00001292,-0.00002326,-0.00000902,0.
 00000099,-0.00001094,0.00000285,0.00000757,-0.00000712\\\@


 HE THAT WALD REACHE THE SWEITE ROSE
 SULD NOW AND THEN BE SCRATCHED WT THE SCHARPE BREERES.
 -- PROVERBS AND REASONS OF THE YEAR 1585
           AS REPRINTED IN PAISLEY MAGAZINE 1828.
 Job cpu time:      20 days 22 hours 23 minutes 39.1 seconds.
 File lengths (MBytes):  RWF=  24032 Int=      0 D2E=      0 Chk=     98 Scr=      1
 Normal termination of Gaussian 09 at Fri Apr  8 17:41:26 2016.
