 Entering Gaussian System, Link 0=g09
 Initial command:
 /share/apps//g09/l1.exe "/scratch/Gau-32905.inp" -scrdir="/scratch/"
 Entering Link 1 = /share/apps//g09/l1.exe PID=     32906.
  
 Copyright (c) 1988,1990,1992,1993,1995,1998,2003,2009,2013,
            Gaussian, Inc.  All Rights Reserved.
  
 This is part of the Gaussian(R) 09 program.  It is based on
 the Gaussian(R) 03 system (copyright 2003, Gaussian, Inc.),
 the Gaussian(R) 98 system (copyright 1998, Gaussian, Inc.),
 the Gaussian(R) 94 system (copyright 1995, Gaussian, Inc.),
 the Gaussian 92(TM) system (copyright 1992, Gaussian, Inc.),
 the Gaussian 90(TM) system (copyright 1990, Gaussian, Inc.),
 the Gaussian 88(TM) system (copyright 1988, Gaussian, Inc.),
 the Gaussian 86(TM) system (copyright 1986, Carnegie Mellon
 University), and the Gaussian 82(TM) system (copyright 1983,
 Carnegie Mellon University). Gaussian is a federally registered
 trademark of Gaussian, Inc.
  
 This software contains proprietary and confidential information,
 including trade secrets, belonging to Gaussian, Inc.
  
 This software is provided under written license and may be
 used, copied, transmitted, or stored only in accord with that
 written license.
  
 The following legend is applicable only to US Government
 contracts under FAR:
  
                    RESTRICTED RIGHTS LEGEND
  
 Use, reproduction and disclosure by the US Government is
 subject to restrictions as set forth in subparagraphs (a)
 and (c) of the Commercial Computer Software - Restricted
 Rights clause in FAR 52.227-19.
  
 Gaussian, Inc.
 340 Quinnipiac St., Bldg. 40, Wallingford CT 06492
  
  
 ---------------------------------------------------------------
 Warning -- This program may not be used in any manner that
 competes with the business of Gaussian, Inc. or will provide
 assistance to any competitor of Gaussian, Inc.  The licensee
 of this program is prohibited from giving any competitor of
 Gaussian, Inc. access to this program.  By using this program,
 the user acknowledges that Gaussian, Inc. is engaged in the
 business of creating and licensing software in the field of
 computational chemistry and represents and warrants to the
 licensee that it is not a competitor of Gaussian, Inc. and that
 it will not use this program in any manner prohibited above.
 ---------------------------------------------------------------
  

 Cite this work as:
 Gaussian 09, Revision D.01,
 M. J. Frisch, G. W. Trucks, H. B. Schlegel, G. E. Scuseria, 
 M. A. Robb, J. R. Cheeseman, G. Scalmani, V. Barone, B. Mennucci, 
 G. A. Petersson, H. Nakatsuji, M. Caricato, X. Li, H. P. Hratchian, 
 A. F. Izmaylov, J. Bloino, G. Zheng, J. L. Sonnenberg, M. Hada, 
 M. Ehara, K. Toyota, R. Fukuda, J. Hasegawa, M. Ishida, T. Nakajima, 
 Y. Honda, O. Kitao, H. Nakai, T. Vreven, J. A. Montgomery, Jr., 
 J. E. Peralta, F. Ogliaro, M. Bearpark, J. J. Heyd, E. Brothers, 
 K. N. Kudin, V. N. Staroverov, T. Keith, R. Kobayashi, J. Normand, 
 K. Raghavachari, A. Rendell, J. C. Burant, S. S. Iyengar, J. Tomasi, 
 M. Cossi, N. Rega, J. M. Millam, M. Klene, J. E. Knox, J. B. Cross, 
 V. Bakken, C. Adamo, J. Jaramillo, R. Gomperts, R. E. Stratmann, 
 O. Yazyev, A. J. Austin, R. Cammi, C. Pomelli, J. W. Ochterski, 
 R. L. Martin, K. Morokuma, V. G. Zakrzewski, G. A. Voth, 
 P. Salvador, J. J. Dannenberg, S. Dapprich, A. D. Daniels, 
 O. Farkas, J. B. Foresman, J. V. Ortiz, J. Cioslowski, 
 and D. J. Fox, Gaussian, Inc., Wallingford CT, 2013.
 
 ******************************************
 Gaussian 09:  EM64L-G09RevD.01 24-Apr-2013
                 6-Apr-2016 
 ******************************************
 %nproc=20
 Will use up to   20 processors via shared memory.
 %mem=80GB
 %chk=Tri_A131_of.chk
 ----------------------------------------------------------------------
 #P PBE1PBE/6-311+G(d,p) opt=ModRedundant freq optcyc=999 EmpiricalDisp
 ersion=GD3
 ----------------------------------------------------------------------
 1/6=999,14=-1,18=120,19=15,26=3,38=1/1,3;
 2/9=110,12=2,17=6,18=5,40=1/2;
 3/5=4,6=6,7=111,11=2,16=1,25=1,30=1,71=1,74=-13,124=31/1,2,3;
 4//1;
 5/5=2,38=5/2;
 6/7=2,8=2,9=2,10=2,28=1/1;
 7//1,2,3,16;
 1/6=999,14=-1,18=20,19=15,26=3/3(2);
 2/9=110/2;
 99//99;
 2/9=110/2;
 3/5=4,6=6,7=111,11=2,16=1,25=1,30=1,71=1,74=-13,124=31/1,2,3;
 4/5=5,16=3,69=1/1;
 5/5=2,38=5/2;
 7//1,2,3,16;
 1/6=999,14=-1,18=20,19=15,26=3/3(-5);
 2/9=110/2;
 6/7=2,8=2,9=2,10=2,19=2,28=1/1;
 99/9=1/99;
 Leave Link    1 at Wed Apr  6 23:05:03 2016, MaxMem= 10737418240 cpu:         1.7
 (Enter /share/apps//g09/l101.exe)
 -------
 disacch
 -------
 Symbolic Z-matrix:
 Charge =  1 Multiplicity = 1
 O                    -0.39117  -1.56913   10.09946 
 C                    -0.49412  -2.93469   9.76902 
 C                    -1.74944  -3.52007   10.41311 
 C                    -3.00118  -2.7878    9.9262 
 C                    -2.8844   -1.29757   10.25988 
 C                    -1.53314  -0.73872   9.76964 
 H                     0.41663  -3.39098   10.19246 
 H                    -1.64074  -3.36978   11.50012 
 H                    -3.09489  -2.91748   8.83569 
 H                    -3.68092  -0.74425   9.73449 
 H                    -1.59546  -0.62412   8.67229 
 O                    -3.06924  -1.20074   11.67649 
 O                    -4.15549  -3.38929   10.508 
 O                    -1.86966  -4.93275   10.15012 
 O                    -0.55669  -3.18      8.35769 
 C                    -1.20558   0.61689   10.40516 
 H                    -0.80462   0.43122   11.41616 
 H                    -0.43254   1.12687   9.80861 
 O                    -2.42312   1.37286   10.4512 
 H                    -2.2075    2.29527   10.66584 
 H                    -3.27173  -0.2654    11.86767 
 H                    -4.29261  -2.92225   11.36021 
 H                    -2.77353  -5.15417   10.46117 
 O                     2.50401  -2.86401   5.48422 
 C                     1.38179  -1.99646   5.3549 
 C                     0.19014  -2.47572   6.20787 
 C                     0.6281   -2.75853   7.63886 
 C                     1.73404  -3.81603   7.62825 
 C                     2.91087  -3.27476   6.79246 
 H                     1.64003  -0.96121   5.64817 
 H                    -0.20052  -3.41055   5.77381 
 H                     1.01144  -1.83356   8.10434 
 H                     2.10701  -3.98618   8.65616 
 H                     3.36131  -2.42625   7.34676 
 O                     1.23026  -5.04917   7.0869 
 O                    -0.8043   -1.44889   6.13745 
 O                     1.08308  -1.90913   3.98578 
 C                     3.98959  -4.33823   6.55145 
 H                     4.80347  -3.90078   5.95326 
 H                     4.40948  -4.66872   7.51319 
 O                     3.4461   -5.49061   5.89314 
 H                     3.371    -5.27952   4.90905 
 H                     1.99969  -5.44492   6.54876 
 H                    -1.52651  -1.73421   6.72636 
 O                     1.31291  -4.24071   1.13449 
 C                     0.29229  -5.12372   1.49223 
 C                    -0.97153  -4.39836   2.00518 
 C                    -0.62317  -3.09138   2.7308 
 C                     0.7903   -3.16137   3.31775 
 C                     1.80564  -3.34063   2.17167 
 H                     0.03773  -5.68054   0.57569 
 H                    -1.47502  -5.04252   2.74508 
 H                    -0.64264  -2.26844   1.99162 
 H                     1.91468  -2.36061   1.67693 
 H                     0.87543  -3.99374   4.0319 
 O                    -1.63312  -2.89407   3.72445 
 O                    -1.80802  -4.2033    0.86818 
 O                     0.82522  -6.03855   2.48478 
 C                     3.20254  -3.79375   2.59409 
 H                     3.82068  -3.86567   1.68436 
 H                     3.641    -3.04257   3.26338 
 O                     3.22431  -5.05213   3.28645 
 H                     2.50479  -5.60971   2.89888 
 H                    -1.43741  -2.058     4.19695 
 H                    -2.59659  -3.71037   1.15666 
 C                     0.30974  -7.38523   2.52005 
 H                     0.10922  -7.73283   1.49289 
 H                     1.13873  -7.98709   2.9224 
 C                    -0.93436  -7.54501   3.39903 
 H                    -1.12755  -8.62561   3.50551 
 H                    -1.81643  -7.13331   2.88201 
 C                    -0.79111  -6.88449   4.77649 
 H                     0.02721  -7.37327   5.33391 
 H                    -0.47695  -5.83823   4.63719 
 C                    -2.09777  -6.91268   5.57966 
 H                    -2.93534  -6.64335   4.91564 
 H                    -2.31958  -7.93503   5.93258 
 C                    -2.16337  -5.93338   6.7463 
 H                    -3.13993  -5.99124   7.24633 
 H                    -2.02026  -4.90002   6.4016 
 N                    -1.11274  -6.1728    7.79495 
 H                    -0.16044  -5.79025   7.50187 
 H                    -1.02195  -7.17299   8.00858 
 H                    -1.37709  -5.66848   8.68371 
 
 The following ModRedundant input section has been read:
 B      35      82 B                                                           
 B      14      84 B                                                           
 B      41      43 B                                                           
 B      42      62 B                                                           
 B      58      63 B                                                           
 
 NAtoms=     84 NQM=       84 NQMF=       0 NMMI=      0 NMMIF=      0
                NMic=       0 NMicF=      0.
                    Isotopes and Nuclear Properties:
 (Nuclear quadrupole moments (NQMom) in fm**2, nuclear magnetic moments (NMagM)
  in nuclear magnetons)

  Atom         1           2           3           4           5           6           7           8           9          10
 IAtWgt=          16          12          12          12          12          12           1           1           1           1
 AtmWgt=  15.9949146  12.0000000  12.0000000  12.0000000  12.0000000  12.0000000   1.0078250   1.0078250   1.0078250   1.0078250
 NucSpn=           0           0           0           0           0           0           1           1           1           1
 AtZEff=   0.0000000   0.0000000   0.0000000   0.0000000   0.0000000   0.0000000   0.0000000   0.0000000   0.0000000   0.0000000
 NQMom=    0.0000000   0.0000000   0.0000000   0.0000000   0.0000000   0.0000000   0.0000000   0.0000000   0.0000000   0.0000000
 NMagM=    0.0000000   0.0000000   0.0000000   0.0000000   0.0000000   0.0000000   2.7928460   2.7928460   2.7928460   2.7928460
 AtZNuc=   8.0000000   6.0000000   6.0000000   6.0000000   6.0000000   6.0000000   1.0000000   1.0000000   1.0000000   1.0000000

  Atom        11          12          13          14          15          16          17          18          19          20
 IAtWgt=           1          16          16          16          16          12           1           1          16           1
 AtmWgt=   1.0078250  15.9949146  15.9949146  15.9949146  15.9949146  12.0000000   1.0078250   1.0078250  15.9949146   1.0078250
 NucSpn=           1           0           0           0           0           0           1           1           0           1
 AtZEff=   0.0000000   0.0000000   0.0000000   0.0000000   0.0000000   0.0000000   0.0000000   0.0000000   0.0000000   0.0000000
 NQMom=    0.0000000   0.0000000   0.0000000   0.0000000   0.0000000   0.0000000   0.0000000   0.0000000   0.0000000   0.0000000
 NMagM=    2.7928460   0.0000000   0.0000000   0.0000000   0.0000000   0.0000000   2.7928460   2.7928460   0.0000000   2.7928460
 AtZNuc=   1.0000000   8.0000000   8.0000000   8.0000000   8.0000000   6.0000000   1.0000000   1.0000000   8.0000000   1.0000000

  Atom        21          22          23          24          25          26          27          28          29          30
 IAtWgt=           1           1           1          16          12          12          12          12          12           1
 AtmWgt=   1.0078250   1.0078250   1.0078250  15.9949146  12.0000000  12.0000000  12.0000000  12.0000000  12.0000000   1.0078250
 NucSpn=           1           1           1           0           0           0           0           0           0           1
 AtZEff=   0.0000000   0.0000000   0.0000000   0.0000000   0.0000000   0.0000000   0.0000000   0.0000000   0.0000000   0.0000000
 NQMom=    0.0000000   0.0000000   0.0000000   0.0000000   0.0000000   0.0000000   0.0000000   0.0000000   0.0000000   0.0000000
 NMagM=    2.7928460   2.7928460   2.7928460   0.0000000   0.0000000   0.0000000   0.0000000   0.0000000   0.0000000   2.7928460
 AtZNuc=   1.0000000   1.0000000   1.0000000   8.0000000   6.0000000   6.0000000   6.0000000   6.0000000   6.0000000   1.0000000

  Atom        31          32          33          34          35          36          37          38          39          40
 IAtWgt=           1           1           1           1          16          16          16          12           1           1
 AtmWgt=   1.0078250   1.0078250   1.0078250   1.0078250  15.9949146  15.9949146  15.9949146  12.0000000   1.0078250   1.0078250
 NucSpn=           1           1           1           1           0           0           0           0           1           1
 AtZEff=   0.0000000   0.0000000   0.0000000   0.0000000   0.0000000   0.0000000   0.0000000   0.0000000   0.0000000   0.0000000
 NQMom=    0.0000000   0.0000000   0.0000000   0.0000000   0.0000000   0.0000000   0.0000000   0.0000000   0.0000000   0.0000000
 NMagM=    2.7928460   2.7928460   2.7928460   2.7928460   0.0000000   0.0000000   0.0000000   0.0000000   2.7928460   2.7928460
 AtZNuc=   1.0000000   1.0000000   1.0000000   1.0000000   8.0000000   8.0000000   8.0000000   6.0000000   1.0000000   1.0000000

  Atom        41          42          43          44          45          46          47          48          49          50
 IAtWgt=          16           1           1           1          16          12          12          12          12          12
 AtmWgt=  15.9949146   1.0078250   1.0078250   1.0078250  15.9949146  12.0000000  12.0000000  12.0000000  12.0000000  12.0000000
 NucSpn=           0           1           1           1           0           0           0           0           0           0
 AtZEff=   0.0000000   0.0000000   0.0000000   0.0000000   0.0000000   0.0000000   0.0000000   0.0000000   0.0000000   0.0000000
 NQMom=    0.0000000   0.0000000   0.0000000   0.0000000   0.0000000   0.0000000   0.0000000   0.0000000   0.0000000   0.0000000
 NMagM=    0.0000000   2.7928460   2.7928460   2.7928460   0.0000000   0.0000000   0.0000000   0.0000000   0.0000000   0.0000000
 AtZNuc=   8.0000000   1.0000000   1.0000000   1.0000000   8.0000000   6.0000000   6.0000000   6.0000000   6.0000000   6.0000000

  Atom        51          52          53          54          55          56          57          58          59          60
 IAtWgt=           1           1           1           1           1          16          16          16          12           1
 AtmWgt=   1.0078250   1.0078250   1.0078250   1.0078250   1.0078250  15.9949146  15.9949146  15.9949146  12.0000000   1.0078250
 NucSpn=           1           1           1           1           1           0           0           0           0           1
 AtZEff=   0.0000000   0.0000000   0.0000000   0.0000000   0.0000000   0.0000000   0.0000000   0.0000000   0.0000000   0.0000000
 NQMom=    0.0000000   0.0000000   0.0000000   0.0000000   0.0000000   0.0000000   0.0000000   0.0000000   0.0000000   0.0000000
 NMagM=    2.7928460   2.7928460   2.7928460   2.7928460   2.7928460   0.0000000   0.0000000   0.0000000   0.0000000   2.7928460
 AtZNuc=   1.0000000   1.0000000   1.0000000   1.0000000   1.0000000   8.0000000   8.0000000   8.0000000   6.0000000   1.0000000

  Atom        61          62          63          64          65          66          67          68          69          70
 IAtWgt=           1          16           1           1           1          12           1           1          12           1
 AtmWgt=   1.0078250  15.9949146   1.0078250   1.0078250   1.0078250  12.0000000   1.0078250   1.0078250  12.0000000   1.0078250
 NucSpn=           1           0           1           1           1           0           1           1           0           1
 AtZEff=   0.0000000   0.0000000   0.0000000   0.0000000   0.0000000   0.0000000   0.0000000   0.0000000   0.0000000   0.0000000
 NQMom=    0.0000000   0.0000000   0.0000000   0.0000000   0.0000000   0.0000000   0.0000000   0.0000000   0.0000000   0.0000000
 NMagM=    2.7928460   0.0000000   2.7928460   2.7928460   2.7928460   0.0000000   2.7928460   2.7928460   0.0000000   2.7928460
 AtZNuc=   1.0000000   8.0000000   1.0000000   1.0000000   1.0000000   6.0000000   1.0000000   1.0000000   6.0000000   1.0000000

  Atom        71          72          73          74          75          76          77          78          79          80
 IAtWgt=           1          12           1           1          12           1           1          12           1           1
 AtmWgt=   1.0078250  12.0000000   1.0078250   1.0078250  12.0000000   1.0078250   1.0078250  12.0000000   1.0078250   1.0078250
 NucSpn=           1           0           1           1           0           1           1           0           1           1
 AtZEff=   0.0000000   0.0000000   0.0000000   0.0000000   0.0000000   0.0000000   0.0000000   0.0000000   0.0000000   0.0000000
 NQMom=    0.0000000   0.0000000   0.0000000   0.0000000   0.0000000   0.0000000   0.0000000   0.0000000   0.0000000   0.0000000
 NMagM=    2.7928460   0.0000000   2.7928460   2.7928460   0.0000000   2.7928460   2.7928460   0.0000000   2.7928460   2.7928460
 AtZNuc=   1.0000000   6.0000000   1.0000000   1.0000000   6.0000000   1.0000000   1.0000000   6.0000000   1.0000000   1.0000000

  Atom        81          82          83          84
 IAtWgt=          14           1           1           1
 AtmWgt=  14.0030740   1.0078250   1.0078250   1.0078250
 NucSpn=           2           1           1           1
 AtZEff=   0.0000000   0.0000000   0.0000000   0.0000000
 NQMom=    2.0440000   0.0000000   0.0000000   0.0000000
 NMagM=    0.4037610   2.7928460   2.7928460   2.7928460
 AtZNuc=   7.0000000   1.0000000   1.0000000   1.0000000
 Leave Link  101 at Wed Apr  6 23:05:04 2016, MaxMem= 10737418240 cpu:         5.0
 (Enter /share/apps//g09/l103.exe)

 GradGradGradGradGradGradGradGradGradGradGradGradGradGradGradGradGradGrad
 Berny optimization.
 Initialization pass.
                           ----------------------------
                           !    Initial Parameters    !
                           ! (Angstroms and Degrees)  !
 --------------------------                            --------------------------
 ! Name  Definition              Value          Derivative Info.                !
 --------------------------------------------------------------------------------
 ! R1    R(1,2)                  1.4087         estimate D2E/DX2                !
 ! R2    R(1,6)                  1.45           estimate D2E/DX2                !
 ! R3    R(2,3)                  1.5275         estimate D2E/DX2                !
 ! R4    R(2,7)                  1.1032         estimate D2E/DX2                !
 ! R5    R(2,15)                 1.4339         estimate D2E/DX2                !
 ! R6    R(3,4)                  1.5298         estimate D2E/DX2                !
 ! R7    R(3,8)                  1.1027         estimate D2E/DX2                !
 ! R8    R(3,14)                 1.442          estimate D2E/DX2                !
 ! R9    R(4,5)                  1.5316         estimate D2E/DX2                !
 ! R10   R(4,9)                  1.1022         estimate D2E/DX2                !
 ! R11   R(4,13)                 1.4257         estimate D2E/DX2                !
 ! R12   R(5,6)                  1.5423         estimate D2E/DX2                !
 ! R13   R(5,10)                 1.103          estimate D2E/DX2                !
 ! R14   R(5,12)                 1.4319         estimate D2E/DX2                !
 ! R15   R(6,11)                 1.1051         estimate D2E/DX2                !
 ! R16   R(6,16)                 1.5326         estimate D2E/DX2                !
 ! R17   R(12,21)                0.9759         estimate D2E/DX2                !
 ! R18   R(13,22)                0.9814         estimate D2E/DX2                !
 ! R19   R(14,23)                0.9812         estimate D2E/DX2                !
 ! R20   R(14,84)                1.713          estimate D2E/DX2                !
 ! R21   R(15,27)                1.4485         estimate D2E/DX2                !
 ! R22   R(16,17)                1.1033         estimate D2E/DX2                !
 ! R23   R(16,18)                1.1016         estimate D2E/DX2                !
 ! R24   R(16,19)                1.4339         estimate D2E/DX2                !
 ! R25   R(19,20)                0.9713         estimate D2E/DX2                !
 ! R26   R(24,25)                1.4243         estimate D2E/DX2                !
 ! R27   R(24,29)                1.4303         estimate D2E/DX2                !
 ! R28   R(25,26)                1.5418         estimate D2E/DX2                !
 ! R29   R(25,30)                1.1065         estimate D2E/DX2                !
 ! R30   R(25,37)                1.404          estimate D2E/DX2                !
 ! R31   R(26,27)                1.523          estimate D2E/DX2                !
 ! R32   R(26,31)                1.1022         estimate D2E/DX2                !
 ! R33   R(26,36)                1.4312         estimate D2E/DX2                !
 ! R34   R(27,28)                1.5302         estimate D2E/DX2                !
 ! R35   R(27,32)                1.1042         estimate D2E/DX2                !
 ! R36   R(28,29)                1.5416         estimate D2E/DX2                !
 ! R37   R(28,33)                1.1066         estimate D2E/DX2                !
 ! R38   R(28,35)                1.4379         estimate D2E/DX2                !
 ! R39   R(29,34)                1.1091         estimate D2E/DX2                !
 ! R40   R(29,38)                1.5338         estimate D2E/DX2                !
 ! R41   R(35,43)                1.0189         estimate D2E/DX2                !
 ! R42   R(35,82)                1.6296         estimate D2E/DX2                !
 ! R43   R(36,44)                0.9746         estimate D2E/DX2                !
 ! R44   R(37,49)                1.4492         estimate D2E/DX2                !
 ! R45   R(38,39)                1.1007         estimate D2E/DX2                !
 ! R46   R(38,40)                1.1002         estimate D2E/DX2                !
 ! R47   R(38,41)                1.4341         estimate D2E/DX2                !
 ! R48   R(41,42)                1.0093         estimate D2E/DX2                !
 ! R49   R(41,43)                1.5887         estimate D2E/DX2                !
 ! R50   R(42,62)                1.645          estimate D2E/DX2                !
 ! R51   R(45,46)                1.3962         estimate D2E/DX2                !
 ! R52   R(45,50)                1.459          estimate D2E/DX2                !
 ! R53   R(46,47)                1.5448         estimate D2E/DX2                !
 ! R54   R(46,51)                1.1022         estimate D2E/DX2                !
 ! R55   R(46,58)                1.4512         estimate D2E/DX2                !
 ! R56   R(47,48)                1.535          estimate D2E/DX2                !
 ! R57   R(47,52)                1.1027         estimate D2E/DX2                !
 ! R58   R(47,57)                1.425          estimate D2E/DX2                !
 ! R59   R(48,49)                1.5321         estimate D2E/DX2                !
 ! R60   R(48,53)                1.1063         estimate D2E/DX2                !
 ! R61   R(48,56)                1.4305         estimate D2E/DX2                !
 ! R62   R(49,50)                1.5416         estimate D2E/DX2                !
 ! R63   R(49,55)                1.1            estimate D2E/DX2                !
 ! R64   R(50,54)                1.1032         estimate D2E/DX2                !
 ! R65   R(50,59)                1.5281         estimate D2E/DX2                !
 ! R66   R(56,64)                0.9801         estimate D2E/DX2                !
 ! R67   R(57,65)                0.9737         estimate D2E/DX2                !
 ! R68   R(58,63)                1.7822         estimate D2E/DX2                !
 ! R69   R(58,66)                1.4424         estimate D2E/DX2                !
 ! R70   R(59,60)                1.1022         estimate D2E/DX2                !
 ! R71   R(59,61)                1.0975         estimate D2E/DX2                !
 ! R72   R(59,62)                1.4364         estimate D2E/DX2                !
 ! R73   R(62,63)                0.9894         estimate D2E/DX2                !
 ! R74   R(66,67)                1.1028         estimate D2E/DX2                !
 ! R75   R(66,68)                1.1006         estimate D2E/DX2                !
 ! R76   R(66,69)                1.5316         estimate D2E/DX2                !
 ! R77   R(69,70)                1.1029         estimate D2E/DX2                !
 ! R78   R(69,71)                1.1022         estimate D2E/DX2                !
 ! R79   R(69,72)                1.5343         estimate D2E/DX2                !
 ! R80   R(72,73)                1.1042         estimate D2E/DX2                !
 ! R81   R(72,74)                1.1013         estimate D2E/DX2                !
 ! R82   R(72,75)                1.534          estimate D2E/DX2                !
 ! R83   R(75,76)                1.1023         estimate D2E/DX2                !
 ! R84   R(75,77)                1.1041         estimate D2E/DX2                !
 ! R85   R(75,78)                1.5246         estimate D2E/DX2                !
 ! R86   R(78,79)                1.0987         estimate D2E/DX2                !
 ! R87   R(78,80)                1.0987         estimate D2E/DX2                !
 ! R88   R(78,81)                1.5036         estimate D2E/DX2                !
 ! R89   R(81,82)                1.0673         estimate D2E/DX2                !
 ! R90   R(81,83)                1.0268         estimate D2E/DX2                !
 ! R91   R(81,84)                1.0555         estimate D2E/DX2                !
 ! A1    A(2,1,6)              116.3746         estimate D2E/DX2                !
 ! A2    A(1,2,3)              109.4282         estimate D2E/DX2                !
 ! A3    A(1,2,7)              104.5115         estimate D2E/DX2                !
 ! A4    A(1,2,15)             113.5725         estimate D2E/DX2                !
 ! A5    A(3,2,7)              110.9838         estimate D2E/DX2                !
 ! A6    A(3,2,15)             108.2767         estimate D2E/DX2                !
 ! A7    A(7,2,15)             110.0643         estimate D2E/DX2                !
 ! A8    A(2,3,4)              110.7808         estimate D2E/DX2                !
 ! A9    A(2,3,8)              106.4041         estimate D2E/DX2                !
 ! A10   A(2,3,14)             111.5337         estimate D2E/DX2                !
 ! A11   A(4,3,8)              109.2189         estimate D2E/DX2                !
 ! A12   A(4,3,14)             110.0408         estimate D2E/DX2                !
 ! A13   A(8,3,14)             108.7551         estimate D2E/DX2                !
 ! A14   A(3,4,5)              109.5131         estimate D2E/DX2                !
 ! A15   A(3,4,9)              109.1578         estimate D2E/DX2                !
 ! A16   A(3,4,13)             109.3083         estimate D2E/DX2                !
 ! A17   A(5,4,9)              109.665          estimate D2E/DX2                !
 ! A18   A(5,4,13)             112.5393         estimate D2E/DX2                !
 ! A19   A(9,4,13)             106.5753         estimate D2E/DX2                !
 ! A20   A(4,5,6)              110.495          estimate D2E/DX2                !
 ! A21   A(4,5,10)             109.224          estimate D2E/DX2                !
 ! A22   A(4,5,12)             105.7532         estimate D2E/DX2                !
 ! A23   A(6,5,10)             107.4285         estimate D2E/DX2                !
 ! A24   A(6,5,12)             113.7706         estimate D2E/DX2                !
 ! A25   A(10,5,12)            110.1266         estimate D2E/DX2                !
 ! A26   A(1,6,5)              114.2181         estimate D2E/DX2                !
 ! A27   A(1,6,11)             109.2493         estimate D2E/DX2                !
 ! A28   A(1,6,16)             104.1178         estimate D2E/DX2                !
 ! A29   A(5,6,11)             107.687          estimate D2E/DX2                !
 ! A30   A(5,6,16)             112.0837         estimate D2E/DX2                !
 ! A31   A(11,6,16)            109.396          estimate D2E/DX2                !
 ! A32   A(5,12,21)            106.5829         estimate D2E/DX2                !
 ! A33   A(4,13,22)            105.4678         estimate D2E/DX2                !
 ! A34   A(3,14,23)            103.8902         estimate D2E/DX2                !
 ! A35   A(3,14,84)            123.5687         estimate D2E/DX2                !
 ! A36   A(23,14,84)           116.0621         estimate D2E/DX2                !
 ! A37   A(2,15,27)            113.7656         estimate D2E/DX2                !
 ! A38   A(6,16,17)            107.9862         estimate D2E/DX2                !
 ! A39   A(6,16,18)            109.5669         estimate D2E/DX2                !
 ! A40   A(6,16,19)            107.3476         estimate D2E/DX2                !
 ! A41   A(17,16,18)           108.6081         estimate D2E/DX2                !
 ! A42   A(17,16,19)           111.5846         estimate D2E/DX2                !
 ! A43   A(18,16,19)           111.6649         estimate D2E/DX2                !
 ! A44   A(16,19,20)           108.6196         estimate D2E/DX2                !
 ! A45   A(25,24,29)           118.8216         estimate D2E/DX2                !
 ! A46   A(24,25,26)           111.6776         estimate D2E/DX2                !
 ! A47   A(24,25,30)           111.2175         estimate D2E/DX2                !
 ! A48   A(24,25,37)           107.1001         estimate D2E/DX2                !
 ! A49   A(26,25,30)           108.9389         estimate D2E/DX2                !
 ! A50   A(26,25,37)           113.226          estimate D2E/DX2                !
 ! A51   A(30,25,37)           104.4715         estimate D2E/DX2                !
 ! A52   A(25,26,27)           110.8095         estimate D2E/DX2                !
 ! A53   A(25,26,31)           108.6445         estimate D2E/DX2                !
 ! A54   A(25,26,36)           106.6658         estimate D2E/DX2                !
 ! A55   A(27,26,31)           108.3269         estimate D2E/DX2                !
 ! A56   A(27,26,36)           112.2887         estimate D2E/DX2                !
 ! A57   A(31,26,36)           110.0511         estimate D2E/DX2                !
 ! A58   A(15,27,26)           106.565          estimate D2E/DX2                !
 ! A59   A(15,27,28)           113.1739         estimate D2E/DX2                !
 ! A60   A(15,27,32)           108.5732         estimate D2E/DX2                !
 ! A61   A(26,27,28)           109.2475         estimate D2E/DX2                !
 ! A62   A(26,27,32)           109.8998         estimate D2E/DX2                !
 ! A63   A(28,27,32)           109.3253         estimate D2E/DX2                !
 ! A64   A(27,28,29)           108.2308         estimate D2E/DX2                !
 ! A65   A(27,28,33)           110.0842         estimate D2E/DX2                !
 ! A66   A(27,28,35)           110.0031         estimate D2E/DX2                !
 ! A67   A(29,28,33)           107.4752         estimate D2E/DX2                !
 ! A68   A(29,28,35)           111.3747         estimate D2E/DX2                !
 ! A69   A(33,28,35)           109.629          estimate D2E/DX2                !
 ! A70   A(24,29,28)           112.3076         estimate D2E/DX2                !
 ! A71   A(24,29,34)           110.6677         estimate D2E/DX2                !
 ! A72   A(24,29,38)           104.8            estimate D2E/DX2                !
 ! A73   A(28,29,34)           107.9204         estimate D2E/DX2                !
 ! A74   A(28,29,38)           112.2487         estimate D2E/DX2                !
 ! A75   A(34,29,38)           108.8648         estimate D2E/DX2                !
 ! A76   A(28,35,43)           105.5073         estimate D2E/DX2                !
 ! A77   A(28,35,82)           126.3812         estimate D2E/DX2                !
 ! A78   A(43,35,82)           127.0351         estimate D2E/DX2                !
 ! A79   A(26,36,44)           105.9697         estimate D2E/DX2                !
 ! A80   A(25,37,49)           116.0238         estimate D2E/DX2                !
 ! A81   A(29,38,39)           109.2598         estimate D2E/DX2                !
 ! A82   A(29,38,40)           109.8353         estimate D2E/DX2                !
 ! A83   A(29,38,41)           111.2678         estimate D2E/DX2                !
 ! A84   A(39,38,40)           108.1944         estimate D2E/DX2                !
 ! A85   A(39,38,41)           110.493          estimate D2E/DX2                !
 ! A86   A(40,38,41)           107.7289         estimate D2E/DX2                !
 ! A87   A(38,41,42)           107.9216         estimate D2E/DX2                !
 ! A88   A(38,41,43)            97.6132         estimate D2E/DX2                !
 ! A89   A(42,41,43)           109.1848         estimate D2E/DX2                !
 ! A90   A(35,43,41)           156.4349         estimate D2E/DX2                !
 ! A91   A(46,45,50)           117.0579         estimate D2E/DX2                !
 ! A92   A(45,46,47)           112.7152         estimate D2E/DX2                !
 ! A93   A(45,46,51)           105.9776         estimate D2E/DX2                !
 ! A94   A(45,46,58)           107.7869         estimate D2E/DX2                !
 ! A95   A(47,46,51)           108.9273         estimate D2E/DX2                !
 ! A96   A(47,46,58)           111.6736         estimate D2E/DX2                !
 ! A97   A(51,46,58)           109.577          estimate D2E/DX2                !
 ! A98   A(46,47,48)           111.7836         estimate D2E/DX2                !
 ! A99   A(46,47,52)           108.7872         estimate D2E/DX2                !
 ! A100  A(46,47,57)           106.2348         estimate D2E/DX2                !
 ! A101  A(48,47,52)           106.4895         estimate D2E/DX2                !
 ! A102  A(48,47,57)           113.1954         estimate D2E/DX2                !
 ! A103  A(52,47,57)           110.3241         estimate D2E/DX2                !
 ! A104  A(47,48,49)           110.5844         estimate D2E/DX2                !
 ! A105  A(47,48,53)           108.2717         estimate D2E/DX2                !
 ! A106  A(47,48,56)           106.5939         estimate D2E/DX2                !
 ! A107  A(49,48,53)           107.8291         estimate D2E/DX2                !
 ! A108  A(49,48,56)           113.0507         estimate D2E/DX2                !
 ! A109  A(53,48,56)           110.4308         estimate D2E/DX2                !
 ! A110  A(37,49,48)           108.8758         estimate D2E/DX2                !
 ! A111  A(37,49,50)           108.0664         estimate D2E/DX2                !
 ! A112  A(37,49,55)           109.8126         estimate D2E/DX2                !
 ! A113  A(48,49,50)           109.1554         estimate D2E/DX2                !
 ! A114  A(48,49,55)           110.7735         estimate D2E/DX2                !
 ! A115  A(50,49,55)           110.1013         estimate D2E/DX2                !
 ! A116  A(45,50,49)           112.1976         estimate D2E/DX2                !
 ! A117  A(45,50,54)           105.2247         estimate D2E/DX2                !
 ! A118  A(45,50,59)           108.8024         estimate D2E/DX2                !
 ! A119  A(49,50,54)           107.1692         estimate D2E/DX2                !
 ! A120  A(49,50,59)           115.534          estimate D2E/DX2                !
 ! A121  A(54,50,59)           107.2791         estimate D2E/DX2                !
 ! A122  A(48,56,64)           108.1533         estimate D2E/DX2                !
 ! A123  A(47,57,65)           107.958          estimate D2E/DX2                !
 ! A124  A(46,58,63)           110.6894         estimate D2E/DX2                !
 ! A125  A(46,58,66)           118.2965         estimate D2E/DX2                !
 ! A126  A(63,58,66)           123.7633         estimate D2E/DX2                !
 ! A127  A(50,59,60)           107.6893         estimate D2E/DX2                !
 ! A128  A(50,59,61)           109.3195         estimate D2E/DX2                !
 ! A129  A(50,59,62)           114.008          estimate D2E/DX2                !
 ! A130  A(60,59,61)           108.9019         estimate D2E/DX2                !
 ! A131  A(60,59,62)           109.4001         estimate D2E/DX2                !
 ! A132  A(61,59,62)           107.4346         estimate D2E/DX2                !
 ! A133  A(42,62,59)           126.7181         estimate D2E/DX2                !
 ! A134  A(42,62,63)           111.9226         estimate D2E/DX2                !
 ! A135  A(59,62,63)           107.0904         estimate D2E/DX2                !
 ! A136  A(58,63,62)           155.7837         estimate D2E/DX2                !
 ! A137  A(58,66,67)           109.6636         estimate D2E/DX2                !
 ! A138  A(58,66,68)           104.496          estimate D2E/DX2                !
 ! A139  A(58,66,69)           113.6855         estimate D2E/DX2                !
 ! A140  A(67,66,68)           107.764          estimate D2E/DX2                !
 ! A141  A(67,66,69)           110.7295         estimate D2E/DX2                !
 ! A142  A(68,66,69)           110.1797         estimate D2E/DX2                !
 ! A143  A(66,69,70)           107.4517         estimate D2E/DX2                !
 ! A144  A(66,69,71)           109.9913         estimate D2E/DX2                !
 ! A145  A(66,69,72)           113.2323         estimate D2E/DX2                !
 ! A146  A(70,69,71)           105.7286         estimate D2E/DX2                !
 ! A147  A(70,69,72)           110.5773         estimate D2E/DX2                !
 ! A148  A(71,69,72)           109.5746         estimate D2E/DX2                !
 ! A149  A(69,72,73)           109.38           estimate D2E/DX2                !
 ! A150  A(69,72,74)           108.7881         estimate D2E/DX2                !
 ! A151  A(69,72,75)           112.4949         estimate D2E/DX2                !
 ! A152  A(73,72,74)           105.8421         estimate D2E/DX2                !
 ! A153  A(73,72,75)           111.0272         estimate D2E/DX2                !
 ! A154  A(74,72,75)           109.0673         estimate D2E/DX2                !
 ! A155  A(72,75,76)           109.1076         estimate D2E/DX2                !
 ! A156  A(72,75,77)           110.8244         estimate D2E/DX2                !
 ! A157  A(72,75,78)           115.1817         estimate D2E/DX2                !
 ! A158  A(76,75,77)           105.4362         estimate D2E/DX2                !
 ! A159  A(76,75,78)           105.7435         estimate D2E/DX2                !
 ! A160  A(77,75,78)           109.9711         estimate D2E/DX2                !
 ! A161  A(75,78,79)           110.6519         estimate D2E/DX2                !
 ! A162  A(75,78,80)           111.0056         estimate D2E/DX2                !
 ! A163  A(75,78,81)           113.6617         estimate D2E/DX2                !
 ! A164  A(79,78,80)           107.9449         estimate D2E/DX2                !
 ! A165  A(79,78,81)           107.1747         estimate D2E/DX2                !
 ! A166  A(80,78,81)           106.1144         estimate D2E/DX2                !
 ! A167  A(78,81,82)           112.0163         estimate D2E/DX2                !
 ! A168  A(78,81,83)           111.2231         estimate D2E/DX2                !
 ! A169  A(78,81,84)           109.6434         estimate D2E/DX2                !
 ! A170  A(82,81,83)           109.1103         estimate D2E/DX2                !
 ! A171  A(82,81,84)           106.4647         estimate D2E/DX2                !
 ! A172  A(83,81,84)           108.2028         estimate D2E/DX2                !
 ! A173  L(41,42,62,9,-1)      180.906          estimate D2E/DX2                !
 ! A174  L(35,82,81,1,-1)      174.523          estimate D2E/DX2                !
 ! A175  L(14,84,81,15,-1)     183.4688         estimate D2E/DX2                !
 ! A176  L(41,42,62,9,-2)      184.4119         estimate D2E/DX2                !
 ! A177  L(35,82,81,1,-2)      177.3608         estimate D2E/DX2                !
 ! A178  L(14,84,81,15,-2)     180.9183         estimate D2E/DX2                !
 ! D1    D(6,1,2,3)            -55.4132         estimate D2E/DX2                !
 ! D2    D(6,1,2,7)           -174.3295         estimate D2E/DX2                !
 ! D3    D(6,1,2,15)            65.6986         estimate D2E/DX2                !
 ! D4    D(2,1,6,5)             50.2052         estimate D2E/DX2                !
 ! D5    D(2,1,6,11)           -70.4542         estimate D2E/DX2                !
 ! D6    D(2,1,6,16)           172.7671         estimate D2E/DX2                !
 ! D7    D(1,2,3,4)             59.495          estimate D2E/DX2                !
 ! D8    D(1,2,3,8)            -59.1081         estimate D2E/DX2                !
 ! D9    D(1,2,3,14)          -177.5639         estimate D2E/DX2                !
 ! D10   D(7,2,3,4)            174.3203         estimate D2E/DX2                !
 ! D11   D(7,2,3,8)             55.7172         estimate D2E/DX2                !
 ! D12   D(7,2,3,14)           -62.7386         estimate D2E/DX2                !
 ! D13   D(15,2,3,4)           -64.7735         estimate D2E/DX2                !
 ! D14   D(15,2,3,8)           176.6234         estimate D2E/DX2                !
 ! D15   D(15,2,3,14)           58.1676         estimate D2E/DX2                !
 ! D16   D(1,2,15,27)           62.5572         estimate D2E/DX2                !
 ! D17   D(3,2,15,27)         -175.6877         estimate D2E/DX2                !
 ! D18   D(7,2,15,27)          -54.2129         estimate D2E/DX2                !
 ! D19   D(2,3,4,5)            -58.3682         estimate D2E/DX2                !
 ! D20   D(2,3,4,9)             61.7027         estimate D2E/DX2                !
 ! D21   D(2,3,4,13)           177.9162         estimate D2E/DX2                !
 ! D22   D(8,3,4,5)             58.5152         estimate D2E/DX2                !
 ! D23   D(8,3,4,9)            178.5862         estimate D2E/DX2                !
 ! D24   D(8,3,4,13)           -65.2003         estimate D2E/DX2                !
 ! D25   D(14,3,4,5)           177.8302         estimate D2E/DX2                !
 ! D26   D(14,3,4,9)           -62.0988         estimate D2E/DX2                !
 ! D27   D(14,3,4,13)           54.1147         estimate D2E/DX2                !
 ! D28   D(2,3,14,23)         -169.9189         estimate D2E/DX2                !
 ! D29   D(2,3,14,84)          -34.9053         estimate D2E/DX2                !
 ! D30   D(4,3,14,23)          -46.5562         estimate D2E/DX2                !
 ! D31   D(4,3,14,84)           88.4573         estimate D2E/DX2                !
 ! D32   D(8,3,14,23)           73.0413         estimate D2E/DX2                !
 ! D33   D(8,3,14,84)         -151.9451         estimate D2E/DX2                !
 ! D34   D(3,4,5,6)             50.6975         estimate D2E/DX2                !
 ! D35   D(3,4,5,10)           168.6656         estimate D2E/DX2                !
 ! D36   D(3,4,5,12)           -72.8445         estimate D2E/DX2                !
 ! D37   D(9,4,5,6)            -69.0628         estimate D2E/DX2                !
 ! D38   D(9,4,5,10)            48.9052         estimate D2E/DX2                !
 ! D39   D(9,4,5,12)           167.3952         estimate D2E/DX2                !
 ! D40   D(13,4,5,6)           172.4925         estimate D2E/DX2                !
 ! D41   D(13,4,5,10)          -69.5394         estimate D2E/DX2                !
 ! D42   D(13,4,5,12)           48.9506         estimate D2E/DX2                !
 ! D43   D(3,4,13,22)           88.5857         estimate D2E/DX2                !
 ! D44   D(5,4,13,22)          -33.3255         estimate D2E/DX2                !
 ! D45   D(9,4,13,22)         -153.5689         estimate D2E/DX2                !
 ! D46   D(4,5,6,1)            -46.2017         estimate D2E/DX2                !
 ! D47   D(4,5,6,11)            75.323          estimate D2E/DX2                !
 ! D48   D(4,5,6,16)          -164.309          estimate D2E/DX2                !
 ! D49   D(10,5,6,1)          -165.2645         estimate D2E/DX2                !
 ! D50   D(10,5,6,11)          -43.7397         estimate D2E/DX2                !
 ! D51   D(10,5,6,16)           76.6282         estimate D2E/DX2                !
 ! D52   D(12,5,6,1)            72.5711         estimate D2E/DX2                !
 ! D53   D(12,5,6,11)         -165.9042         estimate D2E/DX2                !
 ! D54   D(12,5,6,16)          -45.5362         estimate D2E/DX2                !
 ! D55   D(4,5,12,21)         -162.9596         estimate D2E/DX2                !
 ! D56   D(6,5,12,21)           75.5903         estimate D2E/DX2                !
 ! D57   D(10,5,12,21)         -45.0719         estimate D2E/DX2                !
 ! D58   D(1,6,16,17)          -43.7485         estimate D2E/DX2                !
 ! D59   D(1,6,16,18)           74.3794         estimate D2E/DX2                !
 ! D60   D(1,6,16,19)         -164.1875         estimate D2E/DX2                !
 ! D61   D(5,6,16,17)           80.2051         estimate D2E/DX2                !
 ! D62   D(5,6,16,18)         -161.667          estimate D2E/DX2                !
 ! D63   D(5,6,16,19)          -40.2339         estimate D2E/DX2                !
 ! D64   D(11,6,16,17)        -160.4251         estimate D2E/DX2                !
 ! D65   D(11,6,16,18)         -42.2972         estimate D2E/DX2                !
 ! D66   D(11,6,16,19)          79.1359         estimate D2E/DX2                !
 ! D67   D(3,14,81,78)         -78.0949         estimate D2E/DX2                !
 ! D68   D(3,14,81,82)          44.3336         estimate D2E/DX2                !
 ! D69   D(3,14,81,83)         161.6501         estimate D2E/DX2                !
 ! D70   D(23,14,81,78)         52.0944         estimate D2E/DX2                !
 ! D71   D(23,14,81,82)        174.5229         estimate D2E/DX2                !
 ! D72   D(23,14,81,83)        -68.1606         estimate D2E/DX2                !
 ! D73   D(2,15,27,26)        -154.3406         estimate D2E/DX2                !
 ! D74   D(2,15,27,28)          85.5645         estimate D2E/DX2                !
 ! D75   D(2,15,27,32)         -36.009          estimate D2E/DX2                !
 ! D76   D(6,16,19,20)        -167.7287         estimate D2E/DX2                !
 ! D77   D(17,16,19,20)         74.141          estimate D2E/DX2                !
 ! D78   D(18,16,19,20)        -47.6212         estimate D2E/DX2                !
 ! D79   D(29,24,25,26)        -47.1694         estimate D2E/DX2                !
 ! D80   D(29,24,25,30)         74.7668         estimate D2E/DX2                !
 ! D81   D(29,24,25,37)       -171.6611         estimate D2E/DX2                !
 ! D82   D(25,24,29,28)         49.9669         estimate D2E/DX2                !
 ! D83   D(25,24,29,34)        -70.7124         estimate D2E/DX2                !
 ! D84   D(25,24,29,38)        172.0874         estimate D2E/DX2                !
 ! D85   D(24,25,26,27)         50.1852         estimate D2E/DX2                !
 ! D86   D(24,25,26,31)        -68.7123         estimate D2E/DX2                !
 ! D87   D(24,25,26,36)        172.6858         estimate D2E/DX2                !
 ! D88   D(30,25,26,27)        -73.0541         estimate D2E/DX2                !
 ! D89   D(30,25,26,31)        168.0484         estimate D2E/DX2                !
 ! D90   D(30,25,26,36)         49.4465         estimate D2E/DX2                !
 ! D91   D(37,25,26,27)        171.1763         estimate D2E/DX2                !
 ! D92   D(37,25,26,31)         52.2788         estimate D2E/DX2                !
 ! D93   D(37,25,26,36)        -66.3231         estimate D2E/DX2                !
 ! D94   D(24,25,37,49)         58.0664         estimate D2E/DX2                !
 ! D95   D(26,25,37,49)        -65.4772         estimate D2E/DX2                !
 ! D96   D(30,25,37,49)        176.1302         estimate D2E/DX2                !
 ! D97   D(25,26,27,15)        179.178          estimate D2E/DX2                !
 ! D98   D(25,26,27,28)        -58.2249         estimate D2E/DX2                !
 ! D99   D(25,26,27,32)         61.7208         estimate D2E/DX2                !
 ! D100  D(31,26,27,15)        -61.7329         estimate D2E/DX2                !
 ! D101  D(31,26,27,28)         60.8643         estimate D2E/DX2                !
 ! D102  D(31,26,27,32)       -179.19           estimate D2E/DX2                !
 ! D103  D(36,26,27,15)         60.0107         estimate D2E/DX2                !
 ! D104  D(36,26,27,28)       -177.3922         estimate D2E/DX2                !
 ! D105  D(36,26,27,32)        -57.4465         estimate D2E/DX2                !
 ! D106  D(25,26,36,44)       -176.3197         estimate D2E/DX2                !
 ! D107  D(27,26,36,44)        -54.7528         estimate D2E/DX2                !
 ! D108  D(31,26,36,44)         66.0018         estimate D2E/DX2                !
 ! D109  D(15,27,28,29)        177.8215         estimate D2E/DX2                !
 ! D110  D(15,27,28,33)        -64.9805         estimate D2E/DX2                !
 ! D111  D(15,27,28,35)         55.9331         estimate D2E/DX2                !
 ! D112  D(26,27,28,29)         59.2698         estimate D2E/DX2                !
 ! D113  D(26,27,28,33)        176.4678         estimate D2E/DX2                !
 ! D114  D(26,27,28,35)        -62.6186         estimate D2E/DX2                !
 ! D115  D(32,27,28,29)        -61.0288         estimate D2E/DX2                !
 ! D116  D(32,27,28,33)         56.1693         estimate D2E/DX2                !
 ! D117  D(32,27,28,35)        177.0829         estimate D2E/DX2                !
 ! D118  D(27,28,29,24)        -54.0029         estimate D2E/DX2                !
 ! D119  D(27,28,29,34)         68.2482         estimate D2E/DX2                !
 ! D120  D(27,28,29,38)       -171.7883         estimate D2E/DX2                !
 ! D121  D(33,28,29,24)       -172.8674         estimate D2E/DX2                !
 ! D122  D(33,28,29,34)        -50.6162         estimate D2E/DX2                !
 ! D123  D(33,28,29,38)         69.3473         estimate D2E/DX2                !
 ! D124  D(35,28,29,24)         67.039          estimate D2E/DX2                !
 ! D125  D(35,28,29,34)       -170.7099         estimate D2E/DX2                !
 ! D126  D(35,28,29,38)        -50.7464         estimate D2E/DX2                !
 ! D127  D(27,28,35,43)        143.3424         estimate D2E/DX2                !
 ! D128  D(27,28,35,82)        -47.901          estimate D2E/DX2                !
 ! D129  D(29,28,35,43)         23.3425         estimate D2E/DX2                !
 ! D130  D(29,28,35,82)       -167.9008         estimate D2E/DX2                !
 ! D131  D(33,28,35,43)        -95.471          estimate D2E/DX2                !
 ! D132  D(33,28,35,82)         73.2857         estimate D2E/DX2                !
 ! D133  D(24,29,38,39)         57.8911         estimate D2E/DX2                !
 ! D134  D(24,29,38,40)        176.4232         estimate D2E/DX2                !
 ! D135  D(24,29,38,41)        -64.3818         estimate D2E/DX2                !
 ! D136  D(28,29,38,39)       -179.95           estimate D2E/DX2                !
 ! D137  D(28,29,38,40)        -61.4178         estimate D2E/DX2                !
 ! D138  D(28,29,38,41)         57.7771         estimate D2E/DX2                !
 ! D139  D(34,29,38,39)        -60.5373         estimate D2E/DX2                !
 ! D140  D(34,29,38,40)         57.9948         estimate D2E/DX2                !
 ! D141  D(34,29,38,41)        177.1898         estimate D2E/DX2                !
 ! D142  D(28,35,43,41)         -4.5666         estimate D2E/DX2                !
 ! D143  D(82,35,43,41)       -173.2259         estimate D2E/DX2                !
 ! D144  D(28,35,81,78)        102.6578         estimate D2E/DX2                !
 ! D145  D(28,35,81,83)       -131.925          estimate D2E/DX2                !
 ! D146  D(28,35,81,84)        -15.0944         estimate D2E/DX2                !
 ! D147  D(43,35,81,78)        -89.5409         estimate D2E/DX2                !
 ! D148  D(43,35,81,83)         35.8763         estimate D2E/DX2                !
 ! D149  D(43,35,81,84)        152.7069         estimate D2E/DX2                !
 ! D150  D(25,37,49,48)        120.4373         estimate D2E/DX2                !
 ! D151  D(25,37,49,50)       -121.1191         estimate D2E/DX2                !
 ! D152  D(25,37,49,55)         -1.0019         estimate D2E/DX2                !
 ! D153  D(29,38,41,42)         79.8831         estimate D2E/DX2                !
 ! D154  D(29,38,41,43)        -33.1756         estimate D2E/DX2                !
 ! D155  D(39,38,41,42)        -41.674          estimate D2E/DX2                !
 ! D156  D(39,38,41,43)       -154.7326         estimate D2E/DX2                !
 ! D157  D(40,38,41,42)       -159.6721         estimate D2E/DX2                !
 ! D158  D(40,38,41,43)         87.2693         estimate D2E/DX2                !
 ! D159  D(38,41,62,59)        -19.3142         estimate D2E/DX2                !
 ! D160  D(38,41,62,63)       -153.5581         estimate D2E/DX2                !
 ! D161  D(43,41,62,59)         86.8118         estimate D2E/DX2                !
 ! D162  D(43,41,62,63)        -47.432          estimate D2E/DX2                !
 ! D163  D(38,41,43,35)         10.3752         estimate D2E/DX2                !
 ! D164  D(42,41,43,35)       -101.6623         estimate D2E/DX2                !
 ! D165  D(50,45,46,47)         58.8377         estimate D2E/DX2                !
 ! D166  D(50,45,46,51)        177.8917         estimate D2E/DX2                !
 ! D167  D(50,45,46,58)        -64.8573         estimate D2E/DX2                !
 ! D168  D(46,45,50,49)        -20.9066         estimate D2E/DX2                !
 ! D169  D(46,45,50,54)       -137.1044         estimate D2E/DX2                !
 ! D170  D(46,45,50,59)        108.1969         estimate D2E/DX2                !
 ! D171  D(45,46,47,48)        -31.9772         estimate D2E/DX2                !
 ! D172  D(45,46,47,52)       -149.288          estimate D2E/DX2                !
 ! D173  D(45,46,47,57)         91.9502         estimate D2E/DX2                !
 ! D174  D(51,46,47,48)       -149.3006         estimate D2E/DX2                !
 ! D175  D(51,46,47,52)         93.3885         estimate D2E/DX2                !
 ! D176  D(51,46,47,57)        -25.3732         estimate D2E/DX2                !
 ! D177  D(58,46,47,48)         89.538          estimate D2E/DX2                !
 ! D178  D(58,46,47,52)        -27.7729         estimate D2E/DX2                !
 ! D179  D(58,46,47,57)       -146.5347         estimate D2E/DX2                !
 ! D180  D(45,46,58,63)          3.1246         estimate D2E/DX2                !
 ! D181  D(45,46,58,66)       -148.2793         estimate D2E/DX2                !
 ! D182  D(47,46,58,63)       -121.2002         estimate D2E/DX2                !
 ! D183  D(47,46,58,66)         87.396          estimate D2E/DX2                !
 ! D184  D(51,46,58,63)        118.0165         estimate D2E/DX2                !
 ! D185  D(51,46,58,66)        -33.3874         estimate D2E/DX2                !
 ! D186  D(46,47,48,49)        -26.2775         estimate D2E/DX2                !
 ! D187  D(46,47,48,53)         91.6547         estimate D2E/DX2                !
 ! D188  D(46,47,48,56)       -149.5308         estimate D2E/DX2                !
 ! D189  D(52,47,48,49)         92.4076         estimate D2E/DX2                !
 ! D190  D(52,47,48,53)       -149.6602         estimate D2E/DX2                !
 ! D191  D(52,47,48,56)        -30.8457         estimate D2E/DX2                !
 ! D192  D(57,47,48,49)       -146.198          estimate D2E/DX2                !
 ! D193  D(57,47,48,53)        -28.2658         estimate D2E/DX2                !
 ! D194  D(57,47,48,56)         90.5487         estimate D2E/DX2                !
 ! D195  D(46,47,57,65)       -177.4633         estimate D2E/DX2                !
 ! D196  D(48,47,57,65)        -54.4195         estimate D2E/DX2                !
 ! D197  D(52,47,57,65)         64.7908         estimate D2E/DX2                !
 ! D198  D(47,48,49,37)        179.6701         estimate D2E/DX2                !
 ! D199  D(47,48,49,50)         61.9132         estimate D2E/DX2                !
 ! D200  D(47,48,49,55)        -59.4787         estimate D2E/DX2                !
 ! D201  D(53,48,49,37)         61.4674         estimate D2E/DX2                !
 ! D202  D(53,48,49,50)        -56.2894         estimate D2E/DX2                !
 ! D203  D(53,48,49,55)       -177.6814         estimate D2E/DX2                !
 ! D204  D(56,48,49,37)        -60.901          estimate D2E/DX2                !
 ! D205  D(56,48,49,50)       -178.6578         estimate D2E/DX2                !
 ! D206  D(56,48,49,55)         59.9502         estimate D2E/DX2                !
 ! D207  D(47,48,56,64)       -179.4213         estimate D2E/DX2                !
 ! D208  D(49,48,56,64)         58.8767         estimate D2E/DX2                !
 ! D209  D(53,48,56,64)        -62.0267         estimate D2E/DX2                !
 ! D210  D(37,49,50,45)       -157.266          estimate D2E/DX2                !
 ! D211  D(37,49,50,54)        -42.2466         estimate D2E/DX2                !
 ! D212  D(37,49,50,59)         77.2337         estimate D2E/DX2                !
 ! D213  D(48,49,50,45)        -39.0009         estimate D2E/DX2                !
 ! D214  D(48,49,50,54)         76.0185         estimate D2E/DX2                !
 ! D215  D(48,49,50,59)       -164.5013         estimate D2E/DX2                !
 ! D216  D(55,49,50,45)         82.7982         estimate D2E/DX2                !
 ! D217  D(55,49,50,54)       -162.1824         estimate D2E/DX2                !
 ! D218  D(55,49,50,59)        -42.7022         estimate D2E/DX2                !
 ! D219  D(45,50,59,60)         53.5732         estimate D2E/DX2                !
 ! D220  D(45,50,59,61)        171.7456         estimate D2E/DX2                !
 ! D221  D(45,50,59,62)        -68.0087         estimate D2E/DX2                !
 ! D222  D(49,50,59,60)       -179.2019         estimate D2E/DX2                !
 ! D223  D(49,50,59,61)        -61.0295         estimate D2E/DX2                !
 ! D224  D(49,50,59,62)         59.2162         estimate D2E/DX2                !
 ! D225  D(54,50,59,60)        -59.782          estimate D2E/DX2                !
 ! D226  D(54,50,59,61)         58.3904         estimate D2E/DX2                !
 ! D227  D(54,50,59,62)        178.636          estimate D2E/DX2                !
 ! D228  D(46,58,63,62)         68.2027         estimate D2E/DX2                !
 ! D229  D(66,58,63,62)       -142.2575         estimate D2E/DX2                !
 ! D230  D(46,58,66,67)         36.7197         estimate D2E/DX2                !
 ! D231  D(46,58,66,68)        151.999          estimate D2E/DX2                !
 ! D232  D(46,58,66,69)        -87.8356         estimate D2E/DX2                !
 ! D233  D(63,58,66,67)       -110.6914         estimate D2E/DX2                !
 ! D234  D(63,58,66,68)          4.5878         estimate D2E/DX2                !
 ! D235  D(63,58,66,69)        124.7532         estimate D2E/DX2                !
 ! D236  D(50,59,62,42)       -101.9743         estimate D2E/DX2                !
 ! D237  D(50,59,62,63)         33.8009         estimate D2E/DX2                !
 ! D238  D(60,59,62,42)        137.395          estimate D2E/DX2                !
 ! D239  D(60,59,62,63)        -86.8298         estimate D2E/DX2                !
 ! D240  D(61,59,62,42)         19.3231         estimate D2E/DX2                !
 ! D241  D(61,59,62,63)        155.0982         estimate D2E/DX2                !
 ! D242  D(42,62,63,58)         80.8455         estimate D2E/DX2                !
 ! D243  D(59,62,63,58)        -62.0933         estimate D2E/DX2                !
 ! D244  D(58,66,69,70)       -169.6004         estimate D2E/DX2                !
 ! D245  D(58,66,69,71)         75.7701         estimate D2E/DX2                !
 ! D246  D(58,66,69,72)        -47.1961         estimate D2E/DX2                !
 ! D247  D(67,66,69,70)         66.4198         estimate D2E/DX2                !
 ! D248  D(67,66,69,71)        -48.2098         estimate D2E/DX2                !
 ! D249  D(67,66,69,72)       -171.1759         estimate D2E/DX2                !
 ! D250  D(68,66,69,70)        -52.7004         estimate D2E/DX2                !
 ! D251  D(68,66,69,71)       -167.3299         estimate D2E/DX2                !
 ! D252  D(68,66,69,72)         69.704          estimate D2E/DX2                !
 ! D253  D(66,69,72,73)        -62.7446         estimate D2E/DX2                !
 ! D254  D(66,69,72,74)         52.4276         estimate D2E/DX2                !
 ! D255  D(66,69,72,75)        173.3823         estimate D2E/DX2                !
 ! D256  D(70,69,72,73)         57.9035         estimate D2E/DX2                !
 ! D257  D(70,69,72,74)        173.0757         estimate D2E/DX2                !
 ! D258  D(70,69,72,75)        -65.9696         estimate D2E/DX2                !
 ! D259  D(71,69,72,73)        174.0592         estimate D2E/DX2                !
 ! D260  D(71,69,72,74)        -70.7686         estimate D2E/DX2                !
 ! D261  D(71,69,72,75)         50.186          estimate D2E/DX2                !
 ! D262  D(69,72,75,76)        -43.6373         estimate D2E/DX2                !
 ! D263  D(69,72,75,77)         72.0295         estimate D2E/DX2                !
 ! D264  D(69,72,75,78)       -162.3352         estimate D2E/DX2                !
 ! D265  D(73,72,75,76)       -166.5916         estimate D2E/DX2                !
 ! D266  D(73,72,75,77)        -50.9248         estimate D2E/DX2                !
 ! D267  D(73,72,75,78)         74.7106         estimate D2E/DX2                !
 ! D268  D(74,72,75,76)         77.1572         estimate D2E/DX2                !
 ! D269  D(74,72,75,77)       -167.176          estimate D2E/DX2                !
 ! D270  D(74,72,75,78)        -41.5407         estimate D2E/DX2                !
 ! D271  D(72,75,78,79)        178.0431         estimate D2E/DX2                !
 ! D272  D(72,75,78,80)         58.2135         estimate D2E/DX2                !
 ! D273  D(72,75,78,81)        -61.3145         estimate D2E/DX2                !
 ! D274  D(76,75,78,79)         57.4882         estimate D2E/DX2                !
 ! D275  D(76,75,78,80)        -62.3414         estimate D2E/DX2                !
 ! D276  D(76,75,78,81)        178.1306         estimate D2E/DX2                !
 ! D277  D(77,75,78,79)        -55.8825         estimate D2E/DX2                !
 ! D278  D(77,75,78,80)       -175.7121         estimate D2E/DX2                !
 ! D279  D(77,75,78,81)         64.7599         estimate D2E/DX2                !
 ! D280  D(75,78,81,82)         78.5381         estimate D2E/DX2                !
 ! D281  D(75,78,81,83)        -43.8642         estimate D2E/DX2                !
 ! D282  D(75,78,81,84)       -163.4963         estimate D2E/DX2                !
 ! D283  D(79,78,81,82)       -158.8833         estimate D2E/DX2                !
 ! D284  D(79,78,81,83)         78.7144         estimate D2E/DX2                !
 ! D285  D(79,78,81,84)        -40.9177         estimate D2E/DX2                !
 ! D286  D(80,78,81,82)        -43.735          estimate D2E/DX2                !
 ! D287  D(80,78,81,83)       -166.1374         estimate D2E/DX2                !
 ! D288  D(80,78,81,84)         74.2305         estimate D2E/DX2                !
 --------------------------------------------------------------------------------
 Trust Radius=3.00D-01 FncErr=1.00D-07 GrdErr=1.00D-06
 Number of steps in this run=    504 maximum allowed number of steps=    504.
 GradGradGradGradGradGradGradGradGradGradGradGradGradGradGradGradGradGrad

 Leave Link  103 at Wed Apr  6 23:05:04 2016, MaxMem= 10737418240 cpu:         0.4
 (Enter /share/apps//g09/l202.exe)
 Stoichiometry    C23H44NO16(1+)
 Framework group  C1[X(C23H44NO16)]
 Deg. of freedom   246
 Full point group                 C1      NOp   1
 Largest Abelian subgroup         C1      NOp   1
 Largest concise Abelian subgroup C1      NOp   1
                         Standard orientation:                         
 ---------------------------------------------------------------------
 Center     Atomic      Atomic             Coordinates (Angstroms)
 Number     Number       Type             X           Y           Z
 ---------------------------------------------------------------------
      1          8           0       -4.215299   -1.204911   -0.530299
      2          6           0       -3.457617   -0.184129   -1.137311
      3          6           0       -4.220443    1.136288   -1.048179
      4          6           0       -4.491478    1.509124    0.410480
      5          6           0       -5.293533    0.391403    1.083662
      6          6           0       -4.621782   -0.975773    0.842554
      7          1           0       -3.348656   -0.507376   -2.186409
      8          1           0       -5.180599    0.976846   -1.566516
      9          1           0       -3.530891    1.643371    0.933989
     10          1           0       -5.311784    0.562986    2.173097
     11          1           0       -3.735278   -1.034820    1.499682
     12          8           0       -6.617939    0.486264    0.547682
     13          8           0       -5.160431    2.767242    0.459003
     14          8           0       -3.509491    2.203792   -1.707166
     15          8           0       -2.165959    0.001779   -0.543169
     16          6           0       -5.564323   -2.143657    1.153237
     17          1           0       -6.235815   -2.278923    0.288271
     18          1           0       -4.976929   -3.065538    1.289786
     19          8           0       -6.294004   -1.800411    2.338885
     20          1           0       -6.749250   -2.594560    2.663665
     21          1           0       -7.198316   -0.018477    1.148359
     22          1           0       -6.117444    2.557181    0.402528
     23          1           0       -4.000721    3.011449   -1.444217
     24          8           0        1.233972   -2.469011   -0.788594
     25          6           0        0.646795   -2.275649    0.494597
     26          6           0       -0.314780   -1.070435    0.505155
     27          6           0       -1.301390   -1.155271   -0.651965
     28          6           0       -0.528133   -1.207255   -1.971395
     29          6           0        0.390594   -2.444837   -1.943528
     30          1           0        0.095983   -3.177438    0.822958
     31          1           0        0.276137   -0.147159    0.389798
     32          1           0       -1.918314   -2.065750   -0.553867
     33          1           0       -1.229433   -1.332990   -2.818168
     34          1           0       -0.252302   -3.347957   -1.977752
     35          8           0        0.228204    0.003062   -2.146252
     36          8           0       -0.969013   -1.078479    1.778012
     37          8           0        1.699157   -2.152448    1.415845
     38          6           0        1.356360   -2.478125   -3.134695
     39          1           0        1.985801   -3.378557   -3.066726
     40          1           0        0.787569   -2.526780   -4.075219
     41          8           0        2.170650   -1.298358   -3.177314
     42          1           0        2.919037   -1.413267   -2.509972
     43          1           0        1.099604   -0.282059   -2.590779
     44          1           0       -1.615984   -0.350097    1.751565
     45          8           0        5.109168   -0.748580    1.274692
     46          6           0        4.783519    0.605874    1.181120
     47          6           0        3.645424    1.013609    2.142887
     48          6           0        2.649911   -0.133233    2.366010
     49          6           0        2.643218   -1.082363    1.163342
     50          6           0        4.043359   -1.707624    1.004590
     51          1           0        5.697751    1.157344    1.454901
     52          1           0        3.074352    1.839602    1.687356
     53          1           0        2.978164   -0.710229    3.251065
     54          1           0        4.144999   -2.481033    1.784722
     55          1           0        2.362216   -0.546260    0.244795
     56          8           0        1.376847    0.472293    2.608736
     57          8           0        4.276005    1.451013    3.343545
     58          8           0        4.442716    0.885395   -0.201561
     59          6           0        4.315561   -2.380702   -0.340013
     60          1           0        5.337692   -2.791911   -0.307869
     61          1           0        3.605173   -3.204778   -0.483946
     62          8           0        4.190044   -1.502067   -1.469439
     63          1           0        4.490234   -0.606285   -1.175713
     64          1           0        0.723688   -0.241757    2.763935
     65          1           0        3.578265    1.676558    3.984117
     66          6           0        4.738042    2.195779   -0.727094
     67          1           0        5.688649    2.560035   -0.303119
     68          1           0        4.891725    2.032263   -1.804587
     69          6           0        3.617866    3.215798   -0.501958
     70          1           0        3.861317    4.111336   -1.097861
     71          1           0        3.616095    3.547693    0.549087
     72          6           0        2.228737    2.681329   -0.874605
     73          1           0        2.202666    2.449745   -1.953938
     74          1           0        2.067121    1.722592   -0.357436
     75          6           0        1.104359    3.652498   -0.492711
     76          1           0        1.297593    4.048913    0.517487
     77          1           0        1.103248    4.533077   -1.158693
     78          6           0       -0.290704    3.040072   -0.436905
     79          1           0       -1.030619    3.789457   -0.123865
     80          1           0       -0.327265    2.208246    0.279935
     81          7           0       -0.756323    2.478664   -1.751756
     82          1           0       -0.324094    1.524167   -1.954805
     83          1           0       -0.539914    3.117265   -2.526106
     84          1           0       -1.801596    2.334304   -1.725727
 ---------------------------------------------------------------------
 Rotational constants (GHZ):      0.1457056      0.0558267      0.0531354
 Leave Link  202 at Wed Apr  6 23:05:04 2016, MaxMem= 10737418240 cpu:         0.9
 (Enter /share/apps//g09/l301.exe)
 Standard basis: 6-311+G(d,p) (5D, 7F)
 Ernie: Thresh=  0.10000D-02 Tol=  0.10000D-05 Strict=F.
 There are  1184 symmetry adapted cartesian basis functions of A   symmetry.
 There are  1144 symmetry adapted basis functions of A   symmetry.
  1144 basis functions,  1792 primitive gaussians,  1184 cartesian basis functions
   158 alpha electrons      158 beta electrons
       nuclear repulsion energy      5871.0581517702 Hartrees.
 IExCor= 1009 DFT=T Ex+Corr=PBE1PBE ExCW=0 ScaHFX=  0.250000
 ScaDFX=  0.750000  0.750000  1.000000  1.000000 ScalE2=  1.000000  1.000000
 IRadAn=      0 IRanWt=     -1 IRanGd=            0 ICorTp=0 IEmpDi=131
 NAtoms=   84 NActive=   84 NUniq=   84 SFac= 1.00D+00 NAtFMM=   60 NAOKFM=T Big=T
 Integral buffers will be    131072 words long.
 Raffenetti 2 integral format.
 Two-electron integral symmetry is turned on.
 R6Disp:  Grimme-D3 Dispersion energy=       -0.0857605570 Hartrees.
 Nuclear repulsion after empirical dispersion term =     5870.9723912132 Hartrees.
 Leave Link  301 at Wed Apr  6 23:05:04 2016, MaxMem= 10737418240 cpu:         1.9
 (Enter /share/apps//g09/l302.exe)
 NPDir=0 NMtPBC=     1 NCelOv=     1 NCel=       1 NClECP=     1 NCelD=      1
         NCelK=      1 NCelE2=     1 NClLst=     1 CellRange=     0.0.
 One-electron integrals computed using PRISM.
 NBasis=  1144 RedAO= T EigKep=  1.01D-06  NBF=  1144
 NBsUse=  1143 1.00D-06 EigRej=  9.34D-07 NBFU=  1143
 Precomputing XC quadrature grid using
 IXCGrd= 4 IRadAn=           0 IRanWt=          -1 IRanGd=           0 AccXCQ= 0.00D+00.
 Generated NRdTot=       0 NPtTot=           0 NUsed=           0 NTot=          32
 NSgBfM=  1069  1070  1073  1073  1074 MxSgAt=    84 MxSgA2=    84.
 Leave Link  302 at Wed Apr  6 23:05:07 2016, MaxMem= 10737418240 cpu:        47.0
 (Enter /share/apps//g09/l303.exe)
 DipDrv:  MaxL=1.
 Leave Link  303 at Wed Apr  6 23:05:09 2016, MaxMem= 10737418240 cpu:        25.0
 (Enter /share/apps//g09/l401.exe)
 ExpMin= 4.38D-02 ExpMax= 8.59D+03 ExpMxC= 1.30D+03 IAcc=2 IRadAn=         4 AccDes= 0.00D+00
 Harris functional with IExCor= 1009 and IRadAn=       4 diagonalized for initial guess.
 HarFok:  IExCor= 1009 AccDes= 0.00D+00 IRadAn=         4 IDoV= 1 UseB2=F ITyADJ=14
 ICtDFT=  3500011 ScaDFX=  1.000000  1.000000  1.000000  1.000000
 FoFCou: FMM=F IPFlag=           0 FMFlag=      100000 FMFlg1=        2001
         NFxFlg=           0 DoJE=T BraDBF=F KetDBF=T FulRan=T
         wScrn=  0.000000 ICntrl=     500 IOpCl=  0 I1Cent=   200000004 NGrid=           0
         NMat0=    1 NMatS0=      1 NMatT0=    0 NMatD0=    1 NMtDS0=    0 NMtDT0=    0
 Petite list used in FoFCou.
 Harris En= -2159.70719620813    
 JPrj=0 DoOrth=F DoCkMO=F.
 Leave Link  401 at Wed Apr  6 23:05:23 2016, MaxMem= 10737418240 cpu:       234.4
 (Enter /share/apps//g09/l502.exe)
 Closed shell SCF:
 Using DIIS extrapolation, IDIIS=  1040.
 Integral symmetry usage will be decided dynamically.
 IVT=     4256630 IEndB=     4256630 NGot= 10737418240 MDV= 10734581291
 LenX= 10734581291 LenY= 10733178251
 Requested convergence on RMS density matrix=1.00D-08 within 128 cycles.
 Requested convergence on MAX density matrix=1.00D-06.
 Requested convergence on             energy=1.00D-06.
 No special actions if energy rises.
 Fock matrices will be formed incrementally for  20 cycles.

 Cycle   1  Pass 1  IDiag  1:
 FoFJK:  IHMeth= 1 ICntrl=       0 DoSepK=F KAlg= 0 I1Cent=   0 FoldK=F
 IRaf= 780000000 NMat=   1 IRICut=       1 DoRegI=T DoRafI=F ISym2E= 0.
 FoFCou: FMM=T IPFlag=           0 FMFlag=      100000 FMFlg1=        2001
         NFxFlg=           0 DoJE=F BraDBF=F KetDBF=F FulRan=T
         wScrn=  0.000000 ICntrl=       0 IOpCl=  0 I1Cent=           0 NGrid=           0
         NMat0=    1 NMatS0=      1 NMatT0=    0 NMatD0=    1 NMtDS0=    0 NMtDT0=    0
 Symmetry not used in FoFCou.
 FMM levels:  10  Number of levels for PrismC:   9
 E= -2158.69761179533    
 DIIS: error= 1.24D-02 at cycle   1 NSaved=   1.
 NSaved= 1 IEnMin= 1 EnMin= -2158.69761179533     IErMin= 1 ErrMin= 1.24D-02
 ErrMax= 1.24D-02  0.00D+00 EMaxC= 1.00D-01 BMatC= 1.01D+00 BMatP= 1.01D+00
 IDIUse=3 WtCom= 8.76D-01 WtEn= 1.24D-01
 Coeff-Com:  0.100D+01
 Coeff-En:   0.100D+01
 Coeff:      0.100D+01
 Gap=     0.251 Goal=   None    Shift=    0.000
 GapD=    0.251 DampG=1.000 DampE=0.500 DampFc=0.5000 IDamp=-1.
 Damping current iteration by 5.00D-01
 RMSDP=1.19D-02 MaxDP=2.46D+00              OVMax= 1.47D-01

 Cycle   2  Pass 1  IDiag  1:
 RMSU=  5.86D-03    CP:  1.02D+00
 E= -2158.98024768605     Delta-E=       -0.282635890723 Rises=F Damp=T
 DIIS: error= 3.15D-03 at cycle   2 NSaved=   2.
 NSaved= 2 IEnMin= 2 EnMin= -2158.98024768605     IErMin= 2 ErrMin= 3.15D-03
 ErrMax= 3.15D-03  0.00D+00 EMaxC= 1.00D-01 BMatC= 7.85D-02 BMatP= 1.01D+00
 IDIUse=3 WtCom= 9.69D-01 WtEn= 3.15D-02
 Coeff-Com:  0.524D-01 0.948D+00
 Coeff-En:   0.143D+00 0.857D+00
 Coeff:      0.552D-01 0.945D+00
 Gap=     0.273 Goal=   None    Shift=    0.000
 RMSDP=5.75D-03 MaxDP=2.61D+00 DE=-2.83D-01 OVMax= 8.33D-02

 Cycle   3  Pass 1  IDiag  1:
 RMSU=  3.41D-03    CP:  9.34D-01  7.18D-01
 E= -2159.34048899248     Delta-E=       -0.360241306424 Rises=F Damp=F
 DIIS: error= 2.93D-03 at cycle   3 NSaved=   3.
 NSaved= 3 IEnMin= 3 EnMin= -2159.34048899248     IErMin= 3 ErrMin= 2.93D-03
 ErrMax= 2.93D-03  0.00D+00 EMaxC= 1.00D-01 BMatC= 4.33D-02 BMatP= 7.85D-02
 IDIUse=3 WtCom= 9.71D-01 WtEn= 2.93D-02
 Coeff-Com: -0.701D-01 0.409D+00 0.661D+00
 Coeff-En:   0.000D+00 0.000D+00 0.100D+01
 Coeff:     -0.680D-01 0.397D+00 0.671D+00
 Gap=     0.261 Goal=   None    Shift=    0.000
 RMSDP=1.47D-03 MaxDP=5.50D-01 DE=-3.60D-01 OVMax= 1.67D-02

 Cycle   4  Pass 1  IDiag  1:
 RMSU=  1.18D-03    CP:  9.46D-01  7.91D-01  8.62D-01
 E= -2159.36722151844     Delta-E=       -0.026732525967 Rises=F Damp=F
 DIIS: error= 9.96D-04 at cycle   4 NSaved=   4.
 NSaved= 4 IEnMin= 4 EnMin= -2159.36722151844     IErMin= 4 ErrMin= 9.96D-04
 ErrMax= 9.96D-04  0.00D+00 EMaxC= 1.00D-01 BMatC= 5.79D-03 BMatP= 4.33D-02
 IDIUse=3 WtCom= 9.90D-01 WtEn= 9.96D-03
 Coeff-Com: -0.372D-01 0.126D+00 0.343D+00 0.568D+00
 Coeff-En:   0.000D+00 0.000D+00 0.768D-01 0.923D+00
 Coeff:     -0.368D-01 0.125D+00 0.341D+00 0.571D+00
 Gap=     0.254 Goal=   None    Shift=    0.000
 RMSDP=1.25D-03 MaxDP=4.29D-01 DE=-2.67D-02 OVMax= 6.02D-03

 Cycle   5  Pass 1  IDiag  1:
 RMSU=  4.24D-04    CP:  9.23D-01  7.69D-01  8.38D-01  6.60D-01
 E= -2159.37216248289     Delta-E=       -0.004940964451 Rises=F Damp=F
 DIIS: error= 3.49D-04 at cycle   5 NSaved=   5.
 NSaved= 5 IEnMin= 5 EnMin= -2159.37216248289     IErMin= 5 ErrMin= 3.49D-04
 ErrMax= 3.49D-04  0.00D+00 EMaxC= 1.00D-01 BMatC= 2.43D-04 BMatP= 5.79D-03
 IDIUse=3 WtCom= 9.97D-01 WtEn= 3.49D-03
 Coeff-Com: -0.113D-01 0.257D-01 0.993D-01 0.243D+00 0.643D+00
 Coeff-En:   0.000D+00 0.000D+00 0.000D+00 0.000D+00 0.100D+01
 Coeff:     -0.113D-01 0.256D-01 0.989D-01 0.242D+00 0.644D+00
 Gap=     0.254 Goal=   None    Shift=    0.000
 RMSDP=2.58D-04 MaxDP=8.02D-02 DE=-4.94D-03 OVMax= 1.29D-03

 Cycle   6  Pass 1  IDiag  1:
 RMSU=  1.12D-04    CP:  9.26D-01  7.76D-01  8.76D-01  6.60D-01  6.86D-01
 E= -2159.37233958093     Delta-E=       -0.000177098036 Rises=F Damp=F
 DIIS: error= 7.87D-05 at cycle   6 NSaved=   6.
 NSaved= 6 IEnMin= 6 EnMin= -2159.37233958093     IErMin= 6 ErrMin= 7.87D-05
 ErrMax= 7.87D-05  0.00D+00 EMaxC= 1.00D-01 BMatC= 2.50D-05 BMatP= 2.43D-04
 IDIUse=1 WtCom= 1.00D+00 WtEn= 0.00D+00
 Coeff-Com: -0.409D-02 0.726D-02 0.355D-01 0.101D+00 0.340D+00 0.520D+00
 Coeff:     -0.409D-02 0.726D-02 0.355D-01 0.101D+00 0.340D+00 0.520D+00
 Gap=     0.254 Goal=   None    Shift=    0.000
 RMSDP=6.07D-05 MaxDP=2.28D-02 DE=-1.77D-04 OVMax= 4.35D-04

 Cycle   7  Pass 1  IDiag  1:
 RMSU=  2.31D-05    CP:  9.27D-01  7.76D-01  8.71D-01  6.71D-01  7.14D-01
                    CP:  6.10D-01
 E= -2159.37235821079     Delta-E=       -0.000018629860 Rises=F Damp=F
 DIIS: error= 2.02D-05 at cycle   7 NSaved=   7.
[...]
 002583,0.00000890,-0.00001533,-0.00007426,-0.00000667,-0.00000327,0.00
 000810,0.00000214,-0.00259019,0.00102696,0.00060820,-0.00000301,-0.000
 00247,0.00003965,-0.00002396,0.00001774,0.00002753,0.00002067,-0.00007
 891,-0.00002014,-0.00000045,0.00002165,0.00000066,-0.00001391,-0.00000
 843,-0.00000480,-0.00011579,0.00015048,0.00006311,0.00000025,-0.000021
 56,0.00007040,-0.00019983,-0.00065843,-0.00009265,-0.00001761,-0.00001
 950,-0.00004587,-0.00001233,0.00001196,-0.00000619,0.00001977,-0.00003
 402,0.00002795,0.00001865,-0.00000126,0.00001280,-0.00000945,0.0000144
 3,0.00000904,-0.00000186,-0.00001900,-0.00001113,0.00001423,-0.0000007
 8,0.00000360,-0.00000002,0.00000042,-0.00000249,0.00000750,0.00000221,
 -0.00000203,0.00000543,-0.00000023,-0.00000698,-0.00000402,0.00000230,
 -0.00000180,0.00000947,-0.00000455,-0.00000392,0.00000958,0.00002196,-
 0.00002650,-0.00002885,0.00000448,-0.00001857,-0.00003606,0.00003658,-
 0.00002447,-0.00000004,-0.00004637,0.00002071,0.00000040,0.00000603,-0
 .00000558,0.00000165,0.00000206,0.00000067,-0.00001160,0.00005429,-0.0
 0005598,0.00001397,-0.00001147,0.00001934,-0.00000370,-0.00001752,-0.0
 0001237,0.00001098,0.00000521,0.00000261,0.00003016,-0.00002697,0.0000
 3032,-0.00000823,0.00000765,-0.00000537,-0.00002960,0.00001204,0.00001
 636,-0.00023574,0.00014570,-0.00004349,0.00004510,-0.00000876,0.000004
 52,-0.00002524,-0.00002391,-0.00012836,0.00074841,-0.00069490,0.000021
 09,-0.00037797,0.00020480,0.00000176,-0.00022694,0.00004857,0.00004659
 ,0.00197374,0.00051898,0.00106224,-0.00022113,-0.00006021,0.00056248,-
 0.00009854,-0.00115204,-0.00030497,-0.00137096,0.02661711,-0.00546624,
 -0.00062043,0.00067879,0.00029157,-0.00350550,0.00002485,-0.00273205,-
 0.06059397,0.02761966,-0.00498959,0.01173324,-0.03120489,0.00386564,0.
 05759896,-0.00000694,0.00011939,-0.00008382,-0.00002682,-0.00018678,0.
 00020704,-0.00020625,-0.00049637,0.00002120,0.00009722,0.00005399,0.00
 001286,-0.00005154,-0.00003477,-0.00005256,0.00002498,-0.00004325,0.00
 003987,-0.00003243,-0.00000414,-0.00004582,0.00001787,0.00009482,0.000
 02328,-0.00000225,-0.00001357,0.00001113,-0.00000308,0.00002107,0.0000
 0980,-0.00000444,0.00000416,-0.00000181,-0.00001314,0.00006086,0.00005
 501,-0.00009608,0.00006363,0.00003623,0.00010201,0.00090158,0.00015661
 ,-0.00005737,-0.00013075,-0.00016791,0.00000704,-0.00003417,-0.0000133
 5,-0.00000236,-0.00000150,0.00000089,0.00000107,0.00000519,-0.00000182
 ,-0.00001651,0.00005161,0.00000549,0.00000440,-0.00001227,-0.00000157,
 0.00000740,-0.00001513,-0.00001312,0.00003134,-0.00001069,-0.00002714,
 0.00012058,-0.00000155,-0.00018454,0.00000524,0.00005108,-0.00009084,0
 .00001351,-0.00005462,0.00012558,0.00001811,-0.00004106,-0.00000727,0.
 00004175,-0.00005740,-0.00002278,0.00002848,-0.00040527,-0.00026982,-0
 .00004055,0.00002659,0.00012826,0.00000162,0.00000572,-0.00000824,0.00
 001210,0.00001098,0.00003131,-0.00003435,0.00000944,0.00001830,-0.0000
 0717,0.00002027,0.00003406,0.00003064,0.00002456,-0.00002550,0.0004163
 7,0.00075988,-0.00004168,-0.00003514,0.00004890,-0.00003615,-0.0000132
 9,-0.00002536,-0.00010570,-0.00004686,0.00001805,0.00000089,0.00001184
 ,-0.00000028,-0.00001114,-0.00000989,0.00000446,0.00000169,0.00016818,
 -0.00004598,-0.00012129,-0.00000650,0.00001775,0.00008691,-0.00029543,
 0.00008979,0.00018996,0.00000335,-0.00001554,0.00000754,-0.00001289,-0
 .00004885,-0.00002079,-0.00001002,0.00006203,-0.00002381,0.00001265,0.
 00000024,0.00002476,-0.00002842,0.00001325,0.00004209,0.00001678,0.000
 02413,0.00003771,0.00000578,0.00003093,0.00003279,0.00000195,-0.000005
 87,-0.00000372,-0.00000406,0.00000855,0.00000145,0.00000448,0.00000123
 ,-0.00000983,-0.00000059,-0.00000205,-0.00000238,0.00000046,0.00000893
 ,0.00000892,0.00001641,-0.00000672,-0.00008103,-0.00001541,-0.00001523
 ,-0.00002828,-0.00002365,-0.00010547,0.00002349,-0.00000509,0.00000036
 ,0.00000301,0.00000371,-0.00000087,-0.00000643,-0.00000904,-0.00000372
 ,0.00000711,0.00000123,-0.00002193,-0.00005503,0.00001384,0.00002981,0
 .00001640,0.00001063,-0.00000217,0.00003402,0.00000755,0.00000579,0.00
 001138,0.00002049,0.00005076,-0.00002047,0.00000302,-0.00000070,-0.000
 01046,0.00001785,0.00000138,-0.00000043,-0.00001714,0.00005092,-0.0000
 3477,-0.00000991,-0.00005667,-0.00005432,0.00001538,-0.00002408,-0.000
 00564,-0.00009667,-0.00024086,-0.00000526,0.00003700,0.00019110,0.0000
 3241,-0.00006242,-0.00007704,0.00010607,-0.00020173,0.00333362,-0.0008
 9095,-0.00000897,-0.00045982,-0.00040199,-0.00029859,-0.00053839,0.000
 98960,0.00221430,-0.00232692,0.00294858,-0.00002366,-0.00001925,-0.000
 23438,0.00052936,0.00142163,-0.00079577,0.02759149,-0.40394493,0.06849
 916,0.00215411,-0.01053618,0.00066470,-0.03180500,0.42736689,0.0000150
 5,-0.00005106,-0.00017923,0.00002546,0.00009076,0.00064025,-0.00022522
 ,-0.00020565,0.00011955,-0.00000067,0.00007447,0.00011427,-0.00005029,
 0.00000127,-0.00000500,-0.00003675,0.00001045,0.00004172,-0.00004404,-
 0.00001877,-0.00004473,0.00001699,-0.00000454,-0.00001578,-0.00002836,
 0.00000747,-0.00003733,0.00000176,0.00001643,0.00000210,-0.00000430,0.
 00000888,-0.00000731,0.00001530,0.00002549,-0.00002660,0.00002966,0.00
 007421,-0.00005364,0.00085729,0.00104735,-0.00194543,-0.00018526,-0.00
 066212,-0.00019989,-0.00000302,-0.00000312,0.00000254,-0.00000110,-0.0
 0000367,-0.00000344,0.00000438,0.00000733,0.00000035,0.00000736,0.0000
 1119,-0.00001423,0.00000117,-0.00000415,0.00000722,-0.00000273,-0.0000
 1049,0.00000110,0.00001075,-0.00002616,0.00000216,0.00008468,-0.000445
 96,-0.00025813,-0.00001433,0.00000207,-0.00007306,0.00001505,0.0000271
 3,0.00012712,-0.00003765,0.00002182,-0.00003827,0.00009066,-0.00006863
 ,-0.00019018,0.00005745,0.00006436,0.00017696,-0.00000577,-0.00002775,
 0.00001794,0.00000161,-0.00000434,-0.00001766,-0.00004247,-0.00001438,
 0.00004226,-0.00005069,-0.00003691,0.00004255,-0.00003320,-0.00003793,
 -0.00002990,-0.00000519,-0.00001519,-0.00000514,0.00052498,-0.00030014
 ,-0.00043047,0.00004848,-0.00003515,-0.00002594,-0.00002712,-0.0001022
 7,-0.00011050,0.00002704,0.00005652,0.00008026,-0.00000519,-0.00001155
 ,-0.00000471,-0.00000935,-0.00000388,-0.00001471,-0.00005127,-0.000084
 97,-0.00013876,0.00005064,0.00002991,0.00007399,0.00014874,0.00020317,
 0.00014469,-0.00003345,-0.00001651,-0.00001120,-0.00011614,-0.00017375
 ,0.00001576,0.00002159,0.00026986,-0.00023591,0.00000660,0.00010156,-0
 .00009277,-0.00007660,0.00007985,0.00008855,0.00001800,0.00010149,0.00
 000969,0.00004584,0.00007095,0.00006532,0.00001099,-0.00001007,-0.0000
 0130,-0.00004835,0.00001002,0.00002570,0.00001348,-0.00001907,-0.00001
 495,-0.00000496,-0.00001477,0.00000239,0.00002529,0.00001902,0.0000301
 3,0.00007947,-0.00007518,-0.00015389,0.00004333,-0.00010652,0.00008315
 ,-0.00012771,-0.00032360,0.00024153,0.00001114,0.00004570,-0.00003752,
 0.00000141,-0.00000421,0.00000904,-0.00000926,-0.00000861,-0.00000124,
 -0.00008806,-0.00008900,-0.00002489,0.00012659,0.00007192,0.00000659,-
 0.00001564,0.00000549,0.00005095,-0.00000576,0.00004115,-0.00000737,0.
 00021981,0.00023008,-0.00009536,-0.00004994,-0.00003333,0.00005722,-0.
 00000133,-0.00002784,-0.00001530,0.00013036,-0.00040427,0.00005851,-0.
 00001766,-0.00002243,-0.00004836,0.00000802,0.00007785,0.00016516,-0.0
 0012134,0.00037763,-0.00042766,0.00063983,-0.00014093,-0.00037118,-0.0
 0008614,-0.00014791,0.00023657,0.00129077,0.00132754,0.00076251,0.0000
 5509,-0.00033532,0.00069619,-0.00050038,-0.00128407,-0.00014417,-0.001
 56340,0.02722225,-0.00667023,0.00031801,-0.00051196,0.00053351,-0.0044
 3313,0.00006591,-0.00307352,-0.00488652,0.06970106,-0.07041320,-0.0032
 0090,0.01058050,-0.00288759,0.01063914,-0.07598072,0.07016605,-0.00084
 453,0.00019323,0.00079876,0.00189862,-0.00139818,-0.00275896,0.0013615
 1,0.00515819,-0.00213964,-0.00041295,-0.00002794,0.00017572,0.00036929
 ,0.00031551,0.00000397,0.00035065,0.00005927,-0.00028529,-0.00035133,-
 0.00011593,-0.00006588,-0.00030490,-0.00163781,-0.00026415,0.00002731,
 0.00017621,-0.00011153,-0.00001305,-0.00013368,-0.00002953,0.00000614,
 -0.00003537,0.00001984,-0.00006676,-0.00045862,-0.00011246,0.00020620,
 -0.00055219,-0.00008031,-0.00614296,-0.00782800,-0.00439110,-0.0009096
 8,0.00189465,0.00126698,-0.00001928,0.00004594,0.00001583,0.00001781,0
 .00001965,0.00000245,-0.00002634,-0.00006628,0.00000163,-0.00005188,-0
 .00010226,0.00005167,-0.00002014,0.00003533,-0.00001509,0.00002358,0.0
 0008098,0.00003090,-0.00015681,0.00012244,0.00011519,-0.00158373,0.001
 20259,0.00302871,-0.00005598,0.00017791,-0.00011296,0.00009591,-0.0001
 4692,0.00007504,0.00014236,-0.00026073,0.00002991,-0.00024670,-0.00038
 834,0.00029177,-0.00061526,-0.00091836,-0.00005845,-0.00008419,-0.0000
 5574,0.00011584,0.00001692,0.00002910,-0.00000342,0.00002258,0.0000340
 3,0.00007558,0.00008771,0.00009043,-0.00007662,-0.00005023,-0.00002261
 ,0.00001856,0.00003798,0.00004271,-0.00002559,0.00074566,-0.00057306,-
 0.00152623,-0.00024322,0.00026880,0.00004510,-0.00002817,0.00006744,-0
 .00004289,-0.00009162,-0.00010831,-0.00006959,0.00002014,0.00001943,-0
 .00001351,-0.00002116,0.00000151,0.00000632,0.00038593,0.00006119,-0.0
 0018523,0.00000463,-0.00000674,0.00014231,-0.00036180,0.00048113,0.000
 34883,0.00013818,-0.00005946,-0.00010029,0.00005475,0.00007319,-0.0000
 3756,-0.00001121,-0.00012119,0.00014083,0.00001930,-0.00007625,0.00010
 904,0.00003082,-0.00003425,-0.00002117,0.00000484,-0.00005444,0.000027
 16,-0.00001580,-0.00001944,-0.00000786,-0.00000523,-0.00000049,-0.0000
 0225,0.00001581,0.00000882,-0.00001405,-0.00000112,0.00001386,-0.00000
 661,0.00000041,0.00000931,-0.00000669,-0.00000865,0.00000262,-0.000000
 12,-0.00006635,0.00010674,0.00000475,-0.00005766,0.00006756,-0.0000930
 1,0.00004329,0.00014535,-0.00014511,-0.00001346,-0.00006747,0.00004582
 ,0.00000291,0.00000495,-0.00001722,-0.00000233,0.00000089,0.00001167,0
 .00003646,0.00007367,-0.00009817,-0.00004521,-0.00001453,0.00001418,0.
 00004954,-0.00004398,-0.00003066,0.00001781,-0.00003278,0.00002034,-0.
 00007785,-0.00012204,0.00006467,0.00002076,0.00001277,-0.00003886,0.00
 001835,0.00001634,-0.00000130,0.00019276,-0.00000737,-0.00008435,-0.00
 000850,0.00000409,0.00001220,0.00002715,0.00000063,0.00008430,-0.00050
 072,0.00036616,0.00054521,0.00017277,-0.00009353,0.00011682,0.00005096
 ,0.00001449,-0.00004826,-0.00541515,0.00281794,-0.00354003,0.00011171,
 -0.00113305,-0.00159520,0.00011048,0.00016212,0.00037530,0.00877952,-0
 .01610372,-0.02253657,-0.00047349,-0.00079592,-0.00044599,0.00007441,0
 .00040317,0.00000412,-0.07559960,0.03455148,0.05789689,-0.00617114,0.0
 1636889,0.02652031,-0.00162638,-0.00020194,0.00051134,0.08700862,0.000
 39752,0.00155636,-0.00012325,-0.00160492,-0.00223338,-0.00134873,0.000
 10719,-0.00614753,-0.00277038,0.00088675,-0.00015845,-0.00013255,-0.00
 030052,-0.00032428,-0.00019304,0.00033154,-0.00045355,0.00038047,-0.00
 002424,-0.00002566,0.00009404,0.00011284,0.00087735,0.00031398,0.00018
 041,-0.00015972,0.00016743,-0.00004467,0.00015259,0.00006783,-0.000061
 86,0.00002866,-0.00002304,-0.00008800,0.00049757,0.00032874,-0.0009469
 5,0.00063886,0.00015284,-0.00614043,-0.00500782,0.00492610,0.00218010,
 0.00067590,-0.00208060,0.00001936,-0.00024465,-0.00005438,-0.00002494,
 -0.00000723,-0.00000963,0.00002024,0.00005668,-0.00000949,-0.00008931,
 0.00036508,-0.00001511,0.00001948,-0.00007656,0.00001608,0.00003666,-0
 .00010471,-0.00007208,0.00019891,-0.00015288,-0.00015598,0.00191811,0.
 00305028,0.00302281,0.00014563,-0.00012957,-0.00015957,-0.00041190,0.0
 0010538,0.00038099,0.00030582,0.00049710,0.00019380,-0.00206338,-0.000
 10658,0.00202931,-0.00008353,0.00176490,0.00084922,0.00002213,-0.00055
 279,-0.00009916,-0.00001997,-0.00006111,-0.00001777,-0.00002545,-0.000
 00393,-0.00008787,0.00046683,0.00016353,-0.00020646,-0.00019166,-0.000
 11433,-0.00017287,-0.00013816,-0.00012515,0.00007256,-0.00241109,-0.00
 312983,-0.00064133,0.00010585,-0.00027203,-0.00053161,0.00002614,-0.00
 025712,-0.00054357,0.00014459,0.00040076,0.00010578,0.00002051,-0.0000
 7508,-0.00001946,-0.00000249,0.00000472,-0.00001996,-0.00034346,-0.000
 28839,-0.00006590,0.00003201,0.00004339,0.00002241,0.00034740,-0.00002
 251,-0.00021649,0.00010331,-0.00001869,0.00047656,-0.00018696,-0.00028
 273,-0.00001387,0.00006824,0.00037918,-0.00031738,0.00002083,0.0001870
 3,-0.00014451,-0.00003711,0.00003024,0.00006326,0.00007540,0.00032378,
 0.00012056,0.00004884,0.00010829,0.00011063,0.00001089,-0.00001710,-0.
 00000064,-0.00005879,-0.00002368,0.00002932,-0.00000217,-0.00002216,0.
 00000833,-0.00000614,-0.00002360,0.00001201,0.00003222,0.00002337,0.00
 002102,-0.00001928,-0.00025369,-0.00015018,0.00003072,-0.00016948,0.00
 010511,-0.00016953,-0.00045742,0.00031112,0.00001456,0.00011361,-0.000
 05362,0.00000177,-0.00001425,0.00001123,-0.00002614,-0.00001429,0.0000
 0168,-0.00010751,-0.00017384,0.00000567,0.00016558,0.00010425,0.000009
 31,0.00002813,0.00010894,0.00023505,0.00000453,0.00007464,-0.00002084,
 0.00027826,0.00033757,-0.00010285,-0.00007051,-0.00004311,0.00007590,-
 0.00001193,-0.00003234,-0.00001311,-0.00014503,-0.00021076,-0.00003332
 ,0.00001424,0.00000103,0.00001772,0.00002310,0.00005480,0.00005438,0.0
 0019817,0.00026747,-0.00015428,0.00009783,-0.00017520,0.00000636,-0.00
 001557,0.00002532,-0.00014446,0.00191062,-0.00112549,0.00117533,0.0001
 3486,0.00071735,0.00065394,-0.00000790,0.00011317,-0.00003159,-0.00706
 488,0.00605038,0.00384904,0.00056910,0.00058054,0.00021008,0.00019868,
 -0.00023359,0.00117100,0.03074223,-0.12571430,-0.10349904,0.00285444,0
 .01096505,0.01240453,0.00927760,-0.01499717,-0.03027130,-0.03198379,0.
 13279261,0.00100509,0.00119144,-0.00171025,-0.00272831,-0.00118112,0.0
 0453018,-0.00395087,-0.01180539,0.00173898,0.00141535,0.00066581,0.001
 63318,-0.00096498,-0.00024245,-0.00044551,-0.00001669,-0.00050109,0.00
 081478,-0.00018355,-0.00011077,-0.00035523,0.00043344,0.00262344,0.000
 43007,-0.00016418,0.00003816,-0.00026467,-0.00002057,0.00041451,0.0001
 2723,-0.00007602,0.00011264,-0.00010082,-0.00001247,0.00074184,0.00018
 869,-0.00108376,0.00143451,-0.00036120,-0.00278205,0.00767927,-0.00160
 631,0.00141810,-0.00133675,-0.00412229,0.00000080,-0.00023639,-0.00007
 964,-0.00003796,-0.00004579,-0.00002863,0.00004929,0.00011953,-0.00000
 561,-0.00001564,0.00043215,-0.00009484,0.00003531,-0.00009881,0.000049
 19,-0.00000254,-0.00017019,-0.00012940,0.00036779,-0.00027259,-0.00026
 182,0.00290538,0.00351768,0.00209781,0.00002721,-0.00017512,-0.0001401
 5,-0.00017346,0.00012361,0.00007800,0.00013077,0.00084122,0.00026740,-
 0.00094281,0.00001644,0.00043349,0.00051088,0.00216916,0.00136995,0.00
 001873,-0.00042400,-0.00020045,-0.00007638,-0.00008262,0.00001131,-0.0
 0000833,-0.00009856,-0.00029799,0.00000447,-0.00010056,0.00006859,-0.0
 0029419,-0.00016758,-0.00027555,-0.00016095,-0.00016846,0.00009190,-0.
 00350655,-0.00258079,0.00013732,0.00023825,-0.00062300,-0.00051848,-0.
 00002224,-0.00026378,-0.00030946,0.00026445,0.00041216,0.00024622,-0.0
 0001931,-0.00007674,-0.00000495,-0.00000260,0.00000377,-0.00004144,-0.
 00076766,-0.00029262,0.00009141,0.00005825,0.00003761,-0.00008945,0.00
 075954,-0.00040471,-0.00057604,-0.00002946,0.00031762,0.00050512,-0.00
 025141,-0.00031444,0.00005390,0.00010237,0.00045961,-0.00045698,-0.000
 02939,0.00024072,-0.00027731,0.00003499,0.00003346,-0.00003568,0.00005
 073,0.00032833,0.00003843,0.00007965,0.00009461,0.00007570,0.00001102,
 -0.00000804,0.00000593,-0.00008703,-0.00004320,0.00004335,-0.00001964,
 -0.00003734,0.00003918,-0.00000915,-0.00003035,0.00001945,0.00005755,0
 .00000077,0.00002711,-0.00002534,-0.00031194,0.00007352,0.00011916,-0.
 00021012,0.00024364,-0.00022005,-0.00053085,0.00045250,0.00004078,0.00
 015726,-0.00008798,-0.00000943,-0.00001113,0.00003257,-0.00001153,-0.0
 0001529,-0.00001590,-0.00017718,-0.00021052,0.00009621,0.00022682,0.00
 010562,-0.00001673,-0.00002101,0.00017218,0.00014790,-0.00002826,0.000
 09014,-0.00005978,0.00039717,0.00038762,-0.00011683,-0.00009953,-0.000
 05927,0.00012408,-0.00000457,-0.00004522,-0.00003662,-0.00017770,-0.00
 033389,-0.00009932,-0.00000222,0.00001707,0.00000733,0.00005679,0.0000
 5729,0.00014280,-0.00011718,0.00059681,0.00018236,0.00038250,-0.000246
 18,0.00001894,0.00007444,0.00000186,-0.00008315,-0.00122893,0.00097126
 ,-0.00036911,0.00021567,-0.00033551,0.00021257,-0.00029426,-0.00010611
 ,0.00001992,-0.00174514,-0.00656979,-0.02069600,0.00151817,-0.00043334
 ,0.00223248,0.00069113,0.00003798,0.00034890,0.05603608,-0.11106400,-0
 .25484076,0.00836675,-0.00003921,-0.00740356,-0.00357629,0.00531272,0.
 01365611,-0.05192610,0.11045775,0.26341023\\0.00000550,-0.00000928,-0.
 00000495,-0.00000815,-0.00000572,0.00001090,-0.00000352,0.00002293,0.0
 0000605,0.00001684,0.00000802,-0.00000651,0.00000562,-0.00000990,-0.00
 003173,-0.00002189,0.00001508,0.00000239,-0.00000718,0.00000039,-0.000
 00205,-0.00000571,-0.00000321,-0.00000590,-0.00000120,0.00000068,0.000
 00280,0.00000456,0.00000369,0.00000508,0.00000677,-0.00000098,0.000003
 83,-0.00000162,0.00001770,0.00001453,-0.00001228,0.00000376,0.00000738
 ,-0.00000996,-0.00000400,-0.00001570,-0.00001016,-0.00000038,0.0000060
 4,0.00002767,-0.00001478,-0.00000104,-0.00000637,0.00000059,-0.0000053
 3,-0.00000529,-0.00000075,0.00000265,-0.00000392,0.00001830,0.00000309
 ,0.00000011,-0.00000833,-0.00000258,-0.00000224,-0.00000474,-0.0000002
 0,-0.00000318,-0.00000127,-0.00000982,0.00000121,0.00000302,-0.0000029
 7,-0.00000963,0.00000571,-0.00000477,-0.00000483,-0.00000518,0.0000160
 6,0.00002485,-0.00000226,-0.00001025,0.00001791,0.00000675,-0.00001138
 ,-0.00000921,0.00000029,-0.00000417,0.00000713,-0.00002003,0.00001600,
 0.00000252,-0.00000454,-0.00000123,-0.00000108,0.00000326,0.00000383,-
 0.00000529,-0.00000655,-0.00000125,-0.00000047,-0.00000492,-0.00000252
 ,-0.00000250,-0.00000480,-0.00000203,0.00000621,-0.00001328,0.00000021
 ,-0.00001180,0.00000336,0.00000927,0.00000981,0.00000599,0.00001050,0.
 00000364,0.00000966,0.00001096,-0.00000275,-0.00000812,0.00000569,-0.0
 0000234,-0.00000662,-0.00000075,0.00000034,-0.00000425,-0.00000799,0.0
 0000265,-0.00000867,-0.00000391,-0.00001738,0.00000597,0.00001161,0.00
 000734,0.00000430,-0.00000794,-0.00000172,-0.00001056,-0.00000610,0.00
 000466,0.00000164,-0.00001162,0.00002565,-0.00001243,0.00000743,0.0000
 2021,0.00000415,0.00000300,-0.00000974,-0.00001333,-0.00001297,0.00000
 948,0.00001068,0.00001678,0.00000383,0.00000070,0.00000659,-0.00000030
 ,-0.00000029,-0.00000439,0.00000441,-0.00000307,0.00000536,0.00000414,
 -0.00000421,0.00000504,0.00000207,0.00000865,0.00000026,0.00000541,0.0
 0001622,0.00000870,-0.00000857,0.00001494,-0.00000343,-0.00002119,0.00
 000105,0.00001072,0.00000721,0.00001108,-0.00001083,0.00000105,-0.0000
 0478,0.00000907,0.00000029,-0.00000638,0.00000251,-0.00000646,-0.00003
 276,0.00001790,0.00000254,0.00002525,-0.00000196,-0.00000032,-0.000007
 07,-0.00000716,0.00001111,-0.00000573,-0.00000581,0.00000658,-0.000025
 32,-0.00000675,-0.00000049,0.00000534,0.00000510,-0.00000483,-0.000000
 78,-0.00000351,0.00000129,0.00000974,-0.00000411,-0.00000358,0.0000049
 5,-0.00000109,0.00000172,0.00000410,0.00000005,-0.00000528,0.00000480,
 -0.00000023,-0.00000555,0.00000113,-0.00000261,-0.00000301,-0.00000252
 ,-0.00000293,-0.00000102,0.00000475,-0.00000210,-0.00000042,0.00000027
 ,-0.00000168,-0.00000460,0.00000509,-0.00000348,-0.00001500,0.00000320
 ,-0.00000982,0.00000014,0.00000478,-0.00000470,-0.00000108,-0.00000035
 ,0.00000041,-0.00000500,-0.00000277,0.00002310,0.00000898,0.00000310,-
 0.00000126,-0.00000433,0.00000794,-0.00000796,0.00000102,-0.00000807,-
 0.00000743\\\@


 NEVER LISTEN TO CRITICISM
 OR YOU'LL BE DOIN' EVERYBODY ELSE'S THING BUT BUT YOUR OWN.

                                               -- ANDY CAPP
 Job cpu time:      17 days 17 hours 57 minutes 31.0 seconds.
 File lengths (MBytes):  RWF=  17369 Int=      0 D2E=      0 Chk=     98 Scr=      1
 Normal termination of Gaussian 09 at Fri Apr  8 18:52:51 2016.
