 Entering Gaussian System, Link 0=g09
 Initial command:
 /share/apps//g09/l1.exe "/scratch/Gau-22225.inp" -scrdir="/scratch/"
 Entering Link 1 = /share/apps//g09/l1.exe PID=     22226.
  
 Copyright (c) 1988,1990,1992,1993,1995,1998,2003,2009,2013,
            Gaussian, Inc.  All Rights Reserved.
  
 This is part of the Gaussian(R) 09 program.  It is based on
 the Gaussian(R) 03 system (copyright 2003, Gaussian, Inc.),
 the Gaussian(R) 98 system (copyright 1998, Gaussian, Inc.),
 the Gaussian(R) 94 system (copyright 1995, Gaussian, Inc.),
 the Gaussian 92(TM) system (copyright 1992, Gaussian, Inc.),
 the Gaussian 90(TM) system (copyright 1990, Gaussian, Inc.),
 the Gaussian 88(TM) system (copyright 1988, Gaussian, Inc.),
 the Gaussian 86(TM) system (copyright 1986, Carnegie Mellon
 University), and the Gaussian 82(TM) system (copyright 1983,
 Carnegie Mellon University). Gaussian is a federally registered
 trademark of Gaussian, Inc.
  
 This software contains proprietary and confidential information,
 including trade secrets, belonging to Gaussian, Inc.
  
 This software is provided under written license and may be
 used, copied, transmitted, or stored only in accord with that
 written license.
  
 The following legend is applicable only to US Government
 contracts under FAR:
  
                    RESTRICTED RIGHTS LEGEND
  
 Use, reproduction and disclosure by the US Government is
 subject to restrictions as set forth in subparagraphs (a)
 and (c) of the Commercial Computer Software - Restricted
 Rights clause in FAR 52.227-19.
  
 Gaussian, Inc.
 340 Quinnipiac St., Bldg. 40, Wallingford CT 06492
  
  
 ---------------------------------------------------------------
 Warning -- This program may not be used in any manner that
 competes with the business of Gaussian, Inc. or will provide
 assistance to any competitor of Gaussian, Inc.  The licensee
 of this program is prohibited from giving any competitor of
 Gaussian, Inc. access to this program.  By using this program,
 the user acknowledges that Gaussian, Inc. is engaged in the
 business of creating and licensing software in the field of
 computational chemistry and represents and warrants to the
 licensee that it is not a competitor of Gaussian, Inc. and that
 it will not use this program in any manner prohibited above.
 ---------------------------------------------------------------
  

 Cite this work as:
 Gaussian 09, Revision D.01,
 M. J. Frisch, G. W. Trucks, H. B. Schlegel, G. E. Scuseria, 
 M. A. Robb, J. R. Cheeseman, G. Scalmani, V. Barone, B. Mennucci, 
 G. A. Petersson, H. Nakatsuji, M. Caricato, X. Li, H. P. Hratchian, 
 A. F. Izmaylov, J. Bloino, G. Zheng, J. L. Sonnenberg, M. Hada, 
 M. Ehara, K. Toyota, R. Fukuda, J. Hasegawa, M. Ishida, T. Nakajima, 
 Y. Honda, O. Kitao, H. Nakai, T. Vreven, J. A. Montgomery, Jr., 
 J. E. Peralta, F. Ogliaro, M. Bearpark, J. J. Heyd, E. Brothers, 
 K. N. Kudin, V. N. Staroverov, T. Keith, R. Kobayashi, J. Normand, 
 K. Raghavachari, A. Rendell, J. C. Burant, S. S. Iyengar, J. Tomasi, 
 M. Cossi, N. Rega, J. M. Millam, M. Klene, J. E. Knox, J. B. Cross, 
 V. Bakken, C. Adamo, J. Jaramillo, R. Gomperts, R. E. Stratmann, 
 O. Yazyev, A. J. Austin, R. Cammi, C. Pomelli, J. W. Ochterski, 
 R. L. Martin, K. Morokuma, V. G. Zakrzewski, G. A. Voth, 
 P. Salvador, J. J. Dannenberg, S. Dapprich, A. D. Daniels, 
 O. Farkas, J. B. Foresman, J. V. Ortiz, J. Cioslowski, 
 and D. J. Fox, Gaussian, Inc., Wallingford CT, 2013.
 
 ******************************************
 Gaussian 09:  EM64L-G09RevD.01 24-Apr-2013
                27-Apr-2016 
 ******************************************
 %nproc=20
 Will use up to   20 processors via shared memory.
 %mem=80GB
 %chk=Tri_A131_of.chk
 ----------------------------------------------------------------------
 #P PBE1PBE/6-311+G(d,p) opt=ModRedundant freq optcyc=999 EmpiricalDisp
 ersion=GD3
 ----------------------------------------------------------------------
 1/6=999,14=-1,18=120,19=15,26=3,38=1/1,3;
 2/9=110,12=2,17=6,18=5,40=1/2;
 3/5=4,6=6,7=111,11=2,16=1,25=1,30=1,71=1,74=-13,124=31/1,2,3;
 4//1;
 5/5=2,38=5/2;
 6/7=2,8=2,9=2,10=2,28=1/1;
 7//1,2,3,16;
 1/6=999,14=-1,18=20,19=15,26=3/3(2);
 2/9=110/2;
 99//99;
 2/9=110/2;
 3/5=4,6=6,7=111,11=2,16=1,25=1,30=1,71=1,74=-13,124=31/1,2,3;
 4/5=5,16=3,69=1/1;
 5/5=2,38=5/2;
 7//1,2,3,16;
 1/6=999,14=-1,18=20,19=15,26=3/3(-5);
 2/9=110/2;
 6/7=2,8=2,9=2,10=2,19=2,28=1/1;
 99/9=1/99;
 Leave Link    1 at Wed Apr 27 20:49:33 2016, MaxMem= 10737418240 cpu:         2.1
 (Enter /share/apps//g09/l101.exe)
 -----
 trich
 -----
 Symbolic Z-matrix:
 Charge =  1 Multiplicity = 1
 O                    -0.68084  -0.29414   7.36289 
 C                    -1.262    -0.78119   6.17964 
 C                    -0.24088  -0.98679   5.04649 
 C                     0.92284  -1.86247   5.54314 
 C                     1.52256  -1.27832   6.82455 
 C                     0.41441  -1.08329   7.87104 
 H                    -2.01657  -0.02678   5.90838 
 H                     0.15524   0.00066   4.76729 
 H                     0.5646   -2.88632   5.72671 
 H                     2.24902  -2.00698   7.24087 
 H                     0.05348  -2.09177   8.14785 
 O                     2.19793  -0.09121   6.4125 
 O                     1.95529  -1.98763   4.54689 
 O                    -0.8735   -1.53831   3.88501 
 O                    -1.88401  -2.06851   6.32974 
 C                     0.88276  -0.43482   9.16466 
 H                     0.00099  -0.24939   9.79954 
 H                     1.55267  -1.14307   9.68391 
 O                     1.56625   0.79457   8.86926 
 H                     1.81093   1.23558   9.69884 
 H                     2.24991   0.50302   7.19331 
 H                     2.48147  -1.16252   4.59251 
 H                    -1.63959  -2.06221   4.2017 
 O                    -3.35134  -4.40982   5.89505 
 C                    -3.14202  -4.66197   7.30127 
 C                    -2.92337  -3.33285   8.09256 
 C                    -3.05063  -2.10392   7.18227 
 C                    -4.34924  -2.16037   6.36173 
 C                    -4.49453  -3.55684   5.66267 
 H                    -4.04751  -5.15012   7.70636 
 H                    -1.91663  -3.34297   8.52987 
 H                    -3.06538  -1.20677   7.81788 
 H                    -5.17086  -2.05785   7.08673 
 H                    -5.38754  -4.0657    6.07353 
 O                    -4.4857   -1.04681   5.48577 
 O                    -3.91665  -3.19798   9.11439 
 O                    -2.13083  -5.62444   7.4397 
 C                    -4.6849   -3.48995   4.16041 
 H                    -4.78199  -4.51237   3.76215 
 H                    -5.60023  -2.92096   3.93811 
 O                    -3.52649  -2.83891   3.57726 
 H                    -3.67282  -2.76293   2.61898 
 H                    -3.9312   -1.2277    4.70042 
 H                    -3.62623  -3.70428   9.89174 
 O                     0.96263  -5.91161   5.46597 
 C                     1.92366  -6.18248   6.50555 
 C                     1.63175  -5.26764   7.69378 
 C                     0.17961  -5.39349   8.16486 
 C                    -0.80647  -5.26399   6.99884 
 C                    -0.37019  -6.24095   5.88209 
 H                     1.84496  -7.2534    6.79518 
 H                     1.80694  -4.23341   7.34281 
 H                     0.04066  -6.39612   8.61398 
 H                    -0.39683  -7.27101   6.29525 
 H                    -0.80319  -4.23448   6.60724 
 O                    -0.09453  -4.38871   9.14757 
 O                     2.44331  -5.56113   8.82893 
 O                     3.19059  -5.86787   6.03446 
 C                    -1.24754  -6.24896   4.63917 
 H                    -0.81823  -6.95965   3.9187 
 H                    -2.25708  -6.58975   4.90752 
 O                    -1.31794  -4.97613   3.97907 
 H                    -2.01635  -4.45903   4.44005 
 H                     0.56353  -4.51898   9.85509 
 H                     3.37353  -5.43917   8.56654 
 C                     3.71176  -6.78114   5.0321 
 H                     4.41988  -7.4681    5.52326 
 H                     2.8833   -7.37653   4.61919 
 C                     4.41343  -5.97778   3.9433 
 H                     4.82576  -6.69323   3.212 
 H                     5.27745  -5.46221   4.39032 
 C                     3.5283   -4.93496   3.24326 
 H                     3.14484  -4.24911   4.01428 
 H                     4.16593  -4.33104   2.57651 
 C                     2.37133  -5.52933   2.42749 
 H                     2.76892  -6.19958   1.64809 
 H                     1.72479  -6.14499   3.07207 
 C                     1.50689  -4.49029   1.71768 
 H                     0.76552  -4.97342   1.06737 
 H                     2.11627  -3.81672   1.09798 
 N                     0.74684  -3.63524   2.68989 
 H                     0.175    -2.91337   2.23203 
 H                     1.37103  -3.08916   3.33427 
 H                     0.06848  -4.19761   3.27333 
 
 The following ModRedundant input section has been read:
 B      45      84 B                                                           
 B      58      84 B                                                           
 B      56      84 B                                                           
 B      41      82 B                                                           
 B      62      82 B                                                           
 B      35      82 B                                                           
 B      13      83 B                                                           
 B      19      83 B                                                           
 B      14      83 B                                                           
 
 NAtoms=     84 NQM=       84 NQMF=       0 NMMI=      0 NMMIF=      0
                NMic=       0 NMicF=      0.
                    Isotopes and Nuclear Properties:
 (Nuclear quadrupole moments (NQMom) in fm**2, nuclear magnetic moments (NMagM)
  in nuclear magnetons)

  Atom         1           2           3           4           5           6           7           8           9          10
 IAtWgt=          16          12          12          12          12          12           1           1           1           1
 AtmWgt=  15.9949146  12.0000000  12.0000000  12.0000000  12.0000000  12.0000000   1.0078250   1.0078250   1.0078250   1.0078250
 NucSpn=           0           0           0           0           0           0           1           1           1           1
 AtZEff=   0.0000000   0.0000000   0.0000000   0.0000000   0.0000000   0.0000000   0.0000000   0.0000000   0.0000000   0.0000000
 NQMom=    0.0000000   0.0000000   0.0000000   0.0000000   0.0000000   0.0000000   0.0000000   0.0000000   0.0000000   0.0000000
 NMagM=    0.0000000   0.0000000   0.0000000   0.0000000   0.0000000   0.0000000   2.7928460   2.7928460   2.7928460   2.7928460
 AtZNuc=   8.0000000   6.0000000   6.0000000   6.0000000   6.0000000   6.0000000   1.0000000   1.0000000   1.0000000   1.0000000

  Atom        11          12          13          14          15          16          17          18          19          20
 IAtWgt=           1          16          16          16          16          12           1           1          16           1
 AtmWgt=   1.0078250  15.9949146  15.9949146  15.9949146  15.9949146  12.0000000   1.0078250   1.0078250  15.9949146   1.0078250
 NucSpn=           1           0           0           0           0           0           1           1           0           1
 AtZEff=   0.0000000   0.0000000   0.0000000   0.0000000   0.0000000   0.0000000   0.0000000   0.0000000   0.0000000   0.0000000
 NQMom=    0.0000000   0.0000000   0.0000000   0.0000000   0.0000000   0.0000000   0.0000000   0.0000000   0.0000000   0.0000000
 NMagM=    2.7928460   0.0000000   0.0000000   0.0000000   0.0000000   0.0000000   2.7928460   2.7928460   0.0000000   2.7928460
 AtZNuc=   1.0000000   8.0000000   8.0000000   8.0000000   8.0000000   6.0000000   1.0000000   1.0000000   8.0000000   1.0000000

  Atom        21          22          23          24          25          26          27          28          29          30
 IAtWgt=           1           1           1          16          12          12          12          12          12           1
 AtmWgt=   1.0078250   1.0078250   1.0078250  15.9949146  12.0000000  12.0000000  12.0000000  12.0000000  12.0000000   1.0078250
 NucSpn=           1           1           1           0           0           0           0           0           0           1
 AtZEff=   0.0000000   0.0000000   0.0000000   0.0000000   0.0000000   0.0000000   0.0000000   0.0000000   0.0000000   0.0000000
 NQMom=    0.0000000   0.0000000   0.0000000   0.0000000   0.0000000   0.0000000   0.0000000   0.0000000   0.0000000   0.0000000
 NMagM=    2.7928460   2.7928460   2.7928460   0.0000000   0.0000000   0.0000000   0.0000000   0.0000000   0.0000000   2.7928460
 AtZNuc=   1.0000000   1.0000000   1.0000000   8.0000000   6.0000000   6.0000000   6.0000000   6.0000000   6.0000000   1.0000000

  Atom        31          32          33          34          35          36          37          38          39          40
 IAtWgt=           1           1           1           1          16          16          16          12           1           1
 AtmWgt=   1.0078250   1.0078250   1.0078250   1.0078250  15.9949146  15.9949146  15.9949146  12.0000000   1.0078250   1.0078250
 NucSpn=           1           1           1           1           0           0           0           0           1           1
 AtZEff=   0.0000000   0.0000000   0.0000000   0.0000000   0.0000000   0.0000000   0.0000000   0.0000000   0.0000000   0.0000000
 NQMom=    0.0000000   0.0000000   0.0000000   0.0000000   0.0000000   0.0000000   0.0000000   0.0000000   0.0000000   0.0000000
 NMagM=    2.7928460   2.7928460   2.7928460   2.7928460   0.0000000   0.0000000   0.0000000   0.0000000   2.7928460   2.7928460
 AtZNuc=   1.0000000   1.0000000   1.0000000   1.0000000   8.0000000   8.0000000   8.0000000   6.0000000   1.0000000   1.0000000

  Atom        41          42          43          44          45          46          47          48          49          50
 IAtWgt=          16           1           1           1          16          12          12          12          12          12
 AtmWgt=  15.9949146   1.0078250   1.0078250   1.0078250  15.9949146  12.0000000  12.0000000  12.0000000  12.0000000  12.0000000
 NucSpn=           0           1           1           1           0           0           0           0           0           0
 AtZEff=   0.0000000   0.0000000   0.0000000   0.0000000   0.0000000   0.0000000   0.0000000   0.0000000   0.0000000   0.0000000
 NQMom=    0.0000000   0.0000000   0.0000000   0.0000000   0.0000000   0.0000000   0.0000000   0.0000000   0.0000000   0.0000000
 NMagM=    0.0000000   2.7928460   2.7928460   2.7928460   0.0000000   0.0000000   0.0000000   0.0000000   0.0000000   0.0000000
 AtZNuc=   8.0000000   1.0000000   1.0000000   1.0000000   8.0000000   6.0000000   6.0000000   6.0000000   6.0000000   6.0000000

  Atom        51          52          53          54          55          56          57          58          59          60
 IAtWgt=           1           1           1           1           1          16          16          16          12           1
 AtmWgt=   1.0078250   1.0078250   1.0078250   1.0078250   1.0078250  15.9949146  15.9949146  15.9949146  12.0000000   1.0078250
 NucSpn=           1           1           1           1           1           0           0           0           0           1
 AtZEff=   0.0000000   0.0000000   0.0000000   0.0000000   0.0000000   0.0000000   0.0000000   0.0000000   0.0000000   0.0000000
 NQMom=    0.0000000   0.0000000   0.0000000   0.0000000   0.0000000   0.0000000   0.0000000   0.0000000   0.0000000   0.0000000
 NMagM=    2.7928460   2.7928460   2.7928460   2.7928460   2.7928460   0.0000000   0.0000000   0.0000000   0.0000000   2.7928460
 AtZNuc=   1.0000000   1.0000000   1.0000000   1.0000000   1.0000000   8.0000000   8.0000000   8.0000000   6.0000000   1.0000000

  Atom        61          62          63          64          65          66          67          68          69          70
 IAtWgt=           1          16           1           1           1          12           1           1          12           1
 AtmWgt=   1.0078250  15.9949146   1.0078250   1.0078250   1.0078250  12.0000000   1.0078250   1.0078250  12.0000000   1.0078250
 NucSpn=           1           0           1           1           1           0           1           1           0           1
 AtZEff=   0.0000000   0.0000000   0.0000000   0.0000000   0.0000000   0.0000000   0.0000000   0.0000000   0.0000000   0.0000000
 NQMom=    0.0000000   0.0000000   0.0000000   0.0000000   0.0000000   0.0000000   0.0000000   0.0000000   0.0000000   0.0000000
 NMagM=    2.7928460   0.0000000   2.7928460   2.7928460   2.7928460   0.0000000   2.7928460   2.7928460   0.0000000   2.7928460
 AtZNuc=   1.0000000   8.0000000   1.0000000   1.0000000   1.0000000   6.0000000   1.0000000   1.0000000   6.0000000   1.0000000

  Atom        71          72          73          74          75          76          77          78          79          80
 IAtWgt=           1          12           1           1          12           1           1          12           1           1
 AtmWgt=   1.0078250  12.0000000   1.0078250   1.0078250  12.0000000   1.0078250   1.0078250  12.0000000   1.0078250   1.0078250
 NucSpn=           1           0           1           1           0           1           1           0           1           1
 AtZEff=   0.0000000   0.0000000   0.0000000   0.0000000   0.0000000   0.0000000   0.0000000   0.0000000   0.0000000   0.0000000
 NQMom=    0.0000000   0.0000000   0.0000000   0.0000000   0.0000000   0.0000000   0.0000000   0.0000000   0.0000000   0.0000000
 NMagM=    2.7928460   0.0000000   2.7928460   2.7928460   0.0000000   2.7928460   2.7928460   0.0000000   2.7928460   2.7928460
 AtZNuc=   1.0000000   6.0000000   1.0000000   1.0000000   6.0000000   1.0000000   1.0000000   6.0000000   1.0000000   1.0000000

  Atom        81          82          83          84
 IAtWgt=          14           1           1           1
 AtmWgt=  14.0030740   1.0078250   1.0078250   1.0078250
 NucSpn=           2           1           1           1
 AtZEff=   0.0000000   0.0000000   0.0000000   0.0000000
 NQMom=    2.0440000   0.0000000   0.0000000   0.0000000
 NMagM=    0.4037610   2.7928460   2.7928460   2.7928460
 AtZNuc=   7.0000000   1.0000000   1.0000000   1.0000000
 Leave Link  101 at Wed Apr 27 20:49:34 2016, MaxMem= 10737418240 cpu:         7.0
 (Enter /share/apps//g09/l103.exe)

 GradGradGradGradGradGradGradGradGradGradGradGradGradGradGradGradGradGrad
 Berny optimization.
 Initialization pass.
                           ----------------------------
                           !    Initial Parameters    !
                           ! (Angstroms and Degrees)  !
 --------------------------                            --------------------------
 ! Name  Definition              Value          Derivative Info.                !
 --------------------------------------------------------------------------------
 ! R1    R(1,2)                  1.4054         estimate D2E/DX2                !
 ! R2    R(1,6)                  1.4424         estimate D2E/DX2                !
 ! R3    R(2,3)                  1.5392         estimate D2E/DX2                !
 ! R4    R(2,7)                  1.101          estimate D2E/DX2                !
 ! R5    R(2,15)                 1.4376         estimate D2E/DX2                !
 ! R6    R(3,4)                  1.5387         estimate D2E/DX2                !
 ! R7    R(3,8)                  1.1            estimate D2E/DX2                !
 ! R8    R(3,14)                 1.433          estimate D2E/DX2                !
 ! R9    R(4,5)                  1.5307         estimate D2E/DX2                !
 ! R10   R(4,9)                  1.1001         estimate D2E/DX2                !
 ! R11   R(4,13)                 1.4402         estimate D2E/DX2                !
 ! R12   R(5,6)                  1.5366         estimate D2E/DX2                !
 ! R13   R(5,10)                 1.11           estimate D2E/DX2                !
 ! R14   R(5,12)                 1.4266         estimate D2E/DX2                !
 ! R15   R(6,11)                 1.1063         estimate D2E/DX2                !
 ! R16   R(6,16)                 1.521          estimate D2E/DX2                !
 ! R17   R(12,21)                0.9826         estimate D2E/DX2                !
 ! R18   R(13,22)                0.9797         estimate D2E/DX2                !
 ! R19   R(13,83)                1.7393         estimate D2E/DX2                !
 ! R20   R(14,23)                0.9806         estimate D2E/DX2                !
 ! R21   R(14,83)                2.7832         estimate D2E/DX2                !
 ! R22   R(15,27)                1.4454         estimate D2E/DX2                !
 ! R23   R(16,17)                1.1023         estimate D2E/DX2                !
 ! R24   R(16,18)                1.1045         estimate D2E/DX2                !
 ! R25   R(16,19)                1.4373         estimate D2E/DX2                !
 ! R26   R(19,20)                0.9709         estimate D2E/DX2                !
 ! R27   R(19,83)                6.7644         estimate D2E/DX2                !
 ! R28   R(24,25)                1.4439         estimate D2E/DX2                !
 ! R29   R(24,29)                1.4452         estimate D2E/DX2                !
 ! R30   R(25,26)                1.5622         estimate D2E/DX2                !
 ! R31   R(25,30)                1.1056         estimate D2E/DX2                !
 ! R32   R(25,37)                1.4029         estimate D2E/DX2                !
 ! R33   R(26,27)                1.5346         estimate D2E/DX2                !
 ! R34   R(26,31)                1.0977         estimate D2E/DX2                !
 ! R35   R(26,36)                1.4314         estimate D2E/DX2                !
 ! R36   R(27,28)                1.5372         estimate D2E/DX2                !
 ! R37   R(27,32)                1.0996         estimate D2E/DX2                !
 ! R38   R(28,29)                1.5684         estimate D2E/DX2                !
 ! R39   R(28,33)                1.1005         estimate D2E/DX2                !
 ! R40   R(28,35)                1.4234         estimate D2E/DX2                !
 ! R41   R(29,34)                1.1069         estimate D2E/DX2                !
 ! R42   R(29,38)                1.5158         estimate D2E/DX2                !
 ! R43   R(35,43)                0.9782         estimate D2E/DX2                !
 ! R44   R(35,82)                5.9827         estimate D2E/DX2                !
 ! R45   R(36,44)                0.9721         estimate D2E/DX2                !
 ! R46   R(37,49)                1.4416         estimate D2E/DX2                !
 ! R47   R(38,39)                1.1015         estimate D2E/DX2                !
 ! R48   R(38,40)                1.1005         estimate D2E/DX2                !
 ! R49   R(38,41)                1.4511         estimate D2E/DX2                !
 ! R50   R(41,42)                0.9724         estimate D2E/DX2                !
 ! R51   R(41,82)                3.9391         estimate D2E/DX2                !
 ! R52   R(45,46)                1.4414         estimate D2E/DX2                !
 ! R53   R(45,50)                1.4346         estimate D2E/DX2                !
 ! R54   R(45,84)                2.9232         estimate D2E/DX2                !
 ! R55   R(46,47)                1.5278         estimate D2E/DX2                !
 ! R56   R(46,51)                1.1122         estimate D2E/DX2                !
 ! R57   R(46,58)                1.3878         estimate D2E/DX2                !
 ! R58   R(47,48)                1.5318         estimate D2E/DX2                !
 ! R59   R(47,52)                1.1061         estimate D2E/DX2                !
 ! R60   R(47,57)                1.4259         estimate D2E/DX2                !
 ! R61   R(48,49)                1.5326         estimate D2E/DX2                !
 ! R62   R(48,53)                1.1074         estimate D2E/DX2                !
 ! R63   R(48,56)                1.4319         estimate D2E/DX2                !
 ! R64   R(49,50)                1.5466         estimate D2E/DX2                !
 ! R65   R(49,55)                1.1015         estimate D2E/DX2                !
 ! R66   R(50,54)                1.1102         estimate D2E/DX2                !
 ! R67   R(50,59)                1.5214         estimate D2E/DX2                !
 ! R68   R(56,64)                0.975          estimate D2E/DX2                !
 ! R69   R(56,84)                5.8796         estimate D2E/DX2                !
 ! R70   R(57,65)                0.9742         estimate D2E/DX2                !
 ! R71   R(58,66)                1.4527         estimate D2E/DX2                !
 ! R72   R(58,84)                4.4901         estimate D2E/DX2                !
 ! R73   R(59,60)                1.0993         estimate D2E/DX2                !
 ! R74   R(59,61)                1.0988         estimate D2E/DX2                !
 ! R75   R(59,62)                1.4355         estimate D2E/DX2                !
 ! R76   R(62,63)                0.9837         estimate D2E/DX2                !
 ! R77   R(62,82)                3.088          estimate D2E/DX2                !
 ! R78   R(66,67)                1.1021         estimate D2E/DX2                !
 ! R79   R(66,68)                1.1006         estimate D2E/DX2                !
 ! R80   R(66,69)                1.5242         estimate D2E/DX2                !
 ! R81   R(69,70)                1.103          estimate D2E/DX2                !
 ! R82   R(69,71)                1.101          estimate D2E/DX2                !
 ! R83   R(69,72)                1.5365         estimate D2E/DX2                !
 ! R84   R(72,73)                1.1009         estimate D2E/DX2                !
 ! R85   R(72,74)                1.1027         estimate D2E/DX2                !
 ! R86   R(72,75)                1.5354         estimate D2E/DX2                !
 ! R87   R(75,76)                1.1022         estimate D2E/DX2                !
 ! R88   R(75,77)                1.1012         estimate D2E/DX2                !
 ! R89   R(75,78)                1.5267         estimate D2E/DX2                !
 ! R90   R(78,79)                1.0982         estimate D2E/DX2                !
 ! R91   R(78,80)                1.0996         estimate D2E/DX2                !
 ! R92   R(78,81)                1.5013         estimate D2E/DX2                !
 ! R93   R(81,82)                1.0285         estimate D2E/DX2                !
 ! R94   R(81,83)                1.0503         estimate D2E/DX2                !
 ! R95   R(81,84)                1.0568         estimate D2E/DX2                !
 ! A1    A(2,1,6)              114.8982         estimate D2E/DX2                !
 ! A2    A(1,2,3)              113.0669         estimate D2E/DX2                !
 ! A3    A(1,2,7)              104.6784         estimate D2E/DX2                !
 ! A4    A(1,2,15)             113.6632         estimate D2E/DX2                !
 ! A5    A(3,2,7)              111.3978         estimate D2E/DX2                !
 ! A6    A(3,2,15)             104.1408         estimate D2E/DX2                !
 ! A7    A(7,2,15)             110.0469         estimate D2E/DX2                !
 ! A8    A(2,3,4)              109.8851         estimate D2E/DX2                !
 ! A9    A(2,3,8)              107.8105         estimate D2E/DX2                !
 ! A10   A(2,3,14)             110.8092         estimate D2E/DX2                !
 ! A11   A(4,3,8)              108.6902         estimate D2E/DX2                !
 ! A12   A(4,3,14)             112.1146         estimate D2E/DX2                !
 ! A13   A(8,3,14)             107.3829         estimate D2E/DX2                !
 ! A14   A(3,4,5)              110.4468         estimate D2E/DX2                !
 ! A15   A(3,4,9)              109.7072         estimate D2E/DX2                !
 ! A16   A(3,4,13)             111.6141         estimate D2E/DX2                !
 ! A17   A(5,4,9)              110.0637         estimate D2E/DX2                !
 ! A18   A(5,4,13)             109.3535         estimate D2E/DX2                !
 ! A19   A(9,4,13)             105.5446         estimate D2E/DX2                !
 ! A20   A(4,5,6)              109.6347         estimate D2E/DX2                !
 ! A21   A(4,5,10)             108.657          estimate D2E/DX2                !
 ! A22   A(4,5,12)             105.1445         estimate D2E/DX2                !
 ! A23   A(6,5,10)             107.4502         estimate D2E/DX2                !
 ! A24   A(6,5,12)             115.6266         estimate D2E/DX2                !
 ! A25   A(10,5,12)            110.1673         estimate D2E/DX2                !
 ! A26   A(1,6,5)              112.1548         estimate D2E/DX2                !
 ! A27   A(1,6,11)             109.8249         estimate D2E/DX2                !
 ! A28   A(1,6,16)             107.4691         estimate D2E/DX2                !
 ! A29   A(5,6,11)             106.8568         estimate D2E/DX2                !
 ! A30   A(5,6,16)             114.2857         estimate D2E/DX2                !
 ! A31   A(11,6,16)            106.0397         estimate D2E/DX2                !
 ! A32   A(5,12,21)            107.3834         estimate D2E/DX2                !
 ! A33   A(4,13,22)            106.2383         estimate D2E/DX2                !
 ! A34   A(4,13,83)            107.2478         estimate D2E/DX2                !
 ! A35   A(22,13,83)           138.2697         estimate D2E/DX2                !
 ! A36   A(3,14,23)            106.7829         estimate D2E/DX2                !
 ! A37   A(3,14,83)             91.0784         estimate D2E/DX2                !
 ! A38   A(23,14,83)           113.3424         estimate D2E/DX2                !
 ! A39   A(2,15,27)            115.643          estimate D2E/DX2                !
 ! A40   A(6,16,17)            108.3776         estimate D2E/DX2                !
 ! A41   A(6,16,18)            108.2529         estimate D2E/DX2                !
 ! A42   A(6,16,19)            109.6523         estimate D2E/DX2                !
 ! A43   A(17,16,18)           108.801          estimate D2E/DX2                !
 ! A44   A(17,16,19)           110.7873         estimate D2E/DX2                !
 ! A45   A(18,16,19)           110.8955         estimate D2E/DX2                !
 ! A46   A(16,19,20)           109.4371         estimate D2E/DX2                !
 ! A47   A(16,19,83)            70.3275         estimate D2E/DX2                !
 ! A48   A(25,24,29)           111.9844         estimate D2E/DX2                !
 ! A49   A(24,25,26)           111.4085         estimate D2E/DX2                !
 ! A50   A(24,25,30)           108.374          estimate D2E/DX2                !
 ! A51   A(24,25,37)           108.6875         estimate D2E/DX2                !
 ! A52   A(26,25,30)           107.7398         estimate D2E/DX2                !
 ! A53   A(26,25,37)           115.6481         estimate D2E/DX2                !
 ! A54   A(30,25,37)           104.5528         estimate D2E/DX2                !
 ! A55   A(25,26,27)           111.6699         estimate D2E/DX2                !
 ! A56   A(25,26,31)           108.8034         estimate D2E/DX2                !
 ! A57   A(25,26,36)           110.159          estimate D2E/DX2                !
 ! A58   A(27,26,31)           108.6482         estimate D2E/DX2                !
 ! A59   A(27,26,36)           106.8845         estimate D2E/DX2                !
 ! A60   A(31,26,36)           110.665          estimate D2E/DX2                !
 ! A61   A(15,27,26)           107.6113         estimate D2E/DX2                !
 ! A62   A(15,27,28)           111.588          estimate D2E/DX2                !
 ! A63   A(15,27,32)           109.3775         estimate D2E/DX2                !
 ! A64   A(26,27,28)           110.9333         estimate D2E/DX2                !
 ! A65   A(26,27,32)           108.156          estimate D2E/DX2                !
 ! A66   A(28,27,32)           109.0984         estimate D2E/DX2                !
 ! A67   A(27,28,29)           110.4187         estimate D2E/DX2                !
 ! A68   A(27,28,33)           105.9995         estimate D2E/DX2                !
 ! A69   A(27,28,35)           112.3817         estimate D2E/DX2                !
 ! A70   A(29,28,33)           107.9028         estimate D2E/DX2                !
 ! A71   A(29,28,35)           114.4186         estimate D2E/DX2                !
 ! A72   A(33,28,35)           105.1273         estimate D2E/DX2                !
 ! A73   A(24,29,28)           112.3696         estimate D2E/DX2                !
 ! A74   A(24,29,34)           107.8888         estimate D2E/DX2                !
 ! A75   A(24,29,38)           106.545          estimate D2E/DX2                !
 ! A76   A(28,29,34)           108.5792         estimate D2E/DX2                !
 ! A77   A(28,29,38)           114.4618         estimate D2E/DX2                !
 ! A78   A(34,29,38)           106.6689         estimate D2E/DX2                !
 ! A79   A(28,35,43)           107.161          estimate D2E/DX2                !
 ! A80   A(28,35,82)            90.9125         estimate D2E/DX2                !
 ! A81   A(43,35,82)            20.6288         estimate D2E/DX2                !
 ! A82   A(26,36,44)           108.3286         estimate D2E/DX2                !
 ! A83   A(25,37,49)           117.4172         estimate D2E/DX2                !
 ! A84   A(29,38,39)           109.1742         estimate D2E/DX2                !
 ! A85   A(29,38,40)           109.1167         estimate D2E/DX2                !
 ! A86   A(29,38,41)           108.531          estimate D2E/DX2                !
 ! A87   A(39,38,40)           109.4853         estimate D2E/DX2                !
 ! A88   A(39,38,41)           109.9674         estimate D2E/DX2                !
 ! A89   A(40,38,41)           110.5385         estimate D2E/DX2                !
 ! A90   A(38,41,42)           108.1171         estimate D2E/DX2                !
 ! A91   A(38,41,82)           151.5079         estimate D2E/DX2                !
 ! A92   A(42,41,82)            78.8327         estimate D2E/DX2                !
 ! A93   A(46,45,50)           111.5363         estimate D2E/DX2                !
 ! A94   A(46,45,84)           148.7715         estimate D2E/DX2                !
 ! A95   A(50,45,84)            93.899          estimate D2E/DX2                !
 ! A96   A(45,46,47)           108.7245         estimate D2E/DX2                !
 ! A97   A(45,46,51)           108.7589         estimate D2E/DX2                !
 ! A98   A(45,46,58)           108.7377         estimate D2E/DX2                !
 ! A99   A(47,46,51)           111.1331         estimate D2E/DX2                !
 ! A100  A(47,46,58)           107.6193         estimate D2E/DX2                !
 ! A101  A(51,46,58)           111.7946         estimate D2E/DX2                !
 ! A102  A(46,47,48)           111.7848         estimate D2E/DX2                !
 ! A103  A(46,47,52)           106.4304         estimate D2E/DX2                !
 ! A104  A(46,47,57)           112.7777         estimate D2E/DX2                !
 ! A105  A(48,47,52)           108.9377         estimate D2E/DX2                !
 ! A106  A(48,47,57)           106.1295         estimate D2E/DX2                !
 ! A107  A(52,47,57)           110.7869         estimate D2E/DX2                !
 ! A108  A(47,48,49)           111.656          estimate D2E/DX2                !
 ! A109  A(47,48,53)           108.5457         estimate D2E/DX2                !
 ! A110  A(47,48,56)           109.5659         estimate D2E/DX2                !
 ! A111  A(49,48,53)           107.7187         estimate D2E/DX2                !
 ! A112  A(49,48,56)           109.8568         estimate D2E/DX2                !
 ! A113  A(53,48,56)           109.4486         estimate D2E/DX2                !
 ! A114  A(37,49,48)           109.7121         estimate D2E/DX2                !
 ! A115  A(37,49,50)           108.7855         estimate D2E/DX2                !
 ! A116  A(37,49,55)           110.1914         estimate D2E/DX2                !
 ! A117  A(48,49,50)           108.3305         estimate D2E/DX2                !
 ! A118  A(48,49,55)           110.3379         estimate D2E/DX2                !
 ! A119  A(50,49,55)           109.4426         estimate D2E/DX2                !
 ! A120  A(45,50,49)           109.0572         estimate D2E/DX2                !
 ! A121  A(45,50,54)           110.0754         estimate D2E/DX2                !
 ! A122  A(45,50,59)           107.4579         estimate D2E/DX2                !
 ! A123  A(49,50,54)           108.0963         estimate D2E/DX2                !
 ! A124  A(49,50,59)           115.5028         estimate D2E/DX2                !
 ! A125  A(54,50,59)           106.578          estimate D2E/DX2                !
 ! A126  A(48,56,64)           105.9646         estimate D2E/DX2                !
 ! A127  A(48,56,84)            48.0753         estimate D2E/DX2                !
 ! A128  A(64,56,84)           135.287          estimate D2E/DX2                !
 ! A129  A(47,57,65)           107.6541         estimate D2E/DX2                !
 ! A130  A(46,58,66)           114.7845         estimate D2E/DX2                !
 ! A131  A(46,58,84)            70.0196         estimate D2E/DX2                !
 ! A132  A(66,58,84)            93.3829         estimate D2E/DX2                !
 ! A133  A(50,59,60)           108.2776         estimate D2E/DX2                !
 ! A134  A(50,59,61)           109.387          estimate D2E/DX2                !
 ! A135  A(50,59,62)           113.5326         estimate D2E/DX2                !
 ! A136  A(60,59,61)           108.5639         estimate D2E/DX2                !
 ! A137  A(60,59,62)           106.9179         estimate D2E/DX2                !
 ! A138  A(61,59,62)           110.0135         estimate D2E/DX2                !
 ! A139  A(59,62,63)           106.584          estimate D2E/DX2                !
 ! A140  A(59,62,82)           145.9659         estimate D2E/DX2                !
 ! A141  A(63,62,82)           104.9056         estimate D2E/DX2                !
 ! A142  A(58,66,67)           108.3529         estimate D2E/DX2                !
 ! A143  A(58,66,68)           109.202          estimate D2E/DX2                !
 ! A144  A(58,66,69)           109.068          estimate D2E/DX2                !
 ! A145  A(67,66,68)           108.2794         estimate D2E/DX2                !
 ! A146  A(67,66,69)           110.5548         estimate D2E/DX2                !
 ! A147  A(68,66,69)           111.3245         estimate D2E/DX2                !
 ! A148  A(66,69,70)           107.6871         estimate D2E/DX2                !
 ! A149  A(66,69,71)           108.545          estimate D2E/DX2                !
 ! A150  A(66,69,72)           114.7065         estimate D2E/DX2                !
 ! A151  A(70,69,71)           106.2342         estimate D2E/DX2                !
 ! A152  A(70,69,72)           110.7007         estimate D2E/DX2                !
 ! A153  A(71,69,72)           108.6166         estimate D2E/DX2                !
 ! A154  A(69,72,73)           107.7214         estimate D2E/DX2                !
 ! A155  A(69,72,74)           108.3055         estimate D2E/DX2                !
 ! A156  A(69,72,75)           114.4197         estimate D2E/DX2                !
 ! A157  A(73,72,74)           106.4816         estimate D2E/DX2                !
 ! A158  A(73,72,75)           110.5377         estimate D2E/DX2                !
 ! A159  A(74,72,75)           109.0565         estimate D2E/DX2                !
 ! A160  A(72,75,76)           109.8348         estimate D2E/DX2                !
 ! A161  A(72,75,77)           110.357          estimate D2E/DX2                !
 ! A162  A(72,75,78)           114.2201         estimate D2E/DX2                !
 ! A163  A(76,75,77)           106.6035         estimate D2E/DX2                !
 ! A164  A(76,75,78)           106.8195         estimate D2E/DX2                !
 ! A165  A(77,75,78)           108.6767         estimate D2E/DX2                !
 ! A166  A(75,78,79)           110.9878         estimate D2E/DX2                !
 ! A167  A(75,78,80)           111.4166         estimate D2E/DX2                !
 ! A168  A(75,78,81)           111.9127         estimate D2E/DX2                !
 ! A169  A(79,78,80)           108.0529         estimate D2E/DX2                !
 ! A170  A(79,78,81)           106.9938         estimate D2E/DX2                !
 ! A171  A(80,78,81)           107.256          estimate D2E/DX2                !
 ! A172  A(78,81,82)           113.1377         estimate D2E/DX2                !
 ! A173  A(78,81,83)           113.114          estimate D2E/DX2                !
 ! A174  A(78,81,84)           112.2965         estimate D2E/DX2                !
 ! A175  A(82,81,83)           103.8067         estimate D2E/DX2                !
 ! A176  A(82,81,84)           105.2115         estimate D2E/DX2                !
 ! A177  A(83,81,84)           108.6299         estimate D2E/DX2                !
 ! A178  A(35,82,41)            22.5311         estimate D2E/DX2                !
 ! A179  A(35,82,62)            61.5817         estimate D2E/DX2                !
 ! A180  A(35,82,81)           114.2059         estimate D2E/DX2                !
 ! A181  A(41,82,62)            50.5889         estimate D2E/DX2                !
 ! A182  A(41,82,81)           112.5638         estimate D2E/DX2                !
 ! A183  A(62,82,81)            63.134          estimate D2E/DX2                !
 ! A184  A(13,83,14)            77.2938         estimate D2E/DX2                !
 ! A185  A(13,83,19)            19.3038         estimate D2E/DX2                !
 ! A186  A(13,83,81)           163.0755         estimate D2E/DX2                !
 ! A187  A(14,83,19)            62.7059         estimate D2E/DX2                !
 ! A188  A(14,83,81)            86.0917         estimate D2E/DX2                !
 ! A189  A(19,83,81)           144.8559         estimate D2E/DX2                !
 ! A190  A(45,84,56)            40.5376         estimate D2E/DX2                !
 ! A191  A(45,84,58)            26.8671         estimate D2E/DX2                !
 ! A192  A(45,84,81)           121.9908         estimate D2E/DX2                !
 ! A193  A(56,84,58)            52.6137         estimate D2E/DX2                !
 ! A194  A(56,84,81)           125.9209         estimate D2E/DX2                !
 ! A195  A(58,84,81)            95.2276         estimate D2E/DX2                !
 ! A196  L(20,19,83,16,-1)     179.7646         estimate D2E/DX2                !
 ! A197  L(20,19,83,16,-2)     195.6062         estimate D2E/DX2                !
 ! D1    D(6,1,2,3)            -54.6844         estimate D2E/DX2                !
 ! D2    D(6,1,2,7)           -176.1156         estimate D2E/DX2                !
 ! D3    D(6,1,2,15)            63.774          estimate D2E/DX2                !
 ! D4    D(2,1,6,5)             55.326          estimate D2E/DX2                !
 ! D5    D(2,1,6,11)           -63.3342         estimate D2E/DX2                !
 ! D6    D(2,1,6,16)          -178.2551         estimate D2E/DX2                !
 ! D7    D(1,2,3,4)             53.0122         estimate D2E/DX2                !
 ! D8    D(1,2,3,8)            -65.2902         estimate D2E/DX2                !
 ! D9    D(1,2,3,14)           177.4652         estimate D2E/DX2                !
 ! D10   D(7,2,3,4)            170.5721         estimate D2E/DX2                !
 ! D11   D(7,2,3,8)             52.2697         estimate D2E/DX2                !
 ! D12   D(7,2,3,14)           -64.975          estimate D2E/DX2                !
 ! D13   D(15,2,3,4)           -70.8473         estimate D2E/DX2                !
 ! D14   D(15,2,3,8)           170.8503         estimate D2E/DX2                !
 ! D15   D(15,2,3,14)           53.6057         estimate D2E/DX2                !
 ! D16   D(1,2,15,27)           66.5917         estimate D2E/DX2                !
 ! D17   D(3,2,15,27)         -169.9356         estimate D2E/DX2                !
 ! D18   D(7,2,15,27)          -50.4344         estimate D2E/DX2                !
 ! D19   D(2,3,4,5)            -53.3313         estimate D2E/DX2                !
 ! D20   D(2,3,4,9)             68.1658         estimate D2E/DX2                !
 ! D21   D(2,3,4,13)          -175.2116         estimate D2E/DX2                !
 ! D22   D(8,3,4,5)             64.4262         estimate D2E/DX2                !
 ! D23   D(8,3,4,9)           -174.0766         estimate D2E/DX2                !
 ! D24   D(8,3,4,13)           -57.454          estimate D2E/DX2                !
 ! D25   D(14,3,4,5)          -177.0254         estimate D2E/DX2                !
 ! D26   D(14,3,4,9)           -55.5283         estimate D2E/DX2                !
 ! D27   D(14,3,4,13)           61.0943         estimate D2E/DX2                !
 ! D28   D(2,3,14,23)          -28.3991         estimate D2E/DX2                !
 ! D29   D(2,3,14,83)         -143.2086         estimate D2E/DX2                !
 ! D30   D(4,3,14,23)           94.776          estimate D2E/DX2                !
 ! D31   D(4,3,14,83)          -20.0335         estimate D2E/DX2                !
 ! D32   D(8,3,14,23)         -145.9056         estimate D2E/DX2                !
 ! D33   D(8,3,14,83)           99.2849         estimate D2E/DX2                !
 ! D34   D(3,4,5,6)             54.2824         estimate D2E/DX2                !
 ! D35   D(3,4,5,10)           171.4444         estimate D2E/DX2                !
 ! D36   D(3,4,5,12)           -70.6275         estimate D2E/DX2                !
 ! D37   D(9,4,5,6)            -67.0034         estimate D2E/DX2                !
 ! D38   D(9,4,5,10)            50.1586         estimate D2E/DX2                !
 ! D39   D(9,4,5,12)           168.0866         estimate D2E/DX2                !
 ! D40   D(13,4,5,6)           177.4862         estimate D2E/DX2                !
 ! D41   D(13,4,5,10)          -65.3518         estimate D2E/DX2                !
 ! D42   D(13,4,5,12)           52.5762         estimate D2E/DX2                !
 ! D43   D(3,4,13,22)           79.6033         estimate D2E/DX2                !
 ! D44   D(3,4,13,83)          -75.1283         estimate D2E/DX2                !
 ! D45   D(5,4,13,22)          -42.9056         estimate D2E/DX2                !
 ! D46   D(5,4,13,83)          162.3628         estimate D2E/DX2                !
 ! D47   D(9,4,13,22)         -161.2728         estimate D2E/DX2                !
 ! D48   D(9,4,13,83)           43.9956         estimate D2E/DX2                !
 ! D49   D(4,5,6,1)            -54.1929         estimate D2E/DX2                !
 ! D50   D(4,5,6,11)            66.2046         estimate D2E/DX2                !
 ! D51   D(4,5,6,16)          -176.8297         estimate D2E/DX2                !
 ! D52   D(10,5,6,1)          -172.1093         estimate D2E/DX2                !
 ! D53   D(10,5,6,11)          -51.7119         estimate D2E/DX2                !
 ! D54   D(10,5,6,16)           65.2538         estimate D2E/DX2                !
 ! D55   D(12,5,6,1)            64.4131         estimate D2E/DX2                !
 ! D56   D(12,5,6,11)         -175.1895         estimate D2E/DX2                !
 ! D57   D(12,5,6,16)          -58.2237         estimate D2E/DX2                !
 ! D58   D(4,5,12,21)          155.5722         estimate D2E/DX2                !
 ! D59   D(6,5,12,21)           34.5131         estimate D2E/DX2                !
 ! D60   D(10,5,12,21)         -87.5259         estimate D2E/DX2                !
 ! D61   D(1,6,16,17)           49.2249         estimate D2E/DX2                !
 ! D62   D(1,6,16,18)          167.0753         estimate D2E/DX2                !
 ! D63   D(1,6,16,19)          -71.8224         estimate D2E/DX2                !
 ! D64   D(5,6,16,17)          174.3754         estimate D2E/DX2                !
 ! D65   D(5,6,16,18)          -67.7742         estimate D2E/DX2                !
 ! D66   D(5,6,16,19)           53.3282         estimate D2E/DX2                !
 ! D67   D(11,6,16,17)         -68.1895         estimate D2E/DX2                !
 ! D68   D(11,6,16,18)          49.6609         estimate D2E/DX2                !
 ! D69   D(11,6,16,19)         170.7633         estimate D2E/DX2                !
 ! D70   D(4,13,83,14)          41.457          estimate D2E/DX2                !
 ! D71   D(4,13,83,19)           2.558          estimate D2E/DX2                !
 ! D72   D(4,13,83,81)          30.2689         estimate D2E/DX2                !
 ! D73   D(22,13,83,14)       -100.5397         estimate D2E/DX2                !
 ! D74   D(22,13,83,19)       -139.4387         estimate D2E/DX2                !
 ! D75   D(22,13,83,81)       -111.7278         estimate D2E/DX2                !
 ! D76   D(3,14,83,13)         -12.285          estimate D2E/DX2                !
 ! D77   D(3,14,83,19)           1.2236         estimate D2E/DX2                !
 ! D78   D(3,14,83,81)         164.4694         estimate D2E/DX2                !
 ! D79   D(23,14,83,13)       -121.1092         estimate D2E/DX2                !
 ! D80   D(23,14,83,19)       -107.6005         estimate D2E/DX2                !
 ! D81   D(23,14,83,81)         55.6452         estimate D2E/DX2                !
 ! D82   D(2,15,27,26)        -135.4385         estimate D2E/DX2                !
 ! D83   D(2,15,27,28)         102.6416         estimate D2E/DX2                !
 ! D84   D(2,15,27,32)         -18.1671         estimate D2E/DX2                !
 ! D85   D(6,16,19,20)         176.2            estimate D2E/DX2                !
 ! D86   D(6,16,19,83)         -19.4062         estimate D2E/DX2                !
 ! D87   D(17,16,19,20)         56.619          estimate D2E/DX2                !
 ! D88   D(17,16,19,83)       -138.9872         estimate D2E/DX2                !
 ! D89   D(18,16,19,20)        -64.3059         estimate D2E/DX2                !
 ! D90   D(18,16,19,83)        100.0878         estimate D2E/DX2                !
 ! D91   D(16,19,83,13)       -140.5723         estimate D2E/DX2                !
 ! D92   D(16,19,83,14)         83.0038         estimate D2E/DX2                !
 ! D93   D(16,19,83,81)         53.0291         estimate D2E/DX2                !
 ! D94   D(29,24,25,26)        -58.8439         estimate D2E/DX2                !
 ! D95   D(29,24,25,30)         59.5208         estimate D2E/DX2                !
 ! D96   D(29,24,25,37)        172.5906         estimate D2E/DX2                !
 ! D97   D(25,24,29,28)         59.556          estimate D2E/DX2                !
 ! D98   D(25,24,29,34)        -60.1061         estimate D2E/DX2                !
 ! D99   D(25,24,29,38)       -174.3308         estimate D2E/DX2                !
 ! D100  D(24,25,26,27)          2.5665         estimate D2E/DX2                !
 ! D101  D(24,25,26,31)       -117.3517         estimate D2E/DX2                !
 ! D102  D(24,25,26,36)        121.1732         estimate D2E/DX2                !
 ! D103  D(30,25,26,27)       -116.1782         estimate D2E/DX2                !
 ! D104  D(30,25,26,31)        123.9036         estimate D2E/DX2                !
 ! D105  D(30,25,26,36)          2.4286         estimate D2E/DX2                !
 ! D106  D(37,25,26,27)        127.3181         estimate D2E/DX2                !
 ! D107  D(37,25,26,31)          7.3999         estimate D2E/DX2                !
 ! D108  D(37,25,26,36)       -114.0751         estimate D2E/DX2                !
 ! D109  D(24,25,37,49)         64.9637         estimate D2E/DX2                !
 ! D110  D(26,25,37,49)        -61.1828         estimate D2E/DX2                !
 ! D111  D(30,25,37,49)       -179.4673         estimate D2E/DX2                !
 ! D112  D(25,26,27,15)        -71.7989         estimate D2E/DX2                !
 ! D113  D(25,26,27,28)         50.5268         estimate D2E/DX2                !
 ! D114  D(25,26,27,32)        170.138          estimate D2E/DX2                !
 ! D115  D(31,26,27,15)         48.2106         estimate D2E/DX2                !
 ! D116  D(31,26,27,28)        170.5362         estimate D2E/DX2                !
 ! D117  D(31,26,27,32)        -69.8526         estimate D2E/DX2                !
 ! D118  D(36,26,27,15)        167.6608         estimate D2E/DX2                !
 ! D119  D(36,26,27,28)        -70.0135         estimate D2E/DX2                !
 ! D120  D(36,26,27,32)         49.5977         estimate D2E/DX2                !
 ! D121  D(25,26,36,44)         83.2567         estimate D2E/DX2                !
 ! D122  D(27,26,36,44)       -155.2428         estimate D2E/DX2                !
 ! D123  D(31,26,36,44)        -37.1032         estimate D2E/DX2                !
 ! D124  D(15,27,28,29)         70.2355         estimate D2E/DX2                !
 ! D125  D(15,27,28,33)       -173.1507         estimate D2E/DX2                !
 ! D126  D(15,27,28,35)        -58.8406         estimate D2E/DX2                !
 ! D127  D(26,27,28,29)        -49.7472         estimate D2E/DX2                !
 ! D128  D(26,27,28,33)         66.8666         estimate D2E/DX2                !
 ! D129  D(26,27,28,35)       -178.8233         estimate D2E/DX2                !
 ! D130  D(32,27,28,29)       -168.793          estimate D2E/DX2                !
 ! D131  D(32,27,28,33)        -52.1792         estimate D2E/DX2                !
 ! D132  D(32,27,28,35)         62.1308         estimate D2E/DX2                !
 ! D133  D(27,28,29,24)         -3.2781         estimate D2E/DX2                !
 ! D134  D(27,28,29,34)        115.9813         estimate D2E/DX2                !
 ! D135  D(27,28,29,38)       -124.9821         estimate D2E/DX2                !
 ! D136  D(33,28,29,24)       -118.7034         estimate D2E/DX2                !
 ! D137  D(33,28,29,34)          0.556          estimate D2E/DX2                !
 ! D138  D(33,28,29,38)        119.5925         estimate D2E/DX2                !
 ! D139  D(35,28,29,24)        124.6907         estimate D2E/DX2                !
 ! D140  D(35,28,29,34)       -116.0499         estimate D2E/DX2                !
 ! D141  D(35,28,29,38)          2.9867         estimate D2E/DX2                !
 ! D142  D(27,28,35,43)         79.8378         estimate D2E/DX2                !
 ! D143  D(27,28,35,82)         66.9209         estimate D2E/DX2                !
 ! D144  D(29,28,35,43)        -47.1272         estimate D2E/DX2                !
 ! D145  D(29,28,35,82)        -60.0441         estimate D2E/DX2                !
 ! D146  D(33,28,35,43)       -165.3209         estimate D2E/DX2                !
 ! D147  D(33,28,35,82)       -178.2378         estimate D2E/DX2                !
 ! D148  D(24,29,38,39)         55.4479         estimate D2E/DX2                !
 ! D149  D(24,29,38,40)        175.0713         estimate D2E/DX2                !
 ! D150  D(24,29,38,41)        -64.4113         estimate D2E/DX2                !
 ! D151  D(28,29,38,39)       -179.7103         estimate D2E/DX2                !
 ! D152  D(28,29,38,40)        -60.087          estimate D2E/DX2                !
 ! D153  D(28,29,38,41)         60.4304         estimate D2E/DX2                !
 ! D154  D(34,29,38,39)        -59.6042         estimate D2E/DX2                !
 ! D155  D(34,29,38,40)         60.0192         estimate D2E/DX2                !
 ! D156  D(34,29,38,41)       -179.4634         estimate D2E/DX2                !
 ! D157  D(28,35,82,41)         76.3244         estimate D2E/DX2                !
 ! D158  D(28,35,82,62)         21.7405         estimate D2E/DX2                !
 ! D159  D(28,35,82,81)        -14.4939         estimate D2E/DX2                !
 ! D160  D(43,35,82,41)        -66.3575         estimate D2E/DX2                !
 ! D161  D(43,35,82,62)       -120.9414         estimate D2E/DX2                !
 ! D162  D(43,35,82,81)       -157.1758         estimate D2E/DX2                !
 ! D163  D(25,37,49,48)        121.894          estimate D2E/DX2                !
 ! D164  D(25,37,49,50)       -119.7634         estimate D2E/DX2                !
 ! D165  D(25,37,49,55)          0.2171         estimate D2E/DX2                !
 ! D166  D(29,38,41,42)       -177.471          estimate D2E/DX2                !
 ! D167  D(29,38,41,82)         82.4144         estimate D2E/DX2                !
 ! D168  D(39,38,41,42)         63.1659         estimate D2E/DX2                !
 ! D169  D(39,38,41,82)        -36.9487         estimate D2E/DX2                !
 ! D170  D(40,38,41,42)        -57.8389         estimate D2E/DX2                !
 ! D171  D(40,38,41,82)       -157.9535         estimate D2E/DX2                !
 ! D172  D(38,41,82,35)       -127.5266         estimate D2E/DX2                !
 ! D173  D(38,41,82,62)        -15.6073         estimate D2E/DX2                !
 ! D174  D(38,41,82,81)        -28.4876         estimate D2E/DX2                !
 ! D175  D(42,41,82,35)        124.9721         estimate D2E/DX2                !
 ! D176  D(42,41,82,62)       -123.1087         estimate D2E/DX2                !
 ! D177  D(42,41,82,81)       -135.989          estimate D2E/DX2                !
 ! D178  D(50,45,46,47)        -64.1948         estimate D2E/DX2                !
 ! D179  D(50,45,46,51)         56.9471         estimate D2E/DX2                !
 ! D180  D(50,45,46,58)        178.9027         estimate D2E/DX2                !
 ! D181  D(84,45,46,47)         78.1686         estimate D2E/DX2                !
 ! D182  D(84,45,46,51)       -160.6895         estimate D2E/DX2                !
 ! D183  D(84,45,46,58)        -38.7339         estimate D2E/DX2                !
 ! D184  D(46,45,50,49)         67.6837         estimate D2E/DX2                !
 ! D185  D(46,45,50,54)        -50.7493         estimate D2E/DX2                !
 ! D186  D(46,45,50,59)       -166.4315         estimate D2E/DX2                !
 ! D187  D(84,45,50,49)        -93.8149         estimate D2E/DX2                !
 ! D188  D(84,45,50,54)        147.7521         estimate D2E/DX2                !
 ! D189  D(84,45,50,59)         32.0699         estimate D2E/DX2                !
 ! D190  D(46,45,84,56)        -80.0329         estimate D2E/DX2                !
 ! D191  D(46,45,84,58)         23.907          estimate D2E/DX2                !
 ! D192  D(46,45,84,81)         29.4709         estimate D2E/DX2                !
 ! D193  D(50,45,84,56)         65.2631         estimate D2E/DX2                !
 ! D194  D(50,45,84,58)        169.2031         estimate D2E/DX2                !
 ! D195  D(50,45,84,81)        174.767          estimate D2E/DX2                !
 ! D196  D(45,46,47,48)         54.239          estimate D2E/DX2                !
 ! D197  D(45,46,47,52)        -64.5926         estimate D2E/DX2                !
 ! D198  D(45,46,47,57)        173.7309         estimate D2E/DX2                !
 ! D199  D(51,46,47,48)        -65.4346         estimate D2E/DX2                !
 ! D200  D(51,46,47,52)        175.7337         estimate D2E/DX2                !
 ! D201  D(51,46,47,57)         54.0572         estimate D2E/DX2                !
 ! D202  D(58,46,47,48)        171.8543         estimate D2E/DX2                !
 ! D203  D(58,46,47,52)         53.0227         estimate D2E/DX2                !
 ! D204  D(58,46,47,57)        -68.6538         estimate D2E/DX2                !
 ! D205  D(45,46,58,66)        -71.3482         estimate D2E/DX2                !
 ! D206  D(45,46,58,84)         12.9862         estimate D2E/DX2                !
 ! D207  D(47,46,58,66)        171.0451         estimate D2E/DX2                !
 ! D208  D(47,46,58,84)       -104.6205         estimate D2E/DX2                !
 ! D209  D(51,46,58,66)         48.7423         estimate D2E/DX2                !
 ! D210  D(51,46,58,84)        133.0767         estimate D2E/DX2                !
 ! D211  D(46,47,48,49)        -49.9642         estimate D2E/DX2                !
 ! D212  D(46,47,48,53)         68.6298         estimate D2E/DX2                !
 ! D213  D(46,47,48,56)       -171.901          estimate D2E/DX2                !
 ! D214  D(52,47,48,49)         67.3689         estimate D2E/DX2                !
 ! D215  D(52,47,48,53)       -174.0371         estimate D2E/DX2                !
 ! D216  D(52,47,48,56)        -54.5678         estimate D2E/DX2                !
 ! D217  D(57,47,48,49)       -173.3035         estimate D2E/DX2                !
 ! D218  D(57,47,48,53)        -54.7095         estimate D2E/DX2                !
 ! D219  D(57,47,48,56)         64.7597         estimate D2E/DX2                !
 ! D220  D(46,47,57,65)         60.3695         estimate D2E/DX2                !
 ! D221  D(48,47,57,65)       -176.9171         estimate D2E/DX2                !
 ! D222  D(52,47,57,65)        -58.8088         estimate D2E/DX2                !
 ! D223  D(47,48,49,37)        169.7561         estimate D2E/DX2                !
 ! D224  D(47,48,49,50)         51.1319         estimate D2E/DX2                !
 ! D225  D(47,48,49,55)        -68.6548         estimate D2E/DX2                !
 ! D226  D(53,48,49,37)         50.6703         estimate D2E/DX2                !
 ! D227  D(53,48,49,50)        -67.9539         estimate D2E/DX2                !
 ! D228  D(53,48,49,55)        172.2594         estimate D2E/DX2                !
 ! D229  D(56,48,49,37)        -68.4749         estimate D2E/DX2                !
 ! D230  D(56,48,49,50)        172.9009         estimate D2E/DX2                !
 ! D231  D(56,48,49,55)         53.1142         estimate D2E/DX2                !
 ! D232  D(47,48,56,64)        -56.6672         estimate D2E/DX2                !
 ! D233  D(47,48,56,84)         80.7704         estimate D2E/DX2                !
 ! D234  D(49,48,56,64)       -179.6755         estimate D2E/DX2                !
 ! D235  D(49,48,56,84)        -42.2379         estimate D2E/DX2                !
 ! D236  D(53,48,56,64)         62.2456         estimate D2E/DX2                !
 ! D237  D(53,48,56,84)       -160.3167         estimate D2E/DX2                !
 ! D238  D(37,49,50,45)       -178.3387         estimate D2E/DX2                !
 ! D239  D(37,49,50,54)        -58.6728         estimate D2E/DX2                !
 ! D240  D(37,49,50,59)         60.5665         estimate D2E/DX2                !
 ! D241  D(48,49,50,45)        -59.1288         estimate D2E/DX2                !
 ! D242  D(48,49,50,54)         60.5371         estimate D2E/DX2                !
 ! D243  D(48,49,50,59)        179.7764         estimate D2E/DX2                !
 ! D244  D(55,49,50,45)         61.2174         estimate D2E/DX2                !
 ! D245  D(55,49,50,54)       -179.1166         estimate D2E/DX2                !
 ! D246  D(55,49,50,59)        -59.8773         estimate D2E/DX2                !
 ! D247  D(45,50,59,60)         56.6021         estimate D2E/DX2                !
 ! D248  D(45,50,59,61)        174.7442         estimate D2E/DX2                !
 ! D249  D(45,50,59,62)        -61.9592         estimate D2E/DX2                !
 ! D250  D(49,50,59,60)        178.5571         estimate D2E/DX2                !
 ! D251  D(49,50,59,61)        -63.3009         estimate D2E/DX2                !
 ! D252  D(49,50,59,62)         59.9958         estimate D2E/DX2                !
 ! D253  D(54,50,59,60)        -61.3711         estimate D2E/DX2                !
 ! D254  D(54,50,59,61)         56.7709         estimate D2E/DX2                !
 ! D255  D(54,50,59,62)       -179.9324         estimate D2E/DX2                !
 ! D256  D(48,56,84,45)        -16.77           estimate D2E/DX2                !
 ! D257  D(48,56,84,58)        -50.2757         estimate D2E/DX2                !
 ! D258  D(48,56,84,81)       -115.9452         estimate D2E/DX2                !
 ! D259  D(64,56,84,45)         50.7948         estimate D2E/DX2                !
 ! D260  D(64,56,84,58)         17.2891         estimate D2E/DX2                !
 ! D261  D(64,56,84,81)        -48.3803         estimate D2E/DX2                !
 ! D262  D(46,58,66,67)       -100.8348         estimate D2E/DX2                !
 ! D263  D(46,58,66,68)         16.9055         estimate D2E/DX2                !
 ! D264  D(46,58,66,69)        138.7633         estimate D2E/DX2                !
 ! D265  D(84,58,66,67)       -170.3641         estimate D2E/DX2                !
 ! D266  D(84,58,66,68)        -52.6237         estimate D2E/DX2                !
 ! D267  D(84,58,66,69)         69.234          estimate D2E/DX2                !
 ! D268  D(46,58,84,45)        -13.4264         estimate D2E/DX2                !
 ! D269  D(46,58,84,56)         39.1255         estimate D2E/DX2                !
 ! D270  D(46,58,84,81)        171.3102         estimate D2E/DX2                !
 ! D271  D(66,58,84,45)        101.7459         estimate D2E/DX2                !
 ! D272  D(66,58,84,56)        154.2978         estimate D2E/DX2                !
 ! D273  D(66,58,84,81)        -73.5175         estimate D2E/DX2                !
 ! D274  D(50,59,62,63)        -84.1119         estimate D2E/DX2                !
 ! D275  D(50,59,62,82)         72.8861         estimate D2E/DX2                !
 ! D276  D(60,59,62,63)        156.5472         estimate D2E/DX2                !
 ! D277  D(60,59,62,82)        -46.4548         estimate D2E/DX2                !
 ! D278  D(61,59,62,63)         38.841          estimate D2E/DX2                !
 ! D279  D(61,59,62,82)       -164.161          estimate D2E/DX2                !
 ! D280  D(59,62,82,35)       -158.8673         estimate D2E/DX2                !
 ! D281  D(59,62,82,41)        177.2922         estimate D2E/DX2                !
 ! D282  D(59,62,82,81)        -16.0495         estimate D2E/DX2                !
 ! D283  D(63,62,82,35)         -1.6694         estimate D2E/DX2                !
 ! D284  D(63,62,82,41)        -25.5099         estimate D2E/DX2                !
 ! D285  D(63,62,82,81)        141.1484         estimate D2E/DX2                !
 ! D286  D(58,66,69,70)        178.321          estimate D2E/DX2                !
 ! D287  D(58,66,69,71)         63.7082         estimate D2E/DX2                !
 ! D288  D(58,66,69,72)        -57.9595         estimate D2E/DX2                !
 ! D289  D(67,66,69,70)         59.2816         estimate D2E/DX2                !
 ! D290  D(67,66,69,71)        -55.3312         estimate D2E/DX2                !
 ! D291  D(67,66,69,72)       -176.999          estimate D2E/DX2                !
 ! D292  D(68,66,69,70)        -61.1147         estimate D2E/DX2                !
 ! D293  D(68,66,69,71)       -175.7275         estimate D2E/DX2                !
 ! D294  D(68,66,69,72)         62.6048         estimate D2E/DX2                !
 ! D295  D(66,69,72,73)         57.9259         estimate D2E/DX2                !
 ! D296  D(66,69,72,74)        172.7247         estimate D2E/DX2                !
 ! D297  D(66,69,72,75)        -65.4118         estimate D2E/DX2                !
 ! D298  D(70,69,72,73)       -179.976          estimate D2E/DX2                !
 ! D299  D(70,69,72,74)        -65.1772         estimate D2E/DX2                !
 ! D300  D(70,69,72,75)         56.6863         estimate D2E/DX2                !
 ! D301  D(71,69,72,73)        -63.7027         estimate D2E/DX2                !
 ! D302  D(71,69,72,74)         51.096          estimate D2E/DX2                !
 ! D303  D(71,69,72,75)        172.9595         estimate D2E/DX2                !
 ! D304  D(69,72,75,76)        -59.1966         estimate D2E/DX2                !
 ! D305  D(69,72,75,77)         58.0513         estimate D2E/DX2                !
 ! D306  D(69,72,75,78)       -179.1672         estimate D2E/DX2                !
 ! D307  D(73,72,75,76)        178.9949         estimate D2E/DX2                !
 ! D308  D(73,72,75,77)        -63.7572         estimate D2E/DX2                !
 ! D309  D(73,72,75,78)         59.0243         estimate D2E/DX2                !
 ! D310  D(74,72,75,76)         62.2551         estimate D2E/DX2                !
 ! D311  D(74,72,75,77)        179.503          estimate D2E/DX2                !
 ! D312  D(74,72,75,78)        -57.7155         estimate D2E/DX2                !
 ! D313  D(72,75,78,79)        173.9558         estimate D2E/DX2                !
 ! D314  D(72,75,78,80)         53.4915         estimate D2E/DX2                !
 ! D315  D(72,75,78,81)        -66.5901         estimate D2E/DX2                !
 ! D316  D(76,75,78,79)         52.31           estimate D2E/DX2                !
 ! D317  D(76,75,78,80)        -68.1543         estimate D2E/DX2                !
 ! D318  D(76,75,78,81)        171.764          estimate D2E/DX2                !
 ! D319  D(77,75,78,79)        -62.3538         estimate D2E/DX2                !
 ! D320  D(77,75,78,80)        177.1819         estimate D2E/DX2                !
 ! D321  D(77,75,78,81)         57.1003         estimate D2E/DX2                !
 ! D322  D(75,78,81,82)        178.6255         estimate D2E/DX2                !
 ! D323  D(75,78,81,83)         60.9437         estimate D2E/DX2                !
 ! D324  D(75,78,81,84)        -62.4527         estimate D2E/DX2                !
 ! D325  D(79,78,81,82)        -59.597          estimate D2E/DX2                !
 ! D326  D(79,78,81,83)       -177.2789         estimate D2E/DX2                !
 ! D327  D(79,78,81,84)         59.3248         estimate D2E/DX2                !
 ! D328  D(80,78,81,82)         56.1404         estimate D2E/DX2                !
 ! D329  D(80,78,81,83)        -61.5414         estimate D2E/DX2                !
 ! D330  D(80,78,81,84)        175.0622         estimate D2E/DX2                !
 ! D331  D(78,81,82,35)        155.4912         estimate D2E/DX2                !
 ! D332  D(78,81,82,41)        130.9778         estimate D2E/DX2                !
 ! D333  D(78,81,82,62)        119.8462         estimate D2E/DX2                !
 ! D334  D(83,81,82,35)        -81.5106         estimate D2E/DX2                !
 ! D335  D(83,81,82,41)       -106.024          estimate D2E/DX2                !
 ! D336  D(83,81,82,62)       -117.1556         estimate D2E/DX2                !
 ! D337  D(84,81,82,35)         32.5513         estimate D2E/DX2                !
 ! D338  D(84,81,82,41)          8.0379         estimate D2E/DX2                !
 ! D339  D(84,81,82,62)         -3.0937         estimate D2E/DX2                !
 ! D340  D(78,81,83,13)        174.5936         estimate D2E/DX2                !
 ! D341  D(78,81,83,14)        163.6572         estimate D2E/DX2                !
 ! D342  D(78,81,83,19)       -169.9177         estimate D2E/DX2                !
 ! D343  D(82,81,83,13)         51.5798         estimate D2E/DX2                !
 ! D344  D(82,81,83,14)         40.6433         estimate D2E/DX2                !
 ! D345  D(82,81,83,19)         67.0684         estimate D2E/DX2                !
 ! D346  D(84,81,83,13)        -60.011          estimate D2E/DX2                !
 ! D347  D(84,81,83,14)        -70.9474         estimate D2E/DX2                !
 ! D348  D(84,81,83,19)        -44.5224         estimate D2E/DX2                !
 ! D349  D(78,81,84,45)         74.9271         estimate D2E/DX2                !
 ! D350  D(78,81,84,56)        124.0856         estimate D2E/DX2                !
 ! D351  D(78,81,84,58)         77.449          estimate D2E/DX2                !
 ! D352  D(82,81,84,45)       -161.595          estimate D2E/DX2                !
 ! D353  D(82,81,84,56)       -112.4365         estimate D2E/DX2                !
 ! D354  D(82,81,84,58)       -159.0731         estimate D2E/DX2                !
 ! D355  D(83,81,84,45)        -50.9454         estimate D2E/DX2                !
 ! D356  D(83,81,84,56)         -1.7869         estimate D2E/DX2                !
 ! D357  D(83,81,84,58)        -48.4235         estimate D2E/DX2                !
 --------------------------------------------------------------------------------
 Trust Radius=3.00D-01 FncErr=1.00D-07 GrdErr=1.00D-06
 Number of steps in this run=    504 maximum allowed number of steps=    504.
 GradGradGradGradGradGradGradGradGradGradGradGradGradGradGradGradGradGrad

 Leave Link  103 at Wed Apr 27 20:49:34 2016, MaxMem= 10737418240 cpu:         0.7
 (Enter /share/apps//g09/l202.exe)
 Stoichiometry    C23H44NO16(1+)
 Framework group  C1[X(C23H44NO16)]
 Deg. of freedom   246
 Full point group                 C1      NOp   1
 Largest Abelian subgroup         C1      NOp   1
 Largest concise Abelian subgroup C1      NOp   1
                         Standard orientation:                         
 ---------------------------------------------------------------------
 Center     Atomic      Atomic             Coordinates (Angstroms)
 Number     Number       Type             X           Y           Z
 ---------------------------------------------------------------------
      1          8           0       -2.183903    2.543930   -1.049823
      2          6           0       -2.108443    1.234130   -1.553585
      3          6           0       -0.827235    0.973216   -2.365629
      4          6           0        0.407614    1.364278   -1.535003
      5          6           0        0.275091    2.800952   -1.023815
      6          6           0       -1.049457    2.957372   -0.260744
      7          1           0       -3.008902    1.122764   -2.177174
      8          1           0       -0.863155    1.607284   -3.263732
      9          1           0        0.519694    0.671154   -0.688056
     10          1           0        1.098157    2.999829   -0.306164
     11          1           0       -0.973642    2.327951    0.645902
     12          8           0        0.421646    3.623091   -2.180427
     13          8           0        1.622053    1.239661   -2.299031
     14          8           0       -0.771999   -0.389442   -2.805552
     15          8           0       -2.088567    0.223177   -0.531724
     16          6           0       -1.325403    4.370172    0.230344
     17          1           0       -2.335878    4.394089    0.670053
     18          1           0       -0.589036    4.613001    1.016993
     19          8           0       -1.225060    5.291907   -0.867907
     20          1           0       -1.460339    6.183439   -0.563973
     21          1           0       -0.031547    4.474863   -1.994479
     22          1           0        1.675565    2.040364   -2.860960
     23          1           0       -1.269634   -0.919765   -2.147696
     24          8           0       -2.130373   -2.218301    0.832527
     25          6           0       -2.246368   -1.414751    2.026554
     26          6           0       -2.897328   -0.028163    1.719741
     27          6           0       -3.301124    0.094233    0.244254
     28          6           0       -4.130808   -1.120882   -0.200697
     29          6           0       -3.414104   -2.453550    0.211920
     30          1           0       -2.903219   -1.944618    2.740758
     31          1           0       -2.172000    0.762333    1.951869
     32          1           0       -3.906534    1.004901    0.129107
     33          1           0       -5.078953   -1.060639    0.354809
     34          1           0       -4.052680   -2.985736    0.942817
     35          8           0       -4.499693   -1.051864   -1.573688
     36          8           0       -4.090633    0.138398    2.492536
     37          8           0       -0.996623   -1.371470    2.662384
     38          6           0       -3.169901   -3.415591   -0.933655
     39          1           0       -2.670231   -4.318262   -0.547784
     40          1           0       -4.135311   -3.693939   -1.382545
     41          8           0       -2.322887   -2.760762   -1.913245
     42          1           0       -2.203250   -3.367704   -2.663442
     43          1           0       -3.723171   -1.336991   -2.095878
     44          1           0       -3.840448    0.455588    3.376705
     45          8           0        2.309306   -1.085681    1.069673
     46          6           0        2.940666   -0.114342    1.927321
     47          6           0        1.933932    0.991306    2.240474
     48          6           0        0.632730    0.427886    2.820040
     49          6           0        0.081338   -0.717246    1.963670
     50          6           0        1.217205   -1.740605    1.730294
     51          1           0        3.278773   -0.623692    2.856404
     52          1           0        1.711520    1.493097    1.280140
     53          1           0        0.842822    0.023121    3.829153
     54          1           0        1.544738   -2.123765    2.719407
     55          1           0       -0.271847   -0.333879    0.993339
     56          8           0       -0.340548    1.473549    2.918889
     57          8           0        2.422134    1.927104    3.199262
     58          8           0        3.999940    0.463823    1.241989
     59          6           0        0.842275   -2.956508    0.896228
     60          1           0        1.736165   -3.586419    0.783816
     61          1           0        0.070262   -3.535365    1.421815
     62          8           0        0.393890   -2.627581   -0.427230
     63          1           0       -0.563111   -2.412049   -0.353980
     64          1           0        0.067858    2.169134    3.466580
     65          1           0        3.225419    2.336399    2.830150
     66          6           0        5.145103   -0.407734    1.043507
     67          1           0        5.912056   -0.148728    1.791361
     68          1           0        4.838791   -1.451589    1.210448
     69          6           0        5.684657   -0.207366   -0.367857
     70          1           0        6.569561   -0.855634   -0.483514
     71          1           0        6.047410    0.828020   -0.460353
     72          6           0        4.666973   -0.472492   -1.488130
     73          1           0        3.808361    0.197196   -1.326243
     74          1           0        5.121358   -0.172391   -2.446942
     75          6           0        4.200338   -1.931709   -1.589494
     76          1           0        5.066157   -2.589583   -1.769318
     77          1           0        3.750225   -2.256868   -0.638597
     78          6           0        3.204620   -2.193980   -2.716636
     79          1           0        2.989161   -3.266788   -2.809413
     80          1           0        3.589855   -1.838939   -3.683387
     81          7           0        1.893673   -1.502139   -2.478405
     82          1           0        1.215865   -1.647946   -3.238043
     83          1           0        1.983528   -0.457375   -2.419777
     84          1           0        1.410186   -1.848944   -1.605020
 ---------------------------------------------------------------------
 Rotational constants (GHZ):      0.1119284      0.0815241      0.0740934
 Leave Link  202 at Wed Apr 27 20:49:34 2016, MaxMem= 10737418240 cpu:         0.8
 (Enter /share/apps//g09/l301.exe)
 Standard basis: 6-311+G(d,p) (5D, 7F)
 Ernie: Thresh=  0.10000D-02 Tol=  0.10000D-05 Strict=F.
[...]
 01505,-0.00003253,-0.00004991,-0.00012371,-0.00002033,-0.00004855,-0.0
 0005361,-0.00009622,-0.00003750,-0.00010991,-0.00019051,-0.00007551,0.
 00016829,0.00001069,0.00000810,-0.00002012,0.00003928,0.00001086,-0.00
 001504,0.00034148,-0.00001546,-0.00018497,-0.00011063,0.00004566,0.000
 01530,-0.00004933,0.00007557,0.00011652,0.00001502,0.00001888,0.000022
 50,-0.00066234,0.00017456,-0.00057378,0.00101608,0.00017182,0.00018942
 ,0.00000642,0.00022919,-0.00005178,0.00012672,0.00005261,0.00009794,-0
 .00000023,0.00004072,0.00007599,0.00006027,-0.00002624,0.00009352,-0.0
 0009687,-0.00004239,-0.00007091,0.00002482,-0.00003948,-0.00001736,-0.
 00003230,-0.00002351,-0.00000040,-0.00001609,0.00002479,-0.00004866,0.
 00003326,0.00005123,0.00007732,-0.00012841,-0.00013338,-0.00007190,-0.
 00010558,-0.00013021,-0.00004609,-0.00046362,-0.00028232,0.00029756,0.
 00011979,-0.00066588,0.00049552,-0.00001437,0.00002323,-0.00002765,0.0
 0000518,0.00012535,-0.00007672,0.00076102,0.00065883,-0.00021851,-0.00
 030113,0.00009573,0.00021354,0.00003973,0.00003212,-0.00002951,0.00001
 417,0.00006850,-0.00003549,0.00025787,0.00011316,-0.00005009,-0.000060
 99,-0.00005572,0.00006107,-0.00006448,-0.00009304,0.00001211,-0.000224
 19,-0.00049527,-0.00106163,0.00027078,-0.00035820,0.00019790,-0.000094
 49,0.00009101,-0.00005690,0.00010024,0.00086556,0.00205479,-0.00107833
 ,0.00065678,-0.00216750,-0.00026494,0.00004512,0.00015266,0.00101637,-
 0.00005883,0.00048040,-0.00039359,-0.00015289,-0.00037794,-0.00019078,
 -0.00010966,-0.00007146,0.02097020,0.00850233,0.01217371,-0.00295494,0
 .00362306,0.00413622,0.00018621,-0.00017212,0.00041855,-0.17729836,-0.
 08444829,-0.11039594,-0.01410473,-0.00936212,-0.01210876,0.18968458,-0
 .00055161,-0.00014596,0.00002944,0.00052163,0.00085543,-0.00097406,0.0
 0067752,-0.00022615,0.00104560,0.00780085,0.00142425,-0.00592332,-0.00
 176802,0.00031349,0.00080926,0.00112465,0.00044619,0.00033463,-0.00021
 632,-0.00004315,0.00022446,0.00009445,-0.00028786,0.00002103,-0.000781
 39,-0.00024685,0.00068906,0.00009804,-0.00011972,-0.00007519,-0.000022
 24,0.00006592,-0.00001860,-0.00013115,0.00059102,0.00098373,-0.0004950
 3,0.00182925,0.00473475,-0.00174958,-0.00190383,-0.00137457,-0.0010504
 2,-0.00070839,0.00051573,-0.00042664,0.00003875,-0.00003108,-0.0000006
 0,0.00011863,0.00017838,0.00003964,-0.00002668,-0.00001723,-0.00004120
 ,0.00016362,0.00034385,-0.00005394,-0.00008713,-0.00002090,-0.00014422
 ,-0.00047023,-0.00030938,-0.00146940,-0.00211763,0.00226183,0.00010278
 ,0.00089648,0.00045656,0.00014490,-0.00030726,-0.00028498,-0.00013197,
 0.00036159,0.00019653,-0.00001694,0.00011463,-0.00002159,0.00059680,0.
 00002424,-0.00030958,0.00002553,0.00013097,0.00008310,-0.00005882,0.00
 020820,0.00000387,0.00000853,-0.00002795,-0.00002798,-0.00001333,0.000
 05591,-0.00003433,-0.00000924,-0.00001679,0.00001214,-0.00004829,-0.00
 001993,-0.00003274,0.00000943,-0.00003244,-0.00001165,-0.00021574,-0.0
 0023774,-0.00011941,-0.00008370,-0.00018512,0.00005203,0.00029082,-0.0
 0036326,-0.00022524,-0.00011062,-0.00002851,0.00007195,-0.00003810,-0.
 00003235,-0.00002210,0.00002940,0.00000659,0.00000906,0.00014252,-0.00
 034989,-0.00024872,-0.00023009,0.00016936,0.00009117,0.00017308,0.0001
 8131,0.00017093,0.00000947,0.00004725,0.00001787,0.00013104,0.00026266
 ,-0.00104240,0.00027946,-0.00008844,0.00098302,0.00007332,0.00049163,-
 0.00003462,-0.00000935,0.00021730,0.00028556,-0.00021213,0.00030465,0.
 00010550,-0.00070967,0.00003820,0.00029386,-0.00002287,0.00003114,-0.0
 0017202,-0.00003624,-0.00001384,0.00003498,-0.00001976,-0.00007637,0.0
 0001558,0.00007842,0.00003491,-0.00013208,0.00008553,0.00011299,0.0000
 6656,-0.00001045,-0.00048285,-0.00025987,-0.00000276,-0.00037093,-0.00
 023700,0.00015283,-0.00007121,-0.00073600,0.00013584,-0.00064235,0.000
 30515,-0.00005410,-0.00004528,-0.00006347,0.00004340,0.00014301,-0.000
 04080,0.00108709,0.00058536,-0.00064564,-0.00032474,0.00052274,0.00037
 818,0.00001576,0.00009644,-0.00001517,-0.00000557,0.00020386,0.0001155
 8,-0.00013061,0.00005253,0.00040836,-0.00000974,0.00001758,-0.00013559
 ,-0.00000758,-0.00014605,0.00003698,-0.00016243,-0.00008871,0.00056656
 ,-0.00007997,0.00018022,-0.00012835,-0.00018410,0.00011324,-0.00014955
 ,0.00057863,-0.00021432,-0.00092089,0.00113520,0.00138121,0.00151126,-
 0.00033259,0.00013356,0.00031392,-0.00058436,-0.00094661,0.00008719,-0
 .00034398,0.00043586,0.00005492,0.00003084,-0.00037045,0.00000511,-0.0
 0617854,-0.00926463,-0.01086119,0.00113663,0.00004432,-0.00069998,-0.0
 0032952,0.00096306,0.00110933,-0.08942906,-0.12447704,-0.08582189,0.01
 862188,0.01588979,0.01921583,0.08568450,0.12401686,-0.00062731,-0.0000
 6100,-0.00025053,0.00034007,0.00075423,-0.00070750,0.00123249,0.000222
 13,0.00235030,0.00623075,-0.00171710,-0.00693519,-0.00103331,0.0003679
 5,-0.00009146,0.00108258,0.00014521,0.00022527,-0.00023386,-0.00000490
 ,0.00023769,-0.00001360,-0.00012285,-0.00005192,-0.00001582,0.00005921
 ,-0.00047651,0.00001126,-0.00008213,-0.00008324,-0.00000274,0.00007899
 ,-0.00003979,-0.00002982,0.00114694,0.00130703,0.00298537,0.00599114,-
 0.00554375,-0.00068240,-0.00150272,-0.00251344,-0.00097438,-0.00054825
 ,0.00023380,-0.00035346,0.00001467,-0.00006535,-0.00000706,0.00010709,
 0.00015808,0.00001998,-0.00002045,-0.00003584,-0.00004819,0.00022179,0
 .00036217,-0.00004815,-0.00009925,-0.00001276,-0.00009890,-0.00047900,
 -0.00034155,-0.00253282,-0.00054384,0.00514618,0.00015687,0.00033579,0
 .00025441,0.00006761,-0.00018591,-0.00053018,0.00017211,0.00009581,0.0
 0039910,0.00002023,0.00009874,-0.00004471,0.00051569,0.00003535,-0.000
 25330,0.00003403,0.00007821,0.00014506,-0.00000056,0.00014911,0.000016
 94,-0.00002070,-0.00000688,-0.00004764,0.00000387,0.00002606,-0.000043
 07,-0.00000727,-0.00001110,0.00000590,-0.00004058,-0.00001709,-0.00003
 381,0.00000637,-0.00002650,-0.00001471,-0.00019239,-0.00016623,-0.0002
 0286,-0.00011410,-0.00014401,0.00004444,-0.00019199,-0.00025135,-0.000
 11687,-0.00021023,-0.00006936,0.00016437,-0.00001912,-0.00002118,-0.00
 002617,0.00004401,0.00001417,-0.00000654,0.00030640,-0.00026477,-0.000
 32026,-0.00023264,0.00014210,0.00008262,0.00011252,0.00017093,0.000209
 99,0.00002618,0.00003877,0.00001103,-0.00044660,-0.00047817,-0.0006702
 4,0.00009333,0.00029013,0.00031709,0.00002198,0.00066499,-0.00027048,0
 .00013881,0.00007908,0.00009381,-0.00002985,0.00038897,-0.00000844,0.0
 0037029,0.00025672,0.00015161,0.00000345,-0.00009474,-0.00004072,-0.00
 004523,-0.00017097,-0.00003727,-0.00004508,-0.00007139,0.00004203,-0.0
 0011762,-0.00006022,-0.00006792,0.00014608,0.00002528,0.00007926,-0.00
 014091,-0.00032028,-0.00008834,0.00007196,-0.00038295,0.00007414,0.000
 25008,-0.00049501,-0.00042865,0.00065650,-0.00114225,0.00056836,-0.000
 07315,-0.00002786,-0.00003101,-0.00001131,0.00032974,-0.00017579,0.002
 42624,0.00152041,-0.00290839,-0.00011660,0.00076883,0.00026295,0.00003
 671,0.00007020,-0.00007034,-0.00005845,0.00017011,0.00002272,-0.000276
 23,0.00042318,0.00048300,0.00002865,-0.00003519,-0.00011573,-0.0000361
 6,-0.00013559,0.00000204,0.00011084,-0.00024340,-0.00026979,0.00009960
 ,-0.00007578,-0.00000507,-0.00015435,0.00009646,-0.00009978,0.00012158
 ,0.00059614,0.00084709,-0.00099885,0.00074133,0.00047065,0.00022014,-0
 .00009346,-0.00025435,0.00010605,0.00020252,0.00161486,-0.00052319,0.0
 0041925,-0.00036987,-0.00000141,-0.00002107,0.00006211,-0.00833393,-0.
 01152226,-0.01488884,0.00186862,-0.00053054,-0.00072017,-0.00065512,0.
 00073431,-0.00009964,-0.10990199,-0.08058653,-0.17003819,-0.01292379,-
 0.00618341,-0.01000009,0.11325056,0.08409736,0.18256652,-0.00052095,-0
 .00021346,-0.00011119,0.00081323,0.00090512,-0.00029306,0.00019918,-0.
 00015305,0.00032557,0.00147696,-0.00029861,-0.00141532,-0.00014035,0.0
 0013198,-0.00012519,0.00043676,0.00006362,0.00002795,-0.00006893,-0.00
 005718,0.00006533,-0.00007189,-0.00010993,-0.00010356,0.00020724,0.000
 00657,-0.00018111,0.00000086,-0.00001950,-0.00002723,0.00000867,0.0000
 3979,0.00000812,-0.00016671,0.00017396,0.00038525,0.00000131,0.0013535
 2,0.00174960,-0.00150259,-0.00073547,0.00030235,-0.00074710,-0.0008450
 6,0.00017734,-0.00002210,0.00010971,0.00000160,-0.00001114,0.00003517,
 0.00006288,0.00000361,-0.00001230,-0.00001315,-0.00012202,-0.00006653,
 0.00009442,0.00001214,-0.00001091,0.00000274,0.00004984,-0.00009884,-0
 .00012722,-0.00025617,-0.00015060,0.00012405,0.00010282,0.00175817,0.0
 0057368,0.00106350,-0.00057133,-0.00174469,0.00030719,-0.00005292,0.00
 129679,-0.00012218,0.00020510,0.00014331,0.00031637,0.00001578,-0.0000
 9198,0.00007100,0.00031091,0.00006599,-0.00065412,0.00061555,-0.000236
 24,0.00000739,0.00004577,-0.00019076,0.00003389,-0.00002266,-0.0000255
 6,-0.00000884,-0.00003908,-0.00001303,-0.00002701,-0.00005382,-0.00003
 979,0.00016163,-0.00007094,-0.00003314,-0.00010619,-0.00047243,-0.0001
 0464,0.00007840,-0.00023254,-0.00027610,-0.00042206,-0.00017133,-0.000
 43570,-0.00055811,-0.00005449,0.00035052,-0.00015390,-0.00001453,-0.00
 009677,0.00012808,-0.00003508,-0.00003492,0.00094877,-0.00114553,-0.00
 011709,-0.00014043,0.00048596,-0.00025791,0.00011520,0.00036138,0.0001
 7055,0.00000232,0.00004937,0.00011658,-0.00257462,-0.00096392,0.000488
 81,0.00126294,0.00015604,-0.00005159,0.00026775,0.00021165,-0.00012982
 ,0.00058066,0.00012411,0.00019188,-0.00025476,0.00020144,0.00031263,0.
 00278963,0.00132702,-0.00019590,-0.00000935,-0.00016647,0.00007309,-0.
 00001910,-0.00009615,-0.00003243,-0.00007147,-0.00005609,-0.00002076,-
 0.00075543,-0.00007415,-0.00034315,0.00013080,0.00019606,0.00029559,-0
 .00042911,-0.00024739,-0.00029656,-0.00035527,-0.00006309,0.00004411,-
 0.00116294,-0.00017486,0.00091802,0.00643879,-0.00870530,0.00253652,-0
 .00031842,0.00084056,0.00000490,-0.00020041,0.00256916,-0.00137560,-0.
 00094602,0.00623838,-0.00482334,-0.00236374,0.00421903,0.00084202,0.00
 010988,0.00001052,-0.00004378,0.00003800,0.00001828,-0.00010236,0.0003
 3874,-0.00020351,-0.00054773,-0.00000703,-0.00000586,0.00017153,0.0000
 3145,0.00012493,-0.00007836,-0.00002326,0.00024196,-0.00016756,-0.0000
 0841,-0.00011464,0.00005900,0.00011387,-0.00010484,0.00013977,-0.00044
 882,-0.00015670,0.00005913,-0.00032509,-0.00010519,-0.00034186,0.00012
 978,-0.00004997,-0.00001652,-0.00047731,-0.00065418,-0.00072228,0.0007
 9157,-0.00028448,-0.00004026,0.00018810,0.00088022,-0.00027795,-0.0095
 8695,-0.00216724,0.00960402,0.00109595,-0.00054614,-0.00134210,0.00069
 264,0.00058544,0.00000978,-0.16617391,-0.09874028,0.09386883,0.0174838
 2,0.01266187,-0.01370584,-0.01280413,-0.01212169,0.00923132,0.16610761
 ,-0.00020911,-0.00013412,0.00046226,0.00077718,0.00051975,-0.00053733,
 -0.00096920,-0.00082326,-0.00115125,0.00040373,-0.00034823,-0.00052791
 ,-0.00003136,0.00003549,-0.00031868,0.00012468,0.00018735,-0.00012745,
 -0.00001838,-0.00006136,0.00003176,0.00005493,0.00006633,0.00011111,0.
 00001366,0.00029969,-0.00035370,0.00009869,-0.00000282,0.00008476,0.00
 000213,0.00002933,-0.00000019,0.00003829,0.00017710,0.00038115,0.00035
 378,0.00075244,0.00064233,-0.00084647,0.00287264,0.00129955,-0.0007225
 5,-0.00060675,0.00059019,-0.00004155,0.00005630,-0.00002775,-0.0000096
 4,0.00003110,0.00003837,0.00002776,-0.00000631,0.00001091,-0.00004553,
 -0.00002158,0.00011073,-0.00000928,-0.00001330,-0.00000682,0.00001551,
 -0.00007774,-0.00013685,-0.00018300,-0.00009226,0.00014396,0.00162054,
 -0.00026524,-0.00068032,0.00089168,-0.00061838,-0.00106137,-0.00001398
 ,0.00025588,0.00062591,-0.00008967,0.00018658,0.00006330,0.00046897,0.
 00009558,-0.00023051,0.00004599,0.00025603,-0.00002564,-0.00054328,0.0
 0052013,-0.00025512,0.00002519,0.00000518,-0.00011041,-0.00000260,0.00
 001017,-0.00001861,-0.00003965,-0.00003389,0.00002388,-0.00004109,-0.0
 0004378,-0.00003015,0.00012323,-0.00006918,0.00001563,-0.00014551,-0.0
 0036352,0.00005963,0.00003848,-0.00021916,-0.00010773,0.00017371,-0.00
 036727,-0.00036436,-0.00002937,0.00028871,-0.00009575,-0.00016810,-0.0
 0006503,-0.00005244,-0.00001709,-0.00007350,0.00003641,-0.00015625,-0.
 00094083,0.00036044,0.00020066,0.00022831,-0.00011261,0.00020397,0.000
 17564,0.00002732,-0.00001049,0.00004258,0.00006833,-0.00201201,-0.0002
 0504,-0.00128858,0.00205521,0.00019438,0.00052888,0.00006143,0.0003748
 7,0.00000471,0.00025200,0.00015093,0.00030122,-0.00033961,0.00038183,0
 .00025913,0.00035226,0.00027596,0.00073947,-0.00014250,-0.00002276,-0.
 00018284,-0.00003230,-0.00006764,-0.00001695,-0.00003320,-0.00005593,0
 .00000662,-0.00021657,0.00005003,-0.00030392,0.00006772,0.00016813,0.0
 0014842,-0.00016483,-0.00034979,-0.00034419,-0.00024933,-0.00021500,-0
 .00026788,-0.00096475,-0.00012788,0.00048022,-0.00028683,-0.00527982,0
 .00246625,-0.00020449,0.00000508,-0.00007053,0.00011978,0.00077607,-0.
 00052351,0.00600158,-0.00867884,-0.00309134,0.00104874,0.00604127,-0.0
 0019658,0.00004798,0.00002866,-0.00000435,0.00005640,0.00007778,0.0000
 0750,0.00041171,-0.00015067,-0.00029534,-0.00006268,-0.00000728,0.0000
 6532,-0.00001243,-0.00002559,-0.00003926,0.00002487,0.00009928,-0.0000
 6129,0.00000467,-0.00006238,0.00004443,0.00003239,-0.00006081,0.000060
 11,-0.00013705,-0.00035197,0.00057438,-0.00010668,0.00002475,-0.000233
 57,-0.00030682,-0.00012221,-0.00007003,0.00029873,0.00216671,-0.001637
 54,-0.00016762,-0.00033006,0.00031593,-0.00018311,-0.00100656,0.000844
 22,0.01417478,0.01966433,-0.01081874,-0.00018121,0.00022922,-0.0003013
 8,0.00317295,-0.00352868,-0.00429565,-0.09383715,-0.15266796,0.0831787
 6,-0.01649174,-0.01545381,0.01274634,-0.00764603,-0.00903232,0.0068475
 5,0.09423616,0.16524888,0.00022976,0.00017779,-0.00006449,-0.00049995,
 -0.00062130,0.00021754,0.00062855,-0.00006554,0.00002852,-0.00185545,-
 0.00115462,0.00137211,0.00020584,-0.00010533,-0.00036814,-0.00019249,-
 0.00016780,-0.00003136,0.00002704,0.00006072,-0.00002221,-0.00007909,0
 .00011351,-0.00003064,0.00005849,0.00006756,-0.00070183,-0.00003251,0.
 00002744,0.00001082,0.00001829,-0.00001850,-0.00002732,0.00021040,0.00
 022046,-0.00010561,0.00025884,-0.00122661,-0.00343008,0.00024511,-0.00
 006250,-0.00131610,0.00023561,0.00059028,-0.00014311,0.00000714,-0.000
 10119,-0.00002588,0.00000450,-0.00001606,-0.00003241,-0.00001284,0.000
 00925,-0.00000573,0.00008035,0.00010442,-0.00002888,-0.00000596,-0.000
 00912,-0.00000526,0.00002001,0.00005301,0.00001897,0.00014170,0.000092
 10,-0.00006485,0.00015670,-0.00085749,0.00026316,-0.00076700,0.0004502
 7,0.00064349,0.00023524,-0.00028179,-0.00043925,0.00010706,-0.00012021
 ,-0.00013693,-0.00006600,0.00001612,0.00004068,-0.00003127,-0.00018965
 ,0.00006902,0.00054927,-0.00042681,0.00020957,-0.00004915,-0.00000133,
 0.00008159,-0.00001089,-0.00000741,-0.00000771,-0.00001760,0.00002673,
 0.00001081,0.00001257,0.00002654,0.00001312,-0.00011642,0.00004991,-0.
 00000521,0.00002563,0.00026483,-0.00011281,-0.00010937,0.00014898,0.00
 017828,-0.00039172,0.00019956,0.00042810,0.00002354,-0.00018243,0.0000
 3100,0.00011785,0.00002066,0.00005988,-0.00000407,0.00005938,-0.000018
 65,-0.00003813,0.00062846,-0.00045369,-0.00031188,-0.00006229,0.000218
 59,-0.00005455,-0.00010834,0.00003268,0.00001884,-0.00002970,-0.000077
 43,0.00223942,-0.00066843,0.00140871,-0.00250610,-0.00026139,-0.000623
 96,-0.00012907,-0.00011268,-0.00015405,-0.00025689,-0.00022943,-0.0003
 4810,0.00036663,0.00014104,-0.00045100,0.00024051,0.00042263,-0.000760
 84,0.00023431,-0.00003747,0.00026355,-0.00001741,-0.00001544,0.0000172
 1,0.00005163,0.00002340,0.00004398,0.00012673,-0.00016181,0.00030770,0
 .00008310,-0.00029043,-0.00024924,0.00014793,0.00027527,0.00034540,0.0
 0036106,0.00007491,0.00033046,0.00128562,-0.00002835,-0.00079817,-0.00
 165816,0.00507516,-0.00235579,0.00009204,-0.00070370,0.00024642,-0.000
 02805,-0.00125844,0.00060419,-0.00534493,-0.00268756,-0.00102657,0.001
 40787,-0.00256451,-0.00127898,-0.00005265,-0.00001630,-0.00002428,-0.0
 0009303,-0.00003314,0.00001542,-0.00049120,0.00039090,0.00059842,0.000
 05909,-0.00002632,-0.00012559,-0.00001693,-0.00004799,0.00005066,-0.00
 000921,-0.00022683,0.00009524,0.00003512,0.00007177,-0.00005911,-0.000
 08375,0.00009441,-0.00010804,0.00008076,0.00041309,-0.00020132,-0.0000
 5490,-0.00010437,0.00025996,0.00006488,-0.00003416,-0.00014041,-0.0009
 0421,-0.00007304,0.00194245,-0.00055964,0.00040738,-0.00028676,0.00021
 987,-0.00039937,0.00053397,0.01450678,0.00862065,-0.01434637,-0.000562
 29,0.00079395,-0.00012537,0.00069907,-0.00227233,-0.00110880,0.0888821
 9,0.08278582,-0.14144677,0.00917782,0.01065064,-0.00851978,-0.01242159
 ,-0.01114857,0.02143542,-0.09414443,-0.08443093,0.14976780\\0.00001217
 ,0.00000366,0.00002044,-0.00001053,-0.00002135,-0.00003381,0.00000852,
 0.00000548,0.00000474,-0.00001303,0.00000600,0.00001967,-0.00000449,-0
 .00000689,-0.00000915,-0.00000388,0.00000265,-0.00000164,0.00000403,-0
 .00000244,0.00000293,0.00000058,-0.00000643,-0.00000117,0.00000290,0.0
 0000376,0.00000065,-0.00000380,0.00000358,0.00000021,0.00000125,0.0000
 0583,-0.00000180,0.00000480,-0.00000525,0.00000496,0.00002797,-0.00000
 766,-0.00002778,-0.00001021,0.00001067,-0.00000334,0.00000300,0.000013
 27,0.00000821,-0.00000772,-0.00000696,-0.00000090,0.00000282,0.0000009
 7,-0.00000223,-0.00000183,0.00000346,-0.00000091,-0.00000205,0.0000056
 7,0.00000783,-0.00000397,-0.00000495,-0.00000629,-0.00000272,0.0000015
 5,-0.00000106,-0.00000298,-0.00000645,0.00001353,0.00001146,-0.0000094
 9,-0.00000227,-0.00000274,-0.00000628,-0.00000046,-0.00001013,0.000007
 89,0.00000995,-0.00000196,0.00000256,-0.00001674,-0.00000440,0.0000024
 2,-0.00000580,0.00000576,-0.00000348,-0.00000197,-0.00000351,0.0000077
 0,-0.00000300,0.00000369,0.00000133,-0.00000805,-0.00000912,-0.0000004
 8,-0.00000198,0.00000114,-0.00000354,-0.00000445,0.00000442,0.00000042
 ,-0.00000402,0.00000626,0.00000072,-0.00000450,0.00000415,-0.00000011,
 -0.00000256,0.00000133,-0.00000240,0.00000711,0.00000923,0.00000613,-0
 .00000584,-0.00000833,-0.00000194,-0.00000781,0.00000317,0.00000305,-0
 .00000235,0.00000647,-0.00000278,-0.00000601,-0.00000654,0.00000167,-0
 .00000078,0.00001083,-0.00000102,0.00000435,-0.00000542,0.00000231,-0.
 00000128,-0.00000631,0.00000401,-0.00000870,0.00000718,0.00000839,-0.0
 0000570,-0.00001193,-0.00001091,0.00001997,-0.00000673,-0.00000255,-0.
 00000710,-0.00000419,-0.00001385,-0.00000973,-0.00000861,-0.00000319,0
 .00000108,-0.00001180,-0.00000966,0.00001078,0.00000141,0.00000715,-0.
 00000537,-0.00000080,-0.00000487,0.00000463,0.00000146,0.00000732,-0.0
 0000081,0.00000246,0.00000889,-0.00000030,-0.00000043,-0.00000724,0.00
 000099,0.00001044,0.00000774,0.00000276,0.00000635,0.00000427,0.000000
 89,-0.00000055,0.00000735,-0.00001374,-0.00000022,-0.00000441,0.000001
 32,-0.00000032,0.00000166,0.00000309,0.00000089,0.00000196,-0.00000484
 ,0.00000735,0.00001249,-0.00000800,-0.00000069,-0.00000819,0.00000613,
 -0.00001145,-0.00000033,0.00000065,-0.00000706,-0.00000286,0.00000516,
 0.00000617,-0.00000737,0.00000920,-0.00000304,0.00000209,0.00000253,0.
 00000153,0.00000227,0.00000193,0.00000176,0.00000016,0.00000631,-0.000
 00105,0.00000117,0.00000481,-0.00000166,-0.00000132,0.00000129,0.00000
 111,-0.00000070,0.00000328,0.00000054,-0.00000336,-0.00000130,0.000001
 48,-0.00000465,0.00000448,0.00000257,0.00000382,0.00000366,0.00000114,
 0.00000006,0.00000378,0.00000376,0.00000031,-0.00000029,0.00000723,-0.
 00000924,-0.00000122,0.00000507,0.00000171,0.00000301,0.00000057,-0.00
 000063,0.00000570,0.00000017,-0.00001345,0.00001887,0.00000355,-0.0000
 0492,-0.00000005,-0.00001944,0.00002570,0.00001251,0.00000549,0.000002
 31,-0.00000627\\\@


 GARLIC THEN HAVE POWER TO SAVE FROM DEATH
 BEAR WITH IT THOUGH IT MAKETH UNSAVORY BREATH,
 AND SCORN NOT GARLIC LIKE SOME THAT THINK
 IT ONLY MAKETH MEN WINK AND DRINK AND STINK.
   --  SIR JOHN HARRINGTON,
       "THE ENGLISHMAN'S DOCTOR", 1609
 Job cpu time:      22 days  6 hours  9 minutes  1.9 seconds.
 File lengths (MBytes):  RWF=  17272 Int=      0 D2E=      0 Chk=     99 Scr=      1
 Normal termination of Gaussian 09 at Sat Apr 30 03:59:52 2016.
