 Entering Gaussian System, Link 0=g09
 Initial command:
 /share/apps//g09/l1.exe "/scratch/Gau-34933.inp" -scrdir="/scratch/"
 Entering Link 1 = /share/apps//g09/l1.exe PID=     34934.
  
 Copyright (c) 1988,1990,1992,1993,1995,1998,2003,2009,2013,
            Gaussian, Inc.  All Rights Reserved.
  
 This is part of the Gaussian(R) 09 program.  It is based on
 the Gaussian(R) 03 system (copyright 2003, Gaussian, Inc.),
 the Gaussian(R) 98 system (copyright 1998, Gaussian, Inc.),
 the Gaussian(R) 94 system (copyright 1995, Gaussian, Inc.),
 the Gaussian 92(TM) system (copyright 1992, Gaussian, Inc.),
 the Gaussian 90(TM) system (copyright 1990, Gaussian, Inc.),
 the Gaussian 88(TM) system (copyright 1988, Gaussian, Inc.),
 the Gaussian 86(TM) system (copyright 1986, Carnegie Mellon
 University), and the Gaussian 82(TM) system (copyright 1983,
 Carnegie Mellon University). Gaussian is a federally registered
 trademark of Gaussian, Inc.
  
 This software contains proprietary and confidential information,
 including trade secrets, belonging to Gaussian, Inc.
  
 This software is provided under written license and may be
 used, copied, transmitted, or stored only in accord with that
 written license.
  
 The following legend is applicable only to US Government
 contracts under FAR:
  
                    RESTRICTED RIGHTS LEGEND
  
 Use, reproduction and disclosure by the US Government is
 subject to restrictions as set forth in subparagraphs (a)
 and (c) of the Commercial Computer Software - Restricted
 Rights clause in FAR 52.227-19.
  
 Gaussian, Inc.
 340 Quinnipiac St., Bldg. 40, Wallingford CT 06492
  
  
 ---------------------------------------------------------------
 Warning -- This program may not be used in any manner that
 competes with the business of Gaussian, Inc. or will provide
 assistance to any competitor of Gaussian, Inc.  The licensee
 of this program is prohibited from giving any competitor of
 Gaussian, Inc. access to this program.  By using this program,
 the user acknowledges that Gaussian, Inc. is engaged in the
 business of creating and licensing software in the field of
 computational chemistry and represents and warrants to the
 licensee that it is not a competitor of Gaussian, Inc. and that
 it will not use this program in any manner prohibited above.
 ---------------------------------------------------------------
  

 Cite this work as:
 Gaussian 09, Revision D.01,
 M. J. Frisch, G. W. Trucks, H. B. Schlegel, G. E. Scuseria, 
 M. A. Robb, J. R. Cheeseman, G. Scalmani, V. Barone, B. Mennucci, 
 G. A. Petersson, H. Nakatsuji, M. Caricato, X. Li, H. P. Hratchian, 
 A. F. Izmaylov, J. Bloino, G. Zheng, J. L. Sonnenberg, M. Hada, 
 M. Ehara, K. Toyota, R. Fukuda, J. Hasegawa, M. Ishida, T. Nakajima, 
 Y. Honda, O. Kitao, H. Nakai, T. Vreven, J. A. Montgomery, Jr., 
 J. E. Peralta, F. Ogliaro, M. Bearpark, J. J. Heyd, E. Brothers, 
 K. N. Kudin, V. N. Staroverov, T. Keith, R. Kobayashi, J. Normand, 
 K. Raghavachari, A. Rendell, J. C. Burant, S. S. Iyengar, J. Tomasi, 
 M. Cossi, N. Rega, J. M. Millam, M. Klene, J. E. Knox, J. B. Cross, 
 V. Bakken, C. Adamo, J. Jaramillo, R. Gomperts, R. E. Stratmann, 
 O. Yazyev, A. J. Austin, R. Cammi, C. Pomelli, J. W. Ochterski, 
 R. L. Martin, K. Morokuma, V. G. Zakrzewski, G. A. Voth, 
 P. Salvador, J. J. Dannenberg, S. Dapprich, A. D. Daniels, 
 O. Farkas, J. B. Foresman, J. V. Ortiz, J. Cioslowski, 
 and D. J. Fox, Gaussian, Inc., Wallingford CT, 2013.
 
 ******************************************
 Gaussian 09:  EM64L-G09RevD.01 24-Apr-2013
                19-May-2016 
 ******************************************
 %nproc=20
 Will use up to   20 processors via shared memory.
 %mem=80GB
 %chk=Tri_A154_of.chk
 ----------------------------------------------------------------------
 #P PBE1PBE/6-311+G(d,p) opt=ModRedundant optcyc=999 freq EmpiricalDisp
 ersion=GD3
 ----------------------------------------------------------------------
 1/6=999,14=-1,18=120,19=15,26=3,38=1/1,3;
 2/9=110,12=2,17=6,18=5,40=1/2;
 3/5=4,6=6,7=111,11=2,16=1,25=1,30=1,71=1,74=-13,124=31/1,2,3;
 4//1;
 5/5=2,38=5/2;
 6/7=2,8=2,9=2,10=2,28=1/1;
 7//1,2,3,16;
 1/6=999,14=-1,18=20,19=15,26=3/3(2);
 2/9=110/2;
 99//99;
 2/9=110/2;
 3/5=4,6=6,7=111,11=2,16=1,25=1,30=1,71=1,74=-13,124=31/1,2,3;
 4/5=5,16=3,69=1/1;
 5/5=2,38=5/2;
 7//1,2,3,16;
 1/6=999,14=-1,18=20,19=15,26=3/3(-5);
 2/9=110/2;
 6/7=2,8=2,9=2,10=2,19=2,28=1/1;
 99/9=1/99;
 Leave Link    1 at Thu May 19 11:27:49 2016, MaxMem= 10737418240 cpu:         2.0
 (Enter /share/apps//g09/l101.exe)
 -------
 disacch
 -------
 Symbolic Z-matrix:
 Charge =  1 Multiplicity = 1
 O                     2.34095   1.98374  -0.91674 
 C                     3.15726   0.89859  -1.40323 
 C                     3.08424   0.80128  -2.92787 
 C                     3.51288   2.12687  -3.55348 
 C                     2.69409   3.29368  -2.99362 
 C                     2.67073   3.27985  -1.45686 
 C                     1.67629   4.27473  -0.85468 
 O                     0.31011   4.00125  -1.20495 
 O                     1.35197   3.23911  -3.50621 
 O                     3.30684   2.13731  -4.96558 
 O                     3.96372  -0.19321  -3.42191 
 O                     2.58835  -0.24137  -0.83115 
 C                     3.41644  -1.11094  -0.03667 
 C                     3.20799  -2.53089  -0.55782 
 O                     3.59802  -2.60858  -1.93181 
 C                     1.73639  -2.90004  -0.39344 
 C                     1.30691  -2.77434   1.08336 
 O                     1.6506   -1.48667   1.62339 
 C                     3.00423  -1.0687    1.44478 
 C                     3.1254    0.30249   2.12648 
 O                     2.10467   1.24179   1.77768 
 O                    -0.07264  -2.94958   1.28968 
 C                    -0.95504  -2.0472    0.59351 
 C                    -1.86511  -2.86432  -0.32715 
 C                    -2.99195  -2.01662  -0.93592 
 C                    -3.75156  -1.27069   0.1641 
 O                    -2.79903  -0.50123   0.92781 
 C                    -1.83264  -1.30705   1.62457 
 C                    -1.08729  -0.37694   2.57588 
 O                    -0.51478   0.75207   1.90945 
 O                    -4.64795  -0.39196  -0.41628 
 C                    -5.58307   0.21218   0.51449 
 C                    -5.90255   1.62423   0.03697 
 C                    -4.66304   2.50127  -0.193 
 C                    -3.8204    2.77397   1.06237 
 C                    -2.46018   3.39115   0.75032 
 N                    -1.54701   2.4033    0.0784 
 O                    -3.80502  -2.82445  -1.78686 
 O                    -1.09953  -3.45244  -1.38667 
 O                     1.56641  -4.22359  -0.87757 
 H                     4.20925   1.03147  -1.07348 
 H                     2.02972   0.58977  -3.18908 
 H                     4.58325   2.29287  -3.32112 
 H                     3.16758   4.2419   -3.30998 
 H                     3.68281   3.57743  -1.11501 
 H                     1.95493   5.29243  -1.17716 
 H                     1.73951   4.23746   0.24195 
 H                     0.32142   3.8234   -2.17656 
 H                     1.43609   2.99581  -4.45081 
 H                     3.6662    1.29959  -5.31396 
 H                     3.72741  -1.06169  -3.0175 
 H                     4.47706  -0.82516  -0.1401 
 H                     3.83406  -3.22165   0.03928 
 H                     3.20591  -3.43971  -2.26767 
 H                     1.15525  -2.18949  -1.00319 
 H                     1.77644  -3.58168   1.67518 
 H                     3.69567  -1.7486    1.98758 
 H                     3.03482   0.15769   3.21149 
 H                     4.12822   0.71965   1.92909 
 H                     2.20672   1.50777   0.83229 
 H                    -0.38601  -1.30083   0.01665 
 H                    -2.31097  -3.67155   0.29055 
 H                    -2.55116  -1.25596  -1.60121 
 H                    -4.2598   -1.9822    0.85743 
 H                    -2.34691  -2.06407   2.25164 
 H                    -1.81029  -0.00352   3.31826 
 H                    -0.30851  -0.94687   3.09869 
 H                     0.48416   0.72947   1.91896 
 H                    -5.13804   0.22452   1.52131 
 H                    -6.49834  -0.40206   0.54535 
 H                    -6.57496   2.08699   0.77792 
 H                    -6.47031   1.56344  -0.90388 
 H                    -4.98036   3.46078  -0.631 
 H                    -4.05874   1.99905  -0.968 
 H                    -3.65804   1.84817   1.63538 
 H                    -4.35906   3.46476   1.72935 
 H                    -2.55018   4.26193   0.08534 
 H                    -1.94485   3.71329   1.66458 
 H                    -2.05876   1.87662  -0.63994 
 H                    -1.17451   1.68938   0.7839 
 H                    -0.74284   2.90606  -0.38555 
 H                    -4.40828  -3.36133  -1.23918 
 H                    -1.75206  -3.78343  -2.03506 
 H                     0.61404  -4.29615  -1.10901 
 
 The following ModRedundant input section has been read:
 
 NAtoms=     84 NQM=       84 NQMF=       0 NMMI=      0 NMMIF=      0
                NMic=       0 NMicF=      0.
                    Isotopes and Nuclear Properties:
 (Nuclear quadrupole moments (NQMom) in fm**2, nuclear magnetic moments (NMagM)
  in nuclear magnetons)

  Atom         1           2           3           4           5           6           7           8           9          10
 IAtWgt=          16          12          12          12          12          12          12          16          16          16
 AtmWgt=  15.9949146  12.0000000  12.0000000  12.0000000  12.0000000  12.0000000  12.0000000  15.9949146  15.9949146  15.9949146
 NucSpn=           0           0           0           0           0           0           0           0           0           0
 AtZEff=   0.0000000   0.0000000   0.0000000   0.0000000   0.0000000   0.0000000   0.0000000   0.0000000   0.0000000   0.0000000
 NQMom=    0.0000000   0.0000000   0.0000000   0.0000000   0.0000000   0.0000000   0.0000000   0.0000000   0.0000000   0.0000000
 NMagM=    0.0000000   0.0000000   0.0000000   0.0000000   0.0000000   0.0000000   0.0000000   0.0000000   0.0000000   0.0000000
 AtZNuc=   8.0000000   6.0000000   6.0000000   6.0000000   6.0000000   6.0000000   6.0000000   8.0000000   8.0000000   8.0000000

  Atom        11          12          13          14          15          16          17          18          19          20
 IAtWgt=          16          16          12          12          16          12          12          16          12          12
 AtmWgt=  15.9949146  15.9949146  12.0000000  12.0000000  15.9949146  12.0000000  12.0000000  15.9949146  12.0000000  12.0000000
 NucSpn=           0           0           0           0           0           0           0           0           0           0
 AtZEff=   0.0000000   0.0000000   0.0000000   0.0000000   0.0000000   0.0000000   0.0000000   0.0000000   0.0000000   0.0000000
 NQMom=    0.0000000   0.0000000   0.0000000   0.0000000   0.0000000   0.0000000   0.0000000   0.0000000   0.0000000   0.0000000
 NMagM=    0.0000000   0.0000000   0.0000000   0.0000000   0.0000000   0.0000000   0.0000000   0.0000000   0.0000000   0.0000000
 AtZNuc=   8.0000000   8.0000000   6.0000000   6.0000000   8.0000000   6.0000000   6.0000000   8.0000000   6.0000000   6.0000000

  Atom        21          22          23          24          25          26          27          28          29          30
 IAtWgt=          16          16          12          12          12          12          16          12          12          16
 AtmWgt=  15.9949146  15.9949146  12.0000000  12.0000000  12.0000000  12.0000000  15.9949146  12.0000000  12.0000000  15.9949146
 NucSpn=           0           0           0           0           0           0           0           0           0           0
 AtZEff=   0.0000000   0.0000000   0.0000000   0.0000000   0.0000000   0.0000000   0.0000000   0.0000000   0.0000000   0.0000000
 NQMom=    0.0000000   0.0000000   0.0000000   0.0000000   0.0000000   0.0000000   0.0000000   0.0000000   0.0000000   0.0000000
 NMagM=    0.0000000   0.0000000   0.0000000   0.0000000   0.0000000   0.0000000   0.0000000   0.0000000   0.0000000   0.0000000
 AtZNuc=   8.0000000   8.0000000   6.0000000   6.0000000   6.0000000   6.0000000   8.0000000   6.0000000   6.0000000   8.0000000

  Atom        31          32          33          34          35          36          37          38          39          40
 IAtWgt=          16          12          12          12          12          12          14          16          16          16
 AtmWgt=  15.9949146  12.0000000  12.0000000  12.0000000  12.0000000  12.0000000  14.0030740  15.9949146  15.9949146  15.9949146
 NucSpn=           0           0           0           0           0           0           2           0           0           0
 AtZEff=   0.0000000   0.0000000   0.0000000   0.0000000   0.0000000   0.0000000   0.0000000   0.0000000   0.0000000   0.0000000
 NQMom=    0.0000000   0.0000000   0.0000000   0.0000000   0.0000000   0.0000000   2.0440000   0.0000000   0.0000000   0.0000000
 NMagM=    0.0000000   0.0000000   0.0000000   0.0000000   0.0000000   0.0000000   0.4037610   0.0000000   0.0000000   0.0000000
 AtZNuc=   8.0000000   6.0000000   6.0000000   6.0000000   6.0000000   6.0000000   7.0000000   8.0000000   8.0000000   8.0000000

  Atom        41          42          43          44          45          46          47          48          49          50
 IAtWgt=           1           1           1           1           1           1           1           1           1           1
 AtmWgt=   1.0078250   1.0078250   1.0078250   1.0078250   1.0078250   1.0078250   1.0078250   1.0078250   1.0078250   1.0078250
 NucSpn=           1           1           1           1           1           1           1           1           1           1
 AtZEff=   0.0000000   0.0000000   0.0000000   0.0000000   0.0000000   0.0000000   0.0000000   0.0000000   0.0000000   0.0000000
 NQMom=    0.0000000   0.0000000   0.0000000   0.0000000   0.0000000   0.0000000   0.0000000   0.0000000   0.0000000   0.0000000
 NMagM=    2.7928460   2.7928460   2.7928460   2.7928460   2.7928460   2.7928460   2.7928460   2.7928460   2.7928460   2.7928460
 AtZNuc=   1.0000000   1.0000000   1.0000000   1.0000000   1.0000000   1.0000000   1.0000000   1.0000000   1.0000000   1.0000000

  Atom        51          52          53          54          55          56          57          58          59          60
 IAtWgt=           1           1           1           1           1           1           1           1           1           1
 AtmWgt=   1.0078250   1.0078250   1.0078250   1.0078250   1.0078250   1.0078250   1.0078250   1.0078250   1.0078250   1.0078250
 NucSpn=           1           1           1           1           1           1           1           1           1           1
 AtZEff=   0.0000000   0.0000000   0.0000000   0.0000000   0.0000000   0.0000000   0.0000000   0.0000000   0.0000000   0.0000000
 NQMom=    0.0000000   0.0000000   0.0000000   0.0000000   0.0000000   0.0000000   0.0000000   0.0000000   0.0000000   0.0000000
 NMagM=    2.7928460   2.7928460   2.7928460   2.7928460   2.7928460   2.7928460   2.7928460   2.7928460   2.7928460   2.7928460
 AtZNuc=   1.0000000   1.0000000   1.0000000   1.0000000   1.0000000   1.0000000   1.0000000   1.0000000   1.0000000   1.0000000

  Atom        61          62          63          64          65          66          67          68          69          70
 IAtWgt=           1           1           1           1           1           1           1           1           1           1
 AtmWgt=   1.0078250   1.0078250   1.0078250   1.0078250   1.0078250   1.0078250   1.0078250   1.0078250   1.0078250   1.0078250
 NucSpn=           1           1           1           1           1           1           1           1           1           1
 AtZEff=   0.0000000   0.0000000   0.0000000   0.0000000   0.0000000   0.0000000   0.0000000   0.0000000   0.0000000   0.0000000
 NQMom=    0.0000000   0.0000000   0.0000000   0.0000000   0.0000000   0.0000000   0.0000000   0.0000000   0.0000000   0.0000000
 NMagM=    2.7928460   2.7928460   2.7928460   2.7928460   2.7928460   2.7928460   2.7928460   2.7928460   2.7928460   2.7928460
 AtZNuc=   1.0000000   1.0000000   1.0000000   1.0000000   1.0000000   1.0000000   1.0000000   1.0000000   1.0000000   1.0000000

  Atom        71          72          73          74          75          76          77          78          79          80
 IAtWgt=           1           1           1           1           1           1           1           1           1           1
 AtmWgt=   1.0078250   1.0078250   1.0078250   1.0078250   1.0078250   1.0078250   1.0078250   1.0078250   1.0078250   1.0078250
 NucSpn=           1           1           1           1           1           1           1           1           1           1
 AtZEff=   0.0000000   0.0000000   0.0000000   0.0000000   0.0000000   0.0000000   0.0000000   0.0000000   0.0000000   0.0000000
 NQMom=    0.0000000   0.0000000   0.0000000   0.0000000   0.0000000   0.0000000   0.0000000   0.0000000   0.0000000   0.0000000
 NMagM=    2.7928460   2.7928460   2.7928460   2.7928460   2.7928460   2.7928460   2.7928460   2.7928460   2.7928460   2.7928460
 AtZNuc=   1.0000000   1.0000000   1.0000000   1.0000000   1.0000000   1.0000000   1.0000000   1.0000000   1.0000000   1.0000000

  Atom        81          82          83          84
 IAtWgt=           1           1           1           1
 AtmWgt=   1.0078250   1.0078250   1.0078250   1.0078250
 NucSpn=           1           1           1           1
 AtZEff=   0.0000000   0.0000000   0.0000000   0.0000000
 NQMom=    0.0000000   0.0000000   0.0000000   0.0000000
 NMagM=    2.7928460   2.7928460   2.7928460   2.7928460
 AtZNuc=   1.0000000   1.0000000   1.0000000   1.0000000
 Leave Link  101 at Thu May 19 11:27:50 2016, MaxMem= 10737418240 cpu:         3.7
 (Enter /share/apps//g09/l103.exe)

 GradGradGradGradGradGradGradGradGradGradGradGradGradGradGradGradGradGrad
 Berny optimization.
 Initialization pass.
                           ----------------------------
                           !    Initial Parameters    !
                           ! (Angstroms and Degrees)  !
 --------------------------                            --------------------------
 ! Name  Definition              Value          Derivative Info.                !
 --------------------------------------------------------------------------------
 ! R1    R(1,2)                  1.4424         estimate D2E/DX2                !
 ! R2    R(1,6)                  1.4424         estimate D2E/DX2                !
 ! R3    R(2,3)                  1.5295         estimate D2E/DX2                !
 ! R4    R(2,12)                 1.3966         estimate D2E/DX2                !
 ! R5    R(2,41)                 1.1104         estimate D2E/DX2                !
 ! R6    R(3,4)                  1.5272         estimate D2E/DX2                !
 ! R7    R(3,11)                 1.4165         estimate D2E/DX2                !
 ! R8    R(3,42)                 1.1068         estimate D2E/DX2                !
 ! R9    R(4,5)                  1.5314         estimate D2E/DX2                !
 ! R10   R(4,10)                 1.4271         estimate D2E/DX2                !
 ! R11   R(4,43)                 1.1078         estimate D2E/DX2                !
 ! R12   R(5,6)                  1.537          estimate D2E/DX2                !
 ! R13   R(5,9)                  1.4377         estimate D2E/DX2                !
 ! R14   R(5,44)                 1.1061         estimate D2E/DX2                !
 ! R15   R(6,7)                  1.5301         estimate D2E/DX2                !
 ! R16   R(6,45)                 1.1089         estimate D2E/DX2                !
 ! R17   R(7,8)                  1.4366         estimate D2E/DX2                !
 ! R18   R(7,46)                 1.1033         estimate D2E/DX2                !
 ! R19   R(7,47)                 1.0991         estimate D2E/DX2                !
 ! R20   R(8,48)                 0.9878         estimate D2E/DX2                !
 ! R21   R(9,49)                 0.9791         estimate D2E/DX2                !
 ! R22   R(10,50)                0.9758         estimate D2E/DX2                !
 ! R23   R(11,51)                0.9867         estimate D2E/DX2                !
 ! R24   R(12,13)                1.4398         estimate D2E/DX2                !
 ! R25   R(13,14)                1.5269         estimate D2E/DX2                !
 ! R26   R(13,19)                1.5383         estimate D2E/DX2                !
 ! R27   R(13,52)                1.1033         estimate D2E/DX2                !
 ! R28   R(14,15)                1.4304         estimate D2E/DX2                !
 ! R29   R(14,16)                1.5261         estimate D2E/DX2                !
 ! R30   R(14,53)                1.1071         estimate D2E/DX2                !
 ! R31   R(15,54)                0.9784         estimate D2E/DX2                !
 ! R32   R(16,17)                1.5431         estimate D2E/DX2                !
 ! R33   R(16,40)                1.4195         estimate D2E/DX2                !
 ! R34   R(16,55)                1.102          estimate D2E/DX2                !
 ! R35   R(17,18)                1.438          estimate D2E/DX2                !
 ! R36   R(17,22)                1.4059         estimate D2E/DX2                !
 ! R37   R(17,56)                1.1057         estimate D2E/DX2                !
 ! R38   R(18,19)                1.4279         estimate D2E/DX2                !
 ! R39   R(19,20)                1.5361         estimate D2E/DX2                !
 ! R40   R(19,57)                1.1113         estimate D2E/DX2                !
 ! R41   R(20,21)                1.4303         estimate D2E/DX2                !
 ! R42   R(20,58)                1.0984         estimate D2E/DX2                !
 ! R43   R(20,59)                1.1039         estimate D2E/DX2                !
 ! R44   R(21,60)                0.9874         estimate D2E/DX2                !
 ! R45   R(22,23)                1.4414         estimate D2E/DX2                !
 ! R46   R(23,24)                1.5309         estimate D2E/DX2                !
 ! R47   R(23,28)                1.5431         estimate D2E/DX2                !
 ! R48   R(23,61)                1.1016         estimate D2E/DX2                !
 ! R49   R(24,25)                1.5359         estimate D2E/DX2                !
 ! R50   R(24,39)                1.4334         estimate D2E/DX2                !
 ! R51   R(24,62)                1.1099         estimate D2E/DX2                !
 ! R52   R(25,26)                1.5308         estimate D2E/DX2                !
 ! R53   R(25,38)                1.4275         estimate D2E/DX2                !
 ! R54   R(25,63)                1.1025         estimate D2E/DX2                !
 ! R55   R(26,27)                1.4431         estimate D2E/DX2                !
 ! R56   R(26,31)                1.3829         estimate D2E/DX2                !
 ! R57   R(26,64)                1.1159         estimate D2E/DX2                !
 ! R58   R(27,28)                1.4383         estimate D2E/DX2                !
 ! R59   R(28,29)                1.525          estimate D2E/DX2                !
 ! R60   R(28,65)                1.1094         estimate D2E/DX2                !
 ! R61   R(29,30)                1.4306         estimate D2E/DX2                !
 ! R62   R(29,66)                1.1015         estimate D2E/DX2                !
 ! R63   R(29,67)                1.0976         estimate D2E/DX2                !
 ! R64   R(30,68)                0.9992         estimate D2E/DX2                !
 ! R65   R(31,32)                1.4511         estimate D2E/DX2                !
 ! R66   R(32,33)                1.5245         estimate D2E/DX2                !
 ! R67   R(32,69)                1.1009         estimate D2E/DX2                !
 ! R68   R(32,70)                1.1027         estimate D2E/DX2                !
 ! R69   R(33,34)                1.5357         estimate D2E/DX2                !
 ! R70   R(33,71)                1.1024         estimate D2E/DX2                !
 ! R71   R(33,72)                1.1006         estimate D2E/DX2                !
 ! R72   R(34,35)                1.5363         estimate D2E/DX2                !
 ! R73   R(34,73)                1.1015         estimate D2E/DX2                !
 ! R74   R(34,74)                1.1036         estimate D2E/DX2                !
 ! R75   R(35,36)                1.5259         estimate D2E/DX2                !
 ! R76   R(35,75)                1.1008         estimate D2E/DX2                !
 ! R77   R(35,76)                1.101          estimate D2E/DX2                !
 ! R78   R(36,37)                1.5037         estimate D2E/DX2                !
 ! R79   R(36,77)                1.0993         estimate D2E/DX2                !
 ! R80   R(36,78)                1.0978         estimate D2E/DX2                !
 ! R81   R(37,79)                1.0273         estimate D2E/DX2                !
 ! R82   R(37,80)                1.0706         estimate D2E/DX2                !
 ! R83   R(37,81)                1.0558         estimate D2E/DX2                !
 ! R84   R(38,82)                0.9758         estimate D2E/DX2                !
 ! R85   R(39,83)                0.9776         estimate D2E/DX2                !
 ! R86   R(40,84)                0.9828         estimate D2E/DX2                !
 ! A1    A(2,1,6)              114.856          estimate D2E/DX2                !
 ! A2    A(1,2,3)              110.9191         estimate D2E/DX2                !
 ! A3    A(1,2,12)             104.2043         estimate D2E/DX2                !
 ! A4    A(1,2,41)             110.2405         estimate D2E/DX2                !
 ! A5    A(3,2,12)             109.6912         estimate D2E/DX2                !
 ! A6    A(3,2,41)             110.4173         estimate D2E/DX2                !
 ! A7    A(12,2,41)            111.2201         estimate D2E/DX2                !
 ! A8    A(2,3,4)              109.8602         estimate D2E/DX2                !
 ! A9    A(2,3,11)             111.2653         estimate D2E/DX2                !
 ! A10   A(2,3,42)             107.0319         estimate D2E/DX2                !
 ! A11   A(4,3,11)             106.9927         estimate D2E/DX2                !
 ! A12   A(4,3,42)             109.6707         estimate D2E/DX2                !
 ! A13   A(11,3,42)            112.0287         estimate D2E/DX2                !
 ! A14   A(3,4,5)              111.1928         estimate D2E/DX2                !
 ! A15   A(3,4,10)             111.7879         estimate D2E/DX2                !
 ! A16   A(3,4,43)             108.3807         estimate D2E/DX2                !
 ! A17   A(5,4,10)             106.1988         estimate D2E/DX2                !
 ! A18   A(5,4,43)             109.0103         estimate D2E/DX2                !
 ! A19   A(10,4,43)            110.2396         estimate D2E/DX2                !
 ! A20   A(4,5,6)              111.5178         estimate D2E/DX2                !
 ! A21   A(4,5,9)              109.8675         estimate D2E/DX2                !
 ! A22   A(4,5,44)             108.6466         estimate D2E/DX2                !
 ! A23   A(6,5,9)              109.9955         estimate D2E/DX2                !
 ! A24   A(6,5,44)             107.4694         estimate D2E/DX2                !
 ! A25   A(9,5,44)             109.2799         estimate D2E/DX2                !
 ! A26   A(1,6,5)              112.7042         estimate D2E/DX2                !
 ! A27   A(1,6,7)              106.7562         estimate D2E/DX2                !
 ! A28   A(1,6,45)             109.5345         estimate D2E/DX2                !
 ! A29   A(5,6,7)              113.4227         estimate D2E/DX2                !
 ! A30   A(5,6,45)             106.974          estimate D2E/DX2                !
 ! A31   A(7,6,45)             107.2983         estimate D2E/DX2                !
 ! A32   A(6,7,8)              113.4724         estimate D2E/DX2                !
 ! A33   A(6,7,46)             108.6976         estimate D2E/DX2                !
 ! A34   A(6,7,47)             109.4654         estimate D2E/DX2                !
 ! A35   A(8,7,46)             110.1503         estimate D2E/DX2                !
 ! A36   A(8,7,47)             106.9485         estimate D2E/DX2                !
 ! A37   A(46,7,47)            107.9615         estimate D2E/DX2                !
 ! A38   A(7,8,48)             105.2599         estimate D2E/DX2                !
 ! A39   A(5,9,49)             105.8555         estimate D2E/DX2                !
 ! A40   A(4,10,50)            107.0858         estimate D2E/DX2                !
 ! A41   A(3,11,51)            109.0437         estimate D2E/DX2                !
 ! A42   A(2,12,13)            118.9936         estimate D2E/DX2                !
 ! A43   A(12,13,14)           107.1455         estimate D2E/DX2                !
 ! A44   A(12,13,19)           111.143          estimate D2E/DX2                !
 ! A45   A(12,13,52)           110.1647         estimate D2E/DX2                !
 ! A46   A(14,13,19)           108.5214         estimate D2E/DX2                !
 ! A47   A(14,13,52)           109.8846         estimate D2E/DX2                !
 ! A48   A(19,13,52)           109.9234         estimate D2E/DX2                !
 ! A49   A(13,14,15)           109.9468         estimate D2E/DX2                !
 ! A50   A(13,14,16)           108.6533         estimate D2E/DX2                !
 ! A51   A(13,14,53)           108.6001         estimate D2E/DX2                !
 ! A52   A(15,14,16)           110.6875         estimate D2E/DX2                !
 ! A53   A(15,14,53)           109.2681         estimate D2E/DX2                !
 ! A54   A(16,14,53)           109.6517         estimate D2E/DX2                !
 ! A55   A(14,15,54)           105.4615         estimate D2E/DX2                !
 ! A56   A(14,16,17)           110.5955         estimate D2E/DX2                !
 ! A57   A(14,16,40)           107.7145         estimate D2E/DX2                !
 ! A58   A(14,16,55)           107.0351         estimate D2E/DX2                !
 ! A59   A(17,16,40)           111.6551         estimate D2E/DX2                !
 ! A60   A(17,16,55)           109.2833         estimate D2E/DX2                !
 ! A61   A(40,16,55)           110.4465         estimate D2E/DX2                !
 ! A62   A(16,17,18)           111.4585         estimate D2E/DX2                !
 ! A63   A(16,17,22)           113.7915         estimate D2E/DX2                !
 ! A64   A(16,17,56)           109.5474         estimate D2E/DX2                !
 ! A65   A(18,17,22)           106.9201         estimate D2E/DX2                !
 ! A66   A(18,17,56)           110.5693         estimate D2E/DX2                !
 ! A67   A(22,17,56)           104.3083         estimate D2E/DX2                !
 ! A68   A(17,18,19)           116.2132         estimate D2E/DX2                !
 ! A69   A(13,19,18)           111.4968         estimate D2E/DX2                !
 ! A70   A(13,19,20)           115.5158         estimate D2E/DX2                !
 ! A71   A(13,19,57)           106.6701         estimate D2E/DX2                !
 ! A72   A(18,19,20)           106.2937         estimate D2E/DX2                !
 ! A73   A(18,19,57)           110.4656         estimate D2E/DX2                !
 ! A74   A(20,19,57)           106.2773         estimate D2E/DX2                !
 ! A75   A(19,20,21)           114.9414         estimate D2E/DX2                !
 ! A76   A(19,20,58)           108.3129         estimate D2E/DX2                !
 ! A77   A(19,20,59)           109.2463         estimate D2E/DX2                !
 ! A78   A(21,20,58)           105.582          estimate D2E/DX2                !
 ! A79   A(21,20,59)           110.8862         estimate D2E/DX2                !
 ! A80   A(58,20,59)           107.5397         estimate D2E/DX2                !
 ! A81   A(20,21,60)           109.672          estimate D2E/DX2                !
 ! A82   A(17,22,23)           116.8603         estimate D2E/DX2                !
 ! A83   A(22,23,24)           108.6776         estimate D2E/DX2                !
 ! A84   A(22,23,28)           109.0104         estimate D2E/DX2                !
 ! A85   A(22,23,61)           111.1524         estimate D2E/DX2                !
 ! A86   A(24,23,28)           108.649          estimate D2E/DX2                !
 ! A87   A(24,23,61)           110.7187         estimate D2E/DX2                !
 ! A88   A(28,23,61)           108.5831         estimate D2E/DX2                !
 ! A89   A(23,24,25)           112.3293         estimate D2E/DX2                !
 ! A90   A(23,24,39)           110.2446         estimate D2E/DX2                !
 ! A91   A(23,24,62)           106.9961         estimate D2E/DX2                !
 ! A92   A(25,24,39)           108.9859         estimate D2E/DX2                !
 ! A93   A(25,24,62)           109.1032         estimate D2E/DX2                !
 ! A94   A(39,24,62)           109.1178         estimate D2E/DX2                !
 ! A95   A(24,25,26)           110.3756         estimate D2E/DX2                !
 ! A96   A(24,25,38)           109.9875         estimate D2E/DX2                !
 ! A97   A(24,25,63)           109.0654         estimate D2E/DX2                !
 ! A98   A(26,25,38)           114.9272         estimate D2E/DX2                !
 ! A99   A(26,25,63)           107.2064         estimate D2E/DX2                !
 ! A100  A(38,25,63)           104.9781         estimate D2E/DX2                !
 ! A101  A(25,26,27)           108.2136         estimate D2E/DX2                !
 ! A102  A(25,26,31)           109.2493         estimate D2E/DX2                !
 ! A103  A(25,26,64)           111.2089         estimate D2E/DX2                !
 ! A104  A(27,26,31)           108.127          estimate D2E/DX2                !
 ! A105  A(27,26,64)           108.1664         estimate D2E/DX2                !
 ! A106  A(31,26,64)           111.7572         estimate D2E/DX2                !
 ! A107  A(26,27,28)           113.6482         estimate D2E/DX2                !
 ! A108  A(23,28,27)           109.0972         estimate D2E/DX2                !
 ! A109  A(23,28,29)           115.5561         estimate D2E/DX2                !
 ! A110  A(23,28,65)           108.3014         estimate D2E/DX2                !
 ! A111  A(27,28,29)           106.7908         estimate D2E/DX2                !
 ! A112  A(27,28,65)           110.1608         estimate D2E/DX2                !
 ! A113  A(29,28,65)           106.8668         estimate D2E/DX2                !
 ! A114  A(28,29,30)           112.7266         estimate D2E/DX2                !
 ! A115  A(28,29,66)           107.8417         estimate D2E/DX2                !
 ! A116  A(28,29,67)           109.1009         estimate D2E/DX2                !
 ! A117  A(30,29,66)           108.005          estimate D2E/DX2                !
 ! A118  A(30,29,67)           110.3495         estimate D2E/DX2                !
 ! A119  A(66,29,67)           108.7074         estimate D2E/DX2                !
 ! A120  A(29,30,68)           112.1969         estimate D2E/DX2                !
 ! A121  A(26,31,32)           114.3963         estimate D2E/DX2                !
 ! A122  A(31,32,33)           108.6484         estimate D2E/DX2                !
 ! A123  A(31,32,69)           109.3161         estimate D2E/DX2                !
 ! A124  A(31,32,70)           108.7185         estimate D2E/DX2                !
 ! A125  A(33,32,69)           111.1504         estimate D2E/DX2                !
 ! A126  A(33,32,70)           110.5347         estimate D2E/DX2                !
 ! A127  A(69,32,70)           108.4327         estimate D2E/DX2                !
 ! A128  A(32,33,34)           114.0001         estimate D2E/DX2                !
 ! A129  A(32,33,71)           107.8251         estimate D2E/DX2                !
 ! A130  A(32,33,72)           108.9493         estimate D2E/DX2                !
 ! A131  A(34,33,71)           110.6843         estimate D2E/DX2                !
 ! A132  A(34,33,72)           108.6571         estimate D2E/DX2                !
 ! A133  A(71,33,72)           106.4459         estimate D2E/DX2                !
 ! A134  A(33,34,35)           114.9411         estimate D2E/DX2                !
 ! A135  A(33,34,73)           108.9364         estimate D2E/DX2                !
 ! A136  A(33,34,74)           106.6911         estimate D2E/DX2                !
 ! A137  A(35,34,73)           109.1666         estimate D2E/DX2                !
 ! A138  A(35,34,74)           110.7475         estimate D2E/DX2                !
 ! A139  A(73,34,74)           105.9571         estimate D2E/DX2                !
 ! A140  A(34,35,36)           113.1787         estimate D2E/DX2                !
 ! A141  A(34,35,75)           110.9129         estimate D2E/DX2                !
 ! A142  A(34,35,76)           109.757          estimate D2E/DX2                !
 ! A143  A(36,35,75)           108.3686         estimate D2E/DX2                !
 ! A144  A(36,35,76)           107.8322         estimate D2E/DX2                !
 ! A145  A(75,35,76)           106.5284         estimate D2E/DX2                !
 ! A146  A(35,36,37)           111.5303         estimate D2E/DX2                !
 ! A147  A(35,36,77)           111.7829         estimate D2E/DX2                !
 ! A148  A(35,36,78)           111.5191         estimate D2E/DX2                !
 ! A149  A(37,36,77)           107.4444         estimate D2E/DX2                !
 ! A150  A(37,36,78)           106.2501         estimate D2E/DX2                !
 ! A151  A(77,36,78)           108.0441         estimate D2E/DX2                !
 ! A152  A(36,37,79)           110.2884         estimate D2E/DX2                !
 ! A153  A(36,37,80)           110.7879         estimate D2E/DX2                !
 ! A154  A(36,37,81)           110.247          estimate D2E/DX2                !
 ! A155  A(79,37,80)           106.9924         estimate D2E/DX2                !
 ! A156  A(79,37,81)           108.4392         estimate D2E/DX2                !
 ! A157  A(80,37,81)           110.0053         estimate D2E/DX2                !
 ! A158  A(25,38,82)           109.2033         estimate D2E/DX2                !
 ! A159  A(24,39,83)           105.8225         estimate D2E/DX2                !
 ! A160  A(16,40,84)           105.3786         estimate D2E/DX2                !
 ! D1    D(6,1,2,3)            -57.5091         estimate D2E/DX2                !
 ! D2    D(6,1,2,12)          -175.4693         estimate D2E/DX2                !
 ! D3    D(6,1,2,41)            65.1064         estimate D2E/DX2                !
 ! D4    D(2,1,6,5)             53.2106         estimate D2E/DX2                !
 ! D5    D(2,1,6,7)            178.3791         estimate D2E/DX2                !
 ! D6    D(2,1,6,45)           -65.7515         estimate D2E/DX2                !
 ! D7    D(1,2,3,4)             57.0922         estimate D2E/DX2                !
 ! D8    D(1,2,3,11)           175.3872         estimate D2E/DX2                !
 ! D9    D(1,2,3,42)           -61.9183         estimate D2E/DX2                !
 ! D10   D(12,2,3,4)           171.6625         estimate D2E/DX2                !
 ! D11   D(12,2,3,11)          -70.0425         estimate D2E/DX2                !
 ! D12   D(12,2,3,42)           52.652          estimate D2E/DX2                !
 ! D13   D(41,2,3,4)           -65.4207         estimate D2E/DX2                !
 ! D14   D(41,2,3,11)           52.8743         estimate D2E/DX2                !
 ! D15   D(41,2,3,42)          175.5688         estimate D2E/DX2                !
 ! D16   D(1,2,12,13)         -124.052          estimate D2E/DX2                !
 ! D17   D(3,2,12,13)          117.1468         estimate D2E/DX2                !
 ! D18   D(41,2,12,13)          -5.2941         estimate D2E/DX2                !
 ! D19   D(2,3,4,5)            -54.4234         estimate D2E/DX2                !
 ! D20   D(2,3,4,10)          -172.9268         estimate D2E/DX2                !
 ! D21   D(2,3,4,43)            65.3772         estimate D2E/DX2                !
 ! D22   D(11,3,4,5)          -175.3279         estimate D2E/DX2                !
 ! D23   D(11,3,4,10)           66.1687         estimate D2E/DX2                !
 ! D24   D(11,3,4,43)          -55.5273         estimate D2E/DX2                !
 ! D25   D(42,3,4,5)            62.9541         estimate D2E/DX2                !
 ! D26   D(42,3,4,10)          -55.5494         estimate D2E/DX2                !
 ! D27   D(42,3,4,43)         -177.2453         estimate D2E/DX2                !
 ! D28   D(2,3,11,51)           58.5622         estimate D2E/DX2                !
 ! D29   D(4,3,11,51)          178.5702         estimate D2E/DX2                !
 ! D30   D(42,3,11,51)         -61.2083         estimate D2E/DX2                !
 ! D31   D(3,4,5,6)             50.2829         estimate D2E/DX2                !
 ! D32   D(3,4,5,9)            -71.9456         estimate D2E/DX2                !
 ! D33   D(3,4,5,44)           168.5516         estimate D2E/DX2                !
 ! D34   D(10,4,5,6)           172.0988         estimate D2E/DX2                !
 ! D35   D(10,4,5,9)            49.8702         estimate D2E/DX2                !
 ! D36   D(10,4,5,44)          -69.6326         estimate D2E/DX2                !
 ! D37   D(43,4,5,6)           -69.1428         estimate D2E/DX2                !
 ! D38   D(43,4,5,9)           168.6286         estimate D2E/DX2                !
 ! D39   D(43,4,5,44)           49.1259         estimate D2E/DX2                !
 ! D40   D(3,4,10,50)          -47.0663         estimate D2E/DX2                !
 ! D41   D(5,4,10,50)         -168.5016         estimate D2E/DX2                !
 ! D42   D(43,4,10,50)          73.5523         estimate D2E/DX2                !
 ! D43   D(4,5,6,1)            -48.6413         estimate D2E/DX2                !
 ! D44   D(4,5,6,7)           -170.0968         estimate D2E/DX2                !
 ! D45   D(4,5,6,45)            71.8015         estimate D2E/DX2                !
 ! D46   D(9,5,6,1)             73.5135         estimate D2E/DX2                !
 ! D47   D(9,5,6,7)            -47.9419         estimate D2E/DX2                !
 ! D48   D(9,5,6,45)          -166.0437         estimate D2E/DX2                !
 ! D49   D(44,5,6,1)          -167.6134         estimate D2E/DX2                !
 ! D50   D(44,5,6,7)            70.9311         estimate D2E/DX2                !
 ! D51   D(44,5,6,45)          -47.1706         estimate D2E/DX2                !
 ! D52   D(4,5,9,49)           -41.1875         estimate D2E/DX2                !
 ! D53   D(6,5,9,49)          -164.3155         estimate D2E/DX2                !
 ! D54   D(44,5,9,49)           77.9276         estimate D2E/DX2                !
 ! D55   D(1,6,7,8)            -62.0238         estimate D2E/DX2                !
 ! D56   D(1,6,7,46)           175.0577         estimate D2E/DX2                !
 ! D57   D(1,6,7,47)            57.3532         estimate D2E/DX2                !
 ! D58   D(5,6,7,8)             62.7069         estimate D2E/DX2                !
 ! D59   D(5,6,7,46)           -60.2116         estimate D2E/DX2                !
 ! D60   D(5,6,7,47)          -177.9161         estimate D2E/DX2                !
 ! D61   D(45,6,7,8)          -179.3793         estimate D2E/DX2                !
 ! D62   D(45,6,7,46)           57.7021         estimate D2E/DX2                !
 ! D63   D(45,6,7,47)          -60.0023         estimate D2E/DX2                !
 ! D64   D(6,7,8,48)           -45.8455         estimate D2E/DX2                !
 ! D65   D(46,7,8,48)           76.2695         estimate D2E/DX2                !
 ! D66   D(47,7,8,48)         -166.6512         estimate D2E/DX2                !
 ! D67   D(2,12,13,14)        -129.5325         estimate D2E/DX2                !
 ! D68   D(2,12,13,19)         112.0603         estimate D2E/DX2                !
 ! D69   D(2,12,13,52)         -10.0286         estimate D2E/DX2                !
 ! D70   D(12,13,14,15)         60.5977         estimate D2E/DX2                !
 ! D71   D(12,13,14,16)        -60.6785         estimate D2E/DX2                !
 ! D72   D(12,13,14,53)       -179.8952         estimate D2E/DX2                !
 ! D73   D(19,13,14,15)       -179.3066         estimate D2E/DX2                !
 ! D74   D(19,13,14,16)         59.4172         estimate D2E/DX2                !
 ! D75   D(19,13,14,53)        -59.7995         estimate D2E/DX2                !
 ! D76   D(52,13,14,15)        -59.0859         estimate D2E/DX2                !
 ! D77   D(52,13,14,16)        179.638          estimate D2E/DX2                !
 ! D78   D(52,13,14,53)         60.4213         estimate D2E/DX2                !
 ! D79   D(12,13,19,18)         60.1761         estimate D2E/DX2                !
 ! D80   D(12,13,19,20)        -61.2979         estimate D2E/DX2                !
 ! D81   D(12,13,19,57)       -179.1463         estimate D2E/DX2                !
 ! D82   D(14,13,19,18)        -57.3983         estimate D2E/DX2                !
 ! D83   D(14,13,19,20)       -178.8723         estimate D2E/DX2                !
 ! D84   D(14,13,19,57)         63.2793         estimate D2E/DX2                !
 ! D85   D(52,13,19,18)       -177.5949         estimate D2E/DX2                !
 ! D86   D(52,13,19,20)         60.931          estimate D2E/DX2                !
 ! D87   D(52,13,19,57)        -56.9174         estimate D2E/DX2                !
 ! D88   D(13,14,15,54)       -164.0013         estimate D2E/DX2                !
 ! D89   D(16,14,15,54)        -43.9517         estimate D2E/DX2                !
 ! D90   D(53,14,15,54)         76.8999         estimate D2E/DX2                !
 ! D91   D(13,14,16,17)        -57.4707         estimate D2E/DX2                !
 ! D92   D(13,14,16,40)       -179.7379         estimate D2E/DX2                !
 ! D93   D(13,14,16,55)         61.4839         estimate D2E/DX2                !
 ! D94   D(15,14,16,17)       -178.2914         estimate D2E/DX2                !
 ! D95   D(15,14,16,40)         59.4414         estimate D2E/DX2                !
 ! D96   D(15,14,16,55)        -59.3368         estimate D2E/DX2                !
 ! D97   D(53,14,16,17)         61.085          estimate D2E/DX2                !
 ! D98   D(53,14,16,40)        -61.1822         estimate D2E/DX2                !
 ! D99   D(53,14,16,55)       -179.9604         estimate D2E/DX2                !
 ! D100  D(14,16,17,18)         52.0875         estimate D2E/DX2                !
 ! D101  D(14,16,17,22)        173.0885         estimate D2E/DX2                !
 ! D102  D(14,16,17,56)        -70.6068         estimate D2E/DX2                !
 ! D103  D(40,16,17,18)        172.017          estimate D2E/DX2                !
 ! D104  D(40,16,17,22)        -66.982          estimate D2E/DX2                !
 ! D105  D(40,16,17,56)         49.3227         estimate D2E/DX2                !
 ! D106  D(55,16,17,18)        -65.4957         estimate D2E/DX2                !
 ! D107  D(55,16,17,22)         55.5053         estimate D2E/DX2                !
 ! D108  D(55,16,17,56)        171.81           estimate D2E/DX2                !
 ! D109  D(14,16,40,84)       -157.1303         estimate D2E/DX2                !
 ! D110  D(17,16,40,84)         81.2592         estimate D2E/DX2                !
 ! D111  D(55,16,40,84)        -40.5595         estimate D2E/DX2                !
 ! D112  D(16,17,18,19)        -51.3667         estimate D2E/DX2                !
 ! D113  D(22,17,18,19)       -176.3015         estimate D2E/DX2                !
 ! D114  D(56,17,18,19)         70.7397         estimate D2E/DX2                !
 ! D115  D(16,17,22,23)        -58.7793         estimate D2E/DX2                !
 ! D116  D(18,17,22,23)         64.7257         estimate D2E/DX2                !
 ! D117  D(56,17,22,23)       -178.1076         estimate D2E/DX2                !
 ! D118  D(17,18,19,13)         54.5566         estimate D2E/DX2                !
 ! D119  D(17,18,19,20)       -178.7553         estimate D2E/DX2                !
 ! D120  D(17,18,19,57)        -63.8718         estimate D2E/DX2                !
 ! D121  D(13,19,20,21)         75.3301         estimate D2E/DX2                !
 ! D122  D(13,19,20,58)       -166.8969         estimate D2E/DX2                !
 ! D123  D(13,19,20,59)        -50.0382         estimate D2E/DX2                !
 ! D124  D(18,19,20,21)        -48.9031         estimate D2E/DX2                !
 ! D125  D(18,19,20,58)         68.8699         estimate D2E/DX2                !
 ! D126  D(18,19,20,59)       -174.2714         estimate D2E/DX2                !
 ! D127  D(57,19,20,21)       -166.6027         estimate D2E/DX2                !
 ! D128  D(57,19,20,58)        -48.8297         estimate D2E/DX2                !
 ! D129  D(57,19,20,59)         68.029          estimate D2E/DX2                !
 ! D130  D(19,20,21,60)        -68.1149         estimate D2E/DX2                !
 ! D131  D(58,20,21,60)        172.5816         estimate D2E/DX2                !
 ! D132  D(59,20,21,60)         56.396          estimate D2E/DX2                !
 ! D133  D(17,22,23,24)        119.5609         estimate D2E/DX2                !
 ! D134  D(17,22,23,28)       -122.1784         estimate D2E/DX2                !
 ! D135  D(17,22,23,61)         -2.5272         estimate D2E/DX2                !
 ! D136  D(22,23,24,25)        170.5676         estimate D2E/DX2                !
 ! D137  D(22,23,24,39)        -67.6734         estimate D2E/DX2                !
 ! D138  D(22,23,24,62)         50.865          estimate D2E/DX2                !
 ! D139  D(28,23,24,25)         52.0787         estimate D2E/DX2                !
 ! D140  D(28,23,24,39)        173.8376         estimate D2E/DX2                !
 ! D141  D(28,23,24,62)        -67.624          estimate D2E/DX2                !
 ! D142  D(61,23,24,25)        -67.081          estimate D2E/DX2                !
 ! D143  D(61,23,24,39)         54.6779         estimate D2E/DX2                !
 ! D144  D(61,23,24,62)        173.2163         estimate D2E/DX2                !
 ! D145  D(22,23,28,27)       -174.6125         estimate D2E/DX2                !
 ! D146  D(22,23,28,29)         65.0952         estimate D2E/DX2                !
 ! D147  D(22,23,28,65)        -54.7002         estimate D2E/DX2                !
 ! D148  D(24,23,28,27)        -56.3338         estimate D2E/DX2                !
 ! D149  D(24,23,28,29)       -176.6261         estimate D2E/DX2                !
 ! D150  D(24,23,28,65)         63.5785         estimate D2E/DX2                !
 ! D151  D(61,23,28,27)         64.1563         estimate D2E/DX2                !
 ! D152  D(61,23,28,29)        -56.136          estimate D2E/DX2                !
 ! D153  D(61,23,28,65)       -175.9315         estimate D2E/DX2                !
 ! D154  D(23,24,25,26)        -52.3621         estimate D2E/DX2                !
 ! D155  D(23,24,25,38)        179.7945         estimate D2E/DX2                !
 ! D156  D(23,24,25,63)         65.1693         estimate D2E/DX2                !
 ! D157  D(39,24,25,26)       -174.8357         estimate D2E/DX2                !
 ! D158  D(39,24,25,38)         57.3209         estimate D2E/DX2                !
 ! D159  D(39,24,25,63)        -57.3043         estimate D2E/DX2                !
 ! D160  D(62,24,25,26)         66.106          estimate D2E/DX2                !
 ! D161  D(62,24,25,38)        -61.7373         estimate D2E/DX2                !
 ! D162  D(62,24,25,63)       -176.3625         estimate D2E/DX2                !
 ! D163  D(23,24,39,83)       -167.7213         estimate D2E/DX2                !
 ! D164  D(25,24,39,83)        -44.0015         estimate D2E/DX2                !
 ! D165  D(62,24,39,83)         75.0477         estimate D2E/DX2                !
 ! D166  D(24,25,26,27)         55.1721         estimate D2E/DX2                !
 ! D167  D(24,25,26,31)        172.6776         estimate D2E/DX2                !
 ! D168  D(24,25,26,64)        -63.4973         estimate D2E/DX2                !
 ! D169  D(38,25,26,27)       -179.7489         estimate D2E/DX2                !
 ! D170  D(38,25,26,31)        -62.2434         estimate D2E/DX2                !
 ! D171  D(38,25,26,64)         61.5817         estimate D2E/DX2                !
 ! D172  D(63,25,26,27)        -63.4997         estimate D2E/DX2                !
 ! D173  D(63,25,26,31)         54.0058         estimate D2E/DX2                !
 ! D174  D(63,25,26,64)        177.8308         estimate D2E/DX2                !
 ! D175  D(24,25,38,82)         77.9686         estimate D2E/DX2                !
 ! D176  D(26,25,38,82)        -47.3128         estimate D2E/DX2                !
 ! D177  D(63,25,38,82)       -164.8301         estimate D2E/DX2                !
 ! D178  D(25,26,27,28)        -63.8367         estimate D2E/DX2                !
 ! D179  D(31,26,27,28)        177.9397         estimate D2E/DX2                !
 ! D180  D(64,26,27,28)         56.7473         estimate D2E/DX2                !
 ! D181  D(25,26,31,32)        170.2403         estimate D2E/DX2                !
 ! D182  D(27,26,31,32)        -72.1997         estimate D2E/DX2                !
 ! D183  D(64,26,31,32)         46.7392         estimate D2E/DX2                !
 ! D184  D(26,27,28,23)         65.0457         estimate D2E/DX2                !
 ! D185  D(26,27,28,29)       -169.4109         estimate D2E/DX2                !
 ! D186  D(26,27,28,65)        -53.7124         estimate D2E/DX2                !
 ! D187  D(23,28,29,30)         66.861          estimate D2E/DX2                !
 ! D188  D(23,28,29,66)       -174.0043         estimate D2E/DX2                !
 ! D189  D(23,28,29,67)        -56.0976         estimate D2E/DX2                !
 ! D190  D(27,28,29,30)        -54.6786         estimate D2E/DX2                !
 ! D191  D(27,28,29,66)         64.4561         estimate D2E/DX2                !
 ! D192  D(27,28,29,67)       -177.6372         estimate D2E/DX2                !
 ! D193  D(65,28,29,30)       -172.562          estimate D2E/DX2                !
 ! D194  D(65,28,29,66)        -53.4272         estimate D2E/DX2                !
 ! D195  D(65,28,29,67)         64.4794         estimate D2E/DX2                !
 ! D196  D(28,29,30,68)       -113.0808         estimate D2E/DX2                !
 ! D197  D(66,29,30,68)        127.8794         estimate D2E/DX2                !
 ! D198  D(67,29,30,68)          9.178          estimate D2E/DX2                !
 ! D199  D(26,31,32,33)        147.0107         estimate D2E/DX2                !
 ! D200  D(26,31,32,69)         25.5566         estimate D2E/DX2                !
 ! D201  D(26,31,32,70)        -92.6422         estimate D2E/DX2                !
 ! D202  D(31,32,33,34)        -54.0258         estimate D2E/DX2                !
 ! D203  D(31,32,33,71)       -177.3453         estimate D2E/DX2                !
 ! D204  D(31,32,33,72)         67.5152         estimate D2E/DX2                !
 ! D205  D(69,32,33,34)         66.2981         estimate D2E/DX2                !
 ! D206  D(69,32,33,71)        -57.0214         estimate D2E/DX2                !
 ! D207  D(69,32,33,72)       -172.1609         estimate D2E/DX2                !
 ! D208  D(70,32,33,34)       -173.2411         estimate D2E/DX2                !
 ! D209  D(70,32,33,71)         63.4394         estimate D2E/DX2                !
 ! D210  D(70,32,33,72)        -51.7002         estimate D2E/DX2                !
 ! D211  D(32,33,34,35)        -62.8495         estimate D2E/DX2                !
 ! D212  D(32,33,34,73)        174.3063         estimate D2E/DX2                !
 ! D213  D(32,33,34,74)         60.3335         estimate D2E/DX2                !
 ! D214  D(71,33,34,35)         58.9042         estimate D2E/DX2                !
 ! D215  D(71,33,34,73)        -63.9399         estimate D2E/DX2                !
 ! D216  D(71,33,34,74)       -177.9128         estimate D2E/DX2                !
 ! D217  D(72,33,34,35)        175.4479         estimate D2E/DX2                !
 ! D218  D(72,33,34,73)         52.6038         estimate D2E/DX2                !
 ! D219  D(72,33,34,74)        -61.3691         estimate D2E/DX2                !
 ! D220  D(33,34,35,36)        167.9191         estimate D2E/DX2                !
 ! D221  D(33,34,35,75)         45.8744         estimate D2E/DX2                !
 ! D222  D(33,34,35,76)        -71.5676         estimate D2E/DX2                !
 ! D223  D(73,34,35,36)        -69.3602         estimate D2E/DX2                !
 ! D224  D(73,34,35,75)        168.595          estimate D2E/DX2                !
 ! D225  D(73,34,35,76)         51.1531         estimate D2E/DX2                !
 ! D226  D(74,34,35,36)         46.9291         estimate D2E/DX2                !
 ! D227  D(74,34,35,75)        -75.1156         estimate D2E/DX2                !
 ! D228  D(74,34,35,76)        167.4424         estimate D2E/DX2                !
 ! D229  D(34,35,36,37)        -69.9554         estimate D2E/DX2                !
 ! D230  D(34,35,36,77)         50.3566         estimate D2E/DX2                !
 ! D231  D(34,35,36,78)        171.4297         estimate D2E/DX2                !
 ! D232  D(75,35,36,37)         53.5011         estimate D2E/DX2                !
 ! D233  D(75,35,36,77)        173.8132         estimate D2E/DX2                !
 ! D234  D(75,35,36,78)        -65.1137         estimate D2E/DX2                !
 ! D235  D(76,35,36,37)        168.4435         estimate D2E/DX2                !
 ! D236  D(76,35,36,77)        -71.2445         estimate D2E/DX2                !
 ! D237  D(76,35,36,78)         49.8286         estimate D2E/DX2                !
 ! D238  D(35,36,37,79)         43.2336         estimate D2E/DX2                !
 ! D239  D(35,36,37,80)        -75.0352         estimate D2E/DX2                !
 ! D240  D(35,36,37,81)        162.9554         estimate D2E/DX2                !
 ! D241  D(77,36,37,79)        -79.5951         estimate D2E/DX2                !
 ! D242  D(77,36,37,80)        162.136          estimate D2E/DX2                !
 ! D243  D(77,36,37,81)         40.1267         estimate D2E/DX2                !
 ! D244  D(78,36,37,79)        164.951          estimate D2E/DX2                !
 ! D245  D(78,36,37,80)         46.6821         estimate D2E/DX2                !
 ! D246  D(78,36,37,81)        -75.3272         estimate D2E/DX2                !
 --------------------------------------------------------------------------------
 Trust Radius=3.00D-01 FncErr=1.00D-07 GrdErr=1.00D-06
 Number of steps in this run=    504 maximum allowed number of steps=    504.
 GradGradGradGradGradGradGradGradGradGradGradGradGradGradGradGradGradGrad

 Leave Link  103 at Thu May 19 11:27:50 2016, MaxMem= 10737418240 cpu:         0.5
 (Enter /share/apps//g09/l202.exe)
 Stoichiometry    C23H44NO16(1+)
 Framework group  C1[X(C23H44NO16)]
 Deg. of freedom   246
 Full point group                 C1      NOp   1
 Largest Abelian subgroup         C1      NOp   1
 Largest concise Abelian subgroup C1      NOp   1
                         Standard orientation:                         
 ---------------------------------------------------------------------
 Center     Atomic      Atomic             Coordinates (Angstroms)
 Number     Number       Type             X           Y           Z
 ---------------------------------------------------------------------
      1          8           0        2.453747    1.515201    0.617820
      2          6           0        3.244218    0.417117    0.117867
      3          6           0        3.625422    0.640838   -1.346360
      4          6           0        4.377566    1.962118   -1.490613
      5          6           0        3.572219    3.124624   -0.902990
      6          6           0        3.083016    2.809323    0.519555
      7          6           0        2.078349    3.830362    1.057553
      8          8           0        0.860117    3.889229    0.298360
      9          8           0        2.451885    3.422077   -1.753511
     10          8           0        4.611686    2.291665   -2.859253
     11          8           0        4.488673   -0.380154   -1.814273
     12          8           0        2.397679   -0.688947    0.220031
     13          6           0        2.836880   -1.837056    0.969719
     14          6           0        2.629094   -3.061230    0.081165
     15          8           0        3.404859   -2.934150   -1.113844
     16          6           0        1.143939   -3.177549   -0.250018
     17          6           0        0.305428   -3.271634    1.041972
     18          8           0        0.619679   -2.203496    1.952015
     19          6           0        2.003386   -2.015576    2.250271
     20          6           0        2.074223   -0.854213    3.253155
     21          8           0        1.326144    0.307739    2.884263
     22          8           0       -1.082373   -3.226692    0.821921
     23          6           0       -1.598813   -2.056575    0.157325
     24          6           0       -2.277500   -2.491422   -1.144143
     25          6           0       -3.058046   -1.346217   -1.806122
     26          6           0       -4.020994   -0.707349   -0.802109
     27          8           0       -3.260275   -0.294925    0.352814
     28          6           0       -2.653132   -1.387740    1.064055
     29          6           0       -2.126079   -0.819848    2.377584
     30          8           0       -1.248858    0.293819    2.185778
     31          8           0       -4.588542    0.419512   -1.368322
     32          6           0       -5.683017    0.988062   -0.603705
     33          6           0       -5.672894    2.501162   -0.789193
     34          6           0       -4.327059    3.162191   -0.457170
     35          6           0       -3.878130    3.018834    1.005113
     36          6           0       -2.424130    3.423851    1.229462
     37          7           0       -1.474355    2.438483    0.606421
     38          8           0       -3.665024   -1.803930   -3.014364
     39          8           0       -1.302444   -2.987591   -2.070244
     40          8           0        0.972759   -4.323432   -1.070208
     41          1           0        4.154878    0.285039    0.739420
     42          1           0        2.682277    0.684050   -1.923933
     43          1           0        5.339036    1.877932   -0.946805
     44          1           0        4.228316    4.012808   -0.839254
     45          1           0        3.971819    2.840706    1.181949
     46          1           0        2.560294    4.822609    1.080377
     47          1           0        1.801546    3.564243    2.087380
     48          1           0        1.143997    3.909641   -0.647568
     49          1           0        2.788665    3.360674   -2.670761
     50          1           0        4.957596    1.488545   -3.292413
     51          1           0        4.039650   -1.252940   -1.712935
     52          1           0        3.905054   -1.737238    1.227251
     53          1           0        2.958270   -3.960614    0.636497
     54          1           0        3.037164   -3.594675   -1.735001
     55          1           0        0.863429   -2.264894   -0.800269
     56          1           0        0.474342   -4.253257    1.521963
     57          1           0        2.412112   -2.905755    2.775161
     58          1           0        1.642743   -1.193104    4.204679
     59          1           0        3.131793   -0.598557    3.439750
     60          1           0        1.740561    0.733305    2.095547
     61          1           0       -0.797426   -1.328365   -0.045455
     62          1           0       -2.982010   -3.309085   -0.885186
     63          1           0       -2.349443   -0.562951   -2.122170
     64          1           0       -4.796038   -1.436449   -0.465983
     65          1           0       -3.419210   -2.146318    1.325693
     66          1           0       -2.990294   -0.474954    2.967058
     67          1           0       -1.615657   -1.616335    2.934114
     68          1           0       -0.309817    0.085734    2.456676
     69          1           0       -5.565687    0.717093    0.456814
     70          1           0       -6.630750    0.559768   -0.970213
     71          1           0       -6.478234    2.922980   -0.165666
     72          1           0       -5.932010    2.735016   -1.832944
     73          1           0       -4.380573    4.231497   -0.715851
     74          1           0       -3.580494    2.721759   -1.140317
     75          1           0       -4.008039    1.983670    1.356349
     76          1           0       -4.507526    3.650153    1.651258
     77          1           0       -2.204470    4.411035    0.798448
     78          1           0       -2.175520    3.456496    2.298264
     79          1           0       -1.803198    2.169280   -0.328825
     80          1           0       -1.420538    1.542022    1.189199
     81          1           0       -0.513730    2.866326    0.512309
     82          1           0       -4.465077   -2.318394   -2.796746
     83          1           0       -1.762371   -3.056414   -2.930180
     84          1           0        0.133682   -4.171291   -1.558716
 ---------------------------------------------------------------------
 Rotational constants (GHZ):      0.1046106      0.0732411      0.0571081
 Leave Link  202 at Thu May 19 11:27:50 2016, MaxMem= 10737418240 cpu:         0.6
 (Enter /share/apps//g09/l301.exe)
 Standard basis: 6-311+G(d,p) (5D, 7F)
 Ernie: Thresh=  0.10000D-02 Tol=  0.10000D-05 Strict=F.
 There are  1184 symmetry adapted cartesian basis functions of A   symmetry.
 There are  1144 symmetry adapted basis functions of A   symmetry.
  1144 basis functions,  1792 primitive gaussians,  1184 cartesian basis functions
   158 alpha electrons      158 beta electrons
       nuclear repulsion energy      5861.3607427899 Hartrees.
 IExCor= 1009 DFT=T Ex+Corr=PBE1PBE ExCW=0 ScaHFX=  0.250000
 ScaDFX=  0.750000  0.750000  1.000000  1.000000 ScalE2=  1.000000  1.000000
 IRadAn=      0 IRanWt=     -1 IRanGd=            0 ICorTp=0 IEmpDi=131
 NAtoms=   84 NActive=   84 NUniq=   84 SFac= 1.00D+00 NAtFMM=   60 NAOKFM=T Big=T
 Integral buffers will be    131072 words long.
 Raffenetti 2 integral format.
 Two-electron integral symmetry is turned on.
 R6Disp:  Grimme-D3 Dispersion energy=       -0.0811551093 Hartrees.
 Nuclear repulsion after empirical dispersion term =     5861.2795876806 Hartrees.
 Leave Link  301 at Thu May 19 11:27:50 2016, MaxMem= 10737418240 cpu:         2.0
 (Enter /share/apps//g09/l302.exe)
 NPDir=0 NMtPBC=     1 NCelOv=     1 NCel=       1 NClECP=     1 NCelD=      1
         NCelK=      1 NCelE2=     1 NClLst=     1 CellRange=     0.0.
 One-electron integrals computed using PRISM.
 NBasis=  1144 RedAO= T EigKep=  1.55D-06  NBF=  1144
 NBsUse=  1144 1.00D-06 EigRej= -1.00D+00 NBFU=  1144
 Precomputing XC quadrature grid using
 IXCGrd= 4 IRadAn=           0 IRanWt=          -1 IRanGd=           0 AccXCQ= 0.00D+00.
 Generated NRdTot=       0 NPtTot=           0 NUsed=           0 NTot=          32
 NSgBfM=  1077  1077  1077  1078  1078 MxSgAt=    84 MxSgA2=    84.
 Leave Link  302 at Thu May 19 11:27:54 2016, MaxMem= 10737418240 cpu:        54.0
 (Enter /share/apps//g09/l303.exe)
 DipDrv:  MaxL=1.
 Leave Link  303 at Thu May 19 11:27:56 2016, MaxMem= 10737418240 cpu:        33.6
 (Enter /share/apps//g09/l401.exe)
 ExpMin= 4.38D-02 ExpMax= 8.59D+03 ExpMxC= 1.30D+03 IAcc=2 IRadAn=         4 AccDes= 0.00D+00
 Harris functional with IExCor= 1009 and IRadAn=       4 diagonalized for initial guess.
 HarFok:  IExCor= 1009 AccDes= 0.00D+00 IRadAn=         4 IDoV= 1 UseB2=F ITyADJ=14
 ICtDFT=  3500011 ScaDFX=  1.000000  1.000000  1.000000  1.000000
 FoFCou: FMM=F IPFlag=           0 FMFlag=      100000 FMFlg1=        2001
         NFxFlg=           0 DoJE=T BraDBF=F KetDBF=T FulRan=T
         wScrn=  0.000000 ICntrl=     500 IOpCl=  0 I1Cent=   200000004 NGrid=           0
         NMat0=    1 NMatS0=      1 NMatT0=    0 NMatD0=    1 NMtDS0=    0 NMtDT0=    0
 Petite list used in FoFCou.
 Harris En= -2159.72240294620    
 JPrj=0 DoOrth=F DoCkMO=F.
 Leave Link  401 at Thu May 19 11:28:03 2016, MaxMem= 10737418240 cpu:       117.8
 (Enter /share/apps//g09/l502.exe)
 Closed shell SCF:
 Using DIIS extrapolation, IDIIS=  1040.
 Integral symmetry usage will be decided dynamically.
 IVT=     4256630 IEndB=     4256630 NGot= 10737418240 MDV= 10734581291
 LenX= 10734581291 LenY= 10733178251
 Requested convergence on RMS density matrix=1.00D-08 within 128 cycles.
 Requested convergence on MAX density matrix=1.00D-06.
 Requested convergence on             energy=1.00D-06.
 No special actions if energy rises.
 Fock matrices will be formed incrementally for  20 cycles.

 Cycle   1  Pass 1  IDiag  1:
 FoFJK:  IHMeth= 1 ICntrl=       0 DoSepK=F KAlg= 0 I1Cent=   0 FoldK=F
 IRaf= 780000000 NMat=   1 IRICut=       1 DoRegI=T DoRafI=F ISym2E= 0.
 FoFCou: FMM=T IPFlag=           0 FMFlag=      100000 FMFlg1=        2001
         NFxFlg=           0 DoJE=F BraDBF=F KetDBF=F FulRan=T
         wScrn=  0.000000 ICntrl=       0 IOpCl=  0 I1Cent=           0 NGrid=           0
         NMat0=    1 NMatS0=      1 NMatT0=    0 NMatD0=    1 NMtDS0=    0 NMtDT0=    0
 Symmetry not used in FoFCou.
 FMM levels:  10  Number of levels for PrismC:   9
 E= -2158.71233141404    
 DIIS: error= 1.29D-02 at cycle   1 NSaved=   1.
 NSaved= 1 IEnMin= 1 EnMin= -2158.71233141404     IErMin= 1 ErrMin= 1.29D-02
 ErrMax= 1.29D-02  0.00D+00 EMaxC= 1.00D-01 BMatC= 1.02D+00 BMatP= 1.02D+00
 IDIUse=3 WtCom= 8.71D-01 WtEn= 1.29D-01
 Coeff-Com:  0.100D+01
 Coeff-En:   0.100D+01
 Coeff:      0.100D+01
 Gap=     0.272 Goal=   None    Shift=    0.000
 GapD=    0.272 DampG=1.000 DampE=0.500 DampFc=0.5000 IDamp=-1.
 Damping current iteration by 5.00D-01
 RMSDP=8.91D-03 MaxDP=2.17D+00              OVMax= 1.43D-01

 Cycle   2  Pass 1  IDiag  1:
 RMSU=  4.32D-03    CP:  1.03D+00
 E= -2158.99218983320     Delta-E=       -0.279858419160 Rises=F Damp=T
 DIIS: error= 3.54D-03 at cycle   2 NSaved=   2.
 NSaved= 2 IEnMin= 2 EnMin= -2158.99218983320     IErMin= 2 ErrMin= 3.54D-03
 ErrMax= 3.54D-03  0.00D+00 EMaxC= 1.00D-01 BMatC= 8.10D-02 BMatP= 1.02D+00
 IDIUse=3 WtCom= 9.65D-01 WtEn= 3.54D-02
 Coeff-Com:  0.618D-01 0.938D+00
 Coeff-En:   0.161D+00 0.839D+00
 Coeff:      0.653D-01 0.935D+00
 Gap=     0.297 Goal=   None    Shift=    0.000
 RMSDP=4.36D-03 MaxDP=1.20D+00 DE=-2.80D-01 OVMax= 7.86D-02

 Cycle   3  Pass 1  IDiag  1:
 RMSU=  2.42D-03    CP:  9.33D-01  9.18D-01
 E= -2159.36042509442     Delta-E=       -0.368235261212 Rises=F Damp=F
 DIIS: error= 3.52D-03 at cycle   3 NSaved=   3.
 NSaved= 3 IEnMin= 3 EnMin= -2159.36042509442     IErMin= 3 ErrMin= 3.52D-03
 ErrMax= 3.52D-03  0.00D+00 EMaxC= 1.00D-01 BMatC= 4.53D-02 BMatP= 8.10D-02
 IDIUse=3 WtCom= 9.65D-01 WtEn= 3.52D-02
 Coeff-Com: -0.669D-01 0.410D+00 0.657D+00
 Coeff-En:   0.000D+00 0.000D+00 0.100D+01
 Coeff:     -0.646D-01 0.395D+00 0.669D+00
 Gap=     0.273 Goal=   None    Shift=    0.000
 RMSDP=1.68D-03 MaxDP=5.70D-01 DE=-3.68D-01 OVMax= 1.71D-02

 Cycle   4  Pass 1  IDiag  1:
 RMSU=  1.16D-03    CP:  9.59D-01  1.06D+00  8.39D-01
 E= -2159.38899453234     Delta-E=       -0.028569437922 Rises=F Damp=F
 DIIS: error= 1.02D-03 at cycle   4 NSaved=   4.
 NSaved= 4 IEnMin= 4 EnMin= -2159.38899453234     IErMin= 4 ErrMin= 1.02D-03
 ErrMax= 1.02D-03  0.00D+00 EMaxC= 1.00D-01 BMatC= 6.09D-03 BMatP= 4.53D-02
 IDIUse=3 WtCom= 9.90D-01 WtEn= 1.02D-02
 Coeff-Com: -0.358D-01 0.123D+00 0.342D+00 0.571D+00
 Coeff-En:   0.000D+00 0.000D+00 0.801D-01 0.920D+00
 Coeff:     -0.355D-01 0.122D+00 0.339D+00 0.574D+00
 Gap=     0.267 Goal=   None    Shift=    0.000
 RMSDP=1.12D-03 MaxDP=4.27D-01 DE=-2.86D-02 OVMax= 5.82D-03

 Cycle   5  Pass 1  IDiag  1:
 RMSU=  2.76D-04    CP:  9.33D-01  1.01D+00  8.52D-01  6.08D-01
 E= -2159.39419657371     Delta-E=       -0.005202041375 Rises=F Damp=F
 DIIS: error= 2.56D-04 at cycle   5 NSaved=   5.
 NSaved= 5 IEnMin= 5 EnMin= -2159.39419657371     IErMin= 5 ErrMin= 2.56D-04
 ErrMax= 2.56D-04  0.00D+00 EMaxC= 1.00D-01 BMatC= 2.58D-04 BMatP= 6.09D-03
 IDIUse=3 WtCom= 9.97D-01 WtEn= 2.56D-03
 Coeff-Com: -0.115D-01 0.260D-01 0.103D+00 0.248D+00 0.634D+00
 Coeff-En:   0.000D+00 0.000D+00 0.000D+00 0.000D+00 0.100D+01
 Coeff:     -0.115D-01 0.259D-01 0.103D+00 0.247D+00 0.635D+00
 Gap=     0.266 Goal=   None    Shift=    0.000
 RMSDP=1.32D-04 MaxDP=4.27D-02 DE=-5.20D-03 OVMax= 1.49D-03

 Cycle   6  Pass 1  IDiag  1:
 RMSU=  6.20D-05    CP:  9.35D-01  1.01D+00  8.70D-01  6.18D-01  7.68D-01
 E= -2159.39438454740     Delta-E=       -0.000187973686 Rises=F Damp=F
 DIIS: error= 5.91D-05 at cycle   6 NSaved=   6.
 NSaved= 6 IEnMin= 6 EnMin= -2159.39438454740     IErMin= 6 ErrMin= 5.91D-05
 ErrMax= 5.91D-05  0.00D+00 EMaxC= 1.00D-01 BMatC= 2.08D-05 BMatP= 2.58D-04
 IDIUse=1 WtCom= 1.00D+00 WtEn= 0.00D+00
 Coeff-Com: -0.382D-02 0.674D-02 0.338D-01 0.945D-01 0.316D+00 0.553D+00
 Coeff:     -0.382D-02 0.674D-02 0.338D-01 0.945D-01 0.316D+00 0.553D+00
 Gap=     0.266 Goal=   None    Shift=    0.000
 RMSDP=3.33D-05 MaxDP=7.23D-03 DE=-1.88D-04 OVMax= 4.51D-04

 Cycle   7  Pass 1  IDiag  1:
 RMSU=  1.76D-05    CP:  9.36D-01  1.02D+00  8.69D-01  6.28D-01  7.74D-01
                    CP:  7.32D-01
 E= -2159.39439960037     Delta-E=       -0.000015052969 Rises=F Damp=F
 DIIS: error= 2.00D-05 at cycle   7 NSaved=   7.
 NSaved= 7 IEnMin= 7 EnMin= -2159.39439960037     IErMin= 7 ErrMin= 2.00D-05
 ErrMax= 2.00D-05  0.00D+00 EMaxC= 1.00D-01 BMatC= 1.61D-06 BMatP= 2.08D-05
 IDIUse=1 WtCom= 1.00D+00 WtEn= 0.00D+00
 Coeff-Com: -0.102D-02 0.140D-02 0.930D-02 0.296D-01 0.112D+00 0.277D+00
 Coeff-Com:  0.572D+00
 Coeff:     -0.102D-02 0.140D-02 0.930D-02 0.296D-01 0.112D+00 0.277D+00
 Coeff:      0.572D+00
 Gap=     0.266 Goal=   None    Shift=    0.000
 RMSDP=1.06D-05 MaxDP=2.17D-03 DE=-1.51D-05 OVMax= 1.26D-04

 Cycle   8  Pass 1  IDiag  1:
 RMSU=  7.46D-06    CP:  9.36D-01  1.02D+00  8.68D-01  6.31D-01  7.80D-01
                    CP:  7.36D-01  6.90D-01
 E= -2159.39440069221     Delta-E=       -0.000001091841 Rises=F Damp=F
 DIIS: error= 5.92D-06 at cycle   8 NSaved=   8.
 NSaved= 8 IEnMin= 8 EnMin= -2159.39440069221     IErMin= 8 ErrMin= 5.92D-06
 ErrMax= 5.92D-06  0.00D+00 EMaxC= 1.00D-01 BMatC= 1.50D-07 BMatP= 1.61D-06
 IDIUse=1 WtCom= 1.00D+00 WtEn= 0.00D+00
 Coeff-Com:  0.509D-05-0.196D-03 0.132D-03 0.210D-02 0.115D-01 0.553D-01
 Coeff-Com:  0.269D+00 0.662D+00
 Coeff:      0.509D-05-0.196D-03 0.132D-03 0.210D-02 0.115D-01 0.553D-01
 Coeff:      0.269D+00 0.662D+00
 Gap=     0.266 Goal=   None    Shift=    0.000
 RMSDP=3.51D-06 MaxDP=7.49D-04 DE=-1.09D-06 OVMax= 3.43D-05

 Cycle   9  Pass 1  IDiag  1:
 RMSU=  2.18D-06    CP:  9.36D-01  1.02D+00  8.69D-01  6.30D-01  7.80D-01
                    CP:  7.47D-01  7.47D-01  8.94D-01
 E= -2159.39440080531     Delta-E=       -0.000000113102 Rises=F Damp=F
 DIIS: error= 1.59D-06 at cycle   9 NSaved=   9.
 NSaved= 9 IEnMin= 9 EnMin= -2159.39440080531     IErMin= 9 ErrMin= 1.59D-06
 ErrMax= 1.59D-06  0.00D+00 EMaxC= 1.00D-01 BMatC= 1.22D-08 BMatP= 1.50D-07
 IDIUse=1 WtCom= 1.00D+00 WtEn= 0.00D+00
 Coeff-Com:  0.676D-04-0.180D-03-0.572D-03-0.986D-03-0.241D-02 0.624D-02
 Coeff-Com:  0.854D-01 0.310D+00 0.602D+00
 Coeff:      0.676D-04-0.180D-03-0.572D-03-0.986D-03-0.241D-02 0.624D-02
 Coeff:      0.854D-01 0.310D+00 0.602D+00
 Gap=     0.266 Goal=   None    Shift=    0.000
 RMSDP=7.57D-07 MaxDP=3.20D-04 DE=-1.13D-07 OVMax= 1.06D-05

 Cycle  10  Pass 1  IDiag  1:
 RMSU=  4.49D-07    CP:  9.36D-01  1.02D+00  8.69D-01  6.30D-01  7.80D-01
                    CP:  7.49D-01  7.58D-01  8.86D-01  7.69D-01
 E= -2159.39440081436     Delta-E=       -0.000000009048 Rises=F Damp=F
 DIIS: error= 4.79D-07 at cycle  10 NSaved=  10.
 NSaved=10 IEnMin=10 EnMin= -2159.39440081436     IErMin=10 ErrMin= 4.79D-07
 ErrMax= 4.79D-07  0.00D+00 EMaxC= 1.00D-01 BMatC= 1.15D-09 BMatP= 1.22D-08
 IDIUse=1 WtCom= 1.00D+00 WtEn= 0.00D+00
 Coeff-Com:  0.281D-04-0.643D-04-0.276D-03-0.594D-03-0.197D-02-0.131D-02
 Coeff-Com:  0.189D-01 0.959D-01 0.296D+00 0.594D+00
 Coeff:      0.281D-04-0.643D-04-0.276D-03-0.594D-03-0.197D-02-0.131D-02
 Coeff:      0.189D-01 0.959D-01 0.296D+00 0.594D+00
 Gap=     0.266 Goal=   None    Shift=    0.000
 RMSDP=2.59D-07 MaxDP=1.05D-04 DE=-9.05D-09 OVMax= 2.95D-06

 Cycle  11  Pass 1  IDiag  1:
 RMSU=  1.36D-07    CP:  9.36D-01  1.02D+00  8.69D-01  6.31D-01  7.80D-01
                    CP:  7.49D-01  7.57D-01  9.03D-01  7.88D-01  6.94D-01
 E= -2159.39440081521     Delta-E=       -0.000000000847 Rises=F Damp=F
 DIIS: error= 1.79D-07 at cycle  11 NSaved=  11.
 NSaved=11 IEnMin=11 EnMin= -2159.39440081521     IErMin=11 ErrMin= 1.79D-07
 ErrMax= 1.79D-07  0.00D+00 EMaxC= 1.00D-01 BMatC= 1.09D-10 BMatP= 1.15D-09
 IDIUse=1 WtCom= 1.00D+00 WtEn= 0.00D+00
 Coeff-Com:  0.816D-05-0.174D-04-0.954D-04-0.217D-03-0.777D-03-0.101D-02
 Coeff-Com:  0.318D-02 0.244D-01 0.101D+00 0.302D+00 0.571D+00
 Coeff:      0.816D-05-0.174D-04-0.954D-04-0.217D-03-0.777D-03-0.101D-02
 Coeff:      0.318D-02 0.244D-01 0.101D+00 0.302D+00 0.571D+00
 Gap=     0.266 Goal=   None    Shift=    0.000
 RMSDP=6.79D-08 MaxDP=1.21D-05 DE=-8.47D-10 OVMax= 1.06D-06

 Cycle  12  Pass 1  IDiag  1:
 RMSU=  4.51D-08    CP:  9.36D-01  1.02D+00  8.69D-01  6.31D-01  7.80D-01
                    CP:  7.49D-01  7.57D-01  9.05D-01  7.86D-01  7.35D-01
                    CP:  7.18D-01
 E= -2159.39440081508     Delta-E=        0.000000000129 Rises=F Damp=F
 DIIS: error= 4.08D-08 at cycle  12 NSaved=  12.
 NSaved=12 IEnMin=11 EnMin= -2159.39440081521     IErMin=12 ErrMin= 4.08D-08
 ErrMax= 4.08D-08  0.00D+00 EMaxC= 1.00D-01 BMatC= 7.67D-12 BMatP= 1.09D-10
 IDIUse=1 WtCom= 1.00D+00 WtEn= 0.00D+00
 Coeff-Com:  0.110D-06 0.102D-06-0.105D-04-0.263D-04-0.110D-03-0.291D-03
 Coeff-Com: -0.902D-03-0.996D-03 0.957D-02 0.642D-01 0.250D+00 0.678D+00
 Coeff:      0.110D-06 0.102D-06-0.105D-04-0.263D-04-0.110D-03-0.291D-03
 Coeff:     -0.902D-03-0.996D-03 0.957D-02 0.642D-01 0.250D+00 0.678D+00
 Gap=     0.266 Goal=   None    Shift=    0.000
 RMSDP=2.35D-08 MaxDP=8.41D-06 DE= 1.29D-10 OVMax= 2.55D-07

 Cycle  13  Pass 1  IDiag  1:
 RMSU=  1.21D-08    CP:  9.36D-01  1.02D+00  8.69D-01  6.31D-01  7.80D-01
                    CP:  7.49D-01  7.57D-01  9.05D-01  7.93D-01  7.34D-01
                    CP:  7.45D-01  8.32D-01
 E= -2159.39440081523     Delta-E=       -0.000000000151 Rises=F Damp=F
 DIIS: error= 1.08D-08 at cycle  13 NSaved=  13.
 NSaved=13 IEnMin=13 EnMin= -2159.39440081523     IErMin=13 ErrMin= 1.08D-08
 ErrMax= 1.08D-08  0.00D+00 EMaxC= 1.00D-01 BMatC= 5.68D-13 BMatP= 7.67D-12
 IDIUse=1 WtCom= 1.00D+00 WtEn= 0.00D+00
 Coeff-Com: -0.429D-06 0.106D-05 0.894D-06 0.896D-06-0.327D-05-0.667D-04
 Coeff-Com: -0.584D-03-0.193D-02-0.204D-02 0.101D-01 0.761D-01 0.302D+00
 Coeff-Com:  0.616D+00
 Coeff:     -0.429D-06 0.106D-05 0.894D-06 0.896D-06-0.327D-05-0.667D-04
 Coeff:     -0.584D-03-0.193D-02-0.204D-02 0.101D-01 0.761D-01 0.302D+00
 Coeff:      0.616D+00
 Gap=     0.266 Goal=   None    Shift=    0.000
 RMSDP=6.11D-09 MaxDP=1.55D-06 DE=-1.51D-10 OVMax= 8.49D-08

 Cycle  14  Pass 1  IDiag  1:
[...]
 00001356,0.00004209,-0.00001905,-0.00003311,-0.00009929,0.00003458,-0.
 00000795,0.00230358,-0.00419137,-0.00210294,-0.24307873,-0.09644818,-0
 .23402330,-0.00083599,0.00058161,0.00036345,0.00000351,0.00000643,0.00
 000796,0.00001162,-0.00002663,0.00000374,0.00000477,0.00000885,-0.0000
 0104,-0.00000306,0.00000874,-0.00000284,0.00000195,0.00000702,-0.00000
 163,-0.00000845,0.00000073,-0.00000259,-0.00000192,-0.00000331,0.00000
 066,0.00003239,-0.00002409,-0.00002414,0.00001439,-0.00003425,0.000003
 85,-0.00001944,-0.00002984,0.00001224,-0.00005744,-0.00007213,-0.00001
 937,0.00000321,0.00000810,-0.00000368,-0.00005590,-0.00004208,0.000036
 72,-0.00015041,-0.00001275,-0.00010848,0.00000308,0.00023846,-0.000243
 81,0.00001615,-0.00000177,-0.00002191,0.00000732,-0.00000157,0.0000006
 9,-0.00000340,0.00000358,0.00000427,-0.00000061,0.00000536,-0.00000129
 ,0.00000591,-0.00002348,-0.00001231,-0.00000296,0.00006724,-0.00015564
 ,-0.00089077,-0.00017553,0.00146301,-0.00010969,-0.00042675,-0.0001656
 0,-0.00002348,-0.00004865,0.00006187,0.00001867,0.00001735,-0.00007888
 ,0.00006778,0.00013355,0.00015471,-0.00003137,-0.00004461,-0.00004912,
 0.00002166,-0.00001068,-0.00002458,0.00002703,-0.00002252,-0.00005843,
 0.00000085,-0.00000369,0.00000133,0.00000425,-0.00002228,-0.00000507,-
 0.00002342,0.00000916,-0.00000081,-0.00000500,-0.00002289,-0.00000672,
 0.00001182,0.00002835,-0.00000577,0.00001299,0.00001102,0.00001295,-0.
 00000578,-0.00000780,-0.00000525,-0.00000037,0.00000491,0.00000697,-0.
 00001240,-0.00000659,-0.00000348,0.00006396,0.00003992,0.00000494,0.00
 010682,-0.00008975,0.00010071,0.00007276,0.00002324,-0.00004446,-0.000
 98731,-0.00028249,0.00025459,0.22951052,0.00004260,-0.00000587,0.00002
 030,-0.00002239,0.00004394,-0.00004671,-0.00013628,0.00003389,-0.00001
 456,0.00000112,-0.00001592,0.00002733,-0.00006908,-0.00001721,-0.00002
 759,-0.00000430,-0.00001622,-0.00000212,-0.00007354,-0.00002524,-0.000
 02759,0.00009175,0.00006090,0.00001270,0.00008777,0.00004911,0.0000181
 0,0.00004305,0.00001262,-0.00002293,0.00008771,-0.00006335,0.00001252,
 0.00004607,-0.00008968,0.00008274,-0.00003909,0.00009484,-0.00005349,-
 0.00006923,0.00000296,-0.00007700,0.00008356,-0.00005744,0.00000629,-0
 .00050241,-0.00018079,-0.00007322,-0.00029555,-0.00012416,-0.00005350,
 0.00004706,-0.00001557,-0.00001383,-0.00001622,-0.00000016,-0.00000571
 ,-0.00003382,0.00002770,-0.00002609,0.00004885,-0.00002850,0.00004388,
 0.00018293,0.00045898,0.00077638,0.00361665,-0.00223673,-0.00314320,-0
 .01026007,-0.00736182,-0.01442336,-0.00030301,-0.00048760,-0.00206558,
 -0.00047975,-0.00086482,-0.00144723,0.00052315,0.00019457,0.00078703,-
 0.00156868,0.00019305,-0.00107038,0.00048122,-0.00001732,-0.00026224,0
 .00001435,-0.00009848,0.00015397,-0.00058821,0.00053418,0.00061409,0.0
 0029414,-0.00006657,-0.00029462,-0.00004517,-0.00000331,0.00006773,0.0
 0000873,-0.00002579,-0.00004389,-0.00000822,0.00000511,-0.00000412,0.0
 0001894,-0.00003157,-0.00000090,0.00003514,0.00000416,0.00003311,-0.00
 118052,-0.00191097,0.00141957,-0.07566412,-0.05489707,-0.10991827,0.00
 181422,-0.00080246,-0.00013411,0.00001582,-0.00000051,0.00001589,0.000
 02178,-0.00001460,0.00001256,0.00001236,0.00000942,-0.00000225,0.00001
 209,0.00000889,0.00000343,0.00001073,0.00000118,0.00000286,0.00001210,
 0.00000744,-0.00000261,0.00000070,-0.00000081,0.00000531,-0.00002502,-
 0.00003467,-0.00000378,-0.00003442,-0.00003178,0.00001505,-0.00002922,
 -0.00000146,0.00001718,-0.00003797,0.00005010,-0.00003117,0.00000886,-
 0.00000586,0.00000410,-0.00000021,0.00000151,0.00001083,-0.00002668,0.
 00007956,0.00003826,-0.00004908,0.00000379,-0.00012552,0.00004118,0.00
 000162,0.00002222,0.00000376,-0.00000799,0.00001151,-0.00000152,-0.000
 00112,0.00000403,0.00000592,0.00000052,-0.00000118,-0.00001688,0.00001
 245,-0.00004168,0.00011964,0.00019993,0.00020785,-0.00017824,0.0006602
 7,0.00105096,0.00027932,-0.00088555,0.00016736,-0.00017993,0.00011202,
 0.00026583,0.00005234,-0.00004766,-0.00000989,-0.00010190,-0.00010546,
 -0.00010446,0.00003249,0.00003556,0.00003002,-0.00002646,-0.00000705,-
 0.00000361,-0.00002663,0.00001437,0.00005188,-0.00004614,-0.00000038,0
 .00002530,-0.00001556,0.00004568,0.00000394,0.00001818,0.00000088,-0.0
 0000991,0.00000052,0.00002681,0.00000839,-0.00001912,-0.00002812,0.000
 02471,-0.00000630,-0.00001431,-0.00002138,-0.00000216,0.00001218,0.000
 00950,-0.00000296,-0.00000164,-0.00000588,0.00000236,0.00001162,0.0000
 0804,-0.00000314,-0.00009686,-0.00004619,-0.00009299,0.00006612,-0.000
 12323,-0.00006394,-0.00004838,0.00001940,-0.00075010,0.00138699,0.0005
 3469,0.08604039,0.06425358,-0.00000049,0.00012246,-0.00009449,-0.00006
 482,-0.00022351,0.00017976,0.00004876,0.00004464,0.00002382,-0.0000107
 3,-0.00000800,0.00007108,0.00004986,0.00000970,0.00002830,-0.00001514,
 -0.00007434,0.00005447,-0.00000113,0.00000413,0.00000153,0.00001903,0.
 00002837,-0.00005565,-0.00004958,-0.00002827,-0.00007397,-0.00002429,-
 0.00002016,-0.00010992,-0.00003245,0.00001918,-0.00012648,0.00006230,0
 .00027340,-0.00019053,0.00006679,-0.00016273,0.00002913,-0.00015412,-0
 .00011489,0.00041164,0.00013788,0.00005887,-0.00032645,0.00027061,0.00
 007761,-0.00019282,-0.00041784,-0.00025147,-0.00025691,0.00029358,0.00
 029755,0.00014740,-0.00022626,-0.00005271,0.00000611,0.00002565,-0.000
 05949,-0.00001378,0.00001477,0.00009856,-0.00003197,0.00055494,0.00028
 098,0.00076392,0.00389111,-0.00045659,-0.00311894,-0.01691499,-0.01373
 658,-0.02726033,-0.00083201,-0.00056620,0.00219856,-0.00046568,-0.0004
 8995,-0.00082903,0.00002771,0.00016072,-0.00002363,-0.00109972,-0.0008
 1216,-0.00037821,0.00035100,-0.00012407,-0.00023458,-0.00000425,0.0001
 3483,0.00007030,-0.00055505,0.00059870,0.00024018,0.00018074,0.0000278
 2,-0.00016158,-0.00003089,0.00000050,0.00005996,-0.00001643,0.00000559
 ,0.00000014,0.00000680,-0.00001165,0.00000398,0.00001044,-0.00002365,-
 0.00000739,0.00000202,0.00007172,-0.00005188,-0.00044547,0.00186731,-0
 .00103951,-0.19266449,-0.11302078,-0.26593831,0.00109791,0.00015946,0.
 00007067,0.00000702,0.00001600,-0.00001611,-0.00000997,0.00000983,0.00
 001924,-0.00001286,-0.00000397,-0.00000616,-0.00000867,0.00000065,-0.0
 0000648,0.00000466,0.00000544,-0.00000538,-0.00000071,0.00000825,-0.00
 000063,0.00000093,-0.00000841,-0.00000680,0.00000006,0.00001041,0.0000
 5510,0.00003030,0.00002947,0.00002850,0.00002594,0.00001743,0.00003399
 ,0.00001840,-0.00007292,0.00013950,0.00001714,0.00004929,-0.00000607,0
 .00009934,0.00002626,-0.00003173,-0.00004498,-0.00000571,0.00018325,-0
 .00029418,-0.00031348,0.00012134,0.00000927,0.00000037,0.00004068,0.00
 002982,-0.00000502,-0.00000761,-0.00000779,-0.00000118,-0.00000122,0.0
 0000952,0.00002011,-0.00000269,-0.00001572,-0.00005992,0.00006672,0.00
 009404,0.00006341,0.00023571,-0.00062748,0.00022717,-0.00011898,0.0002
 1141,0.00010510,0.00008445,0.00005452,0.00003746,-0.00005330,-0.000022
 35,0.00006175,-0.00001697,-0.00007495,-0.00004055,-0.00006153,0.000009
 15,0.00000305,-0.00000902,-0.00003157,-0.00005777,-0.00002298,-0.00001
 342,-0.00000466,0.00000957,-0.00001773,-0.00000193,0.00002199,-0.00000
 772,0.00003023,-0.00000805,-0.00000461,0.00000554,-0.00001313,-0.00000
 083,0.00002107,0.00000225,0.00000706,-0.00001827,0.00001518,-0.0000003
 3,-0.00000562,-0.00001858,-0.00000364,0.00000601,-0.00000147,-0.000003
 52,0.00000933,-0.00000190,0.00000072,-0.00000287,0.00000237,-0.0000045
 6,-0.00004626,0.00004100,0.00003211,-0.00010252,0.00005535,-0.00004392
 ,-0.00004256,0.00005416,0.00067279,-0.00063380,-0.00004981,0.20907001,
 0.12588174,0.29554593,-0.00023659,0.00057927,-0.00001720,0.00005960,-0
 .00094849,0.00030792,0.00023180,-0.00014070,-0.00004352,-0.00002890,-0
 .00008624,0.00010078,0.00016972,-0.00000157,0.00002668,-0.00006448,-0.
 00024192,0.00010681,0.00022319,0.00002106,0.00003187,-0.00030896,-0.00
 005894,0.00004431,-0.00021030,0.00006315,-0.00004298,-0.00003610,0.000
 10280,-0.00014964,-0.00010913,0.00053199,-0.00019306,0.00011910,0.0011
 6278,-0.00036780,0.00035494,-0.00047786,0.00002076,-0.00009348,-0.0002
 1078,0.00017854,0.00095352,0.00072097,-0.00049347,-0.00538519,-0.00535
 337,-0.00171872,0.00456033,0.00101746,-0.00195058,-0.00087828,0.001434
 28,0.00200292,-0.00042067,-0.00013675,-0.00031641,0.00014983,-0.000418
 54,0.00007310,-0.00042759,0.00029995,-0.00000018,-0.00350811,0.0003559
 4,-0.00061402,0.00190470,0.00018355,0.00093346,-0.00272206,0.00265649,
 0.00782103,0.00066747,-0.00034037,-0.00196731,0.00022284,0.00088781,0.
 00133485,-0.00052743,-0.00028797,-0.00049970,-0.00043647,-0.00023689,-
 0.00008803,0.00056919,0.00027161,-0.00010366,-0.00067732,-0.00032586,0
 .00006214,0.00078314,-0.00086945,-0.00054171,-0.00035878,0.00012744,0.
 00036727,0.00005132,0.00001890,-0.00008056,0.00000881,0.00000476,0.000
 03667,0.00000456,0.00002049,-0.00000165,0.00002969,0.00000705,-0.00002
 253,-0.00014090,-0.00007309,0.00006271,0.00071740,-0.00054712,-0.00015
 538,0.00166891,-0.00399217,-0.00242215,-0.46202036,-0.04666165,-0.1183
 9091,0.00001022,0.00006303,-0.00002899,-0.00001908,-0.00001360,0.00001
 085,-0.00001672,-0.00000100,-0.00000197,-0.00002731,0.00002215,-0.0000
 1772,0.00000264,0.00002181,-0.00001228,-0.00004223,0.00000632,-0.00000
 297,-0.00000095,-0.00001307,-0.00000440,0.00008973,-0.00002632,-0.0000
 4148,0.00007088,-0.00003046,0.00002114,0.00000529,-0.00005272,0.000074
 85,-0.00007162,-0.00056467,0.00037719,0.00010359,0.00026388,-0.0000065
 6,0.00008017,-0.00006688,0.00009554,-0.00127512,-0.00029041,0.00037795
 ,0.00066512,0.00324285,0.00069012,-0.00024096,-0.00005405,-0.00015941,
 -0.00000691,0.00000827,-0.00004396,-0.00001469,0.00004948,0.00003167,-
 0.00003939,0.00003761,-0.00002225,0.00006562,-0.00011395,-0.00002046,0
 .00011259,-0.00011277,-0.00008264,0.00045770,-0.00001860,-0.00071867,-
 0.00011951,0.00004863,0.00000974,-0.00000264,-0.00010918,-0.00004137,-
 0.00003732,0.00001762,0.00008258,-0.00009583,-0.00008973,-0.00006133,0
 .00003324,-0.00002537,-0.00007108,0.00066951,-0.00003826,-0.00007782,0
 .00002491,0.00000092,-0.00005166,0.00004128,-0.00001071,-0.00003450,0.
 00001529,-0.00006020,0.00000126,-0.00002181,-0.00000619,0.00001512,-0.
 00000083,-0.00004368,-0.00000664,0.00001247,0.00004967,-0.00002403,0.0
 0000401,0.00002398,0.00003873,-0.00000312,-0.00002022,-0.00000617,0.00
 000990,-0.00000439,0.00001428,-0.00000675,-0.00000522,-0.00001663,0.00
 006344,0.00014437,-0.00000582,0.00011442,0.00005602,0.00004856,0.00024
 374,0.00012699,-0.00013164,-0.00032621,0.00003111,-0.00006727,-0.00019
 674,-0.00116327,-0.00223870,0.46481101,0.00007543,-0.00000174,0.000005
 60,-0.00003135,0.00000363,0.00000787,-0.00008203,0.00000268,-0.0000329
 7,-0.00000258,-0.00001317,0.00003898,-0.00003265,-0.00001195,-0.000014
 21,-0.00000912,-0.00003285,0.00000380,-0.00005659,-0.00002081,-0.00001
 607,0.00007385,0.00005980,-0.00001027,0.00004167,0.00002990,-0.0000058
 3,0.00002835,0.00001101,-0.00003213,0.00007543,0.00001702,0.00000195,0
 .00038066,0.00019283,0.00016557,-0.00261517,0.00026852,0.00020250,-0.0
 0001475,-0.00802042,-0.00324401,0.00057102,0.00041726,-0.00019841,-0.0
 4405985,-0.01163164,-0.01320925,-0.00152525,-0.00079358,-0.00080257,0.
 00062642,0.00009398,0.00001063,-0.00031627,0.00001362,0.00030066,-0.00
 003659,0.00008814,-0.00009017,0.00016139,-0.00001261,0.00003663,0.0008
 4518,-0.00005174,0.00045489,-0.00000988,-0.00026019,-0.00052251,0.0009
 1269,-0.00099170,-0.00261070,-0.00011734,0.00004176,0.00064286,0.00015
 932,-0.00019870,-0.00037413,-0.00009870,0.00010370,0.00009859,0.000290
 54,-0.00013163,-0.00002022,-0.00019320,-0.00009159,0.00000344,0.000149
 38,0.00017451,0.00003106,-0.00038576,0.00032708,0.00017065,0.00018021,
 -0.00004881,-0.00014450,-0.00001920,-0.00000354,0.00003017,0.00000291,
 -0.00000787,-0.00001493,-0.00000180,-0.00000755,0.00000743,0.00002773,
 -0.00004021,-0.00001923,-0.00000541,0.00007602,-0.00002908,-0.00052090
 ,0.00008927,-0.00003681,-0.00163111,-0.00302280,-0.00042937,0.00034664
 ,-0.04194509,-0.01141381,0.00006251,0.00004709,-0.00000140,0.00002686,
 -0.00002209,0.00003042,0.00000973,0.00001036,-0.00000488,0.00000490,0.
 00000819,0.00000088,0.00000962,0.00000364,0.00000038,0.00000974,0.0000
 0738,-0.00000326,-0.00000092,-0.00000387,0.00000196,-0.00001202,-0.000
 02116,0.00001400,-0.00001020,-0.00001783,0.00001559,-0.00002061,-0.000
 00571,0.00001983,-0.00007250,-0.00004456,0.00000089,-0.00002139,-0.000
 67387,-0.00023267,0.00029818,0.00015624,-0.00017026,-0.00015045,-0.000
 04977,0.00038839,-0.00066825,0.00045814,0.00090665,0.00011599,0.000005
 67,0.00020888,0.00003853,-0.00000852,-0.00001102,0.00000479,-0.0000263
 7,-0.00001598,0.00003260,0.00003421,0.00001061,-0.00004197,-0.00001906
 ,-0.00000588,-0.00000459,-0.00026371,-0.00007579,-0.00054707,0.0001459
 3,0.00049967,0.00006042,-0.00007684,0.00001542,-0.00002681,0.00001458,
 0.00002137,-0.00006565,0.00002139,0.00004957,0.00001630,0.00006142,0.0
 0003802,0.00000816,-0.00000266,-0.00001878,-0.00018355,-0.00005116,-0.
 00002308,-0.00000291,0.00000204,0.00001418,-0.00002826,-0.00000045,0.0
 0001173,-0.00000746,0.00002369,0.00000373,0.00000519,0.00000106,-0.000
 00985,-0.00000235,0.00001731,0.00000098,-0.00000772,-0.00001456,0.0000
 1806,0.00000499,-0.00000945,-0.00001965,-0.00000531,0.00000998,0.00000
 315,-0.00000624,0.00000709,-0.00000364,-0.00000168,0.00000019,0.000006
 67,0.00001372,-0.00006373,0.00000291,0.00001434,-0.00008963,0.00002812
 ,-0.00006341,-0.00005734,0.00003821,0.00008650,0.00009650,0.00004818,-
 0.00171726,0.00206032,0.00067711,0.04966219,0.06365943,-0.00002886,0.0
 0012513,-0.00011443,-0.00003053,-0.00022724,0.00017309,0.00010305,0.00
 004187,0.00003587,-0.00002258,-0.00000302,0.00004939,0.00005176,0.0000
 1547,0.00002938,-0.00000748,-0.00007391,0.00005306,0.00003012,0.000009
 87,0.00001427,-0.00002865,0.00000012,-0.00004183,-0.00005043,-0.000028
 75,-0.00005777,-0.00002395,-0.00001840,-0.00009286,-0.00007350,0.00006
 436,-0.00017955,-0.00008615,0.00021321,-0.00029764,0.00031775,-0.00009
 880,0.00039288,0.00133266,-0.00009091,-0.00069319,0.00044023,0.0014383
 1,0.00003830,-0.01414658,-0.00407953,-0.00473244,-0.00365359,-0.003036
 69,-0.00175396,0.00089006,0.00078238,0.00018069,-0.00034433,-0.0000453
 8,0.00002539,0.00014001,-0.00012983,-0.00001060,-0.00005552,0.00017287
 ,-0.00006592,-0.00042574,0.00216002,0.00081090,0.00199461,-0.00183080,
 0.00080683,0.00094431,-0.00031825,0.00328609,0.00053880,-0.00022881,-0
 .00079212,0.00034013,0.00020098,0.00064090,-0.00054869,0.00013034,-0.0
 0027653,0.00009136,-0.00014644,-0.00010464,0.00006171,-0.00008342,0.00
 000807,-0.00009239,0.00015070,-0.00006912,0.00007975,-0.00012764,-0.00
 022596,-0.00003323,-0.00000288,0.00007817,0.00001602,-0.00000242,-0.00
 001981,-0.00000127,0.00000942,0.00001305,0.00000335,-0.00000802,0.0000
 0700,0.00001477,-0.00001216,-0.00001146,-0.00003815,0.00005744,-0.0000
 5731,-0.00004088,-0.00020373,-0.00024106,0.00013717,-0.00176665,-0.007
 55753,-0.10619526,-0.02268050,-0.04265821,-0.00002014,-0.00000252,-0.0
 0001754,-0.00002972,0.00002890,-0.00000191,-0.00001590,-0.00000993,-0.
 00000074,-0.00000834,-0.00000057,-0.00000723,0.00000069,0.00000439,-0.
 00000319,-0.00000616,0.00000519,-0.00000157,0.00000234,-0.00000919,-0.
 00000796,0.00000655,0.00001328,0.00003622,0.00001981,0.00002419,0.0000
 1757,0.00002514,0.00002050,0.00002801,0.00008111,-0.00014593,0.0002511
 8,0.00003857,0.00015610,-0.00001525,0.00007624,0.00004463,-0.00002881,
 -0.00035204,-0.00093563,0.00142416,0.00102295,0.00066144,0.00129243,-0
 .00015184,0.00000623,-0.00005308,0.00005477,-0.00000384,-0.00000774,-0
 .00001036,-0.00000223,-0.00000862,-0.00000484,0.00005383,0.00001170,-0
 .00000724,-0.00008138,0.00010849,-0.00008799,0.00020706,-0.00010220,0.
 00057918,-0.00006956,-0.00042131,-0.00010297,0.00007972,-0.00001651,0.
 00000224,-0.00003013,-0.00003153,0.00004238,0.00001270,-0.00000712,-0.
 00003009,0.00002261,-0.00000866,-0.00001753,-0.00004326,-0.00009263,0.
 00005854,-0.00007365,-0.00001356,0.00000846,-0.00000657,-0.00002019,0.
 00000342,-0.00000289,-0.00000303,0.00000437,-0.00001085,0.00000161,-0.
 00000833,0.00000181,-0.00000249,-0.00000334,-0.00000141,-0.00000347,0.
 00000573,0.00000274,-0.00000034,0.00000782,0.00000440,-0.00000080,-0.0
 0000230,-0.00000089,-0.00000259,-0.00000277,0.00000671,0.00000109,-0.0
 0000258,-0.00000789,-0.00000151,0.00001016,0.00001685,0.00003242,0.000
 08384,-0.00011407,0.00012476,0.00000058,-0.00000746,0.00002251,-0.0000
 5755,0.00002342,0.00000983,-0.00159089,0.00125642,-0.00013426,0.118778
 17,0.02857848,0.05106447\\0.00000381,-0.00000826,-0.00000200,-0.000000
 86,0.00001108,-0.00000168,-0.00000196,-0.00000295,-0.00000110,0.000005
 37,-0.00000134,0.00000280,-0.00000508,-0.00000251,-0.00000184,0.000005
 80,0.00000086,-0.00000033,0.00000350,-0.00000064,0.00000278,0.00000270
 ,0.00000374,-0.00000244,0.00000023,0.00000525,0.00000661,-0.00000141,0
 .00000258,-0.00000288,0.00000342,0.00000602,-0.00000249,-0.00000644,-0
 .00000860,0.00000376,-0.00000130,-0.00000166,-0.00000286,-0.00000171,0
 .00000005,0.00000081,0.00000086,-0.00000504,0.00000070,0.00000463,0.00
 001015,-0.00000043,0.00000301,-0.00000288,-0.00000020,-0.00000359,-0.0
 0000053,0.00000746,0.00000211,-0.00000901,-0.00000140,-0.00000043,0.00
 000134,-0.00000111,-0.00000472,-0.00000437,0.00000713,-0.00000532,0.00
 000218,0.00000050,-0.00000061,-0.00000201,-0.00000562,0.00000172,0.000
 00387,0.00000372,-0.00000104,0.00000487,-0.00000120,-0.00001208,0.0000
 0053,-0.00000396,0.00000563,0.00000652,0.00000193,-0.00000213,-0.00000
 328,0.00000117,0.00000134,-0.00000516,-0.00000749,-0.00000397,0.000002
 97,0.00001402,0.00000327,0.00000086,0.00000163,0.00000377,0.00000253,0
 .00000042,-0.00000273,0.00000201,0.00000090,0.00000329,0.00000187,-0.0
 0000461,-0.00000277,-0.00000079,-0.00000037,0.00000636,0.00000257,0.00
 000157,-0.00000475,0.00001558,0.00000302,-0.00000128,0.00000097,-0.000
 00303,0.00000361,-0.00000164,0.00000002,-0.00000053,-0.00000694,-0.000
 00017,0.00000034,-0.00000210,-0.00000011,0.00000119,0.00000009,-0.0000
 0091,0.00000043,0.00000064,-0.00000079,0.00000267,0.00000029,0.0000018
 8,-0.00000071,0.00000125,-0.00000087,0.00000392,-0.00000062,0.00000068
 ,0.00000228,-0.00000155,0.00000100,-0.00000312,-0.00000598,-0.00000424
 ,0.00000242,-0.00000078,-0.00000187,0.00000079,-0.00000406,0.00000112,
 -0.00000262,-0.00000499,0.00000042,-0.00000054,-0.00000375,0.00000017,
 -0.00000030,-0.00000081,0.00000034,-0.00000379,-0.00000312,-0.00000295
 ,0.00000085,-0.00000282,0.00000081,-0.00000288,-0.00000032,-0.00000100
 ,-0.00000195,0.00000112,0.00000042,-0.00000067,-0.00000094,0.00000048,
 0.00000090,-0.00000151,0.00000099,0.00000560,0.00000056,-0.00000391,-0
 .00000036,-0.00000131,0.00000017,-0.00000347,-0.00000003,-0.00000057,-
 0.00000042,0.00000029,-0.00000011,0.00000024,-0.00000062,0.00000077,-0
 .00000038,0.00000083,0.00000014,-0.00000069,0.00000182,-0.00000197,-0.
 00000111,0.00000033,0.00000380,0.00000650,0.00000028,-0.00000403,-0.00
 000099,0.00000105,-0.00000091,-0.00000290,0.00000214,0.00000018,0.0000
 0160,0.00000232,0.00000146,0.00000141,0.00000222,0.00000053,0.00000014
 ,0.00000163,-0.00000023,0.00000208,0.00000387,0.00000138,0.00000056,0.
 00000201,0.00000155,0.00000174,0.00000088,0.00000116,0.00000171,-0.000
 00014,0.00000010,-0.00000034,0.00000078,0.00000045,-0.00000103,-0.0000
 0564,0.,0.00000137,-0.00000716,-0.00000359,0.00000141,0.00000013,-0.00
 000010,-0.00000253,0.00000078,0.00000060,-0.00000484,-0.00000099,-0.00
 000126,-0.00000425,0.00000309,-0.00000493\\\@


 SOME PHYSICISTS WOULD PREFER TO COME BACK TO THE IDEA OF AN OBJECTIVE
 REAL WORLD WHOSE SMALLEST PARTS EXIST OBJECTIVELY IN THE SAME SENSE AS
 STONES OR TREES EXIST INDEPENDENTLY OF WHETHER WE OBSERVE THEM.
 THIS, HOWEVER, IS IMPOSSIBLE.  -- WERNER HEISENBERG
 Job cpu time:      18 days 23 hours 36 minutes 29.5 seconds.
 File lengths (MBytes):  RWF=  23622 Int=      0 D2E=      0 Chk=     97 Scr=      1
 Normal termination of Gaussian 09 at Sat May 21 16:46:14 2016.
