 Entering Gaussian System, Link 0=g09
 Initial command:
 /share/apps//g09/l1.exe "/scratch/Gau-321.inp" -scrdir="/scratch/"
 Entering Link 1 = /share/apps//g09/l1.exe PID=       322.
  
 Copyright (c) 1988,1990,1992,1993,1995,1998,2003,2009,2013,
            Gaussian, Inc.  All Rights Reserved.
  
 This is part of the Gaussian(R) 09 program.  It is based on
 the Gaussian(R) 03 system (copyright 2003, Gaussian, Inc.),
 the Gaussian(R) 98 system (copyright 1998, Gaussian, Inc.),
 the Gaussian(R) 94 system (copyright 1995, Gaussian, Inc.),
 the Gaussian 92(TM) system (copyright 1992, Gaussian, Inc.),
 the Gaussian 90(TM) system (copyright 1990, Gaussian, Inc.),
 the Gaussian 88(TM) system (copyright 1988, Gaussian, Inc.),
 the Gaussian 86(TM) system (copyright 1986, Carnegie Mellon
 University), and the Gaussian 82(TM) system (copyright 1983,
 Carnegie Mellon University). Gaussian is a federally registered
 trademark of Gaussian, Inc.
  
 This software contains proprietary and confidential information,
 including trade secrets, belonging to Gaussian, Inc.
  
 This software is provided under written license and may be
 used, copied, transmitted, or stored only in accord with that
 written license.
  
 The following legend is applicable only to US Government
 contracts under FAR:
  
                    RESTRICTED RIGHTS LEGEND
  
 Use, reproduction and disclosure by the US Government is
 subject to restrictions as set forth in subparagraphs (a)
 and (c) of the Commercial Computer Software - Restricted
 Rights clause in FAR 52.227-19.
  
 Gaussian, Inc.
 340 Quinnipiac St., Bldg. 40, Wallingford CT 06492
  
  
 ---------------------------------------------------------------
 Warning -- This program may not be used in any manner that
 competes with the business of Gaussian, Inc. or will provide
 assistance to any competitor of Gaussian, Inc.  The licensee
 of this program is prohibited from giving any competitor of
 Gaussian, Inc. access to this program.  By using this program,
 the user acknowledges that Gaussian, Inc. is engaged in the
 business of creating and licensing software in the field of
 computational chemistry and represents and warrants to the
 licensee that it is not a competitor of Gaussian, Inc. and that
 it will not use this program in any manner prohibited above.
 ---------------------------------------------------------------
  

 Cite this work as:
 Gaussian 09, Revision D.01,
 M. J. Frisch, G. W. Trucks, H. B. Schlegel, G. E. Scuseria, 
 M. A. Robb, J. R. Cheeseman, G. Scalmani, V. Barone, B. Mennucci, 
 G. A. Petersson, H. Nakatsuji, M. Caricato, X. Li, H. P. Hratchian, 
 A. F. Izmaylov, J. Bloino, G. Zheng, J. L. Sonnenberg, M. Hada, 
 M. Ehara, K. Toyota, R. Fukuda, J. Hasegawa, M. Ishida, T. Nakajima, 
 Y. Honda, O. Kitao, H. Nakai, T. Vreven, J. A. Montgomery, Jr., 
 J. E. Peralta, F. Ogliaro, M. Bearpark, J. J. Heyd, E. Brothers, 
 K. N. Kudin, V. N. Staroverov, T. Keith, R. Kobayashi, J. Normand, 
 K. Raghavachari, A. Rendell, J. C. Burant, S. S. Iyengar, J. Tomasi, 
 M. Cossi, N. Rega, J. M. Millam, M. Klene, J. E. Knox, J. B. Cross, 
 V. Bakken, C. Adamo, J. Jaramillo, R. Gomperts, R. E. Stratmann, 
 O. Yazyev, A. J. Austin, R. Cammi, C. Pomelli, J. W. Ochterski, 
 R. L. Martin, K. Morokuma, V. G. Zakrzewski, G. A. Voth, 
 P. Salvador, J. J. Dannenberg, S. Dapprich, A. D. Daniels, 
 O. Farkas, J. B. Foresman, J. V. Ortiz, J. Cioslowski, 
 and D. J. Fox, Gaussian, Inc., Wallingford CT, 2013.
 
 ******************************************
 Gaussian 09:  EM64L-G09RevD.01 24-Apr-2013
                28-Apr-2016 
 ******************************************
 %nproc=20
 Will use up to   20 processors via shared memory.
 %mem=80GB
 %chk=Tri_A131_of.chk
 ----------------------------------------------------------------------
 #P PBE1PBE/6-311+G(d,p) opt=ModRedundant freq optcyc=999 EmpiricalDisp
 ersion=GD3
 ----------------------------------------------------------------------
 1/6=999,14=-1,18=120,19=15,26=3,38=1/1,3;
 2/9=110,12=2,17=6,18=5,40=1/2;
 3/5=4,6=6,7=111,11=2,16=1,25=1,30=1,71=1,74=-13,124=31/1,2,3;
 4//1;
 5/5=2,38=5/2;
 6/7=2,8=2,9=2,10=2,28=1/1;
 7//1,2,3,16;
 1/6=999,14=-1,18=20,19=15,26=3/3(2);
 2/9=110/2;
 99//99;
 2/9=110/2;
 3/5=4,6=6,7=111,11=2,16=1,25=1,30=1,71=1,74=-13,124=31/1,2,3;
 4/5=5,16=3,69=1/1;
 5/5=2,38=5/2;
 7//1,2,3,16;
 1/6=999,14=-1,18=20,19=15,26=3/3(-5);
 2/9=110/2;
 6/7=2,8=2,9=2,10=2,19=2,28=1/1;
 99/9=1/99;
 Leave Link    1 at Thu Apr 28 08:26:18 2016, MaxMem= 10737418240 cpu:         2.1
 (Enter /share/apps//g09/l101.exe)
 -----
 trich
 -----
 Symbolic Z-matrix:
 Charge =  1 Multiplicity = 1
 O                    -0.47541  -0.2902    7.56598 
 C                    -1.08179  -0.80902   6.40806 
 C                    -0.0995   -0.95107   5.23622 
 C                     1.08518  -1.82269   5.67319 
 C                     1.72466  -1.24907   6.94148 
 C                     0.65228  -1.06597   8.02991 
 H                    -1.88067  -0.09479   6.1568 
 H                     0.27535   0.05888   5.00046 
 H                     0.73532  -2.84979   5.85149 
 H                     2.46349  -1.98183   7.32793 
 H                     0.30596  -2.07714   8.31518 
 O                     2.39036  -0.05792   6.52328 
 O                     2.0798   -1.93122   4.63716 
 O                    -0.74868  -1.49678   4.08517 
 O                    -1.6366   -2.11807   6.61685 
 C                     1.16338  -0.41353   9.30428 
 H                     0.30967  -0.25814   9.9847 
 H                     1.87801  -1.10548   9.78415 
 O                     1.7943    0.84039   8.99013 
 H                     2.12692   1.24483   9.80797 
 H                     2.44324   0.53735   7.30323 
 H                     2.58931  -1.09504   4.65945 
 H                    -1.69486  -1.64089   4.33588 
 O                    -3.45973  -4.55196   5.93666 
 C                    -3.15689  -4.74065   7.34357 
 C                    -3.05384  -3.36816   8.08583 
 C                    -2.96013  -2.14631   7.1454 
 C                    -4.03827  -2.18453   5.99723 
 C                    -4.55711  -3.62125   5.82663 
 H                    -4.0022   -5.27939   7.80534 
 H                    -2.15373  -3.39217   8.7176 
 H                    -3.12059  -1.24551   7.76084 
 H                    -4.88923  -1.5503    6.30257 
 H                    -5.26231  -3.8073    6.65884 
 O                    -3.45862  -1.63711   4.80322 
 O                    -4.24955  -3.28804   8.87996 
 O                    -2.08368  -5.61915   7.47293 
 C                    -5.35019  -3.91247   4.56243 
 H                    -5.62557  -4.979     4.56013 
 H                    -6.27169  -3.30561   4.58084 
 O                    -4.55511  -3.59832   3.39778 
 H                    -5.08562  -3.76967   2.60152 
 H                    -3.88645  -2.08997   4.03955 
 H                    -4.09229  -2.67251   9.61587 
 O                     0.9781   -5.833     5.44923 
 C                     1.94427  -6.12221   6.47768 
 C                     1.66891  -5.2209    7.6811 
 C                     0.2158   -5.33455   8.15501 
 C                    -0.78135  -5.21809   6.99849 
 C                    -0.35056  -6.17694   5.86685 
 H                     1.86003  -7.19618   6.75502 
 H                     1.8579   -4.18507   7.3449 
 H                     0.07737  -6.33068   8.6178 
 H                    -0.3681   -7.2139    6.26282 
 H                    -0.80883  -4.18455   6.62209 
 O                    -0.06501  -4.31523   9.12214 
 O                     2.48283  -5.54315   8.80711 
 O                     3.21031  -5.81291   5.99834 
 C                    -1.23702  -6.16459   4.62911 
 H                    -0.79125  -6.83461   3.87991 
 H                    -2.23434  -6.546     4.88803 
 O                    -1.34882  -4.8698    4.02129 
 H                    -2.06326  -4.40146   4.50656 
 H                     0.52672  -4.48679   9.8769 
 H                     3.41292  -5.43853   8.53674 
 C                     3.70571  -6.71374   4.97165 
 H                     4.41954  -7.41178   5.43852 
 H                     2.86536  -7.29846   4.56768 
 C                     4.39045  -5.90192   3.87774 
 H                     4.77771  -6.6123    3.12783 
 H                     5.27054  -5.40223   4.31143 
 C                     3.50285  -4.83855   3.21261 
 H                     3.1496   -4.15784   4.00189 
 H                     4.1328   -4.23398   2.53911 
 C                     2.317    -5.40316   2.41704 
 H                     2.68505  -6.05599   1.6088 
 H                     1.68593  -6.02984   3.06574 
 C                     1.4392   -4.33874   1.76165 
 H                     0.66955  -4.7993    1.12801 
 H                     2.03491  -3.65971   1.13447 
 N                     0.72542  -3.49569   2.77666 
 H                     0.15447  -2.74855   2.36001 
 H                     1.38015  -2.98277   3.41555 
 H                     0.04694  -4.05365   3.36232 
 
 The following ModRedundant input section has been read:
 B      45      84 B                                                           
 B      58      84 B                                                           
 B      56      84 B                                                           
 B      41      82 B                                                           
 B      62      82 B                                                           
 B      35      82 B                                                           
 B      13      83 B                                                           
 B      19      83 B                                                           
 B      14      83 B                                                           
 
 NAtoms=     84 NQM=       84 NQMF=       0 NMMI=      0 NMMIF=      0
                NMic=       0 NMicF=      0.
                    Isotopes and Nuclear Properties:
 (Nuclear quadrupole moments (NQMom) in fm**2, nuclear magnetic moments (NMagM)
  in nuclear magnetons)

  Atom         1           2           3           4           5           6           7           8           9          10
 IAtWgt=          16          12          12          12          12          12           1           1           1           1
 AtmWgt=  15.9949146  12.0000000  12.0000000  12.0000000  12.0000000  12.0000000   1.0078250   1.0078250   1.0078250   1.0078250
 NucSpn=           0           0           0           0           0           0           1           1           1           1
 AtZEff=   0.0000000   0.0000000   0.0000000   0.0000000   0.0000000   0.0000000   0.0000000   0.0000000   0.0000000   0.0000000
 NQMom=    0.0000000   0.0000000   0.0000000   0.0000000   0.0000000   0.0000000   0.0000000   0.0000000   0.0000000   0.0000000
 NMagM=    0.0000000   0.0000000   0.0000000   0.0000000   0.0000000   0.0000000   2.7928460   2.7928460   2.7928460   2.7928460
 AtZNuc=   8.0000000   6.0000000   6.0000000   6.0000000   6.0000000   6.0000000   1.0000000   1.0000000   1.0000000   1.0000000

  Atom        11          12          13          14          15          16          17          18          19          20
 IAtWgt=           1          16          16          16          16          12           1           1          16           1
 AtmWgt=   1.0078250  15.9949146  15.9949146  15.9949146  15.9949146  12.0000000   1.0078250   1.0078250  15.9949146   1.0078250
 NucSpn=           1           0           0           0           0           0           1           1           0           1
 AtZEff=   0.0000000   0.0000000   0.0000000   0.0000000   0.0000000   0.0000000   0.0000000   0.0000000   0.0000000   0.0000000
 NQMom=    0.0000000   0.0000000   0.0000000   0.0000000   0.0000000   0.0000000   0.0000000   0.0000000   0.0000000   0.0000000
 NMagM=    2.7928460   0.0000000   0.0000000   0.0000000   0.0000000   0.0000000   2.7928460   2.7928460   0.0000000   2.7928460
 AtZNuc=   1.0000000   8.0000000   8.0000000   8.0000000   8.0000000   6.0000000   1.0000000   1.0000000   8.0000000   1.0000000

  Atom        21          22          23          24          25          26          27          28          29          30
 IAtWgt=           1           1           1          16          12          12          12          12          12           1
 AtmWgt=   1.0078250   1.0078250   1.0078250  15.9949146  12.0000000  12.0000000  12.0000000  12.0000000  12.0000000   1.0078250
 NucSpn=           1           1           1           0           0           0           0           0           0           1
 AtZEff=   0.0000000   0.0000000   0.0000000   0.0000000   0.0000000   0.0000000   0.0000000   0.0000000   0.0000000   0.0000000
 NQMom=    0.0000000   0.0000000   0.0000000   0.0000000   0.0000000   0.0000000   0.0000000   0.0000000   0.0000000   0.0000000
 NMagM=    2.7928460   2.7928460   2.7928460   0.0000000   0.0000000   0.0000000   0.0000000   0.0000000   0.0000000   2.7928460
 AtZNuc=   1.0000000   1.0000000   1.0000000   8.0000000   6.0000000   6.0000000   6.0000000   6.0000000   6.0000000   1.0000000

  Atom        31          32          33          34          35          36          37          38          39          40
 IAtWgt=           1           1           1           1          16          16          16          12           1           1
 AtmWgt=   1.0078250   1.0078250   1.0078250   1.0078250  15.9949146  15.9949146  15.9949146  12.0000000   1.0078250   1.0078250
 NucSpn=           1           1           1           1           0           0           0           0           1           1
 AtZEff=   0.0000000   0.0000000   0.0000000   0.0000000   0.0000000   0.0000000   0.0000000   0.0000000   0.0000000   0.0000000
 NQMom=    0.0000000   0.0000000   0.0000000   0.0000000   0.0000000   0.0000000   0.0000000   0.0000000   0.0000000   0.0000000
 NMagM=    2.7928460   2.7928460   2.7928460   2.7928460   0.0000000   0.0000000   0.0000000   0.0000000   2.7928460   2.7928460
 AtZNuc=   1.0000000   1.0000000   1.0000000   1.0000000   8.0000000   8.0000000   8.0000000   6.0000000   1.0000000   1.0000000

  Atom        41          42          43          44          45          46          47          48          49          50
 IAtWgt=          16           1           1           1          16          12          12          12          12          12
 AtmWgt=  15.9949146   1.0078250   1.0078250   1.0078250  15.9949146  12.0000000  12.0000000  12.0000000  12.0000000  12.0000000
 NucSpn=           0           1           1           1           0           0           0           0           0           0
 AtZEff=   0.0000000   0.0000000   0.0000000   0.0000000   0.0000000   0.0000000   0.0000000   0.0000000   0.0000000   0.0000000
 NQMom=    0.0000000   0.0000000   0.0000000   0.0000000   0.0000000   0.0000000   0.0000000   0.0000000   0.0000000   0.0000000
 NMagM=    0.0000000   2.7928460   2.7928460   2.7928460   0.0000000   0.0000000   0.0000000   0.0000000   0.0000000   0.0000000
 AtZNuc=   8.0000000   1.0000000   1.0000000   1.0000000   8.0000000   6.0000000   6.0000000   6.0000000   6.0000000   6.0000000

  Atom        51          52          53          54          55          56          57          58          59          60
 IAtWgt=           1           1           1           1           1          16          16          16          12           1
 AtmWgt=   1.0078250   1.0078250   1.0078250   1.0078250   1.0078250  15.9949146  15.9949146  15.9949146  12.0000000   1.0078250
 NucSpn=           1           1           1           1           1           0           0           0           0           1
 AtZEff=   0.0000000   0.0000000   0.0000000   0.0000000   0.0000000   0.0000000   0.0000000   0.0000000   0.0000000   0.0000000
 NQMom=    0.0000000   0.0000000   0.0000000   0.0000000   0.0000000   0.0000000   0.0000000   0.0000000   0.0000000   0.0000000
 NMagM=    2.7928460   2.7928460   2.7928460   2.7928460   2.7928460   0.0000000   0.0000000   0.0000000   0.0000000   2.7928460
 AtZNuc=   1.0000000   1.0000000   1.0000000   1.0000000   1.0000000   8.0000000   8.0000000   8.0000000   6.0000000   1.0000000

  Atom        61          62          63          64          65          66          67          68          69          70
 IAtWgt=           1          16           1           1           1          12           1           1          12           1
 AtmWgt=   1.0078250  15.9949146   1.0078250   1.0078250   1.0078250  12.0000000   1.0078250   1.0078250  12.0000000   1.0078250
 NucSpn=           1           0           1           1           1           0           1           1           0           1
 AtZEff=   0.0000000   0.0000000   0.0000000   0.0000000   0.0000000   0.0000000   0.0000000   0.0000000   0.0000000   0.0000000
 NQMom=    0.0000000   0.0000000   0.0000000   0.0000000   0.0000000   0.0000000   0.0000000   0.0000000   0.0000000   0.0000000
 NMagM=    2.7928460   0.0000000   2.7928460   2.7928460   2.7928460   0.0000000   2.7928460   2.7928460   0.0000000   2.7928460
 AtZNuc=   1.0000000   8.0000000   1.0000000   1.0000000   1.0000000   6.0000000   1.0000000   1.0000000   6.0000000   1.0000000

  Atom        71          72          73          74          75          76          77          78          79          80
 IAtWgt=           1          12           1           1          12           1           1          12           1           1
 AtmWgt=   1.0078250  12.0000000   1.0078250   1.0078250  12.0000000   1.0078250   1.0078250  12.0000000   1.0078250   1.0078250
 NucSpn=           1           0           1           1           0           1           1           0           1           1
 AtZEff=   0.0000000   0.0000000   0.0000000   0.0000000   0.0000000   0.0000000   0.0000000   0.0000000   0.0000000   0.0000000
 NQMom=    0.0000000   0.0000000   0.0000000   0.0000000   0.0000000   0.0000000   0.0000000   0.0000000   0.0000000   0.0000000
 NMagM=    2.7928460   0.0000000   2.7928460   2.7928460   0.0000000   2.7928460   2.7928460   0.0000000   2.7928460   2.7928460
 AtZNuc=   1.0000000   6.0000000   1.0000000   1.0000000   6.0000000   1.0000000   1.0000000   6.0000000   1.0000000   1.0000000

  Atom        81          82          83          84
 IAtWgt=          14           1           1           1
 AtmWgt=  14.0030740   1.0078250   1.0078250   1.0078250
 NucSpn=           2           1           1           1
 AtZEff=   0.0000000   0.0000000   0.0000000   0.0000000
 NQMom=    2.0440000   0.0000000   0.0000000   0.0000000
 NMagM=    0.4037610   2.7928460   2.7928460   2.7928460
 AtZNuc=   7.0000000   1.0000000   1.0000000   1.0000000
 Leave Link  101 at Thu Apr 28 08:26:18 2016, MaxMem= 10737418240 cpu:         5.4
 (Enter /share/apps//g09/l103.exe)

 GradGradGradGradGradGradGradGradGradGradGradGradGradGradGradGradGradGrad
 Berny optimization.
 Initialization pass.
                           ----------------------------
                           !    Initial Parameters    !
                           ! (Angstroms and Degrees)  !
 --------------------------                            --------------------------
 ! Name  Definition              Value          Derivative Info.                !
 --------------------------------------------------------------------------------
 ! R1    R(1,2)                  1.4063         estimate D2E/DX2                !
 ! R2    R(1,6)                  1.4452         estimate D2E/DX2                !
 ! R3    R(2,3)                  1.5357         estimate D2E/DX2                !
 ! R4    R(2,7)                  1.1007         estimate D2E/DX2                !
 ! R5    R(2,15)                 1.437          estimate D2E/DX2                !
 ! R6    R(3,4)                  1.5343         estimate D2E/DX2                !
 ! R7    R(3,8)                  1.1028         estimate D2E/DX2                !
 ! R8    R(3,14)                 1.4297         estimate D2E/DX2                !
 ! R9    R(4,5)                  1.5318         estimate D2E/DX2                !
 ! R10   R(4,9)                  1.0996         estimate D2E/DX2                !
 ! R11   R(4,13)                 1.4403         estimate D2E/DX2                !
 ! R12   R(5,6)                  1.5389         estimate D2E/DX2                !
 ! R13   R(5,10)                 1.11           estimate D2E/DX2                !
 ! R14   R(5,12)                 1.4272         estimate D2E/DX2                !
 ! R15   R(6,11)                 1.1062         estimate D2E/DX2                !
 ! R16   R(6,16)                 1.5202         estimate D2E/DX2                !
 ! R17   R(12,21)                0.9826         estimate D2E/DX2                !
 ! R18   R(13,22)                0.9794         estimate D2E/DX2                !
 ! R19   R(13,83)                1.7572         estimate D2E/DX2                !
 ! R20   R(14,23)                0.9894         estimate D2E/DX2                !
 ! R21   R(14,83)                2.6811         estimate D2E/DX2                !
 ! R22   R(15,27)                1.4254         estimate D2E/DX2                !
 ! R23   R(16,17)                1.1027         estimate D2E/DX2                !
 ! R24   R(16,18)                1.1044         estimate D2E/DX2                !
 ! R25   R(16,19)                1.4384         estimate D2E/DX2                !
 ! R26   R(19,20)                0.9711         estimate D2E/DX2                !
 ! R27   R(19,83)                6.7723         estimate D2E/DX2                !
 ! R28   R(24,25)                1.4515         estimate D2E/DX2                !
 ! R29   R(24,29)                1.4431         estimate D2E/DX2                !
 ! R30   R(25,26)                1.5637         estimate D2E/DX2                !
 ! R31   R(25,30)                1.1036         estimate D2E/DX2                !
 ! R32   R(25,37)                1.3929         estimate D2E/DX2                !
 ! R33   R(26,27)                1.5447         estimate D2E/DX2                !
 ! R34   R(26,31)                1.1            estimate D2E/DX2                !
 ! R35   R(26,36)                1.4376         estimate D2E/DX2                !
 ! R36   R(27,28)                1.5755         estimate D2E/DX2                !
 ! R37   R(27,32)                1.1027         estimate D2E/DX2                !
 ! R38   R(28,29)                1.537          estimate D2E/DX2                !
 ! R39   R(28,33)                1.1044         estimate D2E/DX2                !
 ! R40   R(28,35)                1.4357         estimate D2E/DX2                !
 ! R41   R(29,34)                1.1066         estimate D2E/DX2                !
 ! R42   R(29,38)                1.5205         estimate D2E/DX2                !
 ! R43   R(35,43)                0.9856         estimate D2E/DX2                !
 ! R44   R(35,82)                4.501          estimate D2E/DX2                !
 ! R45   R(36,44)                0.9722         estimate D2E/DX2                !
 ! R46   R(37,49)                1.4429         estimate D2E/DX2                !
 ! R47   R(38,39)                1.1015         estimate D2E/DX2                !
 ! R48   R(38,40)                1.1035         estimate D2E/DX2                !
 ! R49   R(38,41)                1.4447         estimate D2E/DX2                !
 ! R50   R(41,42)                0.972          estimate D2E/DX2                !
 ! R51   R(41,82)                4.8969         estimate D2E/DX2                !
 ! R52   R(45,46)                1.4404         estimate D2E/DX2                !
 ! R53   R(45,50)                1.4346         estimate D2E/DX2                !
 ! R54   R(45,84)                2.8963         estimate D2E/DX2                !
 ! R55   R(46,47)                1.5285         estimate D2E/DX2                !
 ! R56   R(46,51)                1.1124         estimate D2E/DX2                !
 ! R57   R(46,58)                1.3886         estimate D2E/DX2                !
 ! R58   R(47,48)                1.5327         estimate D2E/DX2                !
 ! R59   R(47,52)                1.1053         estimate D2E/DX2                !
 ! R60   R(47,57)                1.4263         estimate D2E/DX2                !
 ! R61   R(48,49)                1.5315         estimate D2E/DX2                !
 ! R62   R(48,53)                1.1071         estimate D2E/DX2                !
 ! R63   R(48,56)                1.4329         estimate D2E/DX2                !
 ! R64   R(49,50)                1.5445         estimate D2E/DX2                !
 ! R65   R(49,55)                1.1003         estimate D2E/DX2                !
 ! R66   R(50,54)                1.1101         estimate D2E/DX2                !
 ! R67   R(50,59)                1.5225         estimate D2E/DX2                !
 ! R68   R(56,64)                0.9743         estimate D2E/DX2                !
 ! R69   R(56,84)                5.7668         estimate D2E/DX2                !
 ! R70   R(57,65)                0.9742         estimate D2E/DX2                !
 ! R71   R(58,66)                1.4529         estimate D2E/DX2                !
 ! R72   R(58,84)                4.4778         estimate D2E/DX2                !
 ! R73   R(59,60)                1.0995         estimate D2E/DX2                !
 ! R74   R(59,61)                1.0987         estimate D2E/DX2                !
 ! R75   R(59,62)                1.4347         estimate D2E/DX2                !
 ! R76   R(62,63)                0.9825         estimate D2E/DX2                !
 ! R77   R(62,82)                3.0854         estimate D2E/DX2                !
 ! R78   R(66,67)                1.1022         estimate D2E/DX2                !
 ! R79   R(66,68)                1.1006         estimate D2E/DX2                !
 ! R80   R(66,69)                1.5247         estimate D2E/DX2                !
 ! R81   R(69,70)                1.1032         estimate D2E/DX2                !
 ! R82   R(69,71)                1.1011         estimate D2E/DX2                !
 ! R83   R(69,72)                1.5366         estimate D2E/DX2                !
 ! R84   R(72,73)                1.1005         estimate D2E/DX2                !
 ! R85   R(72,74)                1.1027         estimate D2E/DX2                !
 ! R86   R(72,75)                1.5356         estimate D2E/DX2                !
 ! R87   R(75,76)                1.1022         estimate D2E/DX2                !
 ! R88   R(75,77)                1.1008         estimate D2E/DX2                !
 ! R89   R(75,78)                1.5274         estimate D2E/DX2                !
 ! R90   R(78,79)                1.0982         estimate D2E/DX2                !
 ! R91   R(78,80)                1.0997         estimate D2E/DX2                !
 ! R92   R(78,81)                1.5002         estimate D2E/DX2                !
 ! R93   R(81,82)                1.0285         estimate D2E/DX2                !
 ! R94   R(81,83)                1.0488         estimate D2E/DX2                !
 ! R95   R(81,84)                1.0558         estimate D2E/DX2                !
 ! A1    A(2,1,6)              113.7488         estimate D2E/DX2                !
 ! A2    A(1,2,3)              112.7447         estimate D2E/DX2                !
 ! A3    A(1,2,7)              105.1607         estimate D2E/DX2                !
 ! A4    A(1,2,15)             112.5146         estimate D2E/DX2                !
 ! A5    A(3,2,7)              110.4931         estimate D2E/DX2                !
 ! A6    A(3,2,15)             105.8766         estimate D2E/DX2                !
 ! A7    A(7,2,15)             110.1246         estimate D2E/DX2                !
 ! A8    A(2,3,4)              109.2149         estimate D2E/DX2                !
 ! A9    A(2,3,8)              107.2086         estimate D2E/DX2                !
 ! A10   A(2,3,14)             111.0516         estimate D2E/DX2                !
 ! A11   A(4,3,8)              108.5842         estimate D2E/DX2                !
 ! A12   A(4,3,14)             111.2871         estimate D2E/DX2                !
 ! A13   A(8,3,14)             109.3771         estimate D2E/DX2                !
 ! A14   A(3,4,5)              110.2063         estimate D2E/DX2                !
 ! A15   A(3,4,9)              109.338          estimate D2E/DX2                !
 ! A16   A(3,4,13)             111.7867         estimate D2E/DX2                !
 ! A17   A(5,4,9)              110.3861         estimate D2E/DX2                !
 ! A18   A(5,4,13)             109.6028         estimate D2E/DX2                !
 ! A19   A(9,4,13)             105.4248         estimate D2E/DX2                !
 ! A20   A(4,5,6)              109.8307         estimate D2E/DX2                !
 ! A21   A(4,5,10)             108.5972         estimate D2E/DX2                !
 ! A22   A(4,5,12)             105.3457         estimate D2E/DX2                !
 ! A23   A(6,5,10)             107.2253         estimate D2E/DX2                !
 ! A24   A(6,5,12)             115.6571         estimate D2E/DX2                !
 ! A25   A(10,5,12)            110.0295         estimate D2E/DX2                !
 ! A26   A(1,6,5)              112.3685         estimate D2E/DX2                !
 ! A27   A(1,6,11)             109.217          estimate D2E/DX2                !
 ! A28   A(1,6,16)             107.5213         estimate D2E/DX2                !
 ! A29   A(5,6,11)             106.965          estimate D2E/DX2                !
 ! A30   A(5,6,16)             114.1856         estimate D2E/DX2                !
 ! A31   A(11,6,16)            106.3426         estimate D2E/DX2                !
 ! A32   A(5,12,21)            107.3455         estimate D2E/DX2                !
 ! A33   A(4,13,22)            106.1731         estimate D2E/DX2                !
 ! A34   A(4,13,83)            105.6772         estimate D2E/DX2                !
 ! A35   A(22,13,83)           137.2112         estimate D2E/DX2                !
 ! A36   A(3,14,23)            106.6076         estimate D2E/DX2                !
 ! A37   A(3,14,83)             92.9861         estimate D2E/DX2                !
 ! A38   A(23,14,83)           137.8927         estimate D2E/DX2                !
 ! A39   A(2,15,27)            115.4931         estimate D2E/DX2                !
 ! A40   A(6,16,17)            108.5095         estimate D2E/DX2                !
 ! A41   A(6,16,18)            108.2337         estimate D2E/DX2                !
 ! A42   A(6,16,19)            109.7868         estimate D2E/DX2                !
 ! A43   A(17,16,18)           108.7316         estimate D2E/DX2                !
 ! A44   A(17,16,19)           110.5791         estimate D2E/DX2                !
 ! A45   A(18,16,19)           110.9308         estimate D2E/DX2                !
 ! A46   A(16,19,20)           109.2296         estimate D2E/DX2                !
 ! A47   A(16,19,83)            70.1739         estimate D2E/DX2                !
 ! A48   A(20,19,83)           161.6729         estimate D2E/DX2                !
 ! A49   A(25,24,29)           108.4458         estimate D2E/DX2                !
 ! A50   A(24,25,26)           111.0849         estimate D2E/DX2                !
 ! A51   A(24,25,30)           108.0121         estimate D2E/DX2                !
 ! A52   A(24,25,37)           109.4365         estimate D2E/DX2                !
 ! A53   A(26,25,30)           106.279          estimate D2E/DX2                !
 ! A54   A(26,25,37)           117.3026         estimate D2E/DX2                !
 ! A55   A(30,25,37)           104.0872         estimate D2E/DX2                !
 ! A56   A(25,26,27)           114.1587         estimate D2E/DX2                !
 ! A57   A(25,26,31)           107.9025         estimate D2E/DX2                !
 ! A58   A(25,26,36)           104.8509         estimate D2E/DX2                !
 ! A59   A(27,26,31)           108.4996         estimate D2E/DX2                !
 ! A60   A(27,26,36)           110.0398         estimate D2E/DX2                !
 ! A61   A(31,26,36)           111.3803         estimate D2E/DX2                !
 ! A62   A(15,27,26)           107.3221         estimate D2E/DX2                !
 ! A63   A(15,27,28)           111.4476         estimate D2E/DX2                !
 ! A64   A(15,27,32)           109.0187         estimate D2E/DX2                !
 ! A65   A(26,27,28)           112.5185         estimate D2E/DX2                !
 ! A66   A(26,27,32)           107.3104         estimate D2E/DX2                !
 ! A67   A(28,27,32)           109.0856         estimate D2E/DX2                !
 ! A68   A(27,28,29)           109.5461         estimate D2E/DX2                !
 ! A69   A(27,28,33)           108.1723         estimate D2E/DX2                !
 ! A70   A(27,28,35)           108.6958         estimate D2E/DX2                !
 ! A71   A(29,28,33)           107.9025         estimate D2E/DX2                !
 ! A72   A(29,28,35)           113.6017         estimate D2E/DX2                !
 ! A73   A(33,28,35)           108.7876         estimate D2E/DX2                !
 ! A74   A(24,29,28)           109.7362         estimate D2E/DX2                !
 ! A75   A(24,29,34)           108.5924         estimate D2E/DX2                !
 ! A76   A(24,29,38)           109.6636         estimate D2E/DX2                !
 ! A77   A(28,29,34)           106.7866         estimate D2E/DX2                !
 ! A78   A(28,29,38)           116.5754         estimate D2E/DX2                !
 ! A79   A(34,29,38)           105.1107         estimate D2E/DX2                !
 ! A80   A(28,35,43)           107.0945         estimate D2E/DX2                !
 ! A81   A(28,35,82)           132.9503         estimate D2E/DX2                !
 ! A82   A(43,35,82)            79.3035         estimate D2E/DX2                !
 ! A83   A(26,36,44)           108.5952         estimate D2E/DX2                !
 ! A84   A(25,37,49)           119.3119         estimate D2E/DX2                !
 ! A85   A(29,38,39)           108.5165         estimate D2E/DX2                !
 ! A86   A(29,38,40)           108.4424         estimate D2E/DX2                !
 ! A87   A(29,38,41)           109.9714         estimate D2E/DX2                !
 ! A88   A(39,38,40)           108.8888         estimate D2E/DX2                !
 ! A89   A(39,38,41)           110.2697         estimate D2E/DX2                !
 ! A90   A(40,38,41)           110.6967         estimate D2E/DX2                !
 ! A91   A(38,41,42)           108.7644         estimate D2E/DX2                !
 ! A92   A(38,41,82)           137.5493         estimate D2E/DX2                !
 ! A93   A(42,41,82)           112.4509         estimate D2E/DX2                !
 ! A94   A(46,45,50)           111.4223         estimate D2E/DX2                !
 ! A95   A(46,45,84)           148.5908         estimate D2E/DX2                !
 ! A96   A(50,45,84)            93.3988         estimate D2E/DX2                !
 ! A97   A(45,46,47)           108.8385         estimate D2E/DX2                !
 ! A98   A(45,46,51)           108.727          estimate D2E/DX2                !
 ! A99   A(45,46,58)           108.6844         estimate D2E/DX2                !
 ! A100  A(47,46,51)           111.0608         estimate D2E/DX2                !
 ! A101  A(47,46,58)           107.7386         estimate D2E/DX2                !
 ! A102  A(51,46,58)           111.7248         estimate D2E/DX2                !
 ! A103  A(46,47,48)           111.7473         estimate D2E/DX2                !
 ! A104  A(46,47,52)           106.3987         estimate D2E/DX2                !
 ! A105  A(46,47,57)           112.6769         estimate D2E/DX2                !
 ! A106  A(48,47,52)           109.0052         estimate D2E/DX2                !
 ! A107  A(48,47,57)           106.271          estimate D2E/DX2                !
 ! A108  A(52,47,57)           110.7507         estimate D2E/DX2                !
 ! A109  A(47,48,49)           112.2203         estimate D2E/DX2                !
 ! A110  A(47,48,53)           108.3325         estimate D2E/DX2                !
 ! A111  A(47,48,56)           109.9836         estimate D2E/DX2                !
 ! A112  A(49,48,53)           107.6193         estimate D2E/DX2                !
 ! A113  A(49,48,56)           109.1476         estimate D2E/DX2                !
 ! A114  A(53,48,56)           109.4769         estimate D2E/DX2                !
 ! A115  A(37,49,48)           108.5557         estimate D2E/DX2                !
 ! A116  A(37,49,50)           108.6686         estimate D2E/DX2                !
 ! A117  A(37,49,55)           110.5503         estimate D2E/DX2                !
 ! A118  A(48,49,50)           108.9342         estimate D2E/DX2                !
 ! A119  A(48,49,55)           110.2447         estimate D2E/DX2                !
 ! A120  A(50,49,55)           109.8443         estimate D2E/DX2                !
 ! A121  A(45,50,49)           108.8305         estimate D2E/DX2                !
 ! A122  A(45,50,54)           110.0241         estimate D2E/DX2                !
 ! A123  A(45,50,59)           107.4964         estimate D2E/DX2                !
 ! A124  A(49,50,54)           108.309          estimate D2E/DX2                !
 ! A125  A(49,50,59)           115.3542         estimate D2E/DX2                !
 ! A126  A(54,50,59)           106.7595         estimate D2E/DX2                !
 ! A127  A(48,56,64)           106.1754         estimate D2E/DX2                !
 ! A128  A(48,56,84)            49.7848         estimate D2E/DX2                !
 ! A129  A(64,56,84)           140.3477         estimate D2E/DX2                !
 ! A130  A(47,57,65)           107.5448         estimate D2E/DX2                !
 ! A131  A(46,58,66)           114.6257         estimate D2E/DX2                !
 ! A132  A(46,58,84)            69.3062         estimate D2E/DX2                !
 ! A133  A(66,58,84)            93.9269         estimate D2E/DX2                !
 ! A134  A(50,59,60)           108.2373         estimate D2E/DX2                !
 ! A135  A(50,59,61)           109.5188         estimate D2E/DX2                !
 ! A136  A(50,59,62)           113.3975         estimate D2E/DX2                !
 ! A137  A(60,59,61)           108.4843         estimate D2E/DX2                !
 ! A138  A(60,59,62)           107.0295         estimate D2E/DX2                !
 ! A139  A(61,59,62)           110.0225         estimate D2E/DX2                !
 ! A140  A(59,62,63)           106.1179         estimate D2E/DX2                !
 ! A141  A(59,62,82)           144.1555         estimate D2E/DX2                !
 ! A142  A(63,62,82)           107.0089         estimate D2E/DX2                !
 ! A143  A(58,66,67)           108.3111         estimate D2E/DX2                !
 ! A144  A(58,66,68)           109.1733         estimate D2E/DX2                !
 ! A145  A(58,66,69)           109.2686         estimate D2E/DX2                !
 ! A146  A(67,66,68)           108.2716         estimate D2E/DX2                !
 ! A147  A(67,66,69)           110.504          estimate D2E/DX2                !
 ! A148  A(68,66,69)           111.2511         estimate D2E/DX2                !
 ! A149  A(66,69,70)           107.6085         estimate D2E/DX2                !
 ! A150  A(66,69,71)           108.5433         estimate D2E/DX2                !
 ! A151  A(66,69,72)           114.8116         estimate D2E/DX2                !
 ! A152  A(70,69,71)           106.2244         estimate D2E/DX2                !
 ! A153  A(70,69,72)           110.7425         estimate D2E/DX2                !
 ! A154  A(71,69,72)           108.5516         estimate D2E/DX2                !
 ! A155  A(69,72,73)           107.6396         estimate D2E/DX2                !
 ! A156  A(69,72,74)           108.2889         estimate D2E/DX2                !
 ! A157  A(69,72,75)           114.5767         estimate D2E/DX2                !
 ! A158  A(73,72,74)           106.3972         estimate D2E/DX2                !
 ! A159  A(73,72,75)           110.556          estimate D2E/DX2                !
 ! A160  A(74,72,75)           109.0459         estimate D2E/DX2                !
 ! A161  A(72,75,76)           109.8658         estimate D2E/DX2                !
 ! A162  A(72,75,77)           110.2873         estimate D2E/DX2                !
 ! A163  A(72,75,78)           114.1974         estimate D2E/DX2                !
 ! A164  A(76,75,77)           106.6403         estimate D2E/DX2                !
 ! A165  A(76,75,78)           106.8583         estimate D2E/DX2                !
 ! A166  A(77,75,78)           108.6699         estimate D2E/DX2                !
 ! A167  A(75,78,79)           110.9828         estimate D2E/DX2                !
 ! A168  A(75,78,80)           111.3276         estimate D2E/DX2                !
 ! A169  A(75,78,81)           112.0086         estimate D2E/DX2                !
 ! A170  A(79,78,80)           108.0317         estimate D2E/DX2                !
 ! A171  A(79,78,81)           107.0147         estimate D2E/DX2                !
 ! A172  A(80,78,81)           107.2551         estimate D2E/DX2                !
 ! A173  A(78,81,82)           113.4707         estimate D2E/DX2                !
 ! A174  A(78,81,83)           112.9531         estimate D2E/DX2                !
 ! A175  A(78,81,84)           112.588          estimate D2E/DX2                !
 ! A176  A(82,81,83)           103.7722         estimate D2E/DX2                !
 ! A177  A(82,81,84)           104.5891         estimate D2E/DX2                !
 ! A178  A(83,81,84)           108.7673         estimate D2E/DX2                !
 ! A179  A(35,82,41)            32.412          estimate D2E/DX2                !
 ! A180  A(35,82,62)            59.0948         estimate D2E/DX2                !
 ! A181  A(35,82,81)           113.8977         estimate D2E/DX2                !
 ! A182  A(41,82,62)            45.4109         estimate D2E/DX2                !
 ! A183  A(41,82,81)           108.7831         estimate D2E/DX2                !
 ! A184  A(62,82,81)            63.4428         estimate D2E/DX2                !
 ! A185  A(13,83,14)            79.0962         estimate D2E/DX2                !
 ! A186  A(13,83,19)            20.8602         estimate D2E/DX2                !
 ! A187  A(13,83,81)           164.7429         estimate D2E/DX2                !
 ! A188  A(14,83,19)            61.9715         estimate D2E/DX2                !
 ! A189  A(14,83,81)            85.8437         estimate D2E/DX2                !
 ! A190  A(19,83,81)           144.6573         estimate D2E/DX2                !
 ! A191  A(45,84,56)            42.1577         estimate D2E/DX2                !
 ! A192  A(45,84,58)            26.7874         estimate D2E/DX2                !
 ! A193  A(45,84,81)           121.1832         estimate D2E/DX2                !
 ! A194  A(56,84,58)            53.6953         estimate D2E/DX2                !
 ! A195  A(56,84,81)           126.1921         estimate D2E/DX2                !
 ! A196  A(58,84,81)            94.5998         estimate D2E/DX2                !
 ! D1    D(6,1,2,3)            -57.0199         estimate D2E/DX2                !
 ! D2    D(6,1,2,7)           -177.4772         estimate D2E/DX2                !
 ! D3    D(6,1,2,15)            62.6421         estimate D2E/DX2                !
 ! D4    D(2,1,6,5)             55.5317         estimate D2E/DX2                !
 ! D5    D(2,1,6,11)           -62.9966         estimate D2E/DX2                !
 ! D6    D(2,1,6,16)          -177.9909         estimate D2E/DX2                !
 ! D7    D(1,2,3,4)             56.1496         estimate D2E/DX2                !
 ! D8    D(1,2,3,8)            -61.3189         estimate D2E/DX2                !
 ! D9    D(1,2,3,14)           179.2496         estimate D2E/DX2                !
 ! D10   D(7,2,3,4)            173.4996         estimate D2E/DX2                !
 ! D11   D(7,2,3,8)             56.031          estimate D2E/DX2                !
 ! D12   D(7,2,3,14)           -63.4005         estimate D2E/DX2                !
 ! D13   D(15,2,3,4)           -67.2797         estimate D2E/DX2                !
 ! D14   D(15,2,3,8)           175.2518         estimate D2E/DX2                !
 ! D15   D(15,2,3,14)           55.8203         estimate D2E/DX2                !
 ! D16   D(1,2,15,27)           85.7051         estimate D2E/DX2                !
 ! D17   D(3,2,15,27)         -150.7207         estimate D2E/DX2                !
 ! D18   D(7,2,15,27)          -31.2573         estimate D2E/DX2                !
 ! D19   D(2,3,4,5)            -54.6209         estimate D2E/DX2                !
 ! D20   D(2,3,4,9)             66.8824         estimate D2E/DX2                !
 ! D21   D(2,3,4,13)          -176.7691         estimate D2E/DX2                !
 ! D22   D(8,3,4,5)             61.977          estimate D2E/DX2                !
 ! D23   D(8,3,4,9)           -176.5197         estimate D2E/DX2                !
 ! D24   D(8,3,4,13)           -60.1712         estimate D2E/DX2                !
 ! D25   D(14,3,4,5)          -177.5807         estimate D2E/DX2                !
 ! D26   D(14,3,4,9)           -56.0774         estimate D2E/DX2                !
 ! D27   D(14,3,4,13)           60.2711         estimate D2E/DX2                !
 ! D28   D(2,3,14,23)            0.5981         estimate D2E/DX2                !
 ! D29   D(2,3,14,83)         -141.662          estimate D2E/DX2                !
 ! D30   D(4,3,14,23)          122.4979         estimate D2E/DX2                !
 ! D31   D(4,3,14,83)          -19.7622         estimate D2E/DX2                !
 ! D32   D(8,3,14,23)         -117.5282         estimate D2E/DX2                !
 ! D33   D(8,3,14,83)          100.2117         estimate D2E/DX2                !
 ! D34   D(3,4,5,6)             53.8002         estimate D2E/DX2                !
 ! D35   D(3,4,5,10)           170.7677         estimate D2E/DX2                !
 ! D36   D(3,4,5,12)           -71.3878         estimate D2E/DX2                !
 ! D37   D(9,4,5,6)            -67.0777         estimate D2E/DX2                !
 ! D38   D(9,4,5,10)            49.8898         estimate D2E/DX2                !
 ! D39   D(9,4,5,12)           167.7343         estimate D2E/DX2                !
 ! D40   D(13,4,5,6)           177.2292         estimate D2E/DX2                !
 ! D41   D(13,4,5,10)          -65.8033         estimate D2E/DX2                !
 ! D42   D(13,4,5,12)           52.0412         estimate D2E/DX2                !
 ! D43   D(3,4,13,22)           78.3408         estimate D2E/DX2                !
 ! D44   D(3,4,13,83)          -72.7066         estimate D2E/DX2                !
 ! D45   D(5,4,13,22)          -44.1528         estimate D2E/DX2                !
 ! D46   D(5,4,13,83)          164.7998         estimate D2E/DX2                !
 ! D47   D(9,4,13,22)         -162.9595         estimate D2E/DX2                !
 ! D48   D(9,4,13,83)           45.9931         estimate D2E/DX2                !
 ! D49   D(4,5,6,1)            -53.3227         estimate D2E/DX2                !
 ! D50   D(4,5,6,11)            66.5228         estimate D2E/DX2                !
 ! D51   D(4,5,6,16)          -176.1225         estimate D2E/DX2                !
 ! D52   D(10,5,6,1)          -171.1458         estimate D2E/DX2                !
 ! D53   D(10,5,6,11)          -51.3003         estimate D2E/DX2                !
 ! D54   D(10,5,6,16)           66.0544         estimate D2E/DX2                !
 ! D55   D(12,5,6,1)            65.711          estimate D2E/DX2                !
 ! D56   D(12,5,6,11)         -174.4435         estimate D2E/DX2                !
 ! D57   D(12,5,6,16)          -57.0889         estimate D2E/DX2                !
 ! D58   D(4,5,12,21)          154.0431         estimate D2E/DX2                !
 ! D59   D(6,5,12,21)           32.5711         estimate D2E/DX2                !
 ! D60   D(10,5,12,21)         -89.0825         estimate D2E/DX2                !
 ! D61   D(1,6,16,17)           50.3321         estimate D2E/DX2                !
 ! D62   D(1,6,16,18)          168.1619         estimate D2E/DX2                !
 ! D63   D(1,6,16,19)          -70.6235         estimate D2E/DX2                !
 ! D64   D(5,6,16,17)          175.731          estimate D2E/DX2                !
 ! D65   D(5,6,16,18)          -66.4392         estimate D2E/DX2                !
 ! D66   D(5,6,16,19)           54.7754         estimate D2E/DX2                !
 ! D67   D(11,6,16,17)         -66.5572         estimate D2E/DX2                !
 ! D68   D(11,6,16,18)          51.2726         estimate D2E/DX2                !
 ! D69   D(11,6,16,19)         172.4872         estimate D2E/DX2                !
 ! D70   D(4,13,83,14)          40.5261         estimate D2E/DX2                !
 ! D71   D(4,13,83,19)           7.4957         estimate D2E/DX2                !
 ! D72   D(4,13,83,81)          31.183          estimate D2E/DX2                !
 ! D73   D(22,13,83,14)        -96.2836         estimate D2E/DX2                !
 ! D74   D(22,13,83,19)       -129.314          estimate D2E/DX2                !
 ! D75   D(22,13,83,81)       -105.6267         estimate D2E/DX2                !
 ! D76   D(3,14,83,13)         -12.0351         estimate D2E/DX2                !
 ! D77   D(3,14,83,19)           0.6674         estimate D2E/DX2                !
 ! D78   D(3,14,83,81)         165.51           estimate D2E/DX2                !
 ! D79   D(23,14,83,13)       -131.0185         estimate D2E/DX2                !
 ! D80   D(23,14,83,19)       -118.316          estimate D2E/DX2                !
 ! D81   D(23,14,83,81)         46.5266         estimate D2E/DX2                !
 ! D82   D(2,15,27,26)        -144.8174         estimate D2E/DX2                !
 ! D83   D(2,15,27,28)          91.5717         estimate D2E/DX2                !
 ! D84   D(2,15,27,32)         -28.893          estimate D2E/DX2                !
 ! D85   D(6,16,19,20)        -179.3292         estimate D2E/DX2                !
 ! D86   D(6,16,19,83)         -18.7752         estimate D2E/DX2                !
 ! D87   D(17,16,19,20)         60.9711         estimate D2E/DX2                !
 ! D88   D(17,16,19,83)       -138.4749         estimate D2E/DX2                !
 ! D89   D(18,16,19,20)        -59.7504         estimate D2E/DX2                !
 ! D90   D(18,16,19,83)        100.8036         estimate D2E/DX2                !
 ! D91   D(16,19,83,13)       -132.7888         estimate D2E/DX2                !
 ! D92   D(16,19,83,14)         84.538          estimate D2E/DX2                !
 ! D93   D(16,19,83,81)         57.7417         estimate D2E/DX2                !
 ! D94   D(20,19,83,13)        -41.3572         estimate D2E/DX2                !
 ! D95   D(20,19,83,14)        175.9696         estimate D2E/DX2                !
 ! D96   D(20,19,83,81)        149.1732         estimate D2E/DX2                !
 ! D97   D(29,24,25,26)        -47.8846         estimate D2E/DX2                !
 ! D98   D(29,24,25,30)         68.3009         estimate D2E/DX2                !
 ! D99   D(29,24,25,37)       -178.9841         estimate D2E/DX2                !
 ! D100  D(25,24,29,28)         79.4588         estimate D2E/DX2                !
 ! D101  D(25,24,29,34)        -36.9269         estimate D2E/DX2                !
 ! D102  D(25,24,29,38)       -151.2747         estimate D2E/DX2                !
 ! D103  D(24,25,26,27)        -13.5785         estimate D2E/DX2                !
 ! D104  D(24,25,26,31)       -134.2656         estimate D2E/DX2                !
 ! D105  D(24,25,26,36)        106.918          estimate D2E/DX2                !
 ! D106  D(30,25,26,27)       -130.8264         estimate D2E/DX2                !
 ! D107  D(30,25,26,31)        108.4865         estimate D2E/DX2                !
 ! D108  D(30,25,26,36)        -10.3299         estimate D2E/DX2                !
 ! D109  D(37,25,26,27)        113.3186         estimate D2E/DX2                !
 ! D110  D(37,25,26,31)         -7.3686         estimate D2E/DX2                !
 ! D111  D(37,25,26,36)       -126.1849         estimate D2E/DX2                !
 ! D112  D(24,25,37,49)         66.3815         estimate D2E/DX2                !
 ! D113  D(26,25,37,49)        -61.3145         estimate D2E/DX2                !
 ! D114  D(30,25,37,49)       -178.365          estimate D2E/DX2                !
 ! D115  D(25,26,27,15)        -75.4187         estimate D2E/DX2                !
 ! D116  D(25,26,27,28)         47.5336         estimate D2E/DX2                !
 ! D117  D(25,26,27,32)        167.532          estimate D2E/DX2                !
 ! D118  D(31,26,27,15)         44.9354         estimate D2E/DX2                !
 ! D119  D(31,26,27,28)        167.8878         estimate D2E/DX2                !
 ! D120  D(31,26,27,32)        -72.1139         estimate D2E/DX2                !
 ! D121  D(36,26,27,15)        167.0246         estimate D2E/DX2                !
 ! D122  D(36,26,27,28)        -70.023          estimate D2E/DX2                !
 ! D123  D(36,26,27,32)         49.9753         estimate D2E/DX2                !
 ! D124  D(25,26,36,44)        157.0995         estimate D2E/DX2                !
 ! D125  D(27,26,36,44)        -79.7105         estimate D2E/DX2                !
 ! D126  D(31,26,36,44)         40.6547         estimate D2E/DX2                !
 ! D127  D(15,27,28,29)        101.0727         estimate D2E/DX2                !
 ! D128  D(15,27,28,33)       -141.5495         estimate D2E/DX2                !
 ! D129  D(15,27,28,35)        -23.5847         estimate D2E/DX2                !
 ! D130  D(26,27,28,29)        -19.536          estimate D2E/DX2                !
 ! D131  D(26,27,28,33)         97.8418         estimate D2E/DX2                !
 ! D132  D(26,27,28,35)       -144.1934         estimate D2E/DX2                !
 ! D133  D(32,27,28,29)       -138.502          estimate D2E/DX2                !
 ! D134  D(32,27,28,33)        -21.1242         estimate D2E/DX2                !
 ! D135  D(32,27,28,35)         96.8406         estimate D2E/DX2                !
 ! D136  D(27,28,29,24)        -40.6206         estimate D2E/DX2                !
 ! D137  D(27,28,29,34)         76.8979         estimate D2E/DX2                !
 ! D138  D(27,28,29,38)       -166.0144         estimate D2E/DX2                !
 ! D139  D(33,28,29,24)       -158.1674         estimate D2E/DX2                !
 ! D140  D(33,28,29,34)        -40.649          estimate D2E/DX2                !
 ! D141  D(33,28,29,38)         76.4387         estimate D2E/DX2                !
 ! D142  D(35,28,29,24)         81.1363         estimate D2E/DX2                !
 ! D143  D(35,28,29,34)       -161.3453         estimate D2E/DX2                !
 ! D144  D(35,28,29,38)        -44.2576         estimate D2E/DX2                !
 ! D145  D(27,28,35,43)        149.324          estimate D2E/DX2                !
 ! D146  D(27,28,35,82)         58.1218         estimate D2E/DX2                !
 ! D147  D(29,28,35,43)         27.0953         estimate D2E/DX2                !
 ! D148  D(29,28,35,82)        -64.107          estimate D2E/DX2                !
 ! D149  D(33,28,35,43)        -93.1017         estimate D2E/DX2                !
 ! D150  D(33,28,35,82)        175.696          estimate D2E/DX2                !
 ! D151  D(24,29,38,39)         52.7049         estimate D2E/DX2                !
 ! D152  D(24,29,38,40)        170.8416         estimate D2E/DX2                !
 ! D153  D(24,29,38,41)        -67.9883         estimate D2E/DX2                !
 ! D154  D(28,29,38,39)        178.1354         estimate D2E/DX2                !
 ! D155  D(28,29,38,40)        -63.7279         estimate D2E/DX2                !
 ! D156  D(28,29,38,41)         57.4422         estimate D2E/DX2                !
 ! D157  D(34,29,38,39)        -63.8587         estimate D2E/DX2                !
 ! D158  D(34,29,38,40)         54.278          estimate D2E/DX2                !
 ! D159  D(34,29,38,41)        175.4481         estimate D2E/DX2                !
 ! D160  D(28,35,82,41)         81.8697         estimate D2E/DX2                !
 ! D161  D(28,35,82,62)         27.5758         estimate D2E/DX2                !
 ! D162  D(28,35,82,81)         -5.7902         estimate D2E/DX2                !
 ! D163  D(43,35,82,41)        -21.5962         estimate D2E/DX2                !
 ! D164  D(43,35,82,62)        -75.89           estimate D2E/DX2                !
 ! D165  D(43,35,82,81)       -109.2561         estimate D2E/DX2                !
 ! D166  D(25,37,49,48)        124.1425         estimate D2E/DX2                !
 ! D167  D(25,37,49,50)       -117.5177         estimate D2E/DX2                !
 ! D168  D(25,37,49,55)          3.1016         estimate D2E/DX2                !
 ! D169  D(29,38,41,42)       -178.6096         estimate D2E/DX2                !
 ! D170  D(29,38,41,82)         15.7035         estimate D2E/DX2                !
 ! D171  D(39,38,41,42)         61.7593         estimate D2E/DX2                !
 ! D172  D(39,38,41,82)       -103.9275         estimate D2E/DX2                !
 ! D173  D(40,38,41,42)        -58.8007         estimate D2E/DX2                !
 ! D174  D(40,38,41,82)        135.5125         estimate D2E/DX2                !
 ! D175  D(38,41,82,35)        -55.916          estimate D2E/DX2                !
 ! D176  D(38,41,82,62)         46.0335         estimate D2E/DX2                !
 ! D177  D(38,41,82,81)         49.3108         estimate D2E/DX2                !
 ! D178  D(42,41,82,35)        138.7556         estimate D2E/DX2                !
 ! D179  D(42,41,82,62)       -119.295          estimate D2E/DX2                !
 ! D180  D(42,41,82,81)       -116.0176         estimate D2E/DX2                !
 ! D181  D(50,45,46,47)        -64.9816         estimate D2E/DX2                !
 ! D182  D(50,45,46,51)         56.1218         estimate D2E/DX2                !
 ! D183  D(50,45,46,58)        177.9402         estimate D2E/DX2                !
 ! D184  D(84,45,46,47)         74.9021         estimate D2E/DX2                !
 ! D185  D(84,45,46,51)       -163.9945         estimate D2E/DX2                !
 ! D186  D(84,45,46,58)        -42.1762         estimate D2E/DX2                !
 ! D187  D(46,45,50,49)         68.0546         estimate D2E/DX2                !
 ! D188  D(46,45,50,54)        -50.4707         estimate D2E/DX2                !
 ! D189  D(46,45,50,59)       -166.3629         estimate D2E/DX2                !
 ! D190  D(84,45,50,49)        -92.2884         estimate D2E/DX2                !
 ! D191  D(84,45,50,54)        149.1863         estimate D2E/DX2                !
 ! D192  D(84,45,50,59)         33.2941         estimate D2E/DX2                !
 ! D193  D(46,45,84,56)        -77.3619         estimate D2E/DX2                !
 ! D194  D(46,45,84,58)         25.9543         estimate D2E/DX2                !
 ! D195  D(46,45,84,81)         33.7334         estimate D2E/DX2                !
 ! D196  D(50,45,84,56)         65.7049         estimate D2E/DX2                !
 ! D197  D(50,45,84,58)        169.021          estimate D2E/DX2                !
 ! D198  D(50,45,84,81)        176.8002         estimate D2E/DX2                !
 ! D199  D(45,46,47,48)         53.7407         estimate D2E/DX2                !
 ! D200  D(45,46,47,52)        -65.1323         estimate D2E/DX2                !
 ! D201  D(45,46,47,57)        173.3182         estimate D2E/DX2                !
 ! D202  D(51,46,47,48)        -65.9222         estimate D2E/DX2                !
 ! D203  D(51,46,47,52)        175.2048         estimate D2E/DX2                !
 ! D204  D(51,46,47,57)         53.6553         estimate D2E/DX2                !
 ! D205  D(58,46,47,48)        171.4198         estimate D2E/DX2                !
 ! D206  D(58,46,47,52)         52.5468         estimate D2E/DX2                !
 ! D207  D(58,46,47,57)        -69.0027         estimate D2E/DX2                !
 ! D208  D(45,46,58,66)        -70.6853         estimate D2E/DX2                !
 ! D209  D(45,46,58,84)         14.0004         estimate D2E/DX2                !
 ! D210  D(47,46,58,66)        171.536          estimate D2E/DX2                !
 ! D211  D(47,46,58,84)       -103.7783         estimate D2E/DX2                !
 ! D212  D(51,46,58,66)         49.287          estimate D2E/DX2                !
 ! D213  D(51,46,58,84)        133.9727         estimate D2E/DX2                !
 ! D214  D(46,47,48,49)        -48.2524         estimate D2E/DX2                !
 ! D215  D(46,47,48,53)         70.4208         estimate D2E/DX2                !
 ! D216  D(46,47,48,56)       -169.9588         estimate D2E/DX2                !
 ! D217  D(52,47,48,49)         69.0618         estimate D2E/DX2                !
 ! D218  D(52,47,48,53)       -172.2649         estimate D2E/DX2                !
 ! D219  D(52,47,48,56)        -52.6445         estimate D2E/DX2                !
 ! D220  D(57,47,48,49)       -171.5388         estimate D2E/DX2                !
 ! D221  D(57,47,48,53)        -52.8656         estimate D2E/DX2                !
 ! D222  D(57,47,48,56)         66.7548         estimate D2E/DX2                !
 ! D223  D(46,47,57,65)         59.7369         estimate D2E/DX2                !
 ! D224  D(48,47,57,65)       -177.5614         estimate D2E/DX2                !
 ! D225  D(52,47,57,65)        -59.3088         estimate D2E/DX2                !
 ! D226  D(47,48,49,37)        167.7597         estimate D2E/DX2                !
 ! D227  D(47,48,49,50)         49.5882         estimate D2E/DX2                !
 ! D228  D(47,48,49,55)        -71.0113         estimate D2E/DX2                !
 ! D229  D(53,48,49,37)         48.667          estimate D2E/DX2                !
 ! D230  D(53,48,49,50)        -69.5045         estimate D2E/DX2                !
 ! D231  D(53,48,49,55)        169.896          estimate D2E/DX2                !
 ! D232  D(56,48,49,37)        -70.0574         estimate D2E/DX2                !
 ! D233  D(56,48,49,50)        171.7711         estimate D2E/DX2                !
 ! D234  D(56,48,49,55)         51.1716         estimate D2E/DX2                !
 ! D235  D(47,48,56,64)        -62.3808         estimate D2E/DX2                !
 ! D236  D(47,48,56,84)         81.1874         estimate D2E/DX2                !
 ! D237  D(49,48,56,64)        174.0995         estimate D2E/DX2                !
 ! D238  D(49,48,56,84)        -42.3323         estimate D2E/DX2                !
 ! D239  D(53,48,56,64)         56.5404         estimate D2E/DX2                !
 ! D240  D(53,48,56,84)       -159.8914         estimate D2E/DX2                !
 ! D241  D(37,49,50,45)       -176.4562         estimate D2E/DX2                !
 ! D242  D(37,49,50,54)        -56.8582         estimate D2E/DX2                !
 ! D243  D(37,49,50,59)         62.6733         estimate D2E/DX2                !
 ! D244  D(48,49,50,45)        -58.3558         estimate D2E/DX2                !
 ! D245  D(48,49,50,54)         61.2422         estimate D2E/DX2                !
 ! D246  D(48,49,50,59)       -179.2263         estimate D2E/DX2                !
 ! D247  D(55,49,50,45)         62.4895         estimate D2E/DX2                !
 ! D248  D(55,49,50,54)       -177.9125         estimate D2E/DX2                !
 ! D249  D(55,49,50,59)        -58.381          estimate D2E/DX2                !
 ! D250  D(45,50,59,60)         54.8242         estimate D2E/DX2                !
 ! D251  D(45,50,59,61)        172.9215         estimate D2E/DX2                !
 ! D252  D(45,50,59,62)        -63.7667         estimate D2E/DX2                !
 ! D253  D(49,50,59,60)        176.4165         estimate D2E/DX2                !
 ! D254  D(49,50,59,61)        -65.4861         estimate D2E/DX2                !
 ! D255  D(49,50,59,62)         57.8256         estimate D2E/DX2                !
 ! D256  D(54,50,59,60)        -63.2025         estimate D2E/DX2                !
 ! D257  D(54,50,59,61)         54.8949         estimate D2E/DX2                !
 ! D258  D(54,50,59,62)        178.2066         estimate D2E/DX2                !
 ! D259  D(48,56,84,45)        -16.1344         estimate D2E/DX2                !
 ! D260  D(48,56,84,58)        -49.1047         estimate D2E/DX2                !
 ! D261  D(48,56,84,81)       -114.6322         estimate D2E/DX2                !
 ! D262  D(64,56,84,45)         47.2201         estimate D2E/DX2                !
 ! D263  D(64,56,84,58)         14.2497         estimate D2E/DX2                !
 ! D264  D(64,56,84,81)        -51.2778         estimate D2E/DX2                !
 ! D265  D(46,58,66,67)       -101.5152         estimate D2E/DX2                !
 ! D266  D(46,58,66,68)         16.1762         estimate D2E/DX2                !
 ! D267  D(46,58,66,69)        138.0513         estimate D2E/DX2                !
 ! D268  D(84,58,66,67)       -170.5269         estimate D2E/DX2                !
 ! D269  D(84,58,66,68)        -52.8355         estimate D2E/DX2                !
 ! D270  D(84,58,66,69)         69.0396         estimate D2E/DX2                !
 ! D271  D(46,58,84,45)        -14.6496         estimate D2E/DX2                !
 ! D272  D(46,58,84,56)         39.4906         estimate D2E/DX2                !
 ! D273  D(46,58,84,81)        172.0217         estimate D2E/DX2                !
 ! D274  D(66,58,84,45)        100.2194         estimate D2E/DX2                !
 ! D275  D(66,58,84,56)        154.3596         estimate D2E/DX2                !
 ! D276  D(66,58,84,81)        -73.1094         estimate D2E/DX2                !
 ! D277  D(50,59,62,63)        -84.4988         estimate D2E/DX2                !
 ! D278  D(50,59,62,82)         72.4257         estimate D2E/DX2                !
 ! D279  D(60,59,62,63)        156.216          estimate D2E/DX2                !
 ! D280  D(60,59,62,82)        -46.8595         estimate D2E/DX2                !
 ! D281  D(61,59,62,63)         38.536          estimate D2E/DX2                !
 ! D282  D(61,59,62,82)       -164.5395         estimate D2E/DX2                !
 ! D283  D(59,62,82,35)       -159.8795         estimate D2E/DX2                !
 ! D284  D(59,62,82,41)        162.4469         estimate D2E/DX2                !
 ! D285  D(59,62,82,81)        -14.0841         estimate D2E/DX2                !
 ! D286  D(63,62,82,35)         -3.0682         estimate D2E/DX2                !
 ! D287  D(63,62,82,41)        -40.7418         estimate D2E/DX2                !
 ! D288  D(63,62,82,81)        142.7272         estimate D2E/DX2                !
 ! D289  D(58,66,69,70)        178.5754         estimate D2E/DX2                !
 ! D290  D(58,66,69,71)         64.0153         estimate D2E/DX2                !
 ! D291  D(58,66,69,72)        -57.6384         estimate D2E/DX2                !
 ! D292  D(67,66,69,70)         59.4933         estimate D2E/DX2                !
 ! D293  D(67,66,69,71)        -55.0669         estimate D2E/DX2                !
 ! D294  D(67,66,69,72)       -176.7206         estimate D2E/DX2                !
 ! D295  D(68,66,69,70)        -60.8105         estimate D2E/DX2                !
 ! D296  D(68,66,69,71)       -175.3707         estimate D2E/DX2                !
 ! D297  D(68,66,69,72)         62.9756         estimate D2E/DX2                !
 ! D298  D(66,69,72,73)         58.1436         estimate D2E/DX2                !
 ! D299  D(66,69,72,74)        172.7938         estimate D2E/DX2                !
 ! D300  D(66,69,72,75)        -65.263          estimate D2E/DX2                !
 ! D301  D(70,69,72,73)       -179.7523         estimate D2E/DX2                !
 ! D302  D(70,69,72,74)        -65.1021         estimate D2E/DX2                !
 ! D303  D(70,69,72,75)         56.8411         estimate D2E/DX2                !
 ! D304  D(71,69,72,73)        -63.5055         estimate D2E/DX2                !
 ! D305  D(71,69,72,74)         51.1446         estimate D2E/DX2                !
 ! D306  D(71,69,72,75)        173.0879         estimate D2E/DX2                !
 ! D307  D(69,72,75,76)        -60.0733         estimate D2E/DX2                !
 ! D308  D(69,72,75,77)         57.1966         estimate D2E/DX2                !
 ! D309  D(69,72,75,78)        179.8988         estimate D2E/DX2                !
 ! D310  D(73,72,75,76)        178.0982         estimate D2E/DX2                !
 ! D311  D(73,72,75,77)        -64.6319         estimate D2E/DX2                !
 ! D312  D(73,72,75,78)         58.0703         estimate D2E/DX2                !
 ! D313  D(74,72,75,76)         61.4564         estimate D2E/DX2                !
 ! D314  D(74,72,75,77)        178.7263         estimate D2E/DX2                !
 ! D315  D(74,72,75,78)        -58.5715         estimate D2E/DX2                !
 ! D316  D(72,75,78,79)        174.412          estimate D2E/DX2                !
 ! D317  D(72,75,78,80)         54.038          estimate D2E/DX2                !
 ! D318  D(72,75,78,81)        -66.0466         estimate D2E/DX2                !
 ! D319  D(76,75,78,79)         52.7135         estimate D2E/DX2                !
 ! D320  D(76,75,78,80)        -67.6604         estimate D2E/DX2                !
 ! D321  D(76,75,78,81)        172.2549         estimate D2E/DX2                !
 ! D322  D(77,75,78,79)        -62.0096         estimate D2E/DX2                !
 ! D323  D(77,75,78,80)        177.6165         estimate D2E/DX2                !
 ! D324  D(77,75,78,81)         57.5318         estimate D2E/DX2                !
 ! D325  D(75,78,81,82)        177.8651         estimate D2E/DX2                !
 ! D326  D(75,78,81,83)         60.107          estimate D2E/DX2                !
 ! D327  D(75,78,81,84)        -63.5764         estimate D2E/DX2                !
 ! D328  D(79,78,81,82)        -60.2912         estimate D2E/DX2                !
 ! D329  D(79,78,81,83)       -178.0493         estimate D2E/DX2                !
 ! D330  D(79,78,81,84)         58.2673         estimate D2E/DX2                !
 ! D331  D(80,78,81,82)         55.4315         estimate D2E/DX2                !
 ! D332  D(80,78,81,83)        -62.3266         estimate D2E/DX2                !
 ! D333  D(80,78,81,84)        173.99           estimate D2E/DX2                !
 ! D334  D(78,81,82,35)        150.0501         estimate D2E/DX2                !
 ! D335  D(78,81,82,41)        115.6004         estimate D2E/DX2                !
 ! D336  D(78,81,82,62)        118.2092         estimate D2E/DX2                !
 ! D337  D(83,81,82,35)        -86.9823         estimate D2E/DX2                !
 ! D338  D(83,81,82,41)       -121.432          estimate D2E/DX2                !
 ! D339  D(83,81,82,62)       -118.8232         estimate D2E/DX2                !
 ! D340  D(84,81,82,35)         26.9767         estimate D2E/DX2                !
 ! D341  D(84,81,82,41)         -7.473          estimate D2E/DX2                !
 ! D342  D(84,81,82,62)         -4.8642         estimate D2E/DX2                !
 ! D343  D(78,81,83,13)        174.0533         estimate D2E/DX2                !
 ! D344  D(78,81,83,14)        164.8559         estimate D2E/DX2                !
 ! D345  D(78,81,83,19)       -171.6287         estimate D2E/DX2                !
 ! D346  D(82,81,83,13)         50.7457         estimate D2E/DX2                !
 ! D347  D(82,81,83,14)         41.5483         estimate D2E/DX2                !
 ! D348  D(82,81,83,19)         65.0637         estimate D2E/DX2                !
 ! D349  D(84,81,83,13)        -60.1821         estimate D2E/DX2                !
 ! D350  D(84,81,83,14)        -69.3795         estimate D2E/DX2                !
 ! D351  D(84,81,83,19)        -45.8641         estimate D2E/DX2                !
 ! D352  D(78,81,84,45)         74.6136         estimate D2E/DX2                !
 ! D353  D(78,81,84,56)        125.5013         estimate D2E/DX2                !
 ! D354  D(78,81,84,58)         78.1223         estimate D2E/DX2                !
 ! D355  D(82,81,84,45)       -161.7431         estimate D2E/DX2                !
 ! D356  D(82,81,84,56)       -110.8553         estimate D2E/DX2                !
 ! D357  D(82,81,84,58)       -158.2344         estimate D2E/DX2                !
 ! D358  D(83,81,84,45)        -51.3629         estimate D2E/DX2                !
 ! D359  D(83,81,84,56)         -0.4752         estimate D2E/DX2                !
 ! D360  D(83,81,84,58)        -47.8543         estimate D2E/DX2                !
 --------------------------------------------------------------------------------
 Trust Radius=3.00D-01 FncErr=1.00D-07 GrdErr=1.00D-06
 Number of steps in this run=    504 maximum allowed number of steps=    504.
 GradGradGradGradGradGradGradGradGradGradGradGradGradGradGradGradGradGrad

 Leave Link  103 at Thu Apr 28 08:26:19 2016, MaxMem= 10737418240 cpu:         0.6
 (Enter /share/apps//g09/l202.exe)
 Stoichiometry    C23H44NO16(1+)
 Framework group  C1[X(C23H44NO16)]
 Deg. of freedom   246
 Full point group                 C1      NOp   1
 Largest Abelian subgroup         C1      NOp   1
 Largest concise Abelian subgroup C1      NOp   1
                         Standard orientation:                         
 ---------------------------------------------------------------------
 Center     Atomic      Atomic             Coordinates (Angstroms)
 Number     Number       Type             X           Y           Z
 ---------------------------------------------------------------------
      1          8           0       -1.583638    3.078868   -0.943365
      2          6           0       -1.704775    1.773269   -1.451684
      3          6           0       -0.484107    1.342103   -2.277726
      4          6           0        0.780739    1.482449   -1.420639
      5          6           0        0.889030    2.906417   -0.866452
      6          6           0       -0.408061    3.278803   -0.126799
      7          1           0       -2.608264    1.791686   -2.080041
      8          1           0       -0.407812    2.034280   -3.132808
      9          1           0        0.746271    0.753048   -0.598499
     10          1           0        1.711786    2.934882   -0.121863
     11          1           0       -0.469303    2.627496    0.765294
     12          8           0        1.217025    3.724616   -1.988885
     13          8           0        1.970360    1.162595   -2.166896
     14          8           0       -0.637555    0.005514   -2.761598
     15          8           0       -1.844426    0.789387   -0.413660
     16          6           0       -0.444292    4.709766    0.385015
     17          1           0       -1.436604    4.898298    0.827409
     18          1           0        0.321417    4.814049    1.174053
     19          8           0       -0.192559    5.621151   -0.698993
     20          1           0       -0.207009    6.531561   -0.361331
     21          1           0        0.893480    4.631828   -1.794597
     22          1           0        2.165742    1.947946   -2.718571
     23          1           0       -1.518878   -0.311292   -2.442562
     24          8           0       -2.582053   -2.009123    0.741558
     25          6           0       -2.571503   -1.152964    1.913561
     26          6           0       -3.088691    0.281511    1.567012
     27          6           0       -3.174108    0.574035    0.052667
     28          6           0       -3.884444   -0.583220   -0.746286
     29          6           0       -3.861816   -1.873560    0.088564
     30          1           0       -3.283203   -1.569625    2.646977
     31          1           0       -2.401603    1.008395    2.024678
     32          1           0       -3.752930    1.504609   -0.069611
     33          1           0       -4.939911   -0.297447   -0.900999
     34          1           0       -4.643944   -1.766270    0.863973
     35          8           0       -3.248838   -0.715840   -2.026809
     36          8           0       -4.397529    0.353913    2.157338
     37          8           0       -1.335137   -1.250504    2.547722
     38          6           0       -4.202418   -3.162684   -0.642281
     39          1           0       -4.113784   -4.000802    0.066965
     40          1           0       -5.247043   -3.099941   -0.992426
     41          8           0       -3.301220   -3.351665   -1.755556
     42          1           0       -3.548068   -4.167584   -2.222648
     43          1           0       -3.318972   -1.663480   -2.288292
     44          1           0       -4.621425    1.288973    2.301229
     45          8           0        2.016824   -1.435816    1.049186
     46          6           0        2.756920   -0.619903    1.977293
     47          6           0        1.935372    0.627566    2.301763
     48          6           0        0.526727    0.269235    2.787924
     49          6           0       -0.156738   -0.755641    1.878026
     50          6           0        0.809224   -1.937011    1.639562
     51          1           0        2.958299   -1.215744    2.894814
     52          1           0        1.856108    1.202405    1.361035
     53          1           0        0.610227   -0.180686    3.795997
     54          1           0        1.032377   -2.408313    2.619595
     55          1           0       -0.424705   -0.292364    0.916670
     56          8           0       -0.282486    1.449740    2.857145
     57          8           0        2.523468    1.420983    3.330763
     58          8           0        3.932471   -0.205004    1.365550
     59          6           0        0.279634   -3.039353    0.732733
     60          1           0        1.077870   -3.782279    0.591955
     61          1           0       -0.574697   -3.533280    1.215761
     62          8           0       -0.095366   -2.573304   -0.571337
     63          1           0       -1.014349   -2.236314   -0.486715
     64          1           0        0.139898    2.030092    3.515949
     65          1           0        3.407223    1.692389    3.023470
     66          6           0        4.914759   -1.256730    1.165573
     67          1           0        5.684710   -1.164919    1.948852
     68          1           0        4.424092   -2.235550    1.277084
     69          6           0        5.539011   -1.105829   -0.217213
     70          1           0        6.296582   -1.899795   -0.329813
     71          1           0        6.086435   -0.151127   -0.251982
     72          6           0        4.538871   -1.138628   -1.383245
     73          1           0        3.812845   -0.327299   -1.222787
     74          1           0        5.081085   -0.892127   -2.311246
     75          6           0        3.815739   -2.480764   -1.566837
     76          1           0        4.550861   -3.278894   -1.760444
     77          1           0        3.285346   -2.758063   -0.642945
     78          6           0        2.821993   -2.502993   -2.726593
     79          1           0        2.410088   -3.510512   -2.872249
     80          1           0        3.298158   -2.190635   -3.667340
     81          7           0        1.660342   -1.583921   -2.489243
     82          1           0        0.994208   -1.555027   -3.272332
     83          1           0        1.948740   -0.582683   -2.369708
     84          1           0        1.079129   -1.871762   -1.656182
 ---------------------------------------------------------------------
 Rotational constants (GHZ):      0.1068303      0.0842051      0.0721027
 Leave Link  202 at Thu Apr 28 08:26:19 2016, MaxMem= 10737418240 cpu:         0.8
 (Enter /share/apps//g09/l301.exe)
[...]
 01570,-0.00001089,-0.00002147,0.00002651,0.00000520,-0.00005220,0.0000
 2001,0.00000964,-0.00000126,0.00031838,-0.00003765,-0.00037615,-0.0000
 2675,-0.00002775,-0.00004169,-0.00010214,-0.00003160,-0.00011475,-0.00
 009397,-0.00002900,0.00015879,0.00000069,0.00000700,-0.00001829,0.0000
 2240,-0.00000662,-0.00002037,0.00013941,-0.00002476,-0.00015030,-0.000
 05156,0.00001573,0.00001417,-0.00008702,0.00005225,0.00005432,0.000012
 50,0.00000035,0.00001501,-0.00071532,0.00017510,-0.00060874,0.00105432
 ,0.00018799,0.00020845,0.00001156,0.00025089,-0.00004851,0.00013691,0.
 00006306,0.00010710,-0.00000012,0.00003309,0.00008379,0.00007037,-0.00
 002724,0.00009773,-0.00009866,-0.00004167,-0.00007919,0.00001972,-0.00
 004473,-0.00001975,-0.00003399,-0.00002552,-0.00000278,-0.00001723,0.0
 0002793,-0.00005145,0.00003171,0.00005912,0.00009283,-0.00013389,-0.00
 014699,-0.00008294,-0.00010942,-0.00014388,-0.00005222,-0.00047342,-0.
 00029867,0.00028816,0.00013488,-0.00069789,0.00048375,-0.00001792,0.00
 001377,-0.00002595,0.00000261,0.00012970,-0.00007594,0.00075929,0.0006
 6303,-0.00027164,-0.00027516,0.00009450,0.00022936,0.00003977,0.000032
 65,-0.00002663,0.00001309,0.00007459,-0.00003177,0.00025606,0.00011754
 ,-0.00004988,-0.00006044,-0.00005768,0.00006203,-0.00006331,-0.0000972
 4,0.00001537,-0.00025526,-0.00049219,-0.00105020,0.00028138,-0.0003612
 6,0.00018412,-0.00010474,0.00009556,-0.00005926,0.00020638,0.00073288,
 0.00193023,-0.00170377,0.00120647,-0.00194795,-0.00029540,0.00003904,0
 .00018497,0.00093905,0.00015336,0.00064711,-0.00041968,-0.00014607,-0.
 00037504,-0.00018883,-0.00022586,-0.00012581,0.02106447,0.00755649,0.0
 1090576,-0.00270134,0.00363829,0.00417631,0.00017104,-0.00017045,0.000
 41520,-0.18736664,-0.08730450,-0.11319060,-0.01470061,-0.00895944,-0.0
 1160689,0.19923100,-0.00051045,-0.00014206,0.00007328,0.00049743,0.000
 91556,-0.00094396,0.00062286,-0.00035217,0.00080948,0.00697590,0.00154
 369,-0.00635733,-0.00156648,0.00025268,0.00087902,0.00104875,0.0004037
 6,0.00025608,-0.00022909,-0.00003641,0.00023644,0.00007844,-0.00029179
 ,-0.00002833,-0.00070004,-0.00017715,0.00073377,0.00009905,-0.00011427
 ,-0.00007302,-0.00000552,0.00009006,-0.00001332,-0.00008678,0.00049745
 ,0.00090031,0.00017809,0.00169041,0.00513917,-0.00170278,-0.00177747,-
 0.00115275,-0.00101315,-0.00081628,0.00039671,-0.00039007,0.00002932,-
 0.00000831,-0.00000244,0.00010805,0.00017438,0.00003587,-0.00002255,-0
 .00002296,-0.00003395,0.00014680,0.00032849,-0.00004787,-0.00007838,-0
 .00002125,-0.00013631,-0.00043801,-0.00028968,-0.00113238,-0.00214754,
 0.00199527,0.00060060,0.00064508,0.00032087,0.00017880,-0.00026837,-0.
 00026441,-0.00015248,0.00034254,0.00021676,0.00000446,0.00010477,-0.00
 008782,0.00062104,0.00002078,-0.00010196,0.00000478,0.00010633,-0.0000
 2329,-0.00011791,0.00025029,-0.00001860,0.00000858,-0.00002675,-0.0000
 2778,-0.00000534,0.00003310,-0.00002598,-0.00002593,-0.00001224,-0.000
 00249,-0.00003964,-0.00002444,-0.00000402,0.00002304,-0.00002871,-0.00
 000149,-0.00040404,-0.00025010,-0.00006024,-0.00010896,-0.00015264,0.0
 0007894,0.00030013,-0.00030875,-0.00022703,-0.00006090,-0.00002582,0.0
 0020445,-0.00001343,-0.00001343,-0.00003682,0.00004175,-0.00000102,-0.
 00001482,0.00014204,-0.00019736,-0.00028119,-0.00009638,0.00003788,0.0
 0005058,0.00003147,0.00022122,0.00023741,0.00002699,0.00002285,-0.0000
 3535,0.00018021,0.00031030,-0.00106940,0.00030749,-0.00009516,0.000949
 94,0.00008171,0.00047957,-0.00001517,-0.00000731,0.00020955,0.00027959
 ,-0.00019676,0.00023822,0.00014022,-0.00067671,0.00000732,0.00027486,-
 0.00002388,0.00003541,-0.00016656,-0.00003486,-0.00001863,0.00002424,-
 0.00002044,-0.00007167,0.00001078,0.00007241,0.00004300,-0.00012291,0.
 00006361,0.00017046,0.00006786,-0.00002310,-0.00046504,-0.00026106,-0.
 00001426,-0.00035964,-0.00023798,0.00013043,-0.00005539,-0.00070692,0.
 00011907,-0.00059525,0.00026055,-0.00005246,-0.00004806,-0.00006405,0.
 00003841,0.00012856,-0.00003418,0.00089516,0.00056295,-0.00053643,-0.0
 0027557,0.00040522,0.00039226,0.00002548,0.00008735,-0.00001340,-0.000
 00204,0.00019571,0.00011491,-0.00012375,0.00003796,0.00039991,-0.00001
 072,0.00002160,-0.00013236,-0.00000430,-0.00013705,0.00003269,-0.00015
 179,-0.00006778,0.00061540,-0.00009722,0.00019135,-0.00013142,-0.00018
 811,0.00010959,-0.00014294,0.00049079,-0.00013352,-0.00095001,0.001384
 36,0.00071198,0.00144862,-0.00031526,0.00012313,0.00034409,-0.00039997
 ,-0.00130558,-0.00017359,-0.00033338,0.00045490,0.00006880,0.00002367,
 -0.00040078,-0.00000647,-0.00759682,-0.00859399,-0.01056677,0.00123435
 ,-0.00008156,-0.00088273,-0.00026289,0.00094116,0.00110339,-0.09225619
 ,-0.12252222,-0.08356199,0.01965431,0.01556781,0.01893162,0.08775446,0
 .12318349,-0.00060809,-0.00005086,-0.00018179,0.00034757,0.00077496,-0
 .00071269,0.00131911,-0.00008931,0.00200939,0.00526954,-0.00198409,-0.
 00749495,-0.00090969,0.00033360,-0.00010831,0.00101684,0.00012136,0.00
 014153,-0.00024996,0.00000076,0.00026204,-0.00006466,-0.00012018,-0.00
 009340,0.00006981,0.00010225,-0.00059170,0.00002240,-0.00007639,-0.000
 06173,0.00001074,0.00009845,-0.00003673,0.00004277,0.00108932,0.001258
 52,0.00288830,0.00601605,-0.00547141,-0.00076102,-0.00130903,-0.002417
 67,-0.00100518,-0.00065904,0.00021583,-0.00032756,0.00000522,-0.000048
 79,-0.00000968,0.00009919,0.00015726,0.00001681,-0.00001637,-0.0000397
 3,-0.00003629,0.00020978,0.00035662,-0.00004397,-0.00009250,-0.0000160
 2,-0.00008077,-0.00044787,-0.00033356,-0.00167209,-0.00081928,0.005187
 32,0.00023404,0.00026104,-0.00004966,0.00011166,-0.00015070,-0.0005053
 3,0.00017888,0.00009400,0.00042352,0.00002615,0.00007975,-0.00010096,0
 .00061921,0.00006669,-0.00006466,-0.00002445,0.00004659,0.00013961,-0.
 00005680,0.00019497,-0.00004675,-0.00001915,-0.00000939,-0.00004924,0.
 00001199,0.00001544,-0.00003946,-0.00003561,-0.00000557,-0.00000292,-0
 .00002378,-0.00001455,-0.00003274,0.00003101,-0.00001611,0.00000318,-0
 .00016402,-0.00018948,-0.00028198,-0.00014429,-0.00010404,0.00006357,-
 0.00017980,-0.00022355,-0.00011812,-0.00010544,-0.00003466,0.00026557,
 -0.00000553,-0.00000689,-0.00003981,0.00004237,-0.00000119,-0.00002762
 ,0.00018923,-0.00016366,-0.00032144,-0.00009559,0.00003063,0.00005106,
 -0.00001373,0.00019300,0.00022714,0.00003608,0.00000809,-0.00002583,-0
 .00056674,-0.00050173,-0.00059292,0.00011712,0.00027390,0.00031268,0.0
 0003605,0.00063800,-0.00023411,0.00014533,0.00009242,0.00009984,-0.000
 02883,0.00033986,0.00001130,0.00037695,0.00024600,0.00014779,0.0000018
 7,-0.00009506,-0.00004076,-0.00005624,-0.00016029,-0.00004821,-0.00004
 512,-0.00006814,0.00003436,-0.00011818,-0.00005622,-0.00006618,0.00012
 910,0.00008209,0.00007039,-0.00014619,-0.00031344,-0.00009983,0.000058
 43,-0.00037297,0.00006040,0.00020936,-0.00047805,-0.00041219,0.0006708
 8,-0.00112980,0.00053775,-0.00007367,-0.00002747,-0.00003233,-0.000021
 40,0.00033020,-0.00016694,0.00237552,0.00166233,-0.00280570,-0.0000964
 9,0.00068373,0.00026590,0.00004121,0.00006028,-0.00006139,-0.00005280,
 0.00016349,0.00002607,-0.00026851,0.00039866,0.00046845,0.00002854,-0.
 00002917,-0.00011284,-0.00003077,-0.00013066,0.00000151,0.00012364,-0.
 00020808,-0.00025054,0.00009046,-0.00007032,-0.00001199,-0.00015500,0.
 00009082,-0.00009137,0.00010093,0.00060091,0.00086294,-0.00078231,0.00
 076988,0.00025771,0.00024872,-0.00009461,-0.00025039,0.00011252,0.0002
 8076,0.00164949,-0.00051857,0.00042322,-0.00034871,-0.00000805,-0.0000
 3638,0.00004861,-0.00991826,-0.01151570,-0.01525201,0.00195311,-0.0006
 5448,-0.00091458,-0.00061229,0.00073666,-0.00007323,-0.11285059,-0.078
 38096,-0.16595385,-0.01280316,-0.00592926,-0.00935720,0.11634353,0.082
 31798,0.17973947,-0.00054310,-0.00020782,-0.00010535,0.00086233,0.0009
 9819,-0.00028262,0.00019962,-0.00017451,0.00030917,0.00133842,-0.00037
 058,-0.00138975,-0.00014773,0.00013761,-0.00014893,0.00044569,0.000036
 76,0.00000822,-0.00008542,-0.00004338,0.00007979,-0.00009315,-0.000092
 34,-0.00010710,0.00032551,0.00008343,-0.00007996,0.00000089,-0.0000177
 5,-0.00002423,0.00002394,0.00006131,0.00000824,-0.00012993,0.00019204,
 0.00039786,0.00009114,0.00122827,0.00165473,-0.00204090,-0.00082643,0.
 00038403,-0.00079803,-0.00097098,0.00008736,-0.00002751,0.00010335,0.0
 0000411,-0.00001174,0.00003419,0.00006713,0.00000080,-0.00001182,-0.00
 001736,-0.00011355,-0.00005913,0.00010374,0.00001294,-0.00001261,-0.00
 000163,0.00005009,-0.00009687,-0.00013698,-0.00021184,-0.00016651,0.00
 013358,0.00049883,0.00137501,0.00023434,0.00119221,-0.00043222,-0.0017
 9282,0.00036234,-0.00000878,0.00140010,-0.00013698,0.00016693,0.000032
 21,0.00038269,0.00010390,0.00004718,-0.00006460,0.00018051,0.00010921,
 -0.00076883,0.00079642,-0.00024341,-0.00001442,0.00003654,-0.00019002,
 0.00003750,-0.00002851,-0.00003577,-0.00000883,-0.00005316,-0.00003518
 ,-0.00000327,-0.00009076,-0.00003193,0.00018320,-0.00011143,-0.0000177
 5,-0.00013891,-0.00065570,-0.00008428,0.00006161,-0.00019220,-0.000211
 39,-0.00044026,-0.00014669,-0.00040841,-0.00031104,-0.00002346,0.00039
 539,-0.00007453,0.00000264,-0.00006230,0.00011402,-0.00004808,-0.00003
 230,0.00065513,-0.00050574,-0.00012155,-0.00012001,0.00014076,-0.00016
 891,-0.00013399,0.00051350,0.00009945,-0.00000461,0.00001007,0.0000525
 3,-0.00222829,-0.00127884,0.00052707,0.00118819,0.00014433,-0.00005977
 ,0.00027249,0.00021217,-0.00012676,0.00059683,0.00013493,0.00020059,-0
 .00025394,0.00016289,0.00030386,0.00282006,0.00142312,-0.00022932,0.00
 000122,-0.00017489,0.00008039,-0.00002376,-0.00009719,-0.00003989,-0.0
 0007208,-0.00005432,-0.00002594,-0.00076465,-0.00007216,-0.00034847,0.
 00013321,0.00023979,0.00034344,-0.00042780,-0.00025597,-0.00029844,-0.
 00035116,-0.00006555,0.00004694,-0.00115267,-0.00019239,0.00089319,0.0
 0685329,-0.00861848,0.00224521,-0.00035719,0.00091048,0.00003141,-0.00
 026665,0.00265970,-0.00130416,-0.00136306,0.00666440,-0.00446560,-0.00
 215335,0.00385313,0.00107175,0.00010602,0.00001085,-0.00003815,0.00003
 274,0.00002003,-0.00009978,0.00033180,-0.00017874,-0.00054871,-0.00000
 784,-0.00001089,0.00016905,0.00002408,0.00012003,-0.00007572,-0.000033
 49,0.00023849,-0.00016921,-0.00000137,-0.00011918,0.00005822,0.0001154
 0,-0.00010344,0.00013455,-0.00043432,-0.00015199,0.00010538,-0.0003042
 1,-0.00011801,-0.00038481,0.00011324,-0.00005677,-0.00002928,-0.000564
 17,-0.00045010,-0.00065837,0.00075160,-0.00028734,-0.00005396,0.000039
 29,0.00087664,-0.00008901,-0.00870136,-0.00130968,0.00919393,0.0010096
 9,-0.00057771,-0.00131209,0.00081929,0.00037239,-0.00021682,-0.1649360
 8,-0.09672236,0.09596857,0.01701635,0.01235579,-0.01395799,-0.01330246
 ,-0.01232591,0.01014251,0.16505940,-0.00020092,-0.00015930,0.00051610,
 0.00085533,0.00063178,-0.00062253,-0.00120108,-0.00071793,-0.00128754,
 0.00031770,-0.00032467,-0.00053612,-0.00003999,0.00004093,-0.00031968,
 0.00010262,0.00018563,-0.00014032,-0.00003023,-0.00005670,0.00003215,0
 .00009785,0.00013480,0.00020839,-0.00002657,0.00012449,-0.00048032,0.0
 0010685,-0.00000764,0.00008660,0.00001417,0.00004957,-0.00000067,0.000
 06906,0.00015552,0.00038040,0.00038931,0.00066100,0.00063225,-0.000699
 39,0.00287245,0.00164956,-0.00074424,-0.00071640,0.00046999,-0.0000362
 9,0.00005375,-0.00002511,-0.00001203,0.00003065,0.00004068,0.00002834,
 -0.00000509,0.00000754,-0.00004210,-0.00002128,0.00011452,-0.00000833,
 -0.00001399,-0.00000793,0.00001138,-0.00007605,-0.00014095,-0.00015683
 ,-0.00010317,0.00013946,0.00144972,-0.00001797,-0.00036474,0.00101744,
 -0.00054457,-0.00117450,-0.00002489,0.00031529,0.00074640,-0.00006956,
 0.00018911,-0.00002553,0.00048819,0.00009332,-0.00008810,0.00008736,0.
 00025863,-0.00029263,-0.00062412,0.00070127,-0.00017729,0.00001403,-0.
 00000303,-0.00012103,0.00000069,-0.00000800,-0.00001773,-0.00004396,-0
 .00003769,0.00000521,-0.00006225,-0.00009429,0.00003913,0.00013549,-0.
 00011674,-0.00000753,-0.00061839,-0.00043027,0.00039938,0.00001016,-0.
 00021587,-0.00005717,0.00018227,-0.00034510,-0.00038334,-0.00011294,0.
 00000122,0.00008236,-0.00008096,-0.00002258,-0.00002505,0.00006702,-0.
 00003058,0.00001163,0.00021444,-0.00046381,0.00010380,-0.00001599,0.00
 012075,-0.00010457,0.00015869,0.00033577,0.00006237,0.00000482,0.00002
 310,-0.00000232,-0.00220032,-0.00001322,-0.00119843,0.00210728,0.00021
 227,0.00056671,0.00007021,0.00037906,0.00001571,0.00027501,0.00016931,
 0.00032260,-0.00036649,0.00033631,0.00030525,0.00040233,0.00024546,0.0
 0078243,-0.00014691,-0.00002003,-0.00018968,-0.00003949,-0.00006646,-0
 .00002433,-0.00003640,-0.00005751,0.00000077,-0.00023600,0.00006389,-0
 .00031661,0.00006899,0.00026977,0.00016486,-0.00017010,-0.00036095,-0.
 00037208,-0.00025939,-0.00021840,-0.00027638,-0.00099922,-0.00014096,0
 .00049590,-0.00005599,-0.00571306,0.00246899,-0.00030541,0.00005185,-0
 .00016938,0.00010880,0.00086506,-0.00053277,0.00610031,-0.00792542,-0.
 00328057,0.00095561,0.00592468,0.00009954,0.00004677,0.00002390,-0.000
 00101,0.00005680,0.00008196,0.00001076,0.00041729,-0.00015556,-0.00032
 270,-0.00006058,-0.00000660,0.00006995,-0.00001347,-0.00002509,-0.0000
 4039,0.00002005,0.00010222,-0.00005710,0.00000490,-0.00006456,0.000043
 46,0.00003503,-0.00006086,0.00005978,-0.00012596,-0.00035344,0.0005399
 6,-0.00001227,0.00011089,-0.00022959,-0.00030473,-0.00011345,-0.000055
 80,0.00024777,0.00208319,-0.00151703,-0.00016234,-0.00034194,0.0003184
 4,-0.00000572,-0.00102648,0.00068346,0.01444385,0.01962179,-0.01133501
 ,-0.00022812,0.00023330,-0.00030692,0.00303202,-0.00353984,-0.00442047
 ,-0.09182120,-0.14801998,0.08362931,-0.01667800,-0.01567470,0.01373623
 ,-0.00710549,-0.00902417,0.00680514,0.09196873,0.15970148,0.00025755,0
 .00018560,-0.00002143,-0.00052347,-0.00072262,0.00018326,0.00052305,-0
 .00022394,-0.00011076,-0.00177569,-0.00114697,0.00151577,0.00018596,-0
 .00010148,-0.00037410,-0.00021086,-0.00013955,-0.00003867,0.00003367,0
 .00006023,-0.00002780,-0.00006583,0.00011652,-0.00002219,0.00007894,0.
 00039969,-0.00051548,-0.00002340,0.00002863,0.00002098,0.00000786,-0.0
 0003432,-0.00002683,0.00020797,0.00021524,-0.00010974,-0.00001121,-0.0
 0115591,-0.00338571,0.00038952,0.00046225,-0.00130652,0.00021774,0.000
 67940,-0.00004599,0.00000221,-0.00009964,-0.00003008,0.00000452,-0.000
 01531,-0.00003462,-0.00001004,0.00000946,-0.00000094,0.00008101,0.0001
 0347,-0.00003046,-0.00000815,-0.00000826,-0.00000441,0.00001627,0.0000
 5302,0.00001941,0.00013440,0.00009769,-0.00008817,-0.00011390,-0.00057
 474,0.00019410,-0.00080679,0.00034488,0.00067065,0.00024443,-0.0002900
 3,-0.00048622,0.00011511,-0.00010606,-0.00008405,-0.00000632,-0.000002
 93,-0.00002183,-0.00002180,-0.00013714,0.00010370,0.00056748,-0.000502
 51,0.00013956,-0.00003989,0.00000120,0.00007839,-0.00000972,0.00000291
 ,-0.00000601,-0.00003286,0.00003814,0.00002215,0.00000698,0.00006268,-
 0.00000809,-0.00010666,0.00007113,0.00001201,0.00007340,0.00033339,-0.
 00024798,-0.00011530,0.00013504,0.00013706,-0.00038325,0.00014064,0.00
 042243,0.00006481,-0.00002360,0.00007654,0.00006749,0.00000946,0.00000
 476,-0.00003302,0.00003331,-0.00003119,-0.00014186,0.00025744,-0.00034
 931,-0.00008151,-0.00006255,0.00016363,0.00000411,-0.00016464,0.000130
 37,0.00001502,-0.00001580,-0.00003324,0.00210055,-0.00090630,0.0006862
 2,-0.00240897,-0.00025410,-0.00060639,-0.00013572,-0.00009946,-0.00015
 016,-0.00026591,-0.00023492,-0.00034318,0.00035677,0.00021783,-0.00047
 398,0.00017397,0.00049830,-0.00072545,0.00022441,-0.00003897,0.0002476
 4,-0.00001225,-0.00001471,0.00001962,0.00005484,0.00002015,0.00005153,
 0.00014383,-0.00017199,0.00029130,-0.00006066,-0.00040078,-0.00022532,
 0.00014494,0.00026267,0.00034175,0.00035669,0.00005901,0.00031388,0.00
 125593,-0.00001683,-0.00079677,-0.00181100,0.00514643,-0.00212265,0.00
 016830,-0.00069646,0.00019880,0.00001032,-0.00127407,0.00056216,-0.004
 70637,-0.00337763,-0.00109744,0.00131891,-0.00212766,-0.00140865,-0.00
 004643,-0.00001332,-0.00002503,-0.00008815,-0.00003048,0.00001745,-0.0
 0047952,0.00036845,0.00060704,0.00005701,-0.00002153,-0.00012783,-0.00
 001540,-0.00004441,0.00004895,-0.00000008,-0.00022416,0.00009153,0.000
 03023,0.00007515,-0.00005762,-0.00008819,0.00009386,-0.00010538,0.0000
 7948,0.00041577,-0.00019897,-0.00005025,-0.00015131,0.00025964,0.00006
 754,-0.00003371,-0.00014049,-0.00078447,-0.00012624,0.00191202,-0.0005
 6086,0.00040669,-0.00025484,0.00024633,-0.00024736,0.00051294,0.014372
 55,0.00858396,-0.01499914,-0.00057739,0.00077792,-0.00000529,0.0006699
 9,-0.00229451,-0.00111590,0.09116558,0.08360965,-0.14555958,0.00895821
 ,0.01065847,-0.00848643,-0.01178055,-0.01090859,0.02113544,-0.09686219
 ,-0.08579823,0.15527565\\-0.00000924,0.00000046,-0.00001914,0.00000583
 ,0.00001485,0.00001467,-0.00000511,-0.00000686,-0.00000292,0.00000279,
 0.00000003,-0.00001345,-0.00000975,-0.00000076,0.00002014,0.00002776,-
 0.00000236,0.00001163,-0.00000098,0.00000010,-0.00000199,0.00000628,0.
 00000110,-0.00000093,-0.00000131,-0.00000119,0.00000227,0.00000412,-0.
 00000241,-0.00000593,-0.00000276,-0.00000307,0.00000027,0.00000571,0.0
 0000330,0.00002053,-0.00001857,0.00001497,0.00003795,0.00000546,0.0000
 2418,0.00001802,0.00000102,0.00000257,-0.00000238,-0.00001830,-0.00003
 507,0.00000240,-0.00000155,0.00000171,-0.00000117,0.00000174,0.0000014
 0,-0.00000004,0.00003423,0.00003095,-0.00001795,-0.00001908,-0.0000111
 3,0.00001728,-0.00000043,-0.00000574,-0.00001166,0.00000242,-0.0000014
 4,-0.00001219,0.00001440,-0.00001012,-0.00000740,0.00000086,0.00000474
 ,-0.00001823,0.00002240,-0.00001212,0.00003009,0.00000861,-0.00001292,
 -0.00001894,-0.00000816,0.00000113,-0.00001258,0.00000752,-0.00000274,
 0.00000441,-0.00001031,0.00000581,-0.00001267,-0.00000313,0.00000051,-
 0.00000129,-0.00000196,0.00000189,0.00000245,0.00000301,0.00000028,0.0
 0000532,0.00000123,0.00000795,-0.00000104,0.00000096,0.00000211,-0.000
 00126,-0.00001609,0.00001062,0.00000787,-0.00001329,0.00000223,0.00001
 178,-0.00003899,-0.00000218,-0.00001123,-0.00001180,0.00000534,0.00000
 566,0.00000091,0.00000357,-0.00000477,0.00000195,0.00000520,-0.0000042
 9,0.00000851,-0.00001551,-0.00000456,0.00000280,0.00000700,-0.00000665
 ,0.00001986,-0.00000347,0.00000179,-0.00000397,0.00000332,-0.00000237,
 0.00001185,-0.00002308,0.00000209,0.00001454,0.00002474,-0.00001022,-0
 .00001769,-0.00000571,-0.00000549,0.00000750,-0.00001267,-0.00001028,0
 .00004478,0.00000249,-0.00000230,-0.00001962,0.00001664,-0.00000309,-0
 .00000429,-0.00000606,0.00000144,-0.00000501,0.00000279,0.00000070,-0.
 00000876,0.00000134,0.00000056,-0.00000578,-0.00000472,0.00000074,-0.0
 0000557,0.00000262,0.00000252,-0.00000610,0.00000632,0.00000884,0.0000
 0438,0.00000564,0.00000904,-0.00001586,-0.00000981,0.00002886,0.000005
 72,-0.00000750,-0.00000261,0.00000561,0.00000100,0.00000100,-0.0000019
 6,0.00000236,-0.00000354,-0.00002289,0.00002550,-0.00000204,0.00000035
 ,-0.00000543,0.00000418,-0.00000073,0.00000061,-0.00000076,-0.00000220
 ,-0.00000861,-0.00000137,0.00000743,-0.00001250,-0.00002355,0.00000004
 ,0.00000283,0.00000207,-0.00000258,-0.00000049,0.00000597,-0.00000723,
 0.00000070,0.00000642,0.00000211,-0.00000280,-0.00000054,0.00000224,-0
 .00000434,0.00000309,0.00000139,-0.00000201,-0.00000137,0.00000173,-0.
 00000066,0.00000209,0.00000200,0.00000192,0.00000304,0.00000165,-0.000
 00381,-0.00000047,0.00000201,-0.00000052,0.00000068,0.00000068,0.00000
 012,0.00000115,-0.00000646,0.00000662,0.00000440,0.00000084,-0.0000001
 9,-0.00000010,0.00000420,-0.00000175,-0.00000171,-0.00001067,-0.000006
 50,0.00000358,0.00002227,0.00000445,-0.00001805,0.00000257,-0.00002941
 ,-0.00002759,0.00000192,0.00001161,0.00000515\\\@


 THERE'S A SUCKER BORN EVERY MINUTE

              -- PHINEAS TAYLOR (P.T.) BARNUM
 Job cpu time:      24 days 10 hours 46 minutes 39.9 seconds.
 File lengths (MBytes):  RWF=  23825 Int=      0 D2E=      0 Chk=     99 Scr=      1
 Normal termination of Gaussian 09 at Sat Apr 30 13:53:21 2016.
