 Entering Gaussian System, Link 0=g09
 Initial command:
 /share/apps//g09/l1.exe "/scratch/Gau-47252.inp" -scrdir="/scratch/"
 Entering Link 1 = /share/apps//g09/l1.exe PID=     47253.
  
 Copyright (c) 1988,1990,1992,1993,1995,1998,2003,2009,2013,
            Gaussian, Inc.  All Rights Reserved.
  
 This is part of the Gaussian(R) 09 program.  It is based on
 the Gaussian(R) 03 system (copyright 2003, Gaussian, Inc.),
 the Gaussian(R) 98 system (copyright 1998, Gaussian, Inc.),
 the Gaussian(R) 94 system (copyright 1995, Gaussian, Inc.),
 the Gaussian 92(TM) system (copyright 1992, Gaussian, Inc.),
 the Gaussian 90(TM) system (copyright 1990, Gaussian, Inc.),
 the Gaussian 88(TM) system (copyright 1988, Gaussian, Inc.),
 the Gaussian 86(TM) system (copyright 1986, Carnegie Mellon
 University), and the Gaussian 82(TM) system (copyright 1983,
 Carnegie Mellon University). Gaussian is a federally registered
 trademark of Gaussian, Inc.
  
 This software contains proprietary and confidential information,
 including trade secrets, belonging to Gaussian, Inc.
  
 This software is provided under written license and may be
 used, copied, transmitted, or stored only in accord with that
 written license.
  
 The following legend is applicable only to US Government
 contracts under FAR:
  
                    RESTRICTED RIGHTS LEGEND
  
 Use, reproduction and disclosure by the US Government is
 subject to restrictions as set forth in subparagraphs (a)
 and (c) of the Commercial Computer Software - Restricted
 Rights clause in FAR 52.227-19.
  
 Gaussian, Inc.
 340 Quinnipiac St., Bldg. 40, Wallingford CT 06492
  
  
 ---------------------------------------------------------------
 Warning -- This program may not be used in any manner that
 competes with the business of Gaussian, Inc. or will provide
 assistance to any competitor of Gaussian, Inc.  The licensee
 of this program is prohibited from giving any competitor of
 Gaussian, Inc. access to this program.  By using this program,
 the user acknowledges that Gaussian, Inc. is engaged in the
 business of creating and licensing software in the field of
 computational chemistry and represents and warrants to the
 licensee that it is not a competitor of Gaussian, Inc. and that
 it will not use this program in any manner prohibited above.
 ---------------------------------------------------------------
  

 Cite this work as:
 Gaussian 09, Revision D.01,
 M. J. Frisch, G. W. Trucks, H. B. Schlegel, G. E. Scuseria, 
 M. A. Robb, J. R. Cheeseman, G. Scalmani, V. Barone, B. Mennucci, 
 G. A. Petersson, H. Nakatsuji, M. Caricato, X. Li, H. P. Hratchian, 
 A. F. Izmaylov, J. Bloino, G. Zheng, J. L. Sonnenberg, M. Hada, 
 M. Ehara, K. Toyota, R. Fukuda, J. Hasegawa, M. Ishida, T. Nakajima, 
 Y. Honda, O. Kitao, H. Nakai, T. Vreven, J. A. Montgomery, Jr., 
 J. E. Peralta, F. Ogliaro, M. Bearpark, J. J. Heyd, E. Brothers, 
 K. N. Kudin, V. N. Staroverov, T. Keith, R. Kobayashi, J. Normand, 
 K. Raghavachari, A. Rendell, J. C. Burant, S. S. Iyengar, J. Tomasi, 
 M. Cossi, N. Rega, J. M. Millam, M. Klene, J. E. Knox, J. B. Cross, 
 V. Bakken, C. Adamo, J. Jaramillo, R. Gomperts, R. E. Stratmann, 
 O. Yazyev, A. J. Austin, R. Cammi, C. Pomelli, J. W. Ochterski, 
 R. L. Martin, K. Morokuma, V. G. Zakrzewski, G. A. Voth, 
 P. Salvador, J. J. Dannenberg, S. Dapprich, A. D. Daniels, 
 O. Farkas, J. B. Foresman, J. V. Ortiz, J. Cioslowski, 
 and D. J. Fox, Gaussian, Inc., Wallingford CT, 2013.
 
 ******************************************
 Gaussian 09:  EM64L-G09RevD.01 24-Apr-2013
                26-Apr-2016 
 ******************************************
 %nproc=20
 Will use up to   20 processors via shared memory.
 %mem=80GB
 %chk=Tri_A131_of.chk
 ----------------------------------------------------------------------
 #P PBE1PBE/6-311+G(d,p) opt=ModRedundant freq optcyc=999 EmpiricalDisp
 ersion=GD3
 ----------------------------------------------------------------------
 1/6=999,14=-1,18=120,19=15,26=3,38=1/1,3;
 2/9=110,12=2,17=6,18=5,40=1/2;
 3/5=4,6=6,7=111,11=2,16=1,25=1,30=1,71=1,74=-13,124=31/1,2,3;
 4//1;
 5/5=2,38=5/2;
 6/7=2,8=2,9=2,10=2,28=1/1;
 7//1,2,3,16;
 1/6=999,14=-1,18=20,19=15,26=3/3(2);
 2/9=110/2;
 99//99;
 2/9=110/2;
 3/5=4,6=6,7=111,11=2,16=1,25=1,30=1,71=1,74=-13,124=31/1,2,3;
 4/5=5,16=3,69=1/1;
 5/5=2,38=5/2;
 7//1,2,3,16;
 1/6=999,14=-1,18=20,19=15,26=3/3(-5);
 2/9=110/2;
 6/7=2,8=2,9=2,10=2,19=2,28=1/1;
 99/9=1/99;
 Leave Link    1 at Tue Apr 26 23:17:33 2016, MaxMem= 10737418240 cpu:         1.7
 (Enter /share/apps//g09/l101.exe)
 -----
 trich
 -----
 Symbolic Z-matrix:
 Charge =  1 Multiplicity = 1
 O                    -0.72742  -0.28673   7.36597 
 C                    -1.31208  -0.81305   6.19741 
 C                    -0.29226  -1.01832   5.06544 
 C                     0.87389  -1.88863   5.56689 
 C                     1.47868  -1.28207   6.83679 
 C                     0.3754   -1.06099   7.88451 
 H                    -2.08106  -0.08035   5.90827 
 H                     0.10698  -0.02616   4.80466 
 H                     0.5195   -2.91088   5.7647 
 H                     2.20316  -2.00486   7.2665 
 H                     0.01909  -2.06369   8.18786 
 O                     2.15847  -0.10488   6.4033 
 O                     1.89945  -2.02461   4.56591 
 O                    -0.89981  -1.55143   3.89023 
 O                    -1.90889  -2.10177   6.395 
 C                     0.85128  -0.37983   9.15851 
 H                    -0.02285  -0.19704   9.80503 
 H                     1.54139  -1.06647   9.67983 
 O                     1.50723   0.85685   8.82999 
 H                     1.81328   1.28442   9.64654 
 H                     2.19949   0.50918   7.16933 
 H                     2.41344  -1.19096   4.58795 
 H                    -1.68586  -2.08631   4.14628 
 O                    -3.33304  -4.41505   5.9494 
 C                    -3.14307  -4.69019   7.35227 
 C                    -2.91828  -3.37381   8.16206 
 C                    -3.0554   -2.13709   7.26291 
 C                    -4.37143  -2.21541   6.47732 
 C                    -4.46679  -3.56022   5.68765 
 H                    -4.0552   -5.17817   7.74276 
 H                    -1.90631  -3.38556   8.58723 
 H                    -3.05895  -1.24646   7.91026 
 H                    -5.18107  -2.19597   7.22302 
 H                    -5.37604  -4.09915   6.01822 
 O                    -4.52128  -1.09129   5.58328 
 O                    -3.90045  -3.24771   9.196 
 O                    -2.13686  -5.65804   7.48898 
 C                    -4.55715  -3.4025    4.17171 
 H                    -4.48997  -4.40077   3.71617 
 H                    -5.53817  -2.97619   3.91146 
 O                    -3.4993   -2.61795   3.60813 
 H                    -3.71996  -1.69613   3.85267 
 H                    -5.0984   -0.43306   6.00196 
 H                    -3.6124   -3.78041   9.95668 
 O                     0.94278  -5.93716   5.49147 
 C                     1.91392  -6.20653   6.52012 
 C                     1.62911  -5.29646   7.71422 
 C                     0.18166  -5.42883   8.19811 
 C                    -0.81295  -5.29946   7.04038 
 C                    -0.38577  -6.2706    5.91501 
 H                     1.84421  -7.27889   6.80756 
 H                     1.79657  -4.26036   7.36464 
 H                     0.05024  -6.43186   8.64832 
 H                    -0.4106   -7.30394   6.31986 
 H                    -0.81092  -4.26893   6.652 
 O                    -0.08731  -4.42445   9.18401 
 O                     2.45153  -5.5893    8.84203 
 O                     3.17439  -5.88274   6.03768 
 C                    -1.27261  -6.25965   4.67808 
 H                    -0.84599  -6.95338   3.93989 
 H                    -2.27913  -6.61068   4.94596 
 O                    -1.35123  -4.97458   4.04725 
 H                    -2.01344  -4.45684   4.55931 
 H                     0.58101  -4.55016   9.8828 
 H                     3.37927  -5.46826   8.57018 
 C                     3.68268  -6.77809   5.01248 
 H                     4.40725  -7.46415   5.48045 
 H                     2.85136  -7.37603   4.60928 
 C                     4.35461  -5.95538   3.91913 
 H                     4.76753  -6.65955   3.17711 
 H                     5.21724  -5.43027   4.35799 
 C                     3.44503  -4.92132   3.2375 
 H                     3.05807  -4.24681   4.01642 
 H                     4.06688  -4.30247   2.56931 
 C                     2.28985  -5.52697   2.42714 
 H                     2.69047  -6.19944   1.65099 
 H                     1.64934  -6.14357   3.07685 
 C                     1.41721  -4.49902   1.71029 
 H                     0.67871  -4.99266   1.06473 
 H                     2.02189  -3.82785   1.0835 
 N                     0.65101  -3.63958   2.67314 
 H                     0.0636   -2.9356    2.20678 
 H                     1.26948  -3.08004   3.30999 
 H                    -0.01486  -4.2025    3.27097 
 
 The following ModRedundant input section has been read:
 B      45      84 B                                                           
 B      58      84 B                                                           
 B      56      84 B                                                           
 B      41      82 B                                                           
 B      62      82 B                                                           
 B      35      82 B                                                           
 B      13      83 B                                                           
 B      19      83 B                                                           
 B      14      83 B                                                           
 
 NAtoms=     84 NQM=       84 NQMF=       0 NMMI=      0 NMMIF=      0
                NMic=       0 NMicF=      0.
                    Isotopes and Nuclear Properties:
 (Nuclear quadrupole moments (NQMom) in fm**2, nuclear magnetic moments (NMagM)
  in nuclear magnetons)

  Atom         1           2           3           4           5           6           7           8           9          10
 IAtWgt=          16          12          12          12          12          12           1           1           1           1
 AtmWgt=  15.9949146  12.0000000  12.0000000  12.0000000  12.0000000  12.0000000   1.0078250   1.0078250   1.0078250   1.0078250
 NucSpn=           0           0           0           0           0           0           1           1           1           1
 AtZEff=   0.0000000   0.0000000   0.0000000   0.0000000   0.0000000   0.0000000   0.0000000   0.0000000   0.0000000   0.0000000
 NQMom=    0.0000000   0.0000000   0.0000000   0.0000000   0.0000000   0.0000000   0.0000000   0.0000000   0.0000000   0.0000000
 NMagM=    0.0000000   0.0000000   0.0000000   0.0000000   0.0000000   0.0000000   2.7928460   2.7928460   2.7928460   2.7928460
 AtZNuc=   8.0000000   6.0000000   6.0000000   6.0000000   6.0000000   6.0000000   1.0000000   1.0000000   1.0000000   1.0000000

  Atom        11          12          13          14          15          16          17          18          19          20
 IAtWgt=           1          16          16          16          16          12           1           1          16           1
 AtmWgt=   1.0078250  15.9949146  15.9949146  15.9949146  15.9949146  12.0000000   1.0078250   1.0078250  15.9949146   1.0078250
 NucSpn=           1           0           0           0           0           0           1           1           0           1
 AtZEff=   0.0000000   0.0000000   0.0000000   0.0000000   0.0000000   0.0000000   0.0000000   0.0000000   0.0000000   0.0000000
 NQMom=    0.0000000   0.0000000   0.0000000   0.0000000   0.0000000   0.0000000   0.0000000   0.0000000   0.0000000   0.0000000
 NMagM=    2.7928460   0.0000000   0.0000000   0.0000000   0.0000000   0.0000000   2.7928460   2.7928460   0.0000000   2.7928460
 AtZNuc=   1.0000000   8.0000000   8.0000000   8.0000000   8.0000000   6.0000000   1.0000000   1.0000000   8.0000000   1.0000000

  Atom        21          22          23          24          25          26          27          28          29          30
 IAtWgt=           1           1           1          16          12          12          12          12          12           1
 AtmWgt=   1.0078250   1.0078250   1.0078250  15.9949146  12.0000000  12.0000000  12.0000000  12.0000000  12.0000000   1.0078250
 NucSpn=           1           1           1           0           0           0           0           0           0           1
 AtZEff=   0.0000000   0.0000000   0.0000000   0.0000000   0.0000000   0.0000000   0.0000000   0.0000000   0.0000000   0.0000000
 NQMom=    0.0000000   0.0000000   0.0000000   0.0000000   0.0000000   0.0000000   0.0000000   0.0000000   0.0000000   0.0000000
 NMagM=    2.7928460   2.7928460   2.7928460   0.0000000   0.0000000   0.0000000   0.0000000   0.0000000   0.0000000   2.7928460
 AtZNuc=   1.0000000   1.0000000   1.0000000   8.0000000   6.0000000   6.0000000   6.0000000   6.0000000   6.0000000   1.0000000

  Atom        31          32          33          34          35          36          37          38          39          40
 IAtWgt=           1           1           1           1          16          16          16          12           1           1
 AtmWgt=   1.0078250   1.0078250   1.0078250   1.0078250  15.9949146  15.9949146  15.9949146  12.0000000   1.0078250   1.0078250
 NucSpn=           1           1           1           1           0           0           0           0           1           1
 AtZEff=   0.0000000   0.0000000   0.0000000   0.0000000   0.0000000   0.0000000   0.0000000   0.0000000   0.0000000   0.0000000
 NQMom=    0.0000000   0.0000000   0.0000000   0.0000000   0.0000000   0.0000000   0.0000000   0.0000000   0.0000000   0.0000000
 NMagM=    2.7928460   2.7928460   2.7928460   2.7928460   0.0000000   0.0000000   0.0000000   0.0000000   2.7928460   2.7928460
 AtZNuc=   1.0000000   1.0000000   1.0000000   1.0000000   8.0000000   8.0000000   8.0000000   6.0000000   1.0000000   1.0000000

  Atom        41          42          43          44          45          46          47          48          49          50
 IAtWgt=          16           1           1           1          16          12          12          12          12          12
 AtmWgt=  15.9949146   1.0078250   1.0078250   1.0078250  15.9949146  12.0000000  12.0000000  12.0000000  12.0000000  12.0000000
 NucSpn=           0           1           1           1           0           0           0           0           0           0
 AtZEff=   0.0000000   0.0000000   0.0000000   0.0000000   0.0000000   0.0000000   0.0000000   0.0000000   0.0000000   0.0000000
 NQMom=    0.0000000   0.0000000   0.0000000   0.0000000   0.0000000   0.0000000   0.0000000   0.0000000   0.0000000   0.0000000
 NMagM=    0.0000000   2.7928460   2.7928460   2.7928460   0.0000000   0.0000000   0.0000000   0.0000000   0.0000000   0.0000000
 AtZNuc=   8.0000000   1.0000000   1.0000000   1.0000000   8.0000000   6.0000000   6.0000000   6.0000000   6.0000000   6.0000000

  Atom        51          52          53          54          55          56          57          58          59          60
 IAtWgt=           1           1           1           1           1          16          16          16          12           1
 AtmWgt=   1.0078250   1.0078250   1.0078250   1.0078250   1.0078250  15.9949146  15.9949146  15.9949146  12.0000000   1.0078250
 NucSpn=           1           1           1           1           1           0           0           0           0           1
 AtZEff=   0.0000000   0.0000000   0.0000000   0.0000000   0.0000000   0.0000000   0.0000000   0.0000000   0.0000000   0.0000000
 NQMom=    0.0000000   0.0000000   0.0000000   0.0000000   0.0000000   0.0000000   0.0000000   0.0000000   0.0000000   0.0000000
 NMagM=    2.7928460   2.7928460   2.7928460   2.7928460   2.7928460   0.0000000   0.0000000   0.0000000   0.0000000   2.7928460
 AtZNuc=   1.0000000   1.0000000   1.0000000   1.0000000   1.0000000   8.0000000   8.0000000   8.0000000   6.0000000   1.0000000

  Atom        61          62          63          64          65          66          67          68          69          70
 IAtWgt=           1          16           1           1           1          12           1           1          12           1
 AtmWgt=   1.0078250  15.9949146   1.0078250   1.0078250   1.0078250  12.0000000   1.0078250   1.0078250  12.0000000   1.0078250
 NucSpn=           1           0           1           1           1           0           1           1           0           1
 AtZEff=   0.0000000   0.0000000   0.0000000   0.0000000   0.0000000   0.0000000   0.0000000   0.0000000   0.0000000   0.0000000
 NQMom=    0.0000000   0.0000000   0.0000000   0.0000000   0.0000000   0.0000000   0.0000000   0.0000000   0.0000000   0.0000000
 NMagM=    2.7928460   0.0000000   2.7928460   2.7928460   2.7928460   0.0000000   2.7928460   2.7928460   0.0000000   2.7928460
 AtZNuc=   1.0000000   8.0000000   1.0000000   1.0000000   1.0000000   6.0000000   1.0000000   1.0000000   6.0000000   1.0000000

  Atom        71          72          73          74          75          76          77          78          79          80
 IAtWgt=           1          12           1           1          12           1           1          12           1           1
 AtmWgt=   1.0078250  12.0000000   1.0078250   1.0078250  12.0000000   1.0078250   1.0078250  12.0000000   1.0078250   1.0078250
 NucSpn=           1           0           1           1           0           1           1           0           1           1
 AtZEff=   0.0000000   0.0000000   0.0000000   0.0000000   0.0000000   0.0000000   0.0000000   0.0000000   0.0000000   0.0000000
 NQMom=    0.0000000   0.0000000   0.0000000   0.0000000   0.0000000   0.0000000   0.0000000   0.0000000   0.0000000   0.0000000
 NMagM=    2.7928460   0.0000000   2.7928460   2.7928460   0.0000000   2.7928460   2.7928460   0.0000000   2.7928460   2.7928460
 AtZNuc=   1.0000000   6.0000000   1.0000000   1.0000000   6.0000000   1.0000000   1.0000000   6.0000000   1.0000000   1.0000000

  Atom        81          82          83          84
 IAtWgt=          14           1           1           1
 AtmWgt=  14.0030740   1.0078250   1.0078250   1.0078250
 NucSpn=           2           1           1           1
 AtZEff=   0.0000000   0.0000000   0.0000000   0.0000000
 NQMom=    2.0440000   0.0000000   0.0000000   0.0000000
 NMagM=    0.4037610   2.7928460   2.7928460   2.7928460
 AtZNuc=   7.0000000   1.0000000   1.0000000   1.0000000
 Leave Link  101 at Tue Apr 26 23:17:34 2016, MaxMem= 10737418240 cpu:         4.8
 (Enter /share/apps//g09/l103.exe)

 GradGradGradGradGradGradGradGradGradGradGradGradGradGradGradGradGradGrad
 Berny optimization.
 Initialization pass.
                           ----------------------------
                           !    Initial Parameters    !
                           ! (Angstroms and Degrees)  !
 --------------------------                            --------------------------
 ! Name  Definition              Value          Derivative Info.                !
 --------------------------------------------------------------------------------
 ! R1    R(1,2)                  1.4087         estimate D2E/DX2                !
 ! R2    R(1,6)                  1.4438         estimate D2E/DX2                !
 ! R3    R(2,3)                  1.5374         estimate D2E/DX2                !
 ! R4    R(2,7)                  1.1008         estimate D2E/DX2                !
 ! R5    R(2,15)                 1.4339         estimate D2E/DX2                !
 ! R6    R(3,4)                  1.5391         estimate D2E/DX2                !
 ! R7    R(3,8)                  1.1008         estimate D2E/DX2                !
 ! R8    R(3,14)                 1.4263         estimate D2E/DX2                !
 ! R9    R(4,5)                  1.5318         estimate D2E/DX2                !
 ! R10   R(4,9)                  1.0999         estimate D2E/DX2                !
 ! R11   R(4,13)                 1.4395         estimate D2E/DX2                !
 ! R12   R(5,6)                  1.5375         estimate D2E/DX2                !
 ! R13   R(5,10)                 1.1099         estimate D2E/DX2                !
 ! R14   R(5,12)                 1.4268         estimate D2E/DX2                !
 ! R15   R(6,11)                 1.1065         estimate D2E/DX2                !
 ! R16   R(6,16)                 1.521          estimate D2E/DX2                !
 ! R17   R(12,21)                0.9826         estimate D2E/DX2                !
 ! R18   R(13,22)                0.9796         estimate D2E/DX2                !
 ! R19   R(13,83)                1.7573         estimate D2E/DX2                !
 ! R20   R(14,23)                0.9846         estimate D2E/DX2                !
 ! R21   R(14,83)                2.7165         estimate D2E/DX2                !
 ! R22   R(15,27)                1.4384         estimate D2E/DX2                !
 ! R23   R(16,17)                1.1025         estimate D2E/DX2                !
 ! R24   R(16,18)                1.1043         estimate D2E/DX2                !
 ! R25   R(16,19)                1.4379         estimate D2E/DX2                !
 ! R26   R(19,20)                0.9712         estimate D2E/DX2                !
 ! R27   R(19,83)                6.7842         estimate D2E/DX2                !
 ! R28   R(24,25)                1.4422         estimate D2E/DX2                !
 ! R29   R(24,29)                1.4438         estimate D2E/DX2                !
 ! R30   R(25,26)                1.5618         estimate D2E/DX2                !
 ! R31   R(25,30)                1.1057         estimate D2E/DX2                !
 ! R32   R(25,37)                1.4028         estimate D2E/DX2                !
 ! R33   R(26,27)                1.5352         estimate D2E/DX2                !
 ! R34   R(26,31)                1.0977         estimate D2E/DX2                !
 ! R35   R(26,36)                1.4316         estimate D2E/DX2                !
 ! R36   R(27,28)                1.5347         estimate D2E/DX2                !
 ! R37   R(27,32)                1.101          estimate D2E/DX2                !
 ! R38   R(28,29)                1.5624         estimate D2E/DX2                !
 ! R39   R(28,33)                1.1009         estimate D2E/DX2                !
 ! R40   R(28,35)                1.4441         estimate D2E/DX2                !
 ! R41   R(29,34)                1.1075         estimate D2E/DX2                !
 ! R42   R(29,38)                1.5268         estimate D2E/DX2                !
 ! R43   R(35,43)                0.9704         estimate D2E/DX2                !
 ! R44   R(35,82)                5.9853         estimate D2E/DX2                !
 ! R45   R(36,44)                0.9723         estimate D2E/DX2                !
 ! R46   R(37,49)                1.4431         estimate D2E/DX2                !
 ! R47   R(38,39)                1.0994         estimate D2E/DX2                !
 ! R48   R(38,40)                1.1008         estimate D2E/DX2                !
 ! R49   R(38,41)                1.4325         estimate D2E/DX2                !
 ! R50   R(41,42)                0.9789         estimate D2E/DX2                !
 ! R51   R(41,82)                3.8417         estimate D2E/DX2                !
 ! R52   R(45,46)                1.4401         estimate D2E/DX2                !
 ! R53   R(45,50)                1.4337         estimate D2E/DX2                !
 ! R54   R(45,84)                2.976          estimate D2E/DX2                !
 ! R55   R(46,47)                1.5281         estimate D2E/DX2                !
 ! R56   R(46,51)                1.1124         estimate D2E/DX2                !
 ! R57   R(46,58)                1.3879         estimate D2E/DX2                !
 ! R58   R(47,48)                1.5319         estimate D2E/DX2                !
 ! R59   R(47,52)                1.1062         estimate D2E/DX2                !
 ! R60   R(47,57)                1.4262         estimate D2E/DX2                !
 ! R61   R(48,49)                1.5318         estimate D2E/DX2                !
 ! R62   R(48,53)                1.1073         estimate D2E/DX2                !
 ! R63   R(48,56)                1.4329         estimate D2E/DX2                !
 ! R64   R(49,50)                1.5466         estimate D2E/DX2                !
 ! R65   R(49,55)                1.1013         estimate D2E/DX2                !
 ! R66   R(50,54)                1.1101         estimate D2E/DX2                !
 ! R67   R(50,59)                1.522          estimate D2E/DX2                !
 ! R68   R(56,64)                0.9751         estimate D2E/DX2                !
 ! R69   R(56,84)                5.9176         estimate D2E/DX2                !
 ! R70   R(57,65)                0.9743         estimate D2E/DX2                !
 ! R71   R(58,66)                1.4529         estimate D2E/DX2                !
 ! R72   R(58,84)                4.5441         estimate D2E/DX2                !
 ! R73   R(59,60)                1.0992         estimate D2E/DX2                !
 ! R74   R(59,61)                1.0991         estimate D2E/DX2                !
 ! R75   R(59,62)                1.4337         estimate D2E/DX2                !
 ! R76   R(62,63)                0.9843         estimate D2E/DX2                !
 ! R77   R(62,82)                3.0897         estimate D2E/DX2                !
 ! R78   R(66,67)                1.1021         estimate D2E/DX2                !
 ! R79   R(66,68)                1.1005         estimate D2E/DX2                !
 ! R80   R(66,69)                1.5244         estimate D2E/DX2                !
 ! R81   R(69,70)                1.1032         estimate D2E/DX2                !
 ! R82   R(69,71)                1.1011         estimate D2E/DX2                !
 ! R83   R(69,72)                1.5366         estimate D2E/DX2                !
 ! R84   R(72,73)                1.1006         estimate D2E/DX2                !
 ! R85   R(72,74)                1.1028         estimate D2E/DX2                !
 ! R86   R(72,75)                1.5356         estimate D2E/DX2                !
 ! R87   R(75,76)                1.1023         estimate D2E/DX2                !
 ! R88   R(75,77)                1.1012         estimate D2E/DX2                !
 ! R89   R(75,78)                1.5271         estimate D2E/DX2                !
 ! R90   R(78,79)                1.0981         estimate D2E/DX2                !
 ! R91   R(78,80)                1.0995         estimate D2E/DX2                !
 ! R92   R(78,81)                1.5009         estimate D2E/DX2                !
 ! R93   R(81,82)                1.0287         estimate D2E/DX2                !
 ! R94   R(81,83)                1.0494         estimate D2E/DX2                !
 ! R95   R(81,84)                1.0572         estimate D2E/DX2                !
 ! A1    A(2,1,6)              114.4933         estimate D2E/DX2                !
 ! A2    A(1,2,3)              112.6662         estimate D2E/DX2                !
 ! A3    A(1,2,7)              105.0187         estimate D2E/DX2                !
 ! A4    A(1,2,15)             113.2185         estimate D2E/DX2                !
 ! A5    A(3,2,7)              111.0304         estimate D2E/DX2                !
 ! A6    A(3,2,15)             104.9253         estimate D2E/DX2                !
 ! A7    A(7,2,15)             110.0999         estimate D2E/DX2                !
 ! A8    A(2,3,4)              109.7685         estimate D2E/DX2                !
 ! A9    A(2,3,8)              107.1378         estimate D2E/DX2                !
 ! A10   A(2,3,14)             111.9633         estimate D2E/DX2                !
 ! A11   A(4,3,8)              108.1825         estimate D2E/DX2                !
 ! A12   A(4,3,14)             112.3233         estimate D2E/DX2                !
 ! A13   A(8,3,14)             107.2274         estimate D2E/DX2                !
 ! A14   A(3,4,5)              110.2031         estimate D2E/DX2                !
 ! A15   A(3,4,9)              109.8784         estimate D2E/DX2                !
 ! A16   A(3,4,13)             111.5099         estimate D2E/DX2                !
 ! A17   A(5,4,9)              110.2524         estimate D2E/DX2                !
 ! A18   A(5,4,13)             109.4263         estimate D2E/DX2                !
 ! A19   A(9,4,13)             105.4749         estimate D2E/DX2                !
 ! A20   A(4,5,6)              109.7896         estimate D2E/DX2                !
 ! A21   A(4,5,10)             108.712          estimate D2E/DX2                !
 ! A22   A(4,5,12)             105.2448         estimate D2E/DX2                !
 ! A23   A(6,5,10)             107.3498         estimate D2E/DX2                !
 ! A24   A(6,5,12)             115.4859         estimate D2E/DX2                !
 ! A25   A(10,5,12)            110.1154         estimate D2E/DX2                !
 ! A26   A(1,6,5)              112.3638         estimate D2E/DX2                !
 ! A27   A(1,6,11)             109.7823         estimate D2E/DX2                !
 ! A28   A(1,6,16)             107.4362         estimate D2E/DX2                !
 ! A29   A(5,6,11)             106.7137         estimate D2E/DX2                !
 ! A30   A(5,6,16)             114.2467         estimate D2E/DX2                !
 ! A31   A(11,6,16)            106.0773         estimate D2E/DX2                !
 ! A32   A(5,12,21)            107.3752         estimate D2E/DX2                !
 ! A33   A(4,13,22)            106.1272         estimate D2E/DX2                !
 ! A34   A(4,13,83)            107.3553         estimate D2E/DX2                !
 ! A35   A(22,13,83)           135.6659         estimate D2E/DX2                !
 ! A36   A(3,14,23)            109.1969         estimate D2E/DX2                !
 ! A37   A(3,14,83)             92.646          estimate D2E/DX2                !
 ! A38   A(23,14,83)           112.7909         estimate D2E/DX2                !
 ! A39   A(2,15,27)            115.9109         estimate D2E/DX2                !
 ! A40   A(6,16,17)            108.5035         estimate D2E/DX2                !
 ! A41   A(6,16,18)            108.2085         estimate D2E/DX2                !
 ! A42   A(6,16,19)            109.6649         estimate D2E/DX2                !
 ! A43   A(17,16,18)           108.7679         estimate D2E/DX2                !
 ! A44   A(17,16,19)           110.6756         estimate D2E/DX2                !
 ! A45   A(18,16,19)           110.9494         estimate D2E/DX2                !
 ! A46   A(16,19,20)           109.2872         estimate D2E/DX2                !
 ! A47   A(16,19,83)            70.7809         estimate D2E/DX2                !
 ! A48   A(20,19,83)           161.9161         estimate D2E/DX2                !
 ! A49   A(25,24,29)           113.1251         estimate D2E/DX2                !
 ! A50   A(24,25,26)           111.2558         estimate D2E/DX2                !
 ! A51   A(24,25,30)           108.6067         estimate D2E/DX2                !
 ! A52   A(24,25,37)           108.718          estimate D2E/DX2                !
 ! A53   A(26,25,30)           107.9148         estimate D2E/DX2                !
 ! A54   A(26,25,37)           115.3254         estimate D2E/DX2                !
 ! A55   A(30,25,37)           104.6433         estimate D2E/DX2                !
 ! A56   A(25,26,27)           111.2518         estimate D2E/DX2                !
 ! A57   A(25,26,31)           108.935          estimate D2E/DX2                !
 ! A58   A(25,26,36)           110.4852         estimate D2E/DX2                !
 ! A59   A(27,26,31)           108.5311         estimate D2E/DX2                !
 ! A60   A(27,26,36)           106.9036         estimate D2E/DX2                !
 ! A61   A(31,26,36)           110.712          estimate D2E/DX2                !
 ! A62   A(15,27,26)           107.5772         estimate D2E/DX2                !
 ! A63   A(15,27,28)           112.0798         estimate D2E/DX2                !
 ! A64   A(15,27,32)           109.7224         estimate D2E/DX2                !
 ! A65   A(26,27,28)           109.5907         estimate D2E/DX2                !
 ! A66   A(26,27,32)           107.9128         estimate D2E/DX2                !
 ! A67   A(28,27,32)           109.8452         estimate D2E/DX2                !
 ! A68   A(27,28,29)           110.7923         estimate D2E/DX2                !
 ! A69   A(27,28,33)           106.4408         estimate D2E/DX2                !
 ! A70   A(27,28,35)           111.4797         estimate D2E/DX2                !
 ! A71   A(29,28,33)           108.2195         estimate D2E/DX2                !
 ! A72   A(29,28,35)           110.5344         estimate D2E/DX2                !
 ! A73   A(33,28,35)           109.2259         estimate D2E/DX2                !
 ! A74   A(24,29,28)           111.7183         estimate D2E/DX2                !
 ! A75   A(24,29,34)           107.606          estimate D2E/DX2                !
 ! A76   A(24,29,38)           106.7163         estimate D2E/DX2                !
 ! A77   A(28,29,34)           108.5483         estimate D2E/DX2                !
 ! A78   A(28,29,38)           114.6148         estimate D2E/DX2                !
 ! A79   A(34,29,38)           107.3406         estimate D2E/DX2                !
 ! A80   A(28,35,43)           108.8216         estimate D2E/DX2                !
 ! A81   A(28,35,82)            91.7135         estimate D2E/DX2                !
 ! A82   A(43,35,82)           155.2319         estimate D2E/DX2                !
 ! A83   A(26,36,44)           108.2712         estimate D2E/DX2                !
 ! A84   A(25,37,49)           117.1491         estimate D2E/DX2                !
 ! A85   A(29,38,39)           108.3008         estimate D2E/DX2                !
 ! A86   A(29,38,40)           109.1154         estimate D2E/DX2                !
 ! A87   A(29,38,41)           113.7962         estimate D2E/DX2                !
 ! A88   A(39,38,40)           107.9475         estimate D2E/DX2                !
 ! A89   A(39,38,41)           106.8078         estimate D2E/DX2                !
 ! A90   A(40,38,41)           110.669          estimate D2E/DX2                !
 ! A91   A(38,41,42)           104.5362         estimate D2E/DX2                !
 ! A92   A(38,41,82)           141.5421         estimate D2E/DX2                !
 ! A93   A(42,41,82)           112.2125         estimate D2E/DX2                !
 ! A94   A(46,45,50)           111.739          estimate D2E/DX2                !
 ! A95   A(46,45,84)           149.2041         estimate D2E/DX2                !
 ! A96   A(50,45,84)            93.3133         estimate D2E/DX2                !
 ! A97   A(45,46,47)           108.7282         estimate D2E/DX2                !
 ! A98   A(45,46,51)           108.8223         estimate D2E/DX2                !
 ! A99   A(45,46,58)           108.6938         estimate D2E/DX2                !
 ! A100  A(47,46,51)           111.1316         estimate D2E/DX2                !
 ! A101  A(47,46,58)           107.5742         estimate D2E/DX2                !
 ! A102  A(51,46,58)           111.8155         estimate D2E/DX2                !
 ! A103  A(46,47,48)           111.8059         estimate D2E/DX2                !
 ! A104  A(46,47,52)           106.4178         estimate D2E/DX2                !
 ! A105  A(46,47,57)           112.8401         estimate D2E/DX2                !
 ! A106  A(48,47,52)           108.8916         estimate D2E/DX2                !
 ! A107  A(48,47,57)           106.1006         estimate D2E/DX2                !
 ! A108  A(52,47,57)           110.7879         estimate D2E/DX2                !
 ! A109  A(47,48,49)           111.5602         estimate D2E/DX2                !
 ! A110  A(47,48,53)           108.5934         estimate D2E/DX2                !
 ! A111  A(47,48,56)           109.5198         estimate D2E/DX2                !
 ! A112  A(49,48,53)           107.8635         estimate D2E/DX2                !
 ! A113  A(49,48,56)           109.8132         estimate D2E/DX2                !
 ! A114  A(53,48,56)           109.4466         estimate D2E/DX2                !
 ! A115  A(37,49,48)           109.8618         estimate D2E/DX2                !
 ! A116  A(37,49,50)           108.878          estimate D2E/DX2                !
 ! A117  A(37,49,55)           110.1104         estimate D2E/DX2                !
 ! A118  A(48,49,50)           108.5164         estimate D2E/DX2                !
 ! A119  A(48,49,55)           110.1439         estimate D2E/DX2                !
 ! A120  A(50,49,55)           109.2961         estimate D2E/DX2                !
 ! A121  A(45,50,49)           108.9568         estimate D2E/DX2                !
 ! A122  A(45,50,54)           110.1786         estimate D2E/DX2                !
 ! A123  A(45,50,59)           107.3478         estimate D2E/DX2                !
 ! A124  A(49,50,54)           108.2371         estimate D2E/DX2                !
 ! A125  A(49,50,59)           115.2063         estimate D2E/DX2                !
 ! A126  A(54,50,59)           106.8608         estimate D2E/DX2                !
 ! A127  A(48,56,64)           105.9067         estimate D2E/DX2                !
 ! A128  A(48,56,84)            48.4303         estimate D2E/DX2                !
 ! A129  A(64,56,84)           135.4421         estimate D2E/DX2                !
 ! A130  A(47,57,65)           107.6342         estimate D2E/DX2                !
 ! A131  A(46,58,66)           114.7847         estimate D2E/DX2                !
 ! A132  A(46,58,84)            70.1544         estimate D2E/DX2                !
 ! A133  A(66,58,84)            92.5091         estimate D2E/DX2                !
 ! A134  A(50,59,60)           108.3665         estimate D2E/DX2                !
 ! A135  A(50,59,61)           109.4638         estimate D2E/DX2                !
 ! A136  A(50,59,62)           113.3269         estimate D2E/DX2                !
 ! A137  A(60,59,61)           108.5142         estimate D2E/DX2                !
 ! A138  A(60,59,62)           106.9472         estimate D2E/DX2                !
 ! A139  A(61,59,62)           110.077          estimate D2E/DX2                !
 ! A140  A(59,62,63)           106.2284         estimate D2E/DX2                !
 ! A141  A(59,62,82)           145.9433         estimate D2E/DX2                !
 ! A142  A(63,62,82)           105.7147         estimate D2E/DX2                !
 ! A143  A(58,66,67)           108.2996         estimate D2E/DX2                !
 ! A144  A(58,66,68)           109.2117         estimate D2E/DX2                !
 ! A145  A(58,66,69)           109.1297         estimate D2E/DX2                !
 ! A146  A(67,66,68)           108.298          estimate D2E/DX2                !
 ! A147  A(67,66,69)           110.5311         estimate D2E/DX2                !
 ! A148  A(68,66,69)           111.31           estimate D2E/DX2                !
 ! A149  A(66,69,70)           107.6335         estimate D2E/DX2                !
 ! A150  A(66,69,71)           108.4714         estimate D2E/DX2                !
 ! A151  A(66,69,72)           114.8616         estimate D2E/DX2                !
 ! A152  A(70,69,71)           106.2157         estimate D2E/DX2                !
 ! A153  A(70,69,72)           110.6554         estimate D2E/DX2                !
 ! A154  A(71,69,72)           108.639          estimate D2E/DX2                !
 ! A155  A(69,72,73)           107.8534         estimate D2E/DX2                !
 ! A156  A(69,72,74)           108.2173         estimate D2E/DX2                !
 ! A157  A(69,72,75)           114.455          estimate D2E/DX2                !
 ! A158  A(73,72,74)           106.448          estimate D2E/DX2                !
 ! A159  A(73,72,75)           110.53           estimate D2E/DX2                !
 ! A160  A(74,72,75)           109.013          estimate D2E/DX2                !
 ! A161  A(72,75,76)           109.8028         estimate D2E/DX2                !
 ! A162  A(72,75,77)           110.3077         estimate D2E/DX2                !
 ! A163  A(72,75,78)           114.3375         estimate D2E/DX2                !
 ! A164  A(76,75,77)           106.5728         estimate D2E/DX2                !
 ! A165  A(76,75,78)           106.7265         estimate D2E/DX2                !
 ! A166  A(77,75,78)           108.754          estimate D2E/DX2                !
 ! A167  A(75,78,79)           110.9571         estimate D2E/DX2                !
 ! A168  A(75,78,80)           111.36           estimate D2E/DX2                !
 ! A169  A(75,78,81)           112.0872         estimate D2E/DX2                !
 ! A170  A(79,78,80)           108.0069         estimate D2E/DX2                !
 ! A171  A(79,78,81)           106.9316         estimate D2E/DX2                !
 ! A172  A(80,78,81)           107.2715         estimate D2E/DX2                !
 ! A173  A(78,81,82)           113.1131         estimate D2E/DX2                !
 ! A174  A(78,81,83)           113.1899         estimate D2E/DX2                !
 ! A175  A(78,81,84)           112.2962         estimate D2E/DX2                !
 ! A176  A(82,81,83)           104.2875         estimate D2E/DX2                !
 ! A177  A(82,81,84)           105.1357         estimate D2E/DX2                !
 ! A178  A(83,81,84)           108.1766         estimate D2E/DX2                !
 ! A179  A(35,82,41)            19.6631         estimate D2E/DX2                !
 ! A180  A(35,82,62)            61.0881         estimate D2E/DX2                !
 ! A181  A(35,82,81)           113.1139         estimate D2E/DX2                !
 ! A182  A(41,82,62)            54.0277         estimate D2E/DX2                !
 ! A183  A(41,82,81)           114.8858         estimate D2E/DX2                !
 ! A184  A(62,82,81)            62.6001         estimate D2E/DX2                !
 ! A185  A(13,83,14)            78.2086         estimate D2E/DX2                !
 ! A186  A(13,83,19)            19.5089         estimate D2E/DX2                !
 ! A187  A(13,83,81)           164.8545         estimate D2E/DX2                !
 ! A188  A(14,83,19)            61.8125         estimate D2E/DX2                !
 ! A189  A(14,83,81)            87.6518         estimate D2E/DX2                !
 ! A190  A(19,83,81)           145.4747         estimate D2E/DX2                !
 ! A191  A(45,84,56)            40.2289         estimate D2E/DX2                !
 ! A192  A(45,84,58)            26.4083         estimate D2E/DX2                !
 ! A193  A(45,84,81)           121.9793         estimate D2E/DX2                !
 ! A194  A(56,84,58)            52.1458         estimate D2E/DX2                !
 ! A195  A(56,84,81)           126.3509         estimate D2E/DX2                !
 ! A196  A(58,84,81)            95.6892         estimate D2E/DX2                !
 ! D1    D(6,1,2,3)            -55.6664         estimate D2E/DX2                !
 ! D2    D(6,1,2,7)           -176.6438         estimate D2E/DX2                !
 ! D3    D(6,1,2,15)            63.2063         estimate D2E/DX2                !
 ! D4    D(2,1,6,5)             55.3123         estimate D2E/DX2                !
 ! D5    D(2,1,6,11)           -63.2728         estimate D2E/DX2                !
 ! D6    D(2,1,6,16)          -178.1984         estimate D2E/DX2                !
 ! D7    D(1,2,3,4)             54.5377         estimate D2E/DX2                !
 ! D8    D(1,2,3,8)            -62.7088         estimate D2E/DX2                !
 ! D9    D(1,2,3,14)           179.9985         estimate D2E/DX2                !
 ! D10   D(7,2,3,4)            172.0168         estimate D2E/DX2                !
 ! D11   D(7,2,3,8)             54.7703         estimate D2E/DX2                !
 ! D12   D(7,2,3,14)           -62.5225         estimate D2E/DX2                !
 ! D13   D(15,2,3,4)           -69.0676         estimate D2E/DX2                !
 ! D14   D(15,2,3,8)           173.6859         estimate D2E/DX2                !
 ! D15   D(15,2,3,14)           56.3931         estimate D2E/DX2                !
 ! D16   D(1,2,15,27)           66.2581         estimate D2E/DX2                !
 ! D17   D(3,2,15,27)         -170.4907         estimate D2E/DX2                !
 ! D18   D(7,2,15,27)          -50.9512         estimate D2E/DX2                !
 ! D19   D(2,3,4,5)            -54.0742         estimate D2E/DX2                !
 ! D20   D(2,3,4,9)             67.6124         estimate D2E/DX2                !
 ! D21   D(2,3,4,13)          -175.8069         estimate D2E/DX2                !
 ! D22   D(8,3,4,5)             62.5172         estimate D2E/DX2                !
 ! D23   D(8,3,4,9)           -175.7962         estimate D2E/DX2                !
 ! D24   D(8,3,4,13)           -59.2155         estimate D2E/DX2                !
 ! D25   D(14,3,4,5)          -179.3285         estimate D2E/DX2                !
 ! D26   D(14,3,4,9)           -57.6419         estimate D2E/DX2                !
 ! D27   D(14,3,4,13)           58.9389         estimate D2E/DX2                !
 ! D28   D(2,3,14,23)          -28.2576         estimate D2E/DX2                !
 ! D29   D(2,3,14,83)         -143.5163         estimate D2E/DX2                !
 ! D30   D(4,3,14,23)           95.7861         estimate D2E/DX2                !
 ! D31   D(4,3,14,83)          -19.4726         estimate D2E/DX2                !
 ! D32   D(8,3,14,23)         -145.4965         estimate D2E/DX2                !
 ! D33   D(8,3,14,83)           99.2448         estimate D2E/DX2                !
 ! D34   D(3,4,5,6)             53.9295         estimate D2E/DX2                !
 ! D35   D(3,4,5,10)           171.0899         estimate D2E/DX2                !
 ! D36   D(3,4,5,12)           -70.9628         estimate D2E/DX2                !
 ! D37   D(9,4,5,6)            -67.5348         estimate D2E/DX2                !
 ! D38   D(9,4,5,10)            49.6255         estimate D2E/DX2                !
 ! D39   D(9,4,5,12)           167.5728         estimate D2E/DX2                !
 ! D40   D(13,4,5,6)           176.8903         estimate D2E/DX2                !
 ! D41   D(13,4,5,10)          -65.9493         estimate D2E/DX2                !
 ! D42   D(13,4,5,12)           51.9979         estimate D2E/DX2                !
 ! D43   D(3,4,13,22)           78.5            estimate D2E/DX2                !
 ! D44   D(3,4,13,83)          -72.0122         estimate D2E/DX2                !
 ! D45   D(5,4,13,22)          -43.6813         estimate D2E/DX2                !
 ! D46   D(5,4,13,83)          165.8065         estimate D2E/DX2                !
 ! D47   D(9,4,13,22)         -162.2687         estimate D2E/DX2                !
 ! D48   D(9,4,13,83)           47.2192         estimate D2E/DX2                !
 ! D49   D(4,5,6,1)            -53.6473         estimate D2E/DX2                !
 ! D50   D(4,5,6,11)            66.7279         estimate D2E/DX2                !
 ! D51   D(4,5,6,16)          -176.3765         estimate D2E/DX2                !
 ! D52   D(10,5,6,1)          -171.6564         estimate D2E/DX2                !
 ! D53   D(10,5,6,11)          -51.2813         estimate D2E/DX2                !
 ! D54   D(10,5,6,16)           65.6144         estimate D2E/DX2                !
 ! D55   D(12,5,6,1)            65.1091         estimate D2E/DX2                !
 ! D56   D(12,5,6,11)         -174.5158         estimate D2E/DX2                !
 ! D57   D(12,5,6,16)          -57.6201         estimate D2E/DX2                !
 ! D58   D(4,5,12,21)          154.5907         estimate D2E/DX2                !
 ! D59   D(6,5,12,21)           33.3488         estimate D2E/DX2                !
 ! D60   D(10,5,12,21)         -88.4133         estimate D2E/DX2                !
 ! D61   D(1,6,16,17)           50.2098         estimate D2E/DX2                !
 ! D62   D(1,6,16,18)          168.0655         estimate D2E/DX2                !
 ! D63   D(1,6,16,19)          -70.7862         estimate D2E/DX2                !
 ! D64   D(5,6,16,17)          175.5798         estimate D2E/DX2                !
 ! D65   D(5,6,16,18)          -66.5645         estimate D2E/DX2                !
 ! D66   D(5,6,16,19)           54.5838         estimate D2E/DX2                !
 ! D67   D(11,6,16,17)         -67.1583         estimate D2E/DX2                !
 ! D68   D(11,6,16,18)          50.6974         estimate D2E/DX2                !
 ! D69   D(11,6,16,19)         171.8457         estimate D2E/DX2                !
 ! D70   D(4,13,83,14)          40.5769         estimate D2E/DX2                !
 ! D71   D(4,13,83,19)           9.4168         estimate D2E/DX2                !
 ! D72   D(4,13,83,81)          19.2377         estimate D2E/DX2                !
 ! D73   D(22,13,83,14)        -96.841          estimate D2E/DX2                !
 ! D74   D(22,13,83,19)       -128.0011         estimate D2E/DX2                !
 ! D75   D(22,13,83,81)       -118.1802         estimate D2E/DX2                !
 ! D76   D(3,14,83,13)         -11.969          estimate D2E/DX2                !
 ! D77   D(3,14,83,19)          -0.6631         estimate D2E/DX2                !
 ! D78   D(3,14,83,81)         162.5708         estimate D2E/DX2                !
 ! D79   D(23,14,83,13)       -124.0836         estimate D2E/DX2                !
 ! D80   D(23,14,83,19)       -112.7776         estimate D2E/DX2                !
 ! D81   D(23,14,83,81)         50.4563         estimate D2E/DX2                !
 ! D82   D(2,15,27,26)        -137.838          estimate D2E/DX2                !
 ! D83   D(2,15,27,28)         101.6275         estimate D2E/DX2                !
 ! D84   D(2,15,27,32)         -20.6893         estimate D2E/DX2                !
 ! D85   D(6,16,19,20)        -179.6719         estimate D2E/DX2                !
 ! D86   D(6,16,19,83)         -18.8368         estimate D2E/DX2                !
 ! D87   D(17,16,19,20)         60.6531         estimate D2E/DX2                !
 ! D88   D(17,16,19,83)       -138.5118         estimate D2E/DX2                !
 ! D89   D(18,16,19,20)        -60.1911         estimate D2E/DX2                !
 ! D90   D(18,16,19,83)        100.644          estimate D2E/DX2                !
 ! D91   D(16,19,83,13)       -130.9114         estimate D2E/DX2                !
 ! D92   D(16,19,83,14)         84.1647         estimate D2E/DX2                !
 ! D93   D(16,19,83,81)         53.5984         estimate D2E/DX2                !
 ! D94   D(20,19,83,13)        -37.5115         estimate D2E/DX2                !
 ! D95   D(20,19,83,14)        177.5646         estimate D2E/DX2                !
 ! D96   D(20,19,83,81)        146.9983         estimate D2E/DX2                !
 ! D97   D(29,24,25,26)        -59.5476         estimate D2E/DX2                !
 ! D98   D(29,24,25,30)         59.087          estimate D2E/DX2                !
 ! D99   D(29,24,25,37)        172.3974         estimate D2E/DX2                !
 ! D100  D(25,24,29,28)         55.7533         estimate D2E/DX2                !
 ! D101  D(25,24,29,34)        -63.301          estimate D2E/DX2                !
 ! D102  D(25,24,29,38)       -178.2493         estimate D2E/DX2                !
 ! D103  D(24,25,26,27)          3.8767         estimate D2E/DX2                !
 ! D104  D(24,25,26,31)       -115.7229         estimate D2E/DX2                !
 ! D105  D(24,25,26,36)        122.4533         estimate D2E/DX2                !
 ! D106  D(30,25,26,27)       -115.1724         estimate D2E/DX2                !
 ! D107  D(30,25,26,31)        125.228          estimate D2E/DX2                !
 ! D108  D(30,25,26,36)          3.4042         estimate D2E/DX2                !
 ! D109  D(37,25,26,27)        128.2815         estimate D2E/DX2                !
 ! D110  D(37,25,26,31)          8.6818         estimate D2E/DX2                !
 ! D111  D(37,25,26,36)       -113.1419         estimate D2E/DX2                !
 ! D112  D(24,25,37,49)         63.5498         estimate D2E/DX2                !
 ! D113  D(26,25,37,49)        -62.1702         estimate D2E/DX2                !
 ! D114  D(30,25,37,49)        179.4453         estimate D2E/DX2                !
 ! D115  D(25,26,27,15)        -71.1611         estimate D2E/DX2                !
 ! D116  D(25,26,27,28)         50.9308         estimate D2E/DX2                !
 ! D117  D(25,26,27,32)        170.5173         estimate D2E/DX2                !
 ! D118  D(31,26,27,15)         48.6785         estimate D2E/DX2                !
 ! D119  D(31,26,27,28)        170.7704         estimate D2E/DX2                !
 ! D120  D(31,26,27,32)        -69.6431         estimate D2E/DX2                !
 ! D121  D(36,26,27,15)        168.1321         estimate D2E/DX2                !
 ! D122  D(36,26,27,28)        -69.776          estimate D2E/DX2                !
 ! D123  D(36,26,27,32)         49.8106         estimate D2E/DX2                !
 ! D124  D(25,26,36,44)         82.038          estimate D2E/DX2                !
 ! D125  D(27,26,36,44)       -156.7679         estimate D2E/DX2                !
 ! D126  D(31,26,36,44)        -38.732          estimate D2E/DX2                !
 ! D127  D(15,27,28,29)         64.818          estimate D2E/DX2                !
 ! D128  D(15,27,28,33)       -177.7468         estimate D2E/DX2                !
 ! D129  D(15,27,28,35)        -58.7294         estimate D2E/DX2                !
 ! D130  D(26,27,28,29)        -54.5414         estimate D2E/DX2                !
 ! D131  D(26,27,28,33)         62.8938         estimate D2E/DX2                !
 ! D132  D(26,27,28,35)       -178.0888         estimate D2E/DX2                !
 ! D133  D(32,27,28,29)       -172.9352         estimate D2E/DX2                !
 ! D134  D(32,27,28,33)        -55.5            estimate D2E/DX2                !
 ! D135  D(32,27,28,35)         63.5174         estimate D2E/DX2                !
 ! D136  D(27,28,29,24)          3.0115         estimate D2E/DX2                !
 ! D137  D(27,28,29,34)        121.5057         estimate D2E/DX2                !
 ! D138  D(27,28,29,38)       -118.5254         estimate D2E/DX2                !
 ! D139  D(33,28,29,24)       -113.3291         estimate D2E/DX2                !
 ! D140  D(33,28,29,34)          5.1651         estimate D2E/DX2                !
 ! D141  D(33,28,29,38)        125.1341         estimate D2E/DX2                !
 ! D142  D(35,28,29,24)        127.1007         estimate D2E/DX2                !
 ! D143  D(35,28,29,34)       -114.405          estimate D2E/DX2                !
 ! D144  D(35,28,29,38)          5.5639         estimate D2E/DX2                !
 ! D145  D(27,28,35,43)        -98.9082         estimate D2E/DX2                !
 ! D146  D(27,28,35,82)         67.0061         estimate D2E/DX2                !
 ! D147  D(29,28,35,43)        137.3981         estimate D2E/DX2                !
 ! D148  D(29,28,35,82)        -56.6875         estimate D2E/DX2                !
 ! D149  D(33,28,35,43)         18.4367         estimate D2E/DX2                !
 ! D150  D(33,28,35,82)       -175.649          estimate D2E/DX2                !
 ! D151  D(24,29,38,39)         48.6443         estimate D2E/DX2                !
 ! D152  D(24,29,38,40)        165.9106         estimate D2E/DX2                !
 ! D153  D(24,29,38,41)        -69.9568         estimate D2E/DX2                !
 ! D154  D(28,29,38,39)        172.879          estimate D2E/DX2                !
 ! D155  D(28,29,38,40)        -69.8547         estimate D2E/DX2                !
 ! D156  D(28,29,38,41)         54.2779         estimate D2E/DX2                !
 ! D157  D(34,29,38,39)        -66.4828         estimate D2E/DX2                !
 ! D158  D(34,29,38,40)         50.7835         estimate D2E/DX2                !
 ! D159  D(34,29,38,41)        174.916          estimate D2E/DX2                !
 ! D160  D(28,35,82,41)         83.672          estimate D2E/DX2                !
 ! D161  D(28,35,82,62)         20.3231         estimate D2E/DX2                !
 ! D162  D(28,35,82,81)        -15.84           estimate D2E/DX2                !
 ! D163  D(43,35,82,41)       -129.6848         estimate D2E/DX2                !
 ! D164  D(43,35,82,62)        166.9663         estimate D2E/DX2                !
 ! D165  D(43,35,82,81)        130.8032         estimate D2E/DX2                !
 ! D166  D(25,37,49,48)        121.9319         estimate D2E/DX2                !
 ! D167  D(25,37,49,50)       -119.3577         estimate D2E/DX2                !
 ! D168  D(25,37,49,55)          0.4517         estimate D2E/DX2                !
 ! D169  D(29,38,41,42)        -74.366          estimate D2E/DX2                !
 ! D170  D(29,38,41,82)         88.2672         estimate D2E/DX2                !
 ! D171  D(39,38,41,42)        166.1817         estimate D2E/DX2                !
 ! D172  D(39,38,41,82)        -31.1851         estimate D2E/DX2                !
 ! D173  D(40,38,41,42)         48.9239         estimate D2E/DX2                !
 ! D174  D(40,38,41,82)       -148.4429         estimate D2E/DX2                !
 ! D175  D(38,41,82,35)       -124.5073         estimate D2E/DX2                !
 ! D176  D(38,41,82,62)        -19.6823         estimate D2E/DX2                !
 ! D177  D(38,41,82,81)        -35.2042         estimate D2E/DX2                !
 ! D178  D(42,41,82,35)         37.3072         estimate D2E/DX2                !
 ! D179  D(42,41,82,62)        142.1322         estimate D2E/DX2                !
 ! D180  D(42,41,82,81)        126.6103         estimate D2E/DX2                !
 ! D181  D(50,45,46,47)        -64.1216         estimate D2E/DX2                !
 ! D182  D(50,45,46,51)         57.0589         estimate D2E/DX2                !
 ! D183  D(50,45,46,58)        179.0518         estimate D2E/DX2                !
 ! D184  D(84,45,46,47)         78.1129         estimate D2E/DX2                !
 ! D185  D(84,45,46,51)       -160.7066         estimate D2E/DX2                !
 ! D186  D(84,45,46,58)        -38.7136         estimate D2E/DX2                !
 ! D187  D(46,45,50,49)         67.4882         estimate D2E/DX2                !
 ! D188  D(46,45,50,54)        -51.1166         estimate D2E/DX2                !
 ! D189  D(46,45,50,59)       -167.1274         estimate D2E/DX2                !
 ! D190  D(84,45,50,49)        -94.2066         estimate D2E/DX2                !
 ! D191  D(84,45,50,54)        147.1886         estimate D2E/DX2                !
 ! D192  D(84,45,50,59)         31.1777         estimate D2E/DX2                !
 ! D193  D(46,45,84,56)        -80.1278         estimate D2E/DX2                !
 ! D194  D(46,45,84,58)         24.0068         estimate D2E/DX2                !
 ! D195  D(46,45,84,81)         29.9853         estimate D2E/DX2                !
 ! D196  D(50,45,84,56)         65.134          estimate D2E/DX2                !
 ! D197  D(50,45,84,58)        169.2686         estimate D2E/DX2                !
 ! D198  D(50,45,84,81)        175.2471         estimate D2E/DX2                !
 ! D199  D(45,46,47,48)         54.1745         estimate D2E/DX2                !
 ! D200  D(45,46,47,52)        -64.6052         estimate D2E/DX2                !
 ! D201  D(45,46,47,57)        173.6877         estimate D2E/DX2                !
 ! D202  D(51,46,47,48)        -65.5788         estimate D2E/DX2                !
 ! D203  D(51,46,47,52)        175.6414         estimate D2E/DX2                !
 ! D204  D(51,46,47,57)         53.9343         estimate D2E/DX2                !
 ! D205  D(58,46,47,48)        171.7151         estimate D2E/DX2                !
 ! D206  D(58,46,47,52)         52.9353         estimate D2E/DX2                !
 ! D207  D(58,46,47,57)        -68.7718         estimate D2E/DX2                !
 ! D208  D(45,46,58,66)        -70.4916         estimate D2E/DX2                !
 ! D209  D(45,46,58,84)         12.8823         estimate D2E/DX2                !
 ! D210  D(47,46,58,66)        171.9455         estimate D2E/DX2                !
 ! D211  D(47,46,58,84)       -104.6805         estimate D2E/DX2                !
 ! D212  D(51,46,58,66)         49.6618         estimate D2E/DX2                !
 ! D213  D(51,46,58,84)        133.0358         estimate D2E/DX2                !
 ! D214  D(46,47,48,49)        -49.9353         estimate D2E/DX2                !
 ! D215  D(46,47,48,53)         68.81           estimate D2E/DX2                !
 ! D216  D(46,47,48,56)       -171.7217         estimate D2E/DX2                !
 ! D217  D(52,47,48,49)         67.366          estimate D2E/DX2                !
 ! D218  D(52,47,48,53)       -173.8887         estimate D2E/DX2                !
 ! D219  D(52,47,48,56)        -54.4204         estimate D2E/DX2                !
 ! D220  D(57,47,48,49)       -173.3454         estimate D2E/DX2                !
 ! D221  D(57,47,48,53)        -54.6001         estimate D2E/DX2                !
 ! D222  D(57,47,48,56)         64.8682         estimate D2E/DX2                !
 ! D223  D(46,47,57,65)         60.003          estimate D2E/DX2                !
 ! D224  D(48,47,57,65)       -177.2387         estimate D2E/DX2                !
 ! D225  D(52,47,57,65)        -59.2017         estimate D2E/DX2                !
 ! D226  D(47,48,49,37)        170.0777         estimate D2E/DX2                !
 ! D227  D(47,48,49,50)         51.1449         estimate D2E/DX2                !
 ! D228  D(47,48,49,55)        -68.4621         estimate D2E/DX2                !
 ! D229  D(53,48,49,37)         50.8982         estimate D2E/DX2                !
 ! D230  D(53,48,49,50)        -68.0347         estimate D2E/DX2                !
 ! D231  D(53,48,49,55)        172.3583         estimate D2E/DX2                !
 ! D232  D(56,48,49,37)        -68.3056         estimate D2E/DX2                !
 ! D233  D(56,48,49,50)        172.7616         estimate D2E/DX2                !
 ! D234  D(56,48,49,55)         53.1545         estimate D2E/DX2                !
 ! D235  D(47,48,56,64)        -56.3951         estimate D2E/DX2                !
 ! D236  D(47,48,56,84)         81.1302         estimate D2E/DX2                !
 ! D237  D(49,48,56,64)       -179.2248         estimate D2E/DX2                !
 ! D238  D(49,48,56,84)        -41.6994         estimate D2E/DX2                !
 ! D239  D(53,48,56,64)         62.5471         estimate D2E/DX2                !
 ! D240  D(53,48,56,84)       -159.9276         estimate D2E/DX2                !
 ! D241  D(37,49,50,45)       -178.5475         estimate D2E/DX2                !
 ! D242  D(37,49,50,54)        -58.7328         estimate D2E/DX2                !
 ! D243  D(37,49,50,59)         60.7803         estimate D2E/DX2                !
 ! D244  D(48,49,50,45)        -58.9968         estimate D2E/DX2                !
 ! D245  D(48,49,50,54)         60.8179         estimate D2E/DX2                !
 ! D246  D(48,49,50,59)       -179.6691         estimate D2E/DX2                !
 ! D247  D(55,49,50,45)         61.1392         estimate D2E/DX2                !
 ! D248  D(55,49,50,54)       -179.0461         estimate D2E/DX2                !
 ! D249  D(55,49,50,59)        -59.533          estimate D2E/DX2                !
 ! D250  D(45,50,59,60)         56.1032         estimate D2E/DX2                !
 ! D251  D(45,50,59,61)        174.2802         estimate D2E/DX2                !
 ! D252  D(45,50,59,62)        -62.4284         estimate D2E/DX2                !
 ! D253  D(49,50,59,60)        177.6497         estimate D2E/DX2                !
 ! D254  D(49,50,59,61)        -64.1734         estimate D2E/DX2                !
 ! D255  D(49,50,59,62)         59.118          estimate D2E/DX2                !
 ! D256  D(54,50,59,60)        -62.0801         estimate D2E/DX2                !
 ! D257  D(54,50,59,61)         56.0969         estimate D2E/DX2                !
 ! D258  D(54,50,59,62)        179.3883         estimate D2E/DX2                !
 ! D259  D(48,56,84,45)        -16.9569         estimate D2E/DX2                !
 ! D260  D(48,56,84,58)        -50.0665         estimate D2E/DX2                !
 ! D261  D(48,56,84,81)       -115.479          estimate D2E/DX2                !
 ! D262  D(64,56,84,45)         50.7977         estimate D2E/DX2                !
 ! D263  D(64,56,84,58)         17.6881         estimate D2E/DX2                !
 ! D264  D(64,56,84,81)        -47.7244         estimate D2E/DX2                !
 ! D265  D(46,58,66,67)       -101.5519         estimate D2E/DX2                !
 ! D266  D(46,58,66,68)         16.1859         estimate D2E/DX2                !
 ! D267  D(46,58,66,69)        138.0704         estimate D2E/DX2                !
 ! D268  D(84,58,66,67)       -170.8164         estimate D2E/DX2                !
 ! D269  D(84,58,66,68)        -53.0786         estimate D2E/DX2                !
 ! D270  D(84,58,66,69)         68.8059         estimate D2E/DX2                !
 ! D271  D(46,58,84,45)        -13.2833         estimate D2E/DX2                !
 ! D272  D(46,58,84,56)         39.2022         estimate D2E/DX2                !
 ! D273  D(46,58,84,81)        171.8105         estimate D2E/DX2                !
 ! D274  D(66,58,84,45)        102.2027         estimate D2E/DX2                !
 ! D275  D(66,58,84,56)        154.6882         estimate D2E/DX2                !
 ! D276  D(66,58,84,81)        -72.7035         estimate D2E/DX2                !
 ! D277  D(50,59,62,63)        -81.0176         estimate D2E/DX2                !
 ! D278  D(50,59,62,82)         78.1006         estimate D2E/DX2                !
 ! D279  D(60,59,62,63)        159.6336         estimate D2E/DX2                !
 ! D280  D(60,59,62,82)        -41.2482         estimate D2E/DX2                !
 ! D281  D(61,59,62,63)         41.936          estimate D2E/DX2                !
 ! D282  D(61,59,62,82)       -158.9458         estimate D2E/DX2                !
 ! D283  D(59,62,82,35)       -163.7058         estimate D2E/DX2                !
 ! D284  D(59,62,82,41)        174.4798         estimate D2E/DX2                !
 ! D285  D(59,62,82,81)        -21.389          estimate D2E/DX2                !
 ! D286  D(63,62,82,35)         -4.5315         estimate D2E/DX2                !
 ! D287  D(63,62,82,41)        -26.346          estimate D2E/DX2                !
 ! D288  D(63,62,82,81)        137.7853         estimate D2E/DX2                !
 ! D289  D(58,66,69,70)        177.6675         estimate D2E/DX2                !
 ! D290  D(58,66,69,71)         63.1408         estimate D2E/DX2                !
 ! D291  D(58,66,69,72)        -58.6059         estimate D2E/DX2                !
 ! D292  D(67,66,69,70)         58.6695         estimate D2E/DX2                !
 ! D293  D(67,66,69,71)        -55.8572         estimate D2E/DX2                !
 ! D294  D(67,66,69,72)       -177.6039         estimate D2E/DX2                !
 ! D295  D(68,66,69,70)        -61.7247         estimate D2E/DX2                !
 ! D296  D(68,66,69,71)       -176.2513         estimate D2E/DX2                !
 ! D297  D(68,66,69,72)         62.0019         estimate D2E/DX2                !
 ! D298  D(66,69,72,73)         57.7609         estimate D2E/DX2                !
 ! D299  D(66,69,72,74)        172.5434         estimate D2E/DX2                !
 ! D300  D(66,69,72,75)        -65.6907         estimate D2E/DX2                !
 ! D301  D(70,69,72,73)        179.8667         estimate D2E/DX2                !
 ! D302  D(70,69,72,74)        -65.3508         estimate D2E/DX2                !
 ! D303  D(70,69,72,75)         56.4151         estimate D2E/DX2                !
 ! D304  D(71,69,72,73)        -63.8947         estimate D2E/DX2                !
 ! D305  D(71,69,72,74)         50.8878         estimate D2E/DX2                !
 ! D306  D(71,69,72,75)        172.6537         estimate D2E/DX2                !
 ! D307  D(69,72,75,76)        -58.0223         estimate D2E/DX2                !
 ! D308  D(69,72,75,77)         59.1394         estimate D2E/DX2                !
 ! D309  D(69,72,75,78)       -177.9293         estimate D2E/DX2                !
 ! D310  D(73,72,75,76)        179.9759         estimate D2E/DX2                !
 ! D311  D(73,72,75,77)        -62.8623         estimate D2E/DX2                !
 ! D312  D(73,72,75,78)         60.069          estimate D2E/DX2                !
 ! D313  D(74,72,75,76)         63.307          estimate D2E/DX2                !
 ! D314  D(74,72,75,77)       -179.5312         estimate D2E/DX2                !
 ! D315  D(74,72,75,78)        -56.5999         estimate D2E/DX2                !
 ! D316  D(72,75,78,79)        173.9304         estimate D2E/DX2                !
 ! D317  D(72,75,78,80)         53.5835         estimate D2E/DX2                !
 ! D318  D(72,75,78,81)        -66.5987         estimate D2E/DX2                !
 ! D319  D(76,75,78,79)         52.3173         estimate D2E/DX2                !
 ! D320  D(76,75,78,80)        -68.0296         estimate D2E/DX2                !
 ! D321  D(76,75,78,81)        171.7882         estimate D2E/DX2                !
 ! D322  D(77,75,78,79)        -62.3009         estimate D2E/DX2                !
 ! D323  D(77,75,78,80)        177.3522         estimate D2E/DX2                !
 ! D324  D(77,75,78,81)         57.17           estimate D2E/DX2                !
 ! D325  D(75,78,81,82)        179.5062         estimate D2E/DX2                !
 ! D326  D(75,78,81,83)         61.1631         estimate D2E/DX2                !
 ! D327  D(75,78,81,84)        -61.6877         estimate D2E/DX2                !
 ! D328  D(79,78,81,82)        -58.6894         estimate D2E/DX2                !
 ! D329  D(79,78,81,83)       -177.0326         estimate D2E/DX2                !
 ! D330  D(79,78,81,84)         60.1167         estimate D2E/DX2                !
 ! D331  D(80,78,81,82)         56.9718         estimate D2E/DX2                !
 ! D332  D(80,78,81,83)        -61.3713         estimate D2E/DX2                !
 ! D333  D(80,78,81,84)        175.7779         estimate D2E/DX2                !
 ! D334  D(78,81,82,35)        156.4227         estimate D2E/DX2                !
 ! D335  D(78,81,82,41)        134.964          estimate D2E/DX2                !
 ! D336  D(78,81,82,62)        120.8448         estimate D2E/DX2                !
 ! D337  D(83,81,82,35)        -80.1757         estimate D2E/DX2                !
 ! D338  D(83,81,82,41)       -101.6344         estimate D2E/DX2                !
 ! D339  D(83,81,82,62)       -115.7536         estimate D2E/DX2                !
 ! D340  D(84,81,82,35)         33.5498         estimate D2E/DX2                !
 ! D341  D(84,81,82,41)         12.0911         estimate D2E/DX2                !
 ! D342  D(84,81,82,62)         -2.0281         estimate D2E/DX2                !
 ! D343  D(78,81,83,13)       -175.0724         estimate D2E/DX2                !
 ! D344  D(78,81,83,14)        164.0416         estimate D2E/DX2                !
 ! D345  D(78,81,83,19)       -169.3043         estimate D2E/DX2                !
 ! D346  D(82,81,83,13)         61.5758         estimate D2E/DX2                !
 ! D347  D(82,81,83,14)         40.6898         estimate D2E/DX2                !
 ! D348  D(82,81,83,19)         67.3439         estimate D2E/DX2                !
 ! D349  D(84,81,83,13)        -49.9676         estimate D2E/DX2                !
 ! D350  D(84,81,83,14)        -70.8536         estimate D2E/DX2                !
 ! D351  D(84,81,83,19)        -44.1994         estimate D2E/DX2                !
 ! D352  D(78,81,84,45)         73.6969         estimate D2E/DX2                !
 ! D353  D(78,81,84,56)        122.5466         estimate D2E/DX2                !
 ! D354  D(78,81,84,58)         76.3652         estimate D2E/DX2                !
 ! D355  D(82,81,84,45)       -162.9066         estimate D2E/DX2                !
 ! D356  D(82,81,84,56)       -114.0569         estimate D2E/DX2                !
 ! D357  D(82,81,84,58)       -160.2383         estimate D2E/DX2                !
 ! D358  D(83,81,84,45)        -51.9357         estimate D2E/DX2                !
 ! D359  D(83,81,84,56)         -3.086          estimate D2E/DX2                !
 ! D360  D(83,81,84,58)        -49.2674         estimate D2E/DX2                !
 --------------------------------------------------------------------------------
 Trust Radius=3.00D-01 FncErr=1.00D-07 GrdErr=1.00D-06
 Number of steps in this run=    504 maximum allowed number of steps=    504.
 GradGradGradGradGradGradGradGradGradGradGradGradGradGradGradGradGradGrad

 Leave Link  103 at Tue Apr 26 23:17:34 2016, MaxMem= 10737418240 cpu:         0.5
 (Enter /share/apps//g09/l202.exe)
 Stoichiometry    C23H44NO16(1+)
 Framework group  C1[X(C23H44NO16)]
 Deg. of freedom   246
 Full point group                 C1      NOp   1
 Largest Abelian subgroup         C1      NOp   1
 Largest concise Abelian subgroup C1      NOp   1
                         Standard orientation:                         
 ---------------------------------------------------------------------
 Center     Atomic      Atomic             Coordinates (Angstroms)
 Number     Number       Type             X           Y           Z
 ---------------------------------------------------------------------
      1          8           0       -2.262700    2.479126   -1.032595
      2          6           0       -2.143107    1.162760   -1.519680
      3          6           0       -0.858767    0.947832   -2.336871
      4          6           0        0.365189    1.365356   -1.502363
      5          6           0        0.193579    2.799597   -0.992621
      6          6           0       -1.141719    2.928826   -0.241556
      7          1           0       -3.037847    1.006325   -2.141572
      8          1           0       -0.918124    1.609690   -3.214481
      9          1           0        0.494984    0.673818   -0.656997
     10          1           0        1.004156    3.018915   -0.266803
     11          1           0       -1.054779    2.309167    0.671050
     12          8           0        0.331332    3.626988   -2.146854
     13          8           0        1.581783    1.271012   -2.266053
     14          8           0       -0.752886   -0.389124   -2.822443
     15          8           0       -2.087907    0.177800   -0.479090
     16          6           0       -1.456485    4.338580    0.234925
     17          1           0       -2.462331    4.338932    0.686342
     18          1           0       -0.719230    4.613626    1.009720
     19          8           0       -1.398426    5.249218   -0.876354
     20          1           0       -1.595051    6.147977   -0.565216
     21          1           0       -0.157373    4.460944   -1.970110
     22          1           0        1.606441    2.066016   -2.837896
     23          1           0       -1.228225   -0.995026   -2.208873
     24          8           0       -2.037913   -2.250274    0.817054
     25          6           0       -2.176465   -1.494798    2.037666
     26          6           0       -2.858271   -0.114489    1.774921
     27          6           0       -3.283246    0.025664    0.306417
     28          6           0       -4.096717   -1.206013   -0.113654
     29          6           0       -3.300491   -2.519928    0.170664
     30          1           0       -2.819086   -2.064479    2.734150
     31          1           0       -2.144438    0.685784    2.009434
     32          1           0       -3.903501    0.931101    0.218308
     33          1           0       -5.002114   -1.209856    0.512609
     34          1           0       -3.898469   -3.153212    0.854646
     35          8           0       -4.480567   -1.137147   -1.504094
     36          8           0       -4.044298    0.017124    2.565875
     37          8           0       -0.928061   -1.435827    2.674763
     38          6           0       -2.989721   -3.355966   -1.068520
     39          1           0       -2.324165   -4.179047   -0.771625
     40          1           0       -3.923891   -3.795924   -1.450140
     41          8           0       -2.314140   -2.629073   -2.101673
     42          1           0       -3.006526   -2.059123   -2.494103
     43          1           0       -5.396183   -0.820826   -1.560803
     44          1           0       -3.785095    0.300351    3.459169
     45          8           0        2.358166   -1.056600    1.059511
     46          6           0        2.976804   -0.082326    1.920830
     47          6           0        1.948716    0.996383    2.259417
     48          6           0        0.666782    0.396704    2.845772
     49          6           0        0.134053   -0.749067    1.979900
     50          6           0        1.287939   -1.745475    1.719570
     51          1           0        3.338624   -0.594076    2.839871
     52          1           0        1.703768    1.504549    1.307829
     53          1           0        0.895383   -0.013341    3.848585
     54          1           0        1.632822   -2.140915    2.697831
     55          1           0       -0.233366   -0.358369    1.018030
     56          8           0       -0.329580    1.419596    2.964426
     57          8           0        2.425300    1.931857    3.224737
     58          8           0        4.013137    0.528890    1.228874
     59          6           0        0.924374   -2.948222    0.860605
     60          1           0        1.829207   -3.554581    0.712965
     61          1           0        0.176149   -3.559625    1.384446
     62          8           0        0.443525   -2.591032   -0.441981
     63          1           0       -0.504448   -2.351470   -0.329107
     64          1           0        0.070725    2.120396    3.511598
     65          1           0        3.218225    2.360059    2.854377
     66          6           0        5.167920   -0.319208    0.987519
     67          1           0        5.949604   -0.055705    1.718417
     68          1           0        4.884994   -1.370567    1.148119
     69          6           0        5.666932   -0.090841   -0.434660
     70          1           0        6.566524   -0.713242   -0.577147
     71          1           0        5.999357    0.955094   -0.524010
     72          6           0        4.632568   -0.373152   -1.535399
     73          1           0        3.757272    0.267348   -1.348221
     74          1           0        5.057446   -0.047351   -2.499496
     75          6           0        4.208887   -1.844860   -1.647230
     76          1           0        5.093681   -2.474968   -1.834913
     77          1           0        3.773115   -2.190381   -0.696815
     78          6           0        3.218664   -2.130807   -2.774061
     79          1           0        3.036804   -3.209221   -2.872856
     80          1           0        3.592048   -1.759252   -3.739206
     81          7           0        1.886375   -1.483175   -2.532485
     82          1           0        1.209222   -1.659087   -3.286573
     83          1           0        1.940424   -0.436960   -2.471814
     84          1           0        1.419999   -1.840824   -1.653711
 ---------------------------------------------------------------------
 Rotational constants (GHZ):      0.1122470      0.0811994      0.0746495
 Leave Link  202 at Tue Apr 26 23:17:34 2016, MaxMem= 10737418240 cpu:         0.7
 (Enter /share/apps//g09/l301.exe)
[...]
 0,0.00001774,0.00000744,-0.00001138,0.00002686,-0.00000799,-0.00001961
 ,-0.00000262,-0.00000446,-0.00001100,0.00001069,-0.00000216,-0.0000212
 5,-0.00002050,-0.00006089,-0.00010658,-0.00002328,-0.00004732,-0.00005
 514,-0.00011830,-0.00003373,-0.00010158,-0.00017435,-0.00013239,0.0001
 6118,-0.00000843,0.00000381,-0.00001634,0.00004885,0.00001177,-0.00002
 198,0.00035108,0.00008711,-0.00012265,-0.00010804,0.00005955,0.0000761
 2,0.00001951,0.00002522,0.00000413,0.00001595,0.00001885,0.00002253,-0
 .00064597,0.00010738,-0.00050436,0.00092966,0.00017281,0.00015431,0.00
 000693,0.00022991,-0.00006109,0.00012599,0.00005012,0.00008690,0.00000
 564,0.00005065,0.00006702,0.00010572,-0.00001110,0.00008311,-0.0000888
 4,-0.00004464,-0.00006226,0.00002035,-0.00004120,-0.00001785,-0.000031
 31,-0.00002358,0.00000041,-0.00002389,0.00001892,-0.00004557,0.0000407
 4,0.00004400,0.00007488,-0.00012974,-0.00012889,-0.00006394,-0.0000969
 5,-0.00012936,-0.00003320,-0.00042398,-0.00027043,0.00027798,0.0001719
 6,-0.00067457,0.00049283,-0.00001390,0.00002587,-0.00002558,0.00000392
 ,0.00013818,-0.00008392,0.00073709,0.00074257,-0.00026850,-0.00029650,
 0.00008100,0.00024850,0.00003916,0.00003219,-0.00003141,0.00001098,0.0
 0006680,-0.00003410,0.00024888,0.00010056,-0.00004647,-0.00005787,-0.0
 0005638,0.00006271,-0.00005924,-0.00008895,0.00001534,-0.00024707,-0.0
 0046563,-0.00098832,0.00026947,-0.00033975,0.00017811,-0.00009318,0.00
 008627,-0.00005397,0.00014300,0.00077061,0.00183763,-0.00114350,0.0007
 1996,-0.00214059,-0.00030218,0.00005072,0.00019827,0.00100519,0.000018
 95,0.00056485,-0.00038097,-0.00015874,-0.00036656,-0.00017639,-0.00016
 045,-0.00008846,0.02090718,0.00889116,0.01199962,-0.00295686,0.0036584
 8,0.00405084,0.00020823,-0.00017669,0.00037790,-0.17658137,-0.08758821
 ,-0.10941162,-0.01390182,-0.01002765,-0.01158526,0.18812612,-0.0005207
 2,-0.00013844,0.00007198,0.00051679,0.00082443,-0.00093123,0.00064529,
 -0.00032961,0.00073593,0.00718098,0.00130344,-0.00562488,-0.00164889,0
 .00026374,0.00077433,0.00103756,0.00043763,0.00029141,-0.00021399,-0.0
 0002825,0.00021550,0.00009079,-0.00028188,0.00001483,-0.00071271,-0.00
 023718,0.00063527,0.00009599,-0.00011299,-0.00006838,-0.00002024,0.000
 05330,-0.00001365,-0.00010445,0.00053385,0.00086944,-0.00024441,0.0011
 4273,0.00570608,-0.00177224,-0.00190445,-0.00111493,-0.00098373,-0.000
 67341,0.00051321,-0.00039712,0.00002848,-0.00002535,-0.00000355,0.0001
 1373,0.00016823,0.00003706,-0.00002334,-0.00001794,-0.00003780,0.00015
 787,0.00031695,-0.00004868,-0.00008017,-0.00002094,-0.00012978,-0.0004
 3345,-0.00028214,-0.00126921,-0.00208099,0.00160679,0.00018736,0.00100
 079,0.00054135,0.00014866,-0.00029113,-0.00028607,-0.00011932,0.000345
 62,0.00019352,-0.00001783,0.00010688,-0.00002504,0.00056977,0.00002566
 ,-0.00029075,0.00002049,0.00010100,0.00007575,-0.00006968,0.00021431,-
 0.00000401,0.00000832,-0.00002566,-0.00002863,-0.00001395,0.00005407,-
 0.00003236,-0.00000879,-0.00001123,0.00001054,-0.00004857,-0.00001709,
 -0.00002725,0.00001416,-0.00003228,-0.00000772,-0.00016122,-0.00019329
 ,-0.00009416,-0.00007867,-0.00017735,0.00005165,0.00027173,-0.00034349
 ,-0.00021549,-0.00002630,0.00004297,0.00003589,-0.00004673,-0.00004519
 ,-0.00001646,-0.00000031,-0.00001281,0.00001349,-0.00018805,-0.0003563
 9,-0.00025589,0.00022351,0.00012873,0.00015307,0.00007603,0.00001367,0
 .00002154,0.00000871,0.00004496,0.00001679,0.00012657,0.00028227,-0.00
 098205,0.00026413,-0.00007030,0.00089522,0.00006588,0.00046311,-0.0000
 3666,-0.00000276,0.00019988,0.00026443,-0.00020280,0.00028758,0.000101
 04,-0.00063292,0.00003070,0.00028617,-0.00002061,0.00002765,-0.0001560
 4,-0.00003192,-0.00001601,0.00003064,-0.00001880,-0.00007110,0.0000157
 3,0.00006401,0.00003061,-0.00012288,0.00008193,0.00010797,0.00006590,-
 0.00000990,-0.00045076,-0.00024541,-0.00000300,-0.00034697,-0.00021861
 ,0.00014910,-0.00008369,-0.00069572,0.00014916,-0.00064446,0.00030227,
 -0.00005219,-0.00004679,-0.00005937,0.00004188,0.00014948,-0.00004726,
 0.00108089,0.00060239,-0.00067461,-0.00030709,0.00052455,0.00039946,0.
 00001417,0.00009040,-0.00001543,-0.00000572,0.00019013,0.00010783,-0.0
 0013133,0.00006651,0.00040981,-0.00000835,0.00001696,-0.00013152,-0.00
 000491,-0.00013897,0.00003482,-0.00014945,-0.00009236,0.00055065,-0.00
 008137,0.00017336,-0.00012351,-0.00018565,0.00010829,-0.00014465,0.000
 57932,-0.00018348,-0.00089653,0.00114523,0.00128696,0.00153652,-0.0003
 1252,0.00010274,0.00029711,-0.00054977,-0.00100606,-0.00001178,-0.0003
 3618,0.00043900,0.00004826,-0.00003557,-0.00030217,0.00000268,-0.00649
 192,-0.00946326,-0.01044755,0.00124777,-0.00001253,-0.00076787,-0.0003
 2170,0.00098502,0.00109235,-0.09308125,-0.13117633,-0.08926655,0.01797
 444,0.01634455,0.01844857,0.08996786,0.13210147,-0.00061519,-0.0000611
 9,-0.00023496,0.00032354,0.00074178,-0.00072520,0.00127058,0.00004704,
 0.00217535,0.00605582,-0.00158665,-0.00700990,-0.00108049,0.00034384,-
 0.00003628,0.00108170,0.00016589,0.00022683,-0.00024624,0.00001065,0.0
 0024348,-0.00001302,-0.00011186,-0.00003798,-0.00004885,0.00009669,-0.
 00023880,0.00001929,-0.00008240,-0.00007645,-0.00000324,0.00006940,-0.
 00003695,-0.00001711,0.00111926,0.00123173,0.00283143,0.00602462,-0.00
 458964,-0.00067629,-0.00157127,-0.00251016,-0.00094743,-0.00053162,0.0
 0027264,-0.00035611,0.00000543,-0.00005798,-0.00000882,0.00010967,0.00
 015962,0.00001949,-0.00001925,-0.00003771,-0.00004504,0.00022630,0.000
 35202,-0.00004745,-0.00009664,-0.00001444,-0.00009411,-0.00046771,-0.0
 0032197,-0.00197702,-0.00069902,0.00520654,0.00026324,0.00041902,0.000
 30210,0.00007410,-0.00017921,-0.00053505,0.00017216,0.00009621,0.00038
 934,0.00002009,0.00009526,-0.00004983,0.00051784,0.00004033,-0.0002466
 9,0.00003621,0.00005218,0.00012785,0.00000097,0.00015836,0.00000722,-0
 .00002084,-0.00000609,-0.00004761,0.00000377,0.00002683,-0.00004191,-0
 .00000944,-0.00000620,0.00000731,-0.00004347,-0.00001469,-0.00003009,0
 .00000934,-0.00002548,-0.00001549,-0.00015788,-0.00012944,-0.00016571,
 -0.00011463,-0.00014273,0.00004806,-0.00018731,-0.00024613,-0.00010789
 ,-0.00012585,-0.00004179,0.00013734,-0.00003871,-0.00003473,-0.0000196
 0,0.00002249,-0.00000164,-0.00000641,0.00002538,-0.00021903,-0.0003047
 9,0.00013128,0.00011773,0.00018062,0.00007376,0.00001053,0.00002434,0.
 00002551,0.00003852,0.00001013,-0.00043908,-0.00055839,-0.00058234,0.0
 0005089,0.00026364,0.00030375,0.00001930,0.00063154,-0.00025868,0.0001
 2957,0.00008111,0.00008897,-0.00003262,0.00038294,-0.00001480,0.000373
 37,0.00026745,0.00013266,0.00000740,-0.00009248,-0.00003748,-0.0000455
 3,-0.00015813,-0.00003333,-0.00004063,-0.00006954,0.00003994,-0.000114
 70,-0.00005848,-0.00006566,0.00014581,0.00002528,0.00007212,-0.0001335
 1,-0.00031338,-0.00008271,0.00007581,-0.00036665,0.00007208,0.00024130
 ,-0.00046543,-0.00042729,0.00061878,-0.00108296,0.00048107,-0.00007160
 ,-0.00004047,-0.00001933,-0.00000741,0.00030995,-0.00016169,0.00221667
 ,0.00141064,-0.00302826,-0.00008417,0.00075825,0.00028791,0.00003335,0
 .00006966,-0.00006988,-0.00005681,0.00016297,0.00002367,-0.00026651,0.
 00040398,0.00047258,0.00002573,-0.00003051,-0.00011165,-0.00003320,-0.
 00012839,0.00000599,0.00011901,-0.00022768,-0.00028631,0.00010137,-0.0
 0008156,-0.00000417,-0.00015522,0.00009144,-0.00009439,0.00013813,0.00
 049618,0.00084597,-0.00104537,0.00078873,0.00038333,0.00022054,-0.0000
 7718,-0.00025027,0.00012335,0.00024368,0.00162748,-0.00051068,0.000406
 25,-0.00037073,0.00001201,-0.00000469,0.00005850,-0.00822861,-0.011516
 93,-0.01439995,0.00186971,-0.00055452,-0.00069348,-0.00065709,0.000721
 61,-0.00010103,-0.10919383,-0.08376931,-0.16840198,-0.01270512,-0.0068
 4042,-0.01003453,0.11173645,0.08766911,0.17962850,-0.00051713,-0.00021
 864,-0.00009434,0.00080882,0.00092406,-0.00029335,0.00016158,-0.000192
 57,0.00028428,0.00144708,-0.00028579,-0.00143163,-0.00013712,0.0001310
 8,-0.00011367,0.00042870,0.00006862,0.00002563,-0.00007005,-0.00005160
 ,0.00006984,-0.00006756,-0.00010554,-0.00010319,0.00021723,0.00000817,
 -0.00016025,0.00000386,-0.00002067,-0.00002340,0.00000748,0.00003445,0
 .00001109,-0.00016798,0.00015666,0.00037157,0.00002131,0.00132477,0.00
 174874,-0.00156085,-0.00047493,0.00037898,-0.00072050,-0.00082361,0.00
 017348,-0.00001901,0.00011070,0.00000167,-0.00001212,0.00003517,0.0000
 6281,0.00000298,-0.00001240,-0.00001302,-0.00012239,-0.00006892,0.0000
 9345,0.00001303,-0.00000988,0.00000175,0.00004740,-0.00009627,-0.00012
 122,-0.00022828,-0.00015013,0.00014017,0.00023623,0.00189731,0.0005431
 9,0.00112616,-0.00054074,-0.00183049,0.00033067,-0.00006811,0.00130277
 ,-0.00012549,0.00019876,0.00013823,0.00031497,0.00002731,-0.00007262,0
 .00003476,0.00030512,0.00006007,-0.00069705,0.00064328,-0.00023380,0.0
 0000980,0.00004987,-0.00019925,0.00003523,-0.00002160,-0.00002445,-0.0
 0000610,-0.00004283,-0.00001755,-0.00001839,-0.00006102,-0.00003425,0.
 00018016,-0.00006879,-0.00003039,-0.00000218,-0.00047271,-0.00006196,0
 .00008077,-0.00023075,-0.00028228,-0.00041394,-0.00016645,-0.00042587,
 -0.00040035,0.00009045,0.00020270,-0.00021111,-0.00008069,-0.00012512,
 0.00011078,-0.00009230,-0.00004111,0.00032166,-0.00104642,0.00009068,0
 .00036753,0.00033241,0.00001117,-0.00000154,0.00008780,-0.00002313,0.0
 0000259,0.00004791,0.00011856,-0.00254294,-0.00077016,0.00052219,0.001
 30507,0.00015295,-0.00002789,0.00026111,0.00020377,-0.00011798,0.00056
 418,0.00012739,0.00019233,-0.00023938,0.00021699,0.00030954,0.00271384
 ,0.00142527,-0.00029265,-0.00001544,-0.00015909,0.00006061,-0.00001717
 ,-0.00008870,-0.00003119,-0.00006937,-0.00005624,-0.00002270,-0.000754
 67,-0.00006101,-0.00035573,0.00014328,0.00019305,0.00030286,-0.0004200
 3,-0.00024728,-0.00029628,-0.00035617,-0.00006199,0.00002933,-0.001163
 63,-0.00015843,0.00093227,0.00654524,-0.00871861,0.00184324,-0.0003012
 9,0.00082471,0.00005895,-0.00017929,0.00255467,-0.00134164,-0.00241960
 ,0.00649417,-0.00487092,-0.00229290,0.00402426,0.00104159,0.00010648,0
 .00001143,-0.00004190,0.00004031,0.00001852,-0.00009907,0.00034944,-0.
 00021103,-0.00057836,-0.00000840,-0.00000717,0.00017297,0.00002693,0.0
 0012049,-0.00007801,-0.00002349,0.00024472,-0.00016802,-0.00000621,-0.
 00011513,0.00006115,0.00012115,-0.00010462,0.00013906,-0.00043464,-0.0
 0017855,0.00007279,-0.00032830,-0.00011315,-0.00036303,0.00012526,-0.0
 0004764,-0.00001560,-0.00047288,-0.00065121,-0.00071956,0.00080041,-0.
 00029134,-0.00003480,0.00017873,0.00083970,-0.00025844,-0.00974083,-0.
 00221535,0.00987509,0.00109835,-0.00055102,-0.00130721,0.00068059,0.00
 061812,0.00004145,-0.16270322,-0.09577212,0.09355577,0.01759890,0.0127
 8711,-0.01409329,-0.01272077,-0.01222090,0.00945969,0.16373977,-0.0002
 1942,-0.00014181,0.00047864,0.00080737,0.00056962,-0.00054079,-0.00101
 587,-0.00083773,-0.00125049,0.00042999,-0.00028364,-0.00058837,-0.0000
 2770,0.00002470,-0.00028835,0.00012344,0.00019082,-0.00012969,-0.00001
 816,-0.00006296,0.00002650,0.00005858,0.00006797,0.00012009,0.00002198
 ,0.00023268,-0.00035622,0.00010035,-0.00000122,0.00008714,0.00000099,0
 .00002523,0.00000413,0.00003232,0.00015673,0.00036616,0.00037765,0.000
 74330,0.00070648,-0.00081603,0.00284269,0.00141644,-0.00071064,-0.0006
 2947,0.00056065,-0.00003777,0.00005578,-0.00002539,-0.00001075,0.00003
 119,0.00003899,0.00002708,-0.00000518,0.00000995,-0.00004804,-0.000023
 94,0.00010834,-0.00000796,-0.00001234,-0.00000669,0.00001293,-0.000078
 03,-0.00013072,-0.00016247,-0.00009737,0.00015728,0.00192607,-0.000244
 14,-0.00065596,0.00100982,-0.00061546,-0.00121649,0.00002636,0.0002351
 4,0.00068003,-0.00009625,0.00018815,0.00006327,0.00045494,0.00009154,-
 0.00022361,0.00001266,0.00023999,-0.00002215,-0.00063186,0.00054210,-0
 .00024260,0.00002677,0.00001119,-0.00012557,-0.00000214,0.00001007,-0.
 00001840,-0.00003358,-0.00003524,0.00002141,-0.00003378,-0.00004567,-0
 .00002502,0.00013861,-0.00007416,0.00003247,-0.00006261,-0.00033705,0.
 00007421,0.00004449,-0.00022383,-0.00011951,0.00015307,-0.00035068,-0.
 00036664,0.00009716,0.00054234,-0.00015071,-0.00016658,-0.00009639,-0.
 00008704,-0.00004848,-0.00011946,0.00004764,-0.00058470,-0.00092453,0.
 00030113,0.00035086,0.00011742,-0.00001398,0.00001058,0.00003188,0.000
 00393,-0.00000988,0.00004356,0.00007262,-0.00196203,-0.00013185,-0.001
 15290,0.00195932,0.00017440,0.00049126,0.00007967,0.00035222,0.0000055
 6,0.00026847,0.00015793,0.00029683,-0.00034185,0.00035486,0.00026404,0
 .00047510,0.00032303,0.00064595,-0.00013401,-0.00002442,-0.00016639,-0
 .00003179,-0.00006252,-0.00001698,-0.00003530,-0.00005392,0.00000214,-
 0.00023770,0.00005213,-0.00030188,0.00007765,0.00017415,0.00015346,-0.
 00017586,-0.00034874,-0.00034523,-0.00025615,-0.00020204,-0.00025340,-
 0.00095107,-0.00012349,0.00048784,-0.00004189,-0.00549452,0.00243890,-
 0.00021512,0.00000830,-0.00005854,0.00012829,0.00083825,-0.00055698,0.
 00579643,-0.00856497,-0.00358571,0.00101686,0.00620054,-0.00027725,0.0
 0004998,0.00002915,-0.00000586,0.00005584,0.00007433,0.00000473,0.0004
 0551,-0.00014527,-0.00031082,-0.00006119,-0.00000863,0.00006821,-0.000
 01008,-0.00002375,-0.00003839,0.00001841,0.00010266,-0.00005310,0.0000
 0472,-0.00006052,0.00004249,0.00003585,-0.00006042,0.00005960,-0.00013
 445,-0.00036339,0.00056525,-0.00009239,0.00005049,-0.00021780,-0.00031
 830,-0.00012619,-0.00006744,0.00029479,0.00216870,-0.00165236,-0.00017
 283,-0.00033000,0.00032086,-0.00016764,-0.00099163,0.00084977,0.014230
 13,0.01982984,-0.01150398,-0.00017108,0.00022760,-0.00031494,0.0032568
 6,-0.00365941,-0.00429471,-0.09101206,-0.15053359,0.08371320,-0.015785
 68,-0.01495542,0.01267626,-0.00821766,-0.00961413,0.00751194,0.0908728
 7,0.16300645,0.00025274,0.00019286,-0.00006309,-0.00053035,-0.00068753
 ,0.00022291,0.00061965,-0.00008639,0.00003702,-0.00186349,-0.00113696,
 0.00141864,0.00019721,-0.00011059,-0.00036972,-0.00020242,-0.00016952,
 -0.00002996,0.00002531,0.00006135,-0.00002687,-0.00007331,0.00011788,-
 0.00002156,-0.00007774,-0.00003944,-0.00083523,-0.00003173,0.00002701,
 0.00001042,0.00001666,-0.00001785,-0.00003072,0.00021812,0.00022891,-0
 .00010979,0.00024099,-0.00106690,-0.00345272,0.00023444,0.00001467,-0.
 00138363,0.00025330,0.00062366,-0.00012953,0.00000238,-0.00010736,-0.0
 0002602,0.00000555,-0.00001693,-0.00003428,-0.00001216,0.00000903,-0.0
 0000479,0.00008589,0.00011068,-0.00003142,-0.00000754,-0.00001016,-0.0
 0000493,0.00001671,0.00005246,0.00002045,0.00013796,0.00011493,-0.0000
 0101,0.00009326,-0.00090897,0.00045376,-0.00088491,0.00047282,0.000848
 88,0.00017774,-0.00025950,-0.00055140,0.00011241,-0.00012793,-0.000141
 48,-0.00006847,0.00001460,0.00003007,0.00000210,-0.00021630,0.00006026
 ,0.00065104,-0.00048938,0.00020166,-0.00004904,-0.00001008,0.00010483,
 -0.00001284,-0.00000545,-0.00000728,-0.00002246,0.00003492,0.00001643,
 0.00000439,0.00003627,0.00001119,-0.00013793,0.00005762,-0.00001157,-0
 .00003835,0.00030227,-0.00010747,-0.00011697,0.00016285,0.00020118,-0.
 00034199,0.00020702,0.00044509,-0.00001328,-0.00032115,0.00008648,0.00
 012354,0.00004599,0.00011125,-0.00000906,0.00009484,-0.00001568,0.0000
 8375,0.00063604,-0.00046034,-0.00014920,-0.00009619,0.00008078,0.00002
 714,-0.00004590,0.00001356,0.00001792,-0.00003220,-0.00008636,0.002397
 92,-0.00057085,0.00139766,-0.00246840,-0.00023084,-0.00056856,-0.00014
 708,-0.00011718,-0.00013992,-0.00028895,-0.00022773,-0.00034793,0.0003
 6170,0.00011323,-0.00045640,-0.00000093,0.00028133,-0.00070774,0.00022
 228,-0.00002724,0.00023995,-0.00001624,-0.00001043,0.00001700,0.000053
 34,0.00002437,0.00004286,0.00018052,-0.00015073,0.00032048,0.00004526,
 -0.00030111,-0.00032382,0.00017394,0.00028204,0.00035896,0.00037880,0.
 00007341,0.00031567,0.00130181,-0.00002056,-0.00083561,-0.00248808,0.0
 0566645,-0.00240783,0.00014185,-0.00073812,0.00024094,-0.00002377,-0.0
 0154127,0.00074986,-0.00478613,-0.00315979,-0.00051514,0.00149404,-0.0
 0275525,-0.00140142,-0.00005837,-0.00001607,-0.00002092,-0.00009320,-0
 .00003283,0.00002094,-0.00049920,0.00038545,0.00063000,0.00005918,-0.0
 0002171,-0.00013244,-0.00001751,-0.00004930,0.00005446,0.00000212,-0.0
 0023869,0.00008001,0.00003611,0.00007100,-0.00005845,-0.00009339,0.000
 09760,-0.00011206,0.00008781,0.00044713,-0.00018211,-0.00003851,-0.000
 11823,0.00025711,0.00008606,-0.00003129,-0.00014433,-0.00089825,-0.000
 11046,0.00202917,-0.00057639,0.00042796,-0.00030680,0.00021563,-0.0003
 4989,0.00055606,0.01411461,0.00776854,-0.01437342,-0.00054553,0.000783
 38,-0.00013722,0.00057888,-0.00211991,-0.00091108,0.08863837,0.0833133
 9,-0.14432665,0.00927877,0.01092977,-0.00895570,-0.01213489,-0.0111648
 0,0.02140243,-0.09363113,-0.08421671,0.15221396\\-0.00001262,-0.000008
 60,-0.00002089,0.00000399,0.00002531,0.00003473,0.00000144,-0.00001614
 ,-0.00000639,0.00001065,-0.00000664,-0.00002796,-0.00000223,0.00000837
 ,0.00002349,0.00000757,0.00000215,0.00000665,-0.00000286,0.00000076,-0
 .00000714,0.00000543,0.00000332,0.00000097,-0.00000122,-0.00000301,0.0
 0000711,0.00000178,-0.00000649,0.00000172,-0.00000581,-0.00000936,0.00
 000192,-0.00000556,0.00000111,0.00001494,-0.00000910,0.00000487,0.0000
 4203,-0.00000527,0.00002062,0.00000462,-0.00000722,-0.00000743,-0.0000
 0172,-0.00000774,-0.00001414,0.00000582,-0.00001045,-0.00000206,0.0000
 0218,-0.00000510,-0.00000265,0.00000493,0.00001445,0.00001141,-0.00001
 286,-0.00001468,-0.00000505,0.00001924,-0.00000353,-0.00000446,-0.0000
 0085,0.00000665,0.00000309,-0.00000147,0.00000933,-0.00000222,-0.00000
 018,0.00000732,0.00000493,-0.00001408,0.00001127,-0.00002006,-0.000012
 23,-0.00000195,-0.00000518,0.00000534,0.00000576,-0.00000144,-0.000007
 15,0.00000343,0.00000423,-0.00000560,-0.00000248,-0.00000394,-0.000007
 59,-0.00000824,-0.00000006,-0.00000109,0.00000255,-0.00000029,-0.00000
 080,-0.00000357,0.00000247,0.00000037,-0.00000767,-0.00000231,-0.00000
 745,-0.00000449,-0.00000053,-0.00000583,-0.00001101,-0.00001416,-0.000
 01033,-0.00000715,-0.00000303,-0.00001141,-0.00002124,0.00000301,-0.00
 000112,0.00002595,0.00000538,-0.00000729,-0.00000220,-0.00000095,-0.00
 001068,-0.00000396,0.00000281,-0.00000386,-0.00001433,0.,-0.00000963,0
 .00001197,0.00000313,-0.00000462,0.00000897,0.00001584,-0.00000291,-0.
 00000369,-0.00000176,-0.00000097,-0.00001166,-0.00000644,0.00001472,0.
 00001601,0.00001143,-0.00001897,0.00000154,-0.00000256,0.00001238,-0.0
 0000529,0.00001676,0.00000858,0.00001219,-0.00000120,-0.00000249,0.000
 00522,0.00001631,-0.00001576,-0.00000321,-0.00000808,0.00000612,-0.000
 00440,0.00000643,-0.00000129,-0.00000954,-0.00000778,-0.00000065,-0.00
 000584,-0.00000940,-0.00000179,-0.00000305,0.00000634,-0.00000446,-0.0
 0000693,-0.00001307,-0.00001050,-0.00000899,-0.00000851,-0.00000076,-0
 .00000916,-0.00001223,0.00001755,0.00000414,0.00000776,-0.00001295,0.0
 0000437,-0.00000491,-0.00000359,-0.00000025,-0.00000253,-0.00000278,-0
 .00000430,0.00001262,0.00001057,0.00000218,-0.00000062,-0.00000179,-0.
 00000773,-0.00000083,0.00000448,-0.00000304,0.00000186,0.00000487,-0.0
 0000460,0.00000683,0.00000057,0.00000102,-0.00000213,0.00000551,-0.000
 00032,-0.00000149,0.00000350,0.00000377,-0.00000110,0.00000425,0.00000
 592,0.00000066,0.00000462,0.00000421,0.00000058,0.00000935,0.00000400,
 0.00000201,0.00000424,0.00000345,0.00000258,0.00000659,0.00000513,0.00
 000564,0.00000557,0.00000415,-0.00000045,0.00000085,0.00000670,0.00000
 196,0.00000137,0.00000223,0.00000034,0.00000296,0.00000314,0.00000775,
 0.00000454,0.00000494,0.00000124,-0.00000052,0.00000973,0.00000254,-0.
 00000032,0.00000221,0.00000338,-0.00003273,0.00000046,-0.00001427,0.00
 000114,-0.00001512,0.00000075,-0.00002432,0.00004363,0.00000093,0.0000
 2933\\\@


 CONFIDENCE IS WHAT YOU FEEL BEFORE YOU FULLY
 COMPREHEND THE SITUATION.
 Job cpu time:      22 days 17 hours 11 minutes  6.6 seconds.
 File lengths (MBytes):  RWF=  17272 Int=      0 D2E=      0 Chk=     99 Scr=      1
 Normal termination of Gaussian 09 at Fri Apr 29 07:33:36 2016.
