 Entering Gaussian System, Link 0=g09
 Initial command:
 /share/apps//g09/l1.exe "/scratch/Gau-45973.inp" -scrdir="/scratch/"
 Entering Link 1 = /share/apps//g09/l1.exe PID=     45975.
  
 Copyright (c) 1988,1990,1992,1993,1995,1998,2003,2009,2013,
            Gaussian, Inc.  All Rights Reserved.
  
 This is part of the Gaussian(R) 09 program.  It is based on
 the Gaussian(R) 03 system (copyright 2003, Gaussian, Inc.),
 the Gaussian(R) 98 system (copyright 1998, Gaussian, Inc.),
 the Gaussian(R) 94 system (copyright 1995, Gaussian, Inc.),
 the Gaussian 92(TM) system (copyright 1992, Gaussian, Inc.),
 the Gaussian 90(TM) system (copyright 1990, Gaussian, Inc.),
 the Gaussian 88(TM) system (copyright 1988, Gaussian, Inc.),
 the Gaussian 86(TM) system (copyright 1986, Carnegie Mellon
 University), and the Gaussian 82(TM) system (copyright 1983,
 Carnegie Mellon University). Gaussian is a federally registered
 trademark of Gaussian, Inc.
  
 This software contains proprietary and confidential information,
 including trade secrets, belonging to Gaussian, Inc.
  
 This software is provided under written license and may be
 used, copied, transmitted, or stored only in accord with that
 written license.
  
 The following legend is applicable only to US Government
 contracts under FAR:
  
                    RESTRICTED RIGHTS LEGEND
  
 Use, reproduction and disclosure by the US Government is
 subject to restrictions as set forth in subparagraphs (a)
 and (c) of the Commercial Computer Software - Restricted
 Rights clause in FAR 52.227-19.
  
 Gaussian, Inc.
 340 Quinnipiac St., Bldg. 40, Wallingford CT 06492
  
  
 ---------------------------------------------------------------
 Warning -- This program may not be used in any manner that
 competes with the business of Gaussian, Inc. or will provide
 assistance to any competitor of Gaussian, Inc.  The licensee
 of this program is prohibited from giving any competitor of
 Gaussian, Inc. access to this program.  By using this program,
 the user acknowledges that Gaussian, Inc. is engaged in the
 business of creating and licensing software in the field of
 computational chemistry and represents and warrants to the
 licensee that it is not a competitor of Gaussian, Inc. and that
 it will not use this program in any manner prohibited above.
 ---------------------------------------------------------------
  

 Cite this work as:
 Gaussian 09, Revision D.01,
 M. J. Frisch, G. W. Trucks, H. B. Schlegel, G. E. Scuseria, 
 M. A. Robb, J. R. Cheeseman, G. Scalmani, V. Barone, B. Mennucci, 
 G. A. Petersson, H. Nakatsuji, M. Caricato, X. Li, H. P. Hratchian, 
 A. F. Izmaylov, J. Bloino, G. Zheng, J. L. Sonnenberg, M. Hada, 
 M. Ehara, K. Toyota, R. Fukuda, J. Hasegawa, M. Ishida, T. Nakajima, 
 Y. Honda, O. Kitao, H. Nakai, T. Vreven, J. A. Montgomery, Jr., 
 J. E. Peralta, F. Ogliaro, M. Bearpark, J. J. Heyd, E. Brothers, 
 K. N. Kudin, V. N. Staroverov, T. Keith, R. Kobayashi, J. Normand, 
 K. Raghavachari, A. Rendell, J. C. Burant, S. S. Iyengar, J. Tomasi, 
 M. Cossi, N. Rega, J. M. Millam, M. Klene, J. E. Knox, J. B. Cross, 
 V. Bakken, C. Adamo, J. Jaramillo, R. Gomperts, R. E. Stratmann, 
 O. Yazyev, A. J. Austin, R. Cammi, C. Pomelli, J. W. Ochterski, 
 R. L. Martin, K. Morokuma, V. G. Zakrzewski, G. A. Voth, 
 P. Salvador, J. J. Dannenberg, S. Dapprich, A. D. Daniels, 
 O. Farkas, J. B. Foresman, J. V. Ortiz, J. Cioslowski, 
 and D. J. Fox, Gaussian, Inc., Wallingford CT, 2013.
 
 ******************************************
 Gaussian 09:  EM64L-G09RevD.01 24-Apr-2013
                 6-Apr-2016 
 ******************************************
 %nproc=20
 Will use up to   20 processors via shared memory.
 %mem=80GB
 %chk=Tri_A131_of.chk
 ----------------------------------------------------------------------
 #P PBE1PBE/6-311+G(d,p) opt=ModRedundant freq optcyc=999 EmpiricalDisp
 ersion=GD3
 ----------------------------------------------------------------------
 1/6=999,14=-1,18=120,19=15,26=3,38=1/1,3;
 2/9=110,12=2,17=6,18=5,40=1/2;
 3/5=4,6=6,7=111,11=2,16=1,25=1,30=1,71=1,74=-13,124=31/1,2,3;
 4//1;
 5/5=2,38=5/2;
 6/7=2,8=2,9=2,10=2,28=1/1;
 7//1,2,3,16;
 1/6=999,14=-1,18=20,19=15,26=3/3(2);
 2/9=110/2;
 99//99;
 2/9=110/2;
 3/5=4,6=6,7=111,11=2,16=1,25=1,30=1,71=1,74=-13,124=31/1,2,3;
 4/5=5,16=3,69=1/1;
 5/5=2,38=5/2;
 7//1,2,3,16;
 1/6=999,14=-1,18=20,19=15,26=3/3(-5);
 2/9=110/2;
 6/7=2,8=2,9=2,10=2,19=2,28=1/1;
 99/9=1/99;
 Leave Link    1 at Wed Apr  6 15:55:04 2016, MaxMem= 10737418240 cpu:         2.0
 (Enter /share/apps//g09/l101.exe)
 -------
 disacch
 -------
 Symbolic Z-matrix:
 Charge =  1 Multiplicity = 1
 O                    -3.03061  -2.66133   10.20198 
 C                    -1.69588  -2.93691   9.87163 
 C                    -1.19559  -4.16627   10.63581 
 C                    -2.06695  -5.38328   10.32095 
 C                    -3.52493  -5.07697   10.67355 
 C                    -3.96473  -3.75301   10.01674 
 H                    -1.13477  -2.03447   10.16329 
 H                    -1.26532  -3.93251   11.71194 
 H                    -1.98809  -5.6076    9.24533 
 H                    -4.16918  -5.87548   10.26985 
 H                    -4.08436  -3.95317   8.9355 
 O                    -3.5952   -5.06186   12.10508 
 O                    -1.56635  -6.52535   11.01261 
 O                     0.17762  -4.42675   10.29289 
 O                    -1.53342  -3.18156   8.46406 
 C                    -5.27845  -3.22259   10.59728 
 H                    -5.05259  -2.74208   11.56459 
 H                    -5.70073  -2.46288   9.92004 
 O                    -6.16112  -4.34112   10.75622 
 H                    -7.04837  -4.0052    10.96393 
 H                    -4.53332  -5.18109   12.342 
 H                    -1.9795   -6.49545   11.90126 
 H                     0.3614   -5.31964   10.65025 
 O                     0.9663   -1.55679   5.56303 
 C                    -0.46405  -1.4125    5.38163 
 C                    -1.14811  -2.46991   6.25574 
 C                    -0.82416  -2.18803   7.71817 
 C                     0.70177  -2.28587   7.93419 
 C                     1.44836  -1.40122   6.91589 
 H                    -0.78738  -0.39762   5.67815 
 H                    -0.74305  -3.46498   5.99912 
 H                    -1.18395  -1.17799   7.99662 
 H                     0.95698  -1.89081   8.93546 
 H                     1.30176  -0.34758   7.22741 
 O                     1.12551  -3.6481    7.8372 
 O                    -2.55684  -2.42732   6.01081 
 O                    -0.74851  -1.48285   4.01621 
 C                     2.95721  -1.67032   6.89226 
 H                     3.43917  -1.00411   6.16228 
 H                     3.36762  -1.42555   7.88763 
 O                     3.2952   -3.01633   6.53175 
 H                     2.68453  -3.57566   7.07832 
 H                     0.77812  -4.09919   8.65363 
 H                    -2.97202  -2.82328   6.80232 
 O                     1.16402  -3.38531   1.49855 
 C                     0.57298  -4.64007   1.70528 
 C                    -0.95975  -4.59259   1.82003 
 C                    -1.45228  -3.57723   2.89519 
 C                    -0.28984  -2.66686   3.31794 
 C                     0.44246  -2.24132   2.03008 
 H                     0.86212  -5.27565   0.85082 
 H                    -1.31065  -5.58642   2.14722 
 H                    -2.20587  -2.9286    2.40839 
 H                    -0.30679  -1.92804   1.27782 
 H                     0.39415  -3.2296    3.96596 
 O                    -2.03069  -4.31962   3.95862 
 O                    -1.41853  -4.28671   0.50357 
 O                     1.16768  -5.1834    2.91116 
 C                     1.42712  -1.08544   2.15917 
 H                     1.98499  -1.00226   1.21669 
 H                     0.85705  -0.15554   2.30406 
 O                     2.40475  -1.23084   3.20219 
 H                     1.92567  -1.14543   4.06015 
 H                    -2.47722  -3.68496   4.56364 
 H                    -2.37338  -4.46743   0.46128 
 C                     1.1745   -6.6204    3.05435 
 H                     0.245    -6.93648   3.55587 
 H                     1.20505  -7.08544   2.05261 
 C                     2.39462  -7.02322   3.87227 
 H                     2.25691  -8.08045   4.14432 
 H                     2.37389  -6.47656   4.83031 
 C                     3.76115  -6.84726   3.15557 
 H                     4.26788  -7.82223   3.14957 
 H                     3.59405  -6.60171   2.09287 
 C                     4.75374  -5.82811   3.75471 
 H                     4.74753  -5.8898    4.8565 
 H                     5.77134  -6.11943   3.45248 
 C                     4.59624  -4.37251   3.31567 
 H                     4.57011  -4.29961   2.21864 
 H                     5.44161  -3.76853   3.67181 
 N                     3.34628  -3.73308   3.82388 
 H                     3.16761  -2.77611   3.41765 
 H                     3.34822  -3.59297   4.86547 
 H                     2.51226  -4.29923   3.53907 
 
 The following ModRedundant input section has been read:
 B      58      84 B                                                           
 B      41      81 B                                                           
 B      62      82 B                                                           
 B      36      64 B                                                           
 B      14      43 B                                                           
 
 NAtoms=     84 NQM=       84 NQMF=       0 NMMI=      0 NMMIF=      0
                NMic=       0 NMicF=      0.
                    Isotopes and Nuclear Properties:
 (Nuclear quadrupole moments (NQMom) in fm**2, nuclear magnetic moments (NMagM)
  in nuclear magnetons)

  Atom         1           2           3           4           5           6           7           8           9          10
 IAtWgt=          16          12          12          12          12          12           1           1           1           1
 AtmWgt=  15.9949146  12.0000000  12.0000000  12.0000000  12.0000000  12.0000000   1.0078250   1.0078250   1.0078250   1.0078250
 NucSpn=           0           0           0           0           0           0           1           1           1           1
 AtZEff=   0.0000000   0.0000000   0.0000000   0.0000000   0.0000000   0.0000000   0.0000000   0.0000000   0.0000000   0.0000000
 NQMom=    0.0000000   0.0000000   0.0000000   0.0000000   0.0000000   0.0000000   0.0000000   0.0000000   0.0000000   0.0000000
 NMagM=    0.0000000   0.0000000   0.0000000   0.0000000   0.0000000   0.0000000   2.7928460   2.7928460   2.7928460   2.7928460
 AtZNuc=   8.0000000   6.0000000   6.0000000   6.0000000   6.0000000   6.0000000   1.0000000   1.0000000   1.0000000   1.0000000

  Atom        11          12          13          14          15          16          17          18          19          20
 IAtWgt=           1          16          16          16          16          12           1           1          16           1
 AtmWgt=   1.0078250  15.9949146  15.9949146  15.9949146  15.9949146  12.0000000   1.0078250   1.0078250  15.9949146   1.0078250
 NucSpn=           1           0           0           0           0           0           1           1           0           1
 AtZEff=   0.0000000   0.0000000   0.0000000   0.0000000   0.0000000   0.0000000   0.0000000   0.0000000   0.0000000   0.0000000
 NQMom=    0.0000000   0.0000000   0.0000000   0.0000000   0.0000000   0.0000000   0.0000000   0.0000000   0.0000000   0.0000000
 NMagM=    2.7928460   0.0000000   0.0000000   0.0000000   0.0000000   0.0000000   2.7928460   2.7928460   0.0000000   2.7928460
 AtZNuc=   1.0000000   8.0000000   8.0000000   8.0000000   8.0000000   6.0000000   1.0000000   1.0000000   8.0000000   1.0000000

  Atom        21          22          23          24          25          26          27          28          29          30
 IAtWgt=           1           1           1          16          12          12          12          12          12           1
 AtmWgt=   1.0078250   1.0078250   1.0078250  15.9949146  12.0000000  12.0000000  12.0000000  12.0000000  12.0000000   1.0078250
 NucSpn=           1           1           1           0           0           0           0           0           0           1
 AtZEff=   0.0000000   0.0000000   0.0000000   0.0000000   0.0000000   0.0000000   0.0000000   0.0000000   0.0000000   0.0000000
 NQMom=    0.0000000   0.0000000   0.0000000   0.0000000   0.0000000   0.0000000   0.0000000   0.0000000   0.0000000   0.0000000
 NMagM=    2.7928460   2.7928460   2.7928460   0.0000000   0.0000000   0.0000000   0.0000000   0.0000000   0.0000000   2.7928460
 AtZNuc=   1.0000000   1.0000000   1.0000000   8.0000000   6.0000000   6.0000000   6.0000000   6.0000000   6.0000000   1.0000000

  Atom        31          32          33          34          35          36          37          38          39          40
 IAtWgt=           1           1           1           1          16          16          16          12           1           1
 AtmWgt=   1.0078250   1.0078250   1.0078250   1.0078250  15.9949146  15.9949146  15.9949146  12.0000000   1.0078250   1.0078250
 NucSpn=           1           1           1           1           0           0           0           0           1           1
 AtZEff=   0.0000000   0.0000000   0.0000000   0.0000000   0.0000000   0.0000000   0.0000000   0.0000000   0.0000000   0.0000000
 NQMom=    0.0000000   0.0000000   0.0000000   0.0000000   0.0000000   0.0000000   0.0000000   0.0000000   0.0000000   0.0000000
 NMagM=    2.7928460   2.7928460   2.7928460   2.7928460   0.0000000   0.0000000   0.0000000   0.0000000   2.7928460   2.7928460
 AtZNuc=   1.0000000   1.0000000   1.0000000   1.0000000   8.0000000   8.0000000   8.0000000   6.0000000   1.0000000   1.0000000

  Atom        41          42          43          44          45          46          47          48          49          50
 IAtWgt=          16           1           1           1          16          12          12          12          12          12
 AtmWgt=  15.9949146   1.0078250   1.0078250   1.0078250  15.9949146  12.0000000  12.0000000  12.0000000  12.0000000  12.0000000
 NucSpn=           0           1           1           1           0           0           0           0           0           0
 AtZEff=   0.0000000   0.0000000   0.0000000   0.0000000   0.0000000   0.0000000   0.0000000   0.0000000   0.0000000   0.0000000
 NQMom=    0.0000000   0.0000000   0.0000000   0.0000000   0.0000000   0.0000000   0.0000000   0.0000000   0.0000000   0.0000000
 NMagM=    0.0000000   2.7928460   2.7928460   2.7928460   0.0000000   0.0000000   0.0000000   0.0000000   0.0000000   0.0000000
 AtZNuc=   8.0000000   1.0000000   1.0000000   1.0000000   8.0000000   6.0000000   6.0000000   6.0000000   6.0000000   6.0000000

  Atom        51          52          53          54          55          56          57          58          59          60
 IAtWgt=           1           1           1           1           1          16          16          16          12           1
 AtmWgt=   1.0078250   1.0078250   1.0078250   1.0078250   1.0078250  15.9949146  15.9949146  15.9949146  12.0000000   1.0078250
 NucSpn=           1           1           1           1           1           0           0           0           0           1
 AtZEff=   0.0000000   0.0000000   0.0000000   0.0000000   0.0000000   0.0000000   0.0000000   0.0000000   0.0000000   0.0000000
 NQMom=    0.0000000   0.0000000   0.0000000   0.0000000   0.0000000   0.0000000   0.0000000   0.0000000   0.0000000   0.0000000
 NMagM=    2.7928460   2.7928460   2.7928460   2.7928460   2.7928460   0.0000000   0.0000000   0.0000000   0.0000000   2.7928460
 AtZNuc=   1.0000000   1.0000000   1.0000000   1.0000000   1.0000000   8.0000000   8.0000000   8.0000000   6.0000000   1.0000000

  Atom        61          62          63          64          65          66          67          68          69          70
 IAtWgt=           1          16           1           1           1          12           1           1          12           1
 AtmWgt=   1.0078250  15.9949146   1.0078250   1.0078250   1.0078250  12.0000000   1.0078250   1.0078250  12.0000000   1.0078250
 NucSpn=           1           0           1           1           1           0           1           1           0           1
 AtZEff=   0.0000000   0.0000000   0.0000000   0.0000000   0.0000000   0.0000000   0.0000000   0.0000000   0.0000000   0.0000000
 NQMom=    0.0000000   0.0000000   0.0000000   0.0000000   0.0000000   0.0000000   0.0000000   0.0000000   0.0000000   0.0000000
 NMagM=    2.7928460   0.0000000   2.7928460   2.7928460   2.7928460   0.0000000   2.7928460   2.7928460   0.0000000   2.7928460
 AtZNuc=   1.0000000   8.0000000   1.0000000   1.0000000   1.0000000   6.0000000   1.0000000   1.0000000   6.0000000   1.0000000

  Atom        71          72          73          74          75          76          77          78          79          80
 IAtWgt=           1          12           1           1          12           1           1          12           1           1
 AtmWgt=   1.0078250  12.0000000   1.0078250   1.0078250  12.0000000   1.0078250   1.0078250  12.0000000   1.0078250   1.0078250
 NucSpn=           1           0           1           1           0           1           1           0           1           1
 AtZEff=   0.0000000   0.0000000   0.0000000   0.0000000   0.0000000   0.0000000   0.0000000   0.0000000   0.0000000   0.0000000
 NQMom=    0.0000000   0.0000000   0.0000000   0.0000000   0.0000000   0.0000000   0.0000000   0.0000000   0.0000000   0.0000000
 NMagM=    2.7928460   0.0000000   2.7928460   2.7928460   0.0000000   2.7928460   2.7928460   0.0000000   2.7928460   2.7928460
 AtZNuc=   1.0000000   6.0000000   1.0000000   1.0000000   6.0000000   1.0000000   1.0000000   6.0000000   1.0000000   1.0000000

  Atom        81          82          83          84
 IAtWgt=          14           1           1           1
 AtmWgt=  14.0030740   1.0078250   1.0078250   1.0078250
 NucSpn=           2           1           1           1
 AtZEff=   0.0000000   0.0000000   0.0000000   0.0000000
 NQMom=    2.0440000   0.0000000   0.0000000   0.0000000
 NMagM=    0.4037610   2.7928460   2.7928460   2.7928460
 AtZNuc=   7.0000000   1.0000000   1.0000000   1.0000000
 Leave Link  101 at Wed Apr  6 15:55:05 2016, MaxMem= 10737418240 cpu:         5.1
 (Enter /share/apps//g09/l103.exe)

 GradGradGradGradGradGradGradGradGradGradGradGradGradGradGradGradGradGrad
 Berny optimization.
 Initialization pass.
                           ----------------------------
                           !    Initial Parameters    !
                           ! (Angstroms and Degrees)  !
 --------------------------                            --------------------------
 ! Name  Definition              Value          Derivative Info.                !
 --------------------------------------------------------------------------------
 ! R1    R(1,2)                  1.4023         estimate D2E/DX2                !
 ! R2    R(1,6)                  1.4487         estimate D2E/DX2                !
 ! R3    R(2,3)                  1.5315         estimate D2E/DX2                !
 ! R4    R(2,7)                  1.102          estimate D2E/DX2                !
 ! R5    R(2,15)                 1.4379         estimate D2E/DX2                !
 ! R6    R(3,4)                  1.5295         estimate D2E/DX2                !
 ! R7    R(3,8)                  1.1034         estimate D2E/DX2                !
 ! R8    R(3,14)                 1.4391         estimate D2E/DX2                !
 ! R9    R(4,5)                  1.531          estimate D2E/DX2                !
 ! R10   R(4,9)                  1.1016         estimate D2E/DX2                !
 ! R11   R(4,13)                 1.4259         estimate D2E/DX2                !
 ! R12   R(5,6)                  1.542          estimate D2E/DX2                !
 ! R13   R(5,10)                 1.1026         estimate D2E/DX2                !
 ! R14   R(5,12)                 1.4333         estimate D2E/DX2                !
 ! R15   R(6,11)                 1.1061         estimate D2E/DX2                !
 ! R16   R(6,16)                 1.5311         estimate D2E/DX2                !
 ! R17   R(12,21)                0.9749         estimate D2E/DX2                !
 ! R18   R(13,22)                0.9805         estimate D2E/DX2                !
 ! R19   R(14,23)                0.9791         estimate D2E/DX2                !
 ! R20   R(14,43)                1.7763         estimate D2E/DX2                !
 ! R21   R(15,27)                1.4306         estimate D2E/DX2                !
 ! R22   R(16,17)                1.1034         estimate D2E/DX2                !
 ! R23   R(16,18)                1.1019         estimate D2E/DX2                !
 ! R24   R(16,19)                1.4337         estimate D2E/DX2                !
 ! R25   R(19,20)                0.9712         estimate D2E/DX2                !
 ! R26   R(24,25)                1.449          estimate D2E/DX2                !
 ! R27   R(24,29)                1.4446         estimate D2E/DX2                !
 ! R28   R(25,26)                1.533          estimate D2E/DX2                !
 ! R29   R(25,30)                1.1056         estimate D2E/DX2                !
 ! R30   R(25,37)                1.3965         estimate D2E/DX2                !
 ! R31   R(26,27)                1.5242         estimate D2E/DX2                !
 ! R32   R(26,31)                1.1046         estimate D2E/DX2                !
 ! R33   R(26,36)                1.4305         estimate D2E/DX2                !
 ! R34   R(27,28)                1.5442         estimate D2E/DX2                !
 ! R35   R(27,32)                1.1078         estimate D2E/DX2                !
 ! R36   R(28,29)                1.5417         estimate D2E/DX2                !
 ! R37   R(28,33)                1.1062         estimate D2E/DX2                !
 ! R38   R(28,35)                1.4299         estimate D2E/DX2                !
 ! R39   R(29,34)                1.1085         estimate D2E/DX2                !
 ! R40   R(29,38)                1.5328         estimate D2E/DX2                !
 ! R41   R(35,43)                0.9953         estimate D2E/DX2                !
 ! R42   R(36,44)                0.9776         estimate D2E/DX2                !
 ! R43   R(36,64)                1.9189         estimate D2E/DX2                !
 ! R44   R(37,49)                1.4491         estimate D2E/DX2                !
 ! R45   R(38,39)                1.0995         estimate D2E/DX2                !
 ! R46   R(38,40)                1.1041         estimate D2E/DX2                !
 ! R47   R(38,41)                1.4339         estimate D2E/DX2                !
 ! R48   R(41,42)                0.9922         estimate D2E/DX2                !
 ! R49   R(41,81)                2.8016         estimate D2E/DX2                !
 ! R50   R(45,46)                1.4023         estimate D2E/DX2                !
 ! R51   R(45,50)                1.4532         estimate D2E/DX2                !
 ! R52   R(46,47)                1.5378         estimate D2E/DX2                !
 ! R53   R(46,51)                1.1035         estimate D2E/DX2                !
 ! R54   R(46,58)                1.4502         estimate D2E/DX2                !
 ! R55   R(47,48)                1.5587         estimate D2E/DX2                !
 ! R56   R(47,52)                1.1036         estimate D2E/DX2                !
 ! R57   R(47,57)                1.4273         estimate D2E/DX2                !
 ! R58   R(48,49)                1.5358         estimate D2E/DX2                !
 ! R59   R(48,53)                1.1071         estimate D2E/DX2                !
 ! R60   R(48,56)                1.4201         estimate D2E/DX2                !
 ! R61   R(49,50)                1.5414         estimate D2E/DX2                !
 ! R62   R(49,55)                1.0975         estimate D2E/DX2                !
 ! R63   R(50,54)                1.107          estimate D2E/DX2                !
 ! R64   R(50,59)                1.5239         estimate D2E/DX2                !
 ! R65   R(56,64)                0.984          estimate D2E/DX2                !
 ! R66   R(57,65)                0.9727         estimate D2E/DX2                !
 ! R67   R(58,66)                1.4441         estimate D2E/DX2                !
 ! R68   R(58,84)                1.7274         estimate D2E/DX2                !
 ! R69   R(59,60)                1.0984         estimate D2E/DX2                !
 ! R70   R(59,61)                1.1003         estimate D2E/DX2                !
 ! R71   R(59,62)                1.4369         estimate D2E/DX2                !
 ! R72   R(62,63)                0.9864         estimate D2E/DX2                !
 ! R73   R(62,82)                1.7367         estimate D2E/DX2                !
 ! R74   R(66,67)                1.1025         estimate D2E/DX2                !
 ! R75   R(66,68)                1.1048         estimate D2E/DX2                !
 ! R76   R(66,69)                1.5231         estimate D2E/DX2                !
 ! R77   R(69,70)                1.1003         estimate D2E/DX2                !
 ! R78   R(69,71)                1.1032         estimate D2E/DX2                !
 ! R79   R(69,72)                1.5531         estimate D2E/DX2                !
 ! R80   R(72,73)                1.0988         estimate D2E/DX2                !
 ! R81   R(72,74)                1.1034         estimate D2E/DX2                !
 ! R82   R(72,75)                1.5437         estimate D2E/DX2                !
 ! R83   R(75,76)                1.1035         estimate D2E/DX2                !
 ! R84   R(75,77)                1.1008         estimate D2E/DX2                !
 ! R85   R(75,78)                1.5285         estimate D2E/DX2                !
 ! R86   R(78,79)                1.0998         estimate D2E/DX2                !
 ! R87   R(78,80)                1.0983         estimate D2E/DX2                !
 ! R88   R(78,81)                1.4932         estimate D2E/DX2                !
 ! R89   R(81,82)                1.0549         estimate D2E/DX2                !
 ! R90   R(81,83)                1.051          estimate D2E/DX2                !
 ! R91   R(81,84)                1.0475         estimate D2E/DX2                !
 ! A1    A(2,1,6)              115.8178         estimate D2E/DX2                !
 ! A2    A(1,2,3)              110.5552         estimate D2E/DX2                !
 ! A3    A(1,2,7)              105.1508         estimate D2E/DX2                !
 ! A4    A(1,2,15)             111.8129         estimate D2E/DX2                !
 ! A5    A(3,2,7)              111.0369         estimate D2E/DX2                !
 ! A6    A(3,2,15)             108.3585         estimate D2E/DX2                !
 ! A7    A(7,2,15)             109.932          estimate D2E/DX2                !
 ! A8    A(2,3,4)              110.4797         estimate D2E/DX2                !
 ! A9    A(2,3,8)              107.2131         estimate D2E/DX2                !
 ! A10   A(2,3,14)             109.7603         estimate D2E/DX2                !
 ! A11   A(4,3,8)              109.4703         estimate D2E/DX2                !
 ! A12   A(4,3,14)             110.5191         estimate D2E/DX2                !
 ! A13   A(8,3,14)             109.3311         estimate D2E/DX2                !
 ! A14   A(3,4,5)              109.6286         estimate D2E/DX2                !
 ! A15   A(3,4,9)              108.7985         estimate D2E/DX2                !
 ! A16   A(3,4,13)             109.7198         estimate D2E/DX2                !
 ! A17   A(5,4,9)              109.4996         estimate D2E/DX2                !
 ! A18   A(5,4,13)             112.511          estimate D2E/DX2                !
 ! A19   A(9,4,13)             106.5824         estimate D2E/DX2                !
 ! A20   A(4,5,6)              110.2005         estimate D2E/DX2                !
 ! A21   A(4,5,10)             109.101          estimate D2E/DX2                !
 ! A22   A(4,5,12)             106.1898         estimate D2E/DX2                !
 ! A23   A(6,5,10)             107.4103         estimate D2E/DX2                !
 ! A24   A(6,5,12)             113.7272         estimate D2E/DX2                !
 ! A25   A(10,5,12)            110.1619         estimate D2E/DX2                !
 ! A26   A(1,6,5)              114.1199         estimate D2E/DX2                !
 ! A27   A(1,6,11)             109.3356         estimate D2E/DX2                !
 ! A28   A(1,6,16)             104.1062         estimate D2E/DX2                !
 ! A29   A(5,6,11)             106.9689         estimate D2E/DX2                !
 ! A30   A(5,6,16)             112.3752         estimate D2E/DX2                !
 ! A31   A(11,6,16)            109.9096         estimate D2E/DX2                !
 ! A32   A(5,12,21)            106.7743         estimate D2E/DX2                !
 ! A33   A(4,13,22)            105.5023         estimate D2E/DX2                !
 ! A34   A(3,14,23)            104.9028         estimate D2E/DX2                !
 ! A35   A(3,14,43)            120.6044         estimate D2E/DX2                !
 ! A36   A(23,14,43)           116.2017         estimate D2E/DX2                !
 ! A37   A(2,15,27)            116.6319         estimate D2E/DX2                !
 ! A38   A(6,16,17)            107.9159         estimate D2E/DX2                !
 ! A39   A(6,16,18)            109.5505         estimate D2E/DX2                !
 ! A40   A(6,16,19)            107.4584         estimate D2E/DX2                !
 ! A41   A(17,16,18)           108.4816         estimate D2E/DX2                !
 ! A42   A(17,16,19)           111.6275         estimate D2E/DX2                !
 ! A43   A(18,16,19)           111.7217         estimate D2E/DX2                !
 ! A44   A(16,19,20)           108.44           estimate D2E/DX2                !
 ! A45   A(25,24,29)           115.844          estimate D2E/DX2                !
 ! A46   A(24,25,26)           107.482          estimate D2E/DX2                !
 ! A47   A(24,25,30)           110.2734         estimate D2E/DX2                !
 ! A48   A(24,25,37)           108.5696         estimate D2E/DX2                !
 ! A49   A(26,25,30)           110.4707         estimate D2E/DX2                !
 ! A50   A(26,25,37)           115.5856         estimate D2E/DX2                !
 ! A51   A(30,25,37)           104.4118         estimate D2E/DX2                !
 ! A52   A(25,26,27)           108.9468         estimate D2E/DX2                !
 ! A53   A(25,26,31)           108.9822         estimate D2E/DX2                !
 ! A54   A(25,26,36)           108.7395         estimate D2E/DX2                !
 ! A55   A(27,26,31)           108.1543         estimate D2E/DX2                !
 ! A56   A(27,26,36)           111.5976         estimate D2E/DX2                !
 ! A57   A(31,26,36)           110.3756         estimate D2E/DX2                !
 ! A58   A(15,27,26)           105.4536         estimate D2E/DX2                !
 ! A59   A(15,27,28)           111.899          estimate D2E/DX2                !
 ! A60   A(15,27,32)           109.9467         estimate D2E/DX2                !
 ! A61   A(26,27,28)           109.422          estimate D2E/DX2                !
 ! A62   A(26,27,32)           109.9238         estimate D2E/DX2                !
 ! A63   A(28,27,32)           110.0927         estimate D2E/DX2                !
 ! A64   A(27,28,29)           110.4727         estimate D2E/DX2                !
 ! A65   A(27,28,33)           109.3874         estimate D2E/DX2                !
 ! A66   A(27,28,35)           110.1022         estimate D2E/DX2                !
 ! A67   A(29,28,33)           106.331          estimate D2E/DX2                !
 ! A68   A(29,28,35)           110.9983         estimate D2E/DX2                !
 ! A69   A(33,28,35)           109.466          estimate D2E/DX2                !
 ! A70   A(24,29,28)           113.2762         estimate D2E/DX2                !
 ! A71   A(24,29,34)           108.7491         estimate D2E/DX2                !
 ! A72   A(24,29,38)           107.1657         estimate D2E/DX2                !
 ! A73   A(28,29,34)           107.2028         estimate D2E/DX2                !
 ! A74   A(28,29,38)           112.7134         estimate D2E/DX2                !
 ! A75   A(34,29,38)           107.5412         estimate D2E/DX2                !
 ! A76   A(28,35,43)           105.8241         estimate D2E/DX2                !
 ! A77   A(26,36,44)           105.5186         estimate D2E/DX2                !
 ! A78   A(26,36,64)            93.9424         estimate D2E/DX2                !
 ! A79   A(44,36,64)           111.2708         estimate D2E/DX2                !
 ! A80   A(25,37,49)           116.6045         estimate D2E/DX2                !
 ! A81   A(29,38,39)           109.5928         estimate D2E/DX2                !
 ! A82   A(29,38,40)           108.2444         estimate D2E/DX2                !
 ! A83   A(29,38,41)           113.6224         estimate D2E/DX2                !
 ! A84   A(39,38,40)           107.5327         estimate D2E/DX2                !
 ! A85   A(39,38,41)           107.3695         estimate D2E/DX2                !
 ! A86   A(40,38,41)           110.3128         estimate D2E/DX2                !
 ! A87   A(38,41,42)           104.2174         estimate D2E/DX2                !
 ! A88   A(38,41,81)           119.1748         estimate D2E/DX2                !
 ! A89   A(42,41,81)           113.5425         estimate D2E/DX2                !
 ! A90   A(14,43,35)           163.4457         estimate D2E/DX2                !
 ! A91   A(46,45,50)           116.1793         estimate D2E/DX2                !
 ! A92   A(45,46,47)           113.7954         estimate D2E/DX2                !
 ! A93   A(45,46,51)           106.9048         estimate D2E/DX2                !
 ! A94   A(45,46,58)           106.558          estimate D2E/DX2                !
 ! A95   A(47,46,51)           109.6782         estimate D2E/DX2                !
 ! A96   A(47,46,58)           110.9937         estimate D2E/DX2                !
 ! A97   A(51,46,58)           108.7014         estimate D2E/DX2                !
 ! A98   A(46,47,48)           112.7396         estimate D2E/DX2                !
 ! A99   A(46,47,52)           108.1343         estimate D2E/DX2                !
 ! A100  A(46,47,57)           104.9619         estimate D2E/DX2                !
 ! A101  A(48,47,52)           106.359          estimate D2E/DX2                !
 ! A102  A(48,47,57)           113.2693         estimate D2E/DX2                !
 ! A103  A(52,47,57)           111.3617         estimate D2E/DX2                !
 ! A104  A(47,48,49)           109.6842         estimate D2E/DX2                !
 ! A105  A(47,48,53)           107.0647         estimate D2E/DX2                !
 ! A106  A(47,48,56)           107.7405         estimate D2E/DX2                !
 ! A107  A(49,48,53)           106.7956         estimate D2E/DX2                !
 ! A108  A(49,48,56)           114.3332         estimate D2E/DX2                !
 ! A109  A(53,48,56)           110.9976         estimate D2E/DX2                !
 ! A110  A(37,49,48)           112.1724         estimate D2E/DX2                !
 ! A111  A(37,49,50)           109.1118         estimate D2E/DX2                !
 ! A112  A(37,49,55)           109.3724         estimate D2E/DX2                !
 ! A113  A(48,49,50)           107.0524         estimate D2E/DX2                !
 ! A114  A(48,49,55)           109.2876         estimate D2E/DX2                !
 ! A115  A(50,49,55)           109.8041         estimate D2E/DX2                !
 ! A116  A(45,50,49)           108.9146         estimate D2E/DX2                !
 ! A117  A(45,50,54)           108.0768         estimate D2E/DX2                !
 ! A118  A(45,50,59)           107.8938         estimate D2E/DX2                !
 ! A119  A(49,50,54)           108.9262         estimate D2E/DX2                !
 ! A120  A(49,50,59)           116.4617         estimate D2E/DX2                !
 ! A121  A(54,50,59)           106.2747         estimate D2E/DX2                !
 ! A122  A(48,56,64)           107.9444         estimate D2E/DX2                !
 ! A123  A(47,57,65)           108.4101         estimate D2E/DX2                !
 ! A124  A(46,58,66)           117.2065         estimate D2E/DX2                !
 ! A125  A(46,58,84)           115.4483         estimate D2E/DX2                !
 ! A126  A(66,58,84)           118.0085         estimate D2E/DX2                !
 ! A127  A(50,59,60)           108.2363         estimate D2E/DX2                !
 ! A128  A(50,59,61)           108.5067         estimate D2E/DX2                !
 ! A129  A(50,59,62)           115.1092         estimate D2E/DX2                !
 ! A130  A(60,59,61)           108.1881         estimate D2E/DX2                !
 ! A131  A(60,59,62)           106.5558         estimate D2E/DX2                !
 ! A132  A(61,59,62)           110.0247         estimate D2E/DX2                !
 ! A133  A(59,62,63)           106.9872         estimate D2E/DX2                !
 ! A134  A(59,62,82)           118.6155         estimate D2E/DX2                !
 ! A135  A(63,62,82)           100.5142         estimate D2E/DX2                !
 ! A136  A(36,64,56)           154.8567         estimate D2E/DX2                !
 ! A137  A(58,66,67)           109.0513         estimate D2E/DX2                !
 ! A138  A(58,66,68)           109.2119         estimate D2E/DX2                !
 ! A139  A(58,66,69)           108.6743         estimate D2E/DX2                !
 ! A140  A(67,66,68)           108.3666         estimate D2E/DX2                !
 ! A141  A(67,66,69)           110.8104         estimate D2E/DX2                !
 ! A142  A(68,66,69)           110.6965         estimate D2E/DX2                !
 ! A143  A(66,69,70)           106.6559         estimate D2E/DX2                !
 ! A144  A(66,69,71)           108.6768         estimate D2E/DX2                !
 ! A145  A(66,69,72)           115.2817         estimate D2E/DX2                !
 ! A146  A(70,69,71)           105.0134         estimate D2E/DX2                !
 ! A147  A(70,69,72)           109.4558         estimate D2E/DX2                !
 ! A148  A(71,69,72)           111.17           estimate D2E/DX2                !
 ! A149  A(69,72,73)           107.9245         estimate D2E/DX2                !
 ! A150  A(69,72,74)           109.658          estimate D2E/DX2                !
 ! A151  A(69,72,75)           117.482          estimate D2E/DX2                !
 ! A152  A(73,72,74)           105.1907         estimate D2E/DX2                !
 ! A153  A(73,72,75)           106.9416         estimate D2E/DX2                !
 ! A154  A(74,72,75)           108.9208         estimate D2E/DX2                !
 ! A155  A(72,75,76)           110.3034         estimate D2E/DX2                !
 ! A156  A(72,75,77)           108.2481         estimate D2E/DX2                !
 ! A157  A(72,75,78)           116.807          estimate D2E/DX2                !
 ! A158  A(76,75,77)           105.3392         estimate D2E/DX2                !
 ! A159  A(76,75,78)           109.8426         estimate D2E/DX2                !
 ! A160  A(77,75,78)           105.5701         estimate D2E/DX2                !
 ! A161  A(75,78,79)           110.6155         estimate D2E/DX2                !
 ! A162  A(75,78,80)           110.5631         estimate D2E/DX2                !
 ! A163  A(75,78,81)           113.3475         estimate D2E/DX2                !
 ! A164  A(79,78,80)           107.7758         estimate D2E/DX2                !
 ! A165  A(79,78,81)           106.932          estimate D2E/DX2                !
 ! A166  A(80,78,81)           107.3659         estimate D2E/DX2                !
 ! A167  A(41,81,78)           116.9873         estimate D2E/DX2                !
 ! A168  A(41,81,82)            97.8764         estimate D2E/DX2                !
 ! A169  A(41,81,84)           112.7407         estimate D2E/DX2                !
 ! A170  A(78,81,82)           113.529          estimate D2E/DX2                !
 ! A171  A(78,81,83)           113.1328         estimate D2E/DX2                !
 ! A172  A(78,81,84)           110.0308         estimate D2E/DX2                !
 ! A173  A(82,81,83)           105.1314         estimate D2E/DX2                !
 ! A174  A(82,81,84)           104.5223         estimate D2E/DX2                !
 ! A175  A(83,81,84)           110.0594         estimate D2E/DX2                !
 ! A176  A(62,82,81)           158.3354         estimate D2E/DX2                !
 ! A177  L(41,81,83,78,-1)     230.1201         estimate D2E/DX2                !
 ! A178  L(58,84,81,1,-1)      184.357          estimate D2E/DX2                !
 ! A179  L(41,81,83,78,-2)       6.7891         estimate D2E/DX2                !
 ! A180  L(58,84,81,1,-2)      183.5554         estimate D2E/DX2                !
 ! D1    D(6,1,2,3)            -55.007          estimate D2E/DX2                !
 ! D2    D(6,1,2,7)           -174.9222         estimate D2E/DX2                !
 ! D3    D(6,1,2,15)            65.8169         estimate D2E/DX2                !
 ! D4    D(2,1,6,5)             50.93           estimate D2E/DX2                !
 ! D5    D(2,1,6,11)           -68.8053         estimate D2E/DX2                !
 ! D6    D(2,1,6,16)           173.7887         estimate D2E/DX2                !
 ! D7    D(1,2,3,4)             58.3546         estimate D2E/DX2                !
 ! D8    D(1,2,3,8)            -60.8675         estimate D2E/DX2                !
 ! D9    D(1,2,3,14)          -179.5217         estimate D2E/DX2                !
 ! D10   D(7,2,3,4)            174.6681         estimate D2E/DX2                !
 ! D11   D(7,2,3,8)             55.4461         estimate D2E/DX2                !
 ! D12   D(7,2,3,14)           -63.2082         estimate D2E/DX2                !
 ! D13   D(15,2,3,4)           -64.5037         estimate D2E/DX2                !
 ! D14   D(15,2,3,8)           176.2743         estimate D2E/DX2                !
 ! D15   D(15,2,3,14)           57.62           estimate D2E/DX2                !
 ! D16   D(1,2,15,27)          110.576          estimate D2E/DX2                !
 ! D17   D(3,2,15,27)         -127.3316         estimate D2E/DX2                !
 ! D18   D(7,2,15,27)           -5.821          estimate D2E/DX2                !
 ! D19   D(2,3,4,5)            -57.4838         estimate D2E/DX2                !
 ! D20   D(2,3,4,9)             62.2364         estimate D2E/DX2                !
 ! D21   D(2,3,4,13)           178.4851         estimate D2E/DX2                !
 ! D22   D(8,3,4,5)             60.3618         estimate D2E/DX2                !
 ! D23   D(8,3,4,9)           -179.9181         estimate D2E/DX2                !
 ! D24   D(8,3,4,13)           -63.6693         estimate D2E/DX2                !
 ! D25   D(14,3,4,5)          -179.1604         estimate D2E/DX2                !
 ! D26   D(14,3,4,9)           -59.4402         estimate D2E/DX2                !
 ! D27   D(14,3,4,13)           56.8085         estimate D2E/DX2                !
 ! D28   D(2,3,14,23)         -167.6622         estimate D2E/DX2                !
 ! D29   D(2,3,14,43)          -34.1693         estimate D2E/DX2                !
 ! D30   D(4,3,14,23)          -45.5619         estimate D2E/DX2                !
 ! D31   D(4,3,14,43)           87.9309         estimate D2E/DX2                !
 ! D32   D(8,3,14,23)           74.9991         estimate D2E/DX2                !
 ! D33   D(8,3,14,43)         -151.5081         estimate D2E/DX2                !
 ! D34   D(3,4,5,6)             51.6057         estimate D2E/DX2                !
 ! D35   D(3,4,5,10)           169.3041         estimate D2E/DX2                !
 ! D36   D(3,4,5,12)           -71.987          estimate D2E/DX2                !
 ! D37   D(9,4,5,6)            -67.6843         estimate D2E/DX2                !
 ! D38   D(9,4,5,10)            50.0141         estimate D2E/DX2                !
 ! D39   D(9,4,5,12)           168.723          estimate D2E/DX2                !
 ! D40   D(13,4,5,6)           173.9898         estimate D2E/DX2                !
 ! D41   D(13,4,5,10)          -68.3118         estimate D2E/DX2                !
 ! D42   D(13,4,5,12)           50.3971         estimate D2E/DX2                !
 ! D43   D(3,4,13,22)           86.1461         estimate D2E/DX2                !
 ! D44   D(5,4,13,22)          -36.1866         estimate D2E/DX2                !
 ! D45   D(9,4,13,22)         -156.2144         estimate D2E/DX2                !
 ! D46   D(4,5,6,1)            -47.8367         estimate D2E/DX2                !
 ! D47   D(4,5,6,11)            73.2215         estimate D2E/DX2                !
 ! D48   D(4,5,6,16)          -166.0721         estimate D2E/DX2                !
 ! D49   D(10,5,6,1)          -166.5744         estimate D2E/DX2                !
 ! D50   D(10,5,6,11)          -45.5162         estimate D2E/DX2                !
 ! D51   D(10,5,6,16)           75.1903         estimate D2E/DX2                !
 ! D52   D(12,5,6,1)            71.2575         estimate D2E/DX2                !
 ! D53   D(12,5,6,11)         -167.6842         estimate D2E/DX2                !
 ! D54   D(12,5,6,16)          -46.9778         estimate D2E/DX2                !
 ! D55   D(4,5,12,21)         -160.6308         estimate D2E/DX2                !
 ! D56   D(6,5,12,21)           78.0116         estimate D2E/DX2                !
 ! D57   D(10,5,12,21)         -42.6229         estimate D2E/DX2                !
 ! D58   D(1,6,16,17)          -45.4658         estimate D2E/DX2                !
 ! D59   D(1,6,16,18)           72.4611         estimate D2E/DX2                !
 ! D60   D(1,6,16,19)         -165.979          estimate D2E/DX2                !
 ! D61   D(5,6,16,17)           78.5284         estimate D2E/DX2                !
 ! D62   D(5,6,16,18)         -163.5446         estimate D2E/DX2                !
 ! D63   D(5,6,16,19)          -41.9848         estimate D2E/DX2                !
 ! D64   D(11,6,16,17)        -162.4737         estimate D2E/DX2                !
 ! D65   D(11,6,16,18)         -44.5468         estimate D2E/DX2                !
 ! D66   D(11,6,16,19)          77.0131         estimate D2E/DX2                !
 ! D67   D(3,14,43,35)          80.2426         estimate D2E/DX2                !
 ! D68   D(23,14,43,35)       -151.1414         estimate D2E/DX2                !
 ! D69   D(2,15,27,26)        -163.776          estimate D2E/DX2                !
 ! D70   D(2,15,27,28)          77.3454         estimate D2E/DX2                !
 ! D71   D(2,15,27,32)         -45.3226         estimate D2E/DX2                !
 ! D72   D(6,16,19,20)        -169.5335         estimate D2E/DX2                !
 ! D73   D(17,16,19,20)         72.3288         estimate D2E/DX2                !
 ! D74   D(18,16,19,20)        -49.3412         estimate D2E/DX2                !
 ! D75   D(29,24,25,26)        -59.0281         estimate D2E/DX2                !
 ! D76   D(29,24,25,30)         61.4506         estimate D2E/DX2                !
 ! D77   D(29,24,25,37)        175.2786         estimate D2E/DX2                !
 ! D78   D(25,24,29,28)         51.871          estimate D2E/DX2                !
 ! D79   D(25,24,29,34)        -67.2082         estimate D2E/DX2                !
 ! D80   D(25,24,29,38)        176.8174         estimate D2E/DX2                !
 ! D81   D(24,25,26,27)         63.0367         estimate D2E/DX2                !
 ! D82   D(24,25,26,31)        -54.7676         estimate D2E/DX2                !
 ! D83   D(24,25,26,36)       -175.1323         estimate D2E/DX2                !
 ! D84   D(30,25,26,27)        -57.3172         estimate D2E/DX2                !
 ! D85   D(30,25,26,31)       -175.1215         estimate D2E/DX2                !
 ! D86   D(30,25,26,36)         64.5138         estimate D2E/DX2                !
 ! D87   D(37,25,26,27)       -175.5653         estimate D2E/DX2                !
 ! D88   D(37,25,26,31)         66.6304         estimate D2E/DX2                !
 ! D89   D(37,25,26,36)        -53.7343         estimate D2E/DX2                !
 ! D90   D(24,25,37,49)         55.8248         estimate D2E/DX2                !
 ! D91   D(26,25,37,49)        -64.9867         estimate D2E/DX2                !
 ! D92   D(30,25,37,49)        173.4533         estimate D2E/DX2                !
 ! D93   D(25,26,27,15)        177.9694         estimate D2E/DX2                !
 ! D94   D(25,26,27,28)        -61.5143         estimate D2E/DX2                !
 ! D95   D(25,26,27,32)         59.5006         estimate D2E/DX2                !
 ! D96   D(31,26,27,15)        -63.7046         estimate D2E/DX2                !
 ! D97   D(31,26,27,28)         56.8117         estimate D2E/DX2                !
 ! D98   D(31,26,27,32)        177.8266         estimate D2E/DX2                !
 ! D99   D(36,26,27,15)         57.8888         estimate D2E/DX2                !
 ! D100  D(36,26,27,28)        178.4052         estimate D2E/DX2                !
 ! D101  D(36,26,27,32)        -60.58           estimate D2E/DX2                !
 ! D102  D(25,26,36,44)       -157.7639         estimate D2E/DX2                !
 ! D103  D(25,26,36,64)         88.8746         estimate D2E/DX2                !
 ! D104  D(27,26,36,44)        -37.5614         estimate D2E/DX2                !
 ! D105  D(27,26,36,64)       -150.923          estimate D2E/DX2                !
 ! D106  D(31,26,36,44)         82.737          estimate D2E/DX2                !
 ! D107  D(31,26,36,64)        -30.6246         estimate D2E/DX2                !
 ! D108  D(15,27,28,29)        168.7458         estimate D2E/DX2                !
 ! D109  D(15,27,28,33)        -74.5382         estimate D2E/DX2                !
 ! D110  D(15,27,28,35)         45.7927         estimate D2E/DX2                !
 ! D111  D(26,27,28,29)         52.243          estimate D2E/DX2                !
 ! D112  D(26,27,28,33)        168.959          estimate D2E/DX2                !
 ! D113  D(26,27,28,35)        -70.7101         estimate D2E/DX2                !
 ! D114  D(32,27,28,29)        -68.6693         estimate D2E/DX2                !
 ! D115  D(32,27,28,33)         48.0467         estimate D2E/DX2                !
 ! D116  D(32,27,28,35)        168.3776         estimate D2E/DX2                !
 ! D117  D(27,28,29,24)        -46.5232         estimate D2E/DX2                !
 ! D118  D(27,28,29,34)         73.4421         estimate D2E/DX2                !
 ! D119  D(27,28,29,38)       -168.418          estimate D2E/DX2                !
 ! D120  D(33,28,29,24)       -165.1187         estimate D2E/DX2                !
 ! D121  D(33,28,29,34)        -45.1534         estimate D2E/DX2                !
 ! D122  D(33,28,29,38)         72.9865         estimate D2E/DX2                !
 ! D123  D(35,28,29,24)         75.9065         estimate D2E/DX2                !
 ! D124  D(35,28,29,34)       -164.1282         estimate D2E/DX2                !
 ! D125  D(35,28,29,38)        -45.9883         estimate D2E/DX2                !
 ! D126  D(27,28,35,43)        -70.9336         estimate D2E/DX2                !
 ! D127  D(29,28,35,43)        166.4221         estimate D2E/DX2                !
 ! D128  D(33,28,35,43)         49.3499         estimate D2E/DX2                !
 ! D129  D(24,29,38,39)         55.5503         estimate D2E/DX2                !
 ! D130  D(24,29,38,40)        172.5525         estimate D2E/DX2                !
 ! D131  D(24,29,38,41)        -64.5512         estimate D2E/DX2                !
 ! D132  D(28,29,38,39)       -179.1637         estimate D2E/DX2                !
 ! D133  D(28,29,38,40)        -62.1616         estimate D2E/DX2                !
 ! D134  D(28,29,38,41)         60.7347         estimate D2E/DX2                !
 ! D135  D(34,29,38,39)        -61.2225         estimate D2E/DX2                !
 ! D136  D(34,29,38,40)         55.7796         estimate D2E/DX2                !
 ! D137  D(34,29,38,41)        178.6759         estimate D2E/DX2                !
 ! D138  D(28,35,43,14)        -24.9805         estimate D2E/DX2                !
 ! D139  D(26,36,64,56)          3.5716         estimate D2E/DX2                !
 ! D140  D(44,36,64,56)       -104.7663         estimate D2E/DX2                !
 ! D141  D(25,37,49,48)        110.0709         estimate D2E/DX2                !
 ! D142  D(25,37,49,50)       -131.4819         estimate D2E/DX2                !
 ! D143  D(25,37,49,55)        -11.3543         estimate D2E/DX2                !
 ! D144  D(29,38,41,42)        -46.2854         estimate D2E/DX2                !
 ! D145  D(29,38,41,81)         81.5484         estimate D2E/DX2                !
 ! D146  D(39,38,41,42)       -167.6372         estimate D2E/DX2                !
 ! D147  D(39,38,41,81)        -39.8034         estimate D2E/DX2                !
 ! D148  D(40,38,41,42)         75.4675         estimate D2E/DX2                !
 ! D149  D(40,38,41,81)       -156.6987         estimate D2E/DX2                !
 ! D150  D(38,41,81,78)        126.5809         estimate D2E/DX2                !
 ! D151  D(38,41,81,82)          5.0664         estimate D2E/DX2                !
 ! D152  D(38,41,81,84)       -104.3522         estimate D2E/DX2                !
 ! D153  D(42,41,81,78)       -110.0469         estimate D2E/DX2                !
 ! D154  D(42,41,81,82)        128.4387         estimate D2E/DX2                !
 ! D155  D(42,41,81,84)         19.0201         estimate D2E/DX2                !
 ! D156  D(50,45,46,47)         28.0762         estimate D2E/DX2                !
 ! D157  D(50,45,46,51)        149.3183         estimate D2E/DX2                !
 ! D158  D(50,45,46,58)        -94.5796         estimate D2E/DX2                !
 ! D159  D(46,45,50,49)         32.8204         estimate D2E/DX2                !
 ! D160  D(46,45,50,54)        -85.3771         estimate D2E/DX2                !
 ! D161  D(46,45,50,59)        160.0933         estimate D2E/DX2                !
 ! D162  D(45,46,47,48)        -53.3299         estimate D2E/DX2                !
 ! D163  D(45,46,47,52)       -170.6283         estimate D2E/DX2                !
 ! D164  D(45,46,47,57)         70.4073         estimate D2E/DX2                !
 ! D165  D(51,46,47,48)       -173.0132         estimate D2E/DX2                !
 ! D166  D(51,46,47,52)         69.6885         estimate D2E/DX2                !
 ! D167  D(51,46,47,57)        -49.276          estimate D2E/DX2                !
 ! D168  D(58,46,47,48)         66.8567         estimate D2E/DX2                !
 ! D169  D(58,46,47,52)        -50.4417         estimate D2E/DX2                !
 ! D170  D(58,46,47,57)       -169.4061         estimate D2E/DX2                !
 ! D171  D(45,46,58,66)       -155.0122         estimate D2E/DX2                !
 ! D172  D(45,46,58,84)         -8.9761         estimate D2E/DX2                !
 ! D173  D(47,46,58,66)         80.5893         estimate D2E/DX2                !
 ! D174  D(47,46,58,84)       -133.3745         estimate D2E/DX2                !
 ! D175  D(51,46,58,66)        -40.1198         estimate D2E/DX2                !
 ! D176  D(51,46,58,84)        105.9163         estimate D2E/DX2                !
 ! D177  D(46,47,48,49)         13.1022         estimate D2E/DX2                !
 ! D178  D(46,47,48,53)        128.6231         estimate D2E/DX2                !
 ! D179  D(46,47,48,56)       -111.9212         estimate D2E/DX2                !
 ! D180  D(52,47,48,49)        131.445          estimate D2E/DX2                !
 ! D181  D(52,47,48,53)       -113.0341         estimate D2E/DX2                !
 ! D182  D(52,47,48,56)          6.4216         estimate D2E/DX2                !
 ! D183  D(57,47,48,49)       -105.9075         estimate D2E/DX2                !
 ! D184  D(57,47,48,53)          9.6133         estimate D2E/DX2                !
 ! D185  D(57,47,48,56)        129.069          estimate D2E/DX2                !
 ! D186  D(46,47,57,65)        165.6124         estimate D2E/DX2                !
 ! D187  D(48,47,57,65)        -70.9892         estimate D2E/DX2                !
 ! D188  D(52,47,57,65)         48.8394         estimate D2E/DX2                !
 ! D189  D(47,48,49,37)        163.854          estimate D2E/DX2                !
 ! D190  D(47,48,49,50)         44.1963         estimate D2E/DX2                !
 ! D191  D(47,48,49,55)        -74.6721         estimate D2E/DX2                !
 ! D192  D(53,48,49,37)         48.1622         estimate D2E/DX2                !
 ! D193  D(53,48,49,50)        -71.4954         estimate D2E/DX2                !
 ! D194  D(53,48,49,55)        169.6361         estimate D2E/DX2                !
 ! D195  D(56,48,49,37)        -75.0185         estimate D2E/DX2                !
 ! D196  D(56,48,49,50)        165.3238         estimate D2E/DX2                !
 ! D197  D(56,48,49,55)         46.4553         estimate D2E/DX2                !
 ! D198  D(47,48,56,64)       -170.5425         estimate D2E/DX2                !
 ! D199  D(49,48,56,64)         67.2623         estimate D2E/DX2                !
 ! D200  D(53,48,56,64)        -53.6186         estimate D2E/DX2                !
 ! D201  D(37,49,50,45)        166.8664         estimate D2E/DX2                !
 ! D202  D(37,49,50,54)        -75.4723         estimate D2E/DX2                !
 ! D203  D(37,49,50,59)         44.6337         estimate D2E/DX2                !
 ! D204  D(48,49,50,45)        -71.5285         estimate D2E/DX2                !
 ! D205  D(48,49,50,54)         46.1328         estimate D2E/DX2                !
 ! D206  D(48,49,50,59)        166.2388         estimate D2E/DX2                !
 ! D207  D(55,49,50,45)         47.005          estimate D2E/DX2                !
 ! D208  D(55,49,50,54)        164.6663         estimate D2E/DX2                !
 ! D209  D(55,49,50,59)        -75.2277         estimate D2E/DX2                !
 ! D210  D(45,50,59,60)         48.1884         estimate D2E/DX2                !
 ! D211  D(45,50,59,61)        165.3726         estimate D2E/DX2                !
 ! D212  D(45,50,59,62)        -70.8722         estimate D2E/DX2                !
 ! D213  D(49,50,59,60)        170.9542         estimate D2E/DX2                !
 ! D214  D(49,50,59,61)        -71.8616         estimate D2E/DX2                !
 ! D215  D(49,50,59,62)         51.8936         estimate D2E/DX2                !
 ! D216  D(54,50,59,60)        -67.5292         estimate D2E/DX2                !
 ! D217  D(54,50,59,61)         49.655          estimate D2E/DX2                !
 ! D218  D(54,50,59,62)        173.4102         estimate D2E/DX2                !
 ! D219  D(48,56,64,36)        -84.3391         estimate D2E/DX2                !
 ! D220  D(46,58,66,67)        -89.3666         estimate D2E/DX2                !
 ! D221  D(46,58,66,68)         28.8855         estimate D2E/DX2                !
 ! D222  D(46,58,66,69)        149.7384         estimate D2E/DX2                !
 ! D223  D(84,58,66,67)        125.4803         estimate D2E/DX2                !
 ! D224  D(84,58,66,68)       -116.2675         estimate D2E/DX2                !
 ! D225  D(84,58,66,69)          4.5853         estimate D2E/DX2                !
 ! D226  D(46,58,81,41)        129.6005         estimate D2E/DX2                !
 ! D227  D(46,58,81,78)        -96.0834         estimate D2E/DX2                !
 ! D228  D(46,58,81,82)         24.3445         estimate D2E/DX2                !
 ! D229  D(46,58,81,83)        137.084          estimate D2E/DX2                !
 ! D230  D(66,58,81,41)        -86.1215         estimate D2E/DX2                !
 ! D231  D(66,58,81,78)         48.1947         estimate D2E/DX2                !
 ! D232  D(66,58,81,82)        168.6225         estimate D2E/DX2                !
 ! D233  D(66,58,81,83)        -78.6379         estimate D2E/DX2                !
 ! D234  D(50,59,62,63)        -69.8407         estimate D2E/DX2                !
 ! D235  D(50,59,62,82)         42.7421         estimate D2E/DX2                !
 ! D236  D(60,59,62,63)        170.169          estimate D2E/DX2                !
 ! D237  D(60,59,62,82)        -77.2482         estimate D2E/DX2                !
 ! D238  D(61,59,62,63)         53.1084         estimate D2E/DX2                !
 ! D239  D(61,59,62,82)        165.6912         estimate D2E/DX2                !
 ! D240  D(59,62,82,81)        -97.3512         estimate D2E/DX2                !
 ! D241  D(63,62,82,81)         18.7367         estimate D2E/DX2                !
 ! D242  D(58,66,69,70)        168.1431         estimate D2E/DX2                !
 ! D243  D(58,66,69,71)         55.4031         estimate D2E/DX2                !
 ! D244  D(58,66,69,72)        -70.135          estimate D2E/DX2                !
 ! D245  D(67,66,69,70)         48.3375         estimate D2E/DX2                !
 ! D246  D(67,66,69,71)        -64.4025         estimate D2E/DX2                !
 ! D247  D(67,66,69,72)        170.0594         estimate D2E/DX2                !
 ! D248  D(68,66,69,70)        -71.9231         estimate D2E/DX2                !
 ! D249  D(68,66,69,71)        175.3369         estimate D2E/DX2                !
 ! D250  D(68,66,69,72)         49.7989         estimate D2E/DX2                !
 ! D251  D(66,69,72,73)       -123.0907         estimate D2E/DX2                !
 ! D252  D(66,69,72,74)         -9.0118         estimate D2E/DX2                !
 ! D253  D(66,69,72,75)        116.0139         estimate D2E/DX2                !
 ! D254  D(70,69,72,73)         -2.8904         estimate D2E/DX2                !
 ! D255  D(70,69,72,74)        111.1885         estimate D2E/DX2                !
 ! D256  D(70,69,72,75)       -123.7858         estimate D2E/DX2                !
 ! D257  D(71,69,72,73)        112.6673         estimate D2E/DX2                !
 ! D258  D(71,69,72,74)       -133.2538         estimate D2E/DX2                !
 ! D259  D(71,69,72,75)         -8.2281         estimate D2E/DX2                !
 ! D260  D(69,72,75,76)         40.5561         estimate D2E/DX2                !
 ! D261  D(69,72,75,77)        155.3263         estimate D2E/DX2                !
 ! D262  D(69,72,75,78)        -85.7749         estimate D2E/DX2                !
 ! D263  D(73,72,75,76)        -80.85           estimate D2E/DX2                !
 ! D264  D(73,72,75,77)         33.9203         estimate D2E/DX2                !
 ! D265  D(73,72,75,78)        152.819          estimate D2E/DX2                !
 ! D266  D(74,72,75,76)        165.9474         estimate D2E/DX2                !
 ! D267  D(74,72,75,77)        -79.2823         estimate D2E/DX2                !
 ! D268  D(74,72,75,78)         39.6165         estimate D2E/DX2                !
 ! D269  D(72,75,78,79)        -51.7243         estimate D2E/DX2                !
 ! D270  D(72,75,78,80)       -171.0319         estimate D2E/DX2                !
 ! D271  D(72,75,78,81)         68.3613         estimate D2E/DX2                !
 ! D272  D(76,75,78,79)       -178.2833         estimate D2E/DX2                !
 ! D273  D(76,75,78,80)         62.4091         estimate D2E/DX2                !
 ! D274  D(76,75,78,81)        -58.1978         estimate D2E/DX2                !
 ! D275  D(77,75,78,79)         68.6068         estimate D2E/DX2                !
 ! D276  D(77,75,78,80)        -50.7008         estimate D2E/DX2                !
 ! D277  D(77,75,78,81)       -171.3076         estimate D2E/DX2                !
 ! D278  D(75,78,81,41)         74.9852         estimate D2E/DX2                !
 ! D279  D(75,78,81,82)       -172.0939         estimate D2E/DX2                !
 ! D280  D(75,78,81,83)         68.1961         estimate D2E/DX2                !
 ! D281  D(75,78,81,84)        -55.3599         estimate D2E/DX2                !
 ! D282  D(79,78,81,41)       -162.855          estimate D2E/DX2                !
 ! D283  D(79,78,81,82)        -49.934          estimate D2E/DX2                !
 ! D284  D(79,78,81,83)       -169.6441         estimate D2E/DX2                !
 ! D285  D(79,78,81,84)         66.7999         estimate D2E/DX2                !
 ! D286  D(80,78,81,41)        -47.4146         estimate D2E/DX2                !
 ! D287  D(80,78,81,82)         65.5064         estimate D2E/DX2                !
 ! D288  D(80,78,81,83)        -54.2037         estimate D2E/DX2                !
 ! D289  D(80,78,81,84)       -177.7597         estimate D2E/DX2                !
 ! D290  D(41,81,82,62)        -48.3379         estimate D2E/DX2                !
 ! D291  D(78,81,82,62)       -172.3863         estimate D2E/DX2                !
 ! D292  D(83,81,82,62)        -48.2185         estimate D2E/DX2                !
 ! D293  D(84,81,82,62)         67.6995         estimate D2E/DX2                !
 --------------------------------------------------------------------------------
 Trust Radius=3.00D-01 FncErr=1.00D-07 GrdErr=1.00D-06
 Number of steps in this run=    504 maximum allowed number of steps=    504.
 GradGradGradGradGradGradGradGradGradGradGradGradGradGradGradGradGradGrad

 Leave Link  103 at Wed Apr  6 15:55:05 2016, MaxMem= 10737418240 cpu:         0.7
 (Enter /share/apps//g09/l202.exe)
 Stoichiometry    C23H44NO16(1+)
 Framework group  C1[X(C23H44NO16)]
 Deg. of freedom   246
 Full point group                 C1      NOp   1
 Largest Abelian subgroup         C1      NOp   1
 Largest concise Abelian subgroup C1      NOp   1
                         Standard orientation:                         
 ---------------------------------------------------------------------
 Center     Atomic      Atomic             Coordinates (Angstroms)
 Number     Number       Type             X           Y           Z
 ---------------------------------------------------------------------
      1          8           0        4.985117    0.450851   -1.007590
      2          6           0        3.992295   -0.538276   -0.957471
      3          6           0        4.385757   -1.645838    0.024406
      4          6           0        4.608653   -1.067133    1.422596
      5          6           0        5.686116    0.018909    1.363923
      6          6           0        5.349065    1.044399    0.262805
      7          1           0        3.921819   -0.927967   -1.985810
      8          1           0        5.326278   -2.089914   -0.344076
      9          1           0        3.663498   -0.628485    1.780042
     10          1           0        5.705363    0.560300    2.324223
     11          1           0        4.505694    1.654431    0.637026
     12          8           0        6.929734   -0.662749    1.156077
     13          8           0        4.939496   -2.115921    2.330288
     14          8           0        3.361388   -2.656252    0.054071
     15          8           0        2.722780   -0.000802   -0.548872
     16          6           0        6.537391    1.948938   -0.074721
     17          1           0        7.223219    1.379745   -0.725299
     18          1           0        6.182455    2.832397   -0.629387
     19          8           0        7.164007    2.315156    1.161691
     20          1           0        7.811590    3.016270    0.982041
     21          1           0        7.636389   -0.046684    1.423507
     22          1           0        5.910180   -2.231433    2.254690
     23          1           0        3.577345   -3.211035    0.831446
     24          8           0       -1.092637   -0.144140   -2.200084
     25          6           0       -0.477412    1.156693   -2.029911
     26          6           0        0.643801    1.004102   -0.995639
     27          6           0        1.697009    0.048955   -1.544774
     28          6           0        1.058755   -1.336732   -1.783948
     29          6           0       -0.214924   -1.202858   -2.642294
     30          1           0       -0.069242    1.516315   -2.992469
     31          1           0        0.224923    0.561699   -0.074274
     32          1           0        2.109666    0.446626   -2.492791
     33          1           0        1.758714   -1.968525   -2.362430
     34          1           0        0.110107   -0.986248   -3.679660
     35          8           0        0.770002   -1.967256   -0.533471
     36          8           0        1.195440    2.295275   -0.721977
     37          8           0       -1.473444    2.080998   -1.707701
     38          6           0       -1.043215   -2.492161   -2.677386
     39          1           0       -1.928092   -2.344740   -3.313194
     40          1           0       -0.429473   -3.284820   -3.140119
     41          8           0       -1.508048   -2.911733   -1.387487
     42          1           0       -0.710032   -2.832375   -0.803210
     43          1           0        1.651898   -2.217021   -0.145405
     44          1           0        2.091994    2.127468   -0.370296
     45          8           0       -4.594892    1.355116    0.121341
     46          6           0       -4.082951    1.424327    1.425034
     47          6           0       -3.161593    2.631585    1.666513
     48          6           0       -2.006336    2.725801    0.624393
     49          6           0       -2.290332    1.777586   -0.549912
     50          6           0       -3.776280    1.950535   -0.921366
     51          1           0       -4.948643    1.475211    2.107423
     52          1           0       -2.681544    2.505576    2.652189
     53          1           0       -2.020687    3.754520    0.215584
     54          1           0       -4.011401    3.031276   -0.967542
     55          1           0       -2.104011    0.743247   -0.233882
     56          8           0       -0.787416    2.465647    1.304935
     57          8           0       -4.028344    3.765440    1.651517
     58          8           0       -3.378870    0.178359    1.659242
     59          6           0       -4.215747    1.360473   -2.255897
     60          1           0       -5.311473    1.413122   -2.310841
     61          1           0       -3.801122    1.980017   -3.065180
     62          8           0       -3.861268   -0.017040   -2.459845
     63          1           0       -2.881796   -0.049030   -2.571732
     64          1           0       -0.047094    2.672876    0.690760
     65          1           0       -3.546948    4.525034    2.022274
     66          6           0       -3.239596   -0.253713    3.030167
     67          1           0       -2.311611    0.169732    3.448421
     68          1           0       -4.092755    0.127160    3.619857
     69          6           0       -3.201347   -1.776075    3.060216
     70          1           0       -2.881576   -2.063589    4.073030
     71          1           0       -2.391559   -2.122309    2.395781
     72          6           0       -4.543791   -2.480081    2.722216
     73          1           0       -4.806596   -3.130878    3.567659
     74          1           0       -5.352900   -1.731563    2.671111
     75          6           0       -4.589405   -3.354083    1.450638
     76          1           0       -3.656886   -3.935901    1.352244
     77          1           0       -5.387508   -4.101959    1.574868
     78          6           0       -4.897065   -2.640524    0.134389
     79          1           0       -5.808332   -2.031945    0.227645
     80          1           0       -5.061668   -3.369608   -0.670360
     81          7           0       -3.805704   -1.723947   -0.310994
     82          1           0       -4.066579   -1.132282   -1.144429
     83          1           0       -2.931424   -2.231741   -0.597915
     84          1           0       -3.587708   -1.031904    0.444510
 ---------------------------------------------------------------------
 Rotational constants (GHZ):      0.1368402      0.0497028      0.0470045
 Leave Link  202 at Wed Apr  6 15:55:07 2016, MaxMem= 10737418240 cpu:         5.1
 (Enter /share/apps//g09/l301.exe)
 Standard basis: 6-311+G(d,p) (5D, 7F)
 Ernie: Thresh=  0.10000D-02 Tol=  0.10000D-05 Strict=F.
 There are  1184 symmetry adapted cartesian basis functions of A   symmetry.
 There are  1144 symmetry adapted basis functions of A   symmetry.
  1144 basis functions,  1792 primitive gaussians,  1184 cartesian basis functions
   158 alpha electrons      158 beta electrons
       nuclear repulsion energy      5719.9446262785 Hartrees.
 IExCor= 1009 DFT=T Ex+Corr=PBE1PBE ExCW=0 ScaHFX=  0.250000
 ScaDFX=  0.750000  0.750000  1.000000  1.000000 ScalE2=  1.000000  1.000000
 IRadAn=      0 IRanWt=     -1 IRanGd=            0 ICorTp=0 IEmpDi=131
 NAtoms=   84 NActive=   84 NUniq=   84 SFac= 1.00D+00 NAtFMM=   60 NAOKFM=T Big=T
 Integral buffers will be    131072 words long.
 Raffenetti 2 integral format.
 Two-electron integral symmetry is turned on.
 R6Disp:  Grimme-D3 Dispersion energy=       -0.0805464347 Hartrees.
 Nuclear repulsion after empirical dispersion term =     5719.8640798437 Hartrees.
 Leave Link  301 at Wed Apr  6 15:55:08 2016, MaxMem= 10737418240 cpu:         2.8
 (Enter /share/apps//g09/l302.exe)
 NPDir=0 NMtPBC=     1 NCelOv=     1 NCel=       1 NClECP=     1 NCelD=      1
         NCelK=      1 NCelE2=     1 NClLst=     1 CellRange=     0.0.
 One-electron integrals computed using PRISM.
 NBasis=  1144 RedAO= T EigKep=  1.39D-06  NBF=  1144
 NBsUse=  1143 1.00D-06 EigRej=  9.60D-07 NBFU=  1143
 Precomputing XC quadrature grid using
 IXCGrd= 4 IRadAn=           0 IRanWt=          -1 IRanGd=           0 AccXCQ= 0.00D+00.
 Generated NRdTot=       0 NPtTot=           0 NUsed=           0 NTot=          32
 NSgBfM=  1039  1043  1043  1048  1058 MxSgAt=    84 MxSgA2=    84.
 Leave Link  302 at Wed Apr  6 15:55:15 2016, MaxMem= 10737418240 cpu:        75.8
 (Enter /share/apps//g09/l303.exe)
 DipDrv:  MaxL=1.
 Leave Link  303 at Wed Apr  6 15:55:18 2016, MaxMem= 10737418240 cpu:        27.1
 (Enter /share/apps//g09/l401.exe)
 ExpMin= 4.38D-02 ExpMax= 8.59D+03 ExpMxC= 1.30D+03 IAcc=2 IRadAn=         4 AccDes= 0.00D+00
 Harris functional with IExCor= 1009 and IRadAn=       4 diagonalized for initial guess.
 HarFok:  IExCor= 1009 AccDes= 0.00D+00 IRadAn=         4 IDoV= 1 UseB2=F ITyADJ=14
 ICtDFT=  3500011 ScaDFX=  1.000000  1.000000  1.000000  1.000000
 FoFCou: FMM=F IPFlag=           0 FMFlag=      100000 FMFlg1=        2001
         NFxFlg=           0 DoJE=T BraDBF=F KetDBF=T FulRan=T
         wScrn=  0.000000 ICntrl=     500 IOpCl=  0 I1Cent=   200000004 NGrid=           0
         NMat0=    1 NMatS0=      1 NMatT0=    0 NMatD0=    1 NMtDS0=    0 NMtDT0=    0
 Petite list used in FoFCou.
 Harris En= -2159.70177656925    
 JPrj=0 DoOrth=F DoCkMO=F.
 Leave Link  401 at Wed Apr  6 15:55:30 2016, MaxMem= 10737418240 cpu:       212.4
 (Enter /share/apps//g09/l502.exe)
 Closed shell SCF:
 Using DIIS extrapolation, IDIIS=  1040.
 Integral symmetry usage will be decided dynamically.
 IVT=     4256630 IEndB=     4256630 NGot= 10737418240 MDV= 10734581291
 LenX= 10734581291 LenY= 10733178251
 Requested convergence on RMS density matrix=1.00D-08 within 128 cycles.
 Requested convergence on MAX density matrix=1.00D-06.
 Requested convergence on             energy=1.00D-06.
 No special actions if energy rises.
 Fock matrices will be formed incrementally for  20 cycles.

 Cycle   1  Pass 1  IDiag  1:
 FoFJK:  IHMeth= 1 ICntrl=       0 DoSepK=F KAlg= 0 I1Cent=   0 FoldK=F
 IRaf= 750000000 NMat=   1 IRICut=       1 DoRegI=T DoRafI=F ISym2E= 0.
 FoFCou: FMM=T IPFlag=           0 FMFlag=      100000 FMFlg1=        2001
         NFxFlg=           0 DoJE=F BraDBF=F KetDBF=F FulRan=T
         wScrn=  0.000000 ICntrl=       0 IOpCl=  0 I1Cent=           0 NGrid=           0
         NMat0=    1 NMatS0=      1 NMatT0=    0 NMatD0=    1 NMtDS0=    0 NMtDT0=    0
 Symmetry not used in FoFCou.
 FMM levels:  10  Number of levels for PrismC:   9
 E= -2158.69741248015    
 DIIS: error= 1.33D-02 at cycle   1 NSaved=   1.
 NSaved= 1 IEnMin= 1 EnMin= -2158.69741248015     IErMin= 1 ErrMin= 1.33D-02
 ErrMax= 1.33D-02  0.00D+00 EMaxC= 1.00D-01 BMatC= 1.01D+00 BMatP= 1.01D+00
 IDIUse=3 WtCom= 8.67D-01 WtEn= 1.33D-01
 Coeff-Com:  0.100D+01
 Coeff-En:   0.100D+01
 Coeff:      0.100D+01
 Gap=     0.273 Goal=   None    Shift=    0.000
 GapD=    0.273 DampG=1.000 DampE=0.500 DampFc=0.5000 IDamp=-1.
 Damping current iteration by 5.00D-01
 RMSDP=8.68D-03 MaxDP=1.94D+00              OVMax= 1.33D-01

 Cycle   2  Pass 1  IDiag  1:
 RMSU=  4.31D-03    CP:  1.01D+00
 E= -2158.97775042405     Delta-E=       -0.280337943899 Rises=F Damp=T
 DIIS: error= 2.82D-03 at cycle   2 NSaved=   2.
 NSaved= 2 IEnMin= 2 EnMin= -2158.97775042405     IErMin= 2 ErrMin= 2.82D-03
 ErrMax= 2.82D-03  0.00D+00 EMaxC= 1.00D-01 BMatC= 7.97D-02 BMatP= 1.01D+00
 IDIUse=3 WtCom= 9.72D-01 WtEn= 2.82D-02
 Coeff-Com:  0.565D-01 0.944D+00
 Coeff-En:   0.152D+00 0.848D+00
 Coeff:      0.591D-01 0.941D+00
 Gap=     0.297 Goal=   None    Shift=    0.000
 RMSDP=4.06D-03 MaxDP=1.41D+00 DE=-2.80D-01 OVMax= 8.41D-02

 Cycle   3  Pass 1  IDiag  1:
 RMSU=  2.56D-03    CP:  9.39D-01  9.45D-01
 E= -2159.34090970637     Delta-E=       -0.363159282318 Rises=F Damp=F
 DIIS: error= 2.84D-03 at cycle   3 NSaved=   3.
 NSaved= 3 IEnMin= 3 EnMin= -2159.34090970637     IErMin= 2 ErrMin= 2.82D-03
 ErrMax= 2.84D-03  0.00D+00 EMaxC= 1.00D-01 BMatC= 4.33D-02 BMatP= 7.97D-02
 IDIUse=3 WtCom= 9.72D-01 WtEn= 2.84D-02
 Coeff-Com: -0.693D-01 0.406D+00 0.663D+00
 Coeff-En:   0.000D+00 0.000D+00 0.100D+01
 Coeff:     -0.673D-01 0.395D+00 0.673D+00
 Gap=     0.282 Goal=   None    Shift=    0.000
 RMSDP=1.28D-03 MaxDP=4.84D-01 DE=-3.63D-01 OVMax= 1.56D-02

 Cycle   4  Pass 1  IDiag  1:
 RMSU=  1.04D-03    CP:  9.53D-01  1.03D+00  9.00D-01
 E= -2159.36812973969     Delta-E=       -0.027220033326 Rises=F Damp=F
 DIIS: error= 9.85D-04 at cycle   4 NSaved=   4.
 NSaved= 4 IEnMin= 4 EnMin= -2159.36812973969     IErMin= 4 ErrMin= 9.85D-04
 ErrMax= 9.85D-04  0.00D+00 EMaxC= 1.00D-01 BMatC= 5.42D-03 BMatP= 4.33D-02
 IDIUse=3 WtCom= 9.90D-01 WtEn= 9.85D-03
 Coeff-Com: -0.364D-01 0.125D+00 0.338D+00 0.573D+00
 Coeff-En:   0.000D+00 0.000D+00 0.592D-01 0.941D+00
 Coeff:     -0.361D-01 0.124D+00 0.336D+00 0.577D+00
 Gap=     0.274 Goal=   None    Shift=    0.000
 RMSDP=1.09D-03 MaxDP=4.61D-01 DE=-2.72D-02 OVMax= 5.47D-03

 Cycle   5  Pass 1  IDiag  1:
 RMSU=  2.89D-04    CP:  9.31D-01  9.99D-01  8.92D-01  5.69D-01
 E= -2159.37273218507     Delta-E=       -0.004602445373 Rises=F Damp=F
 DIIS: error= 2.77D-04 at cycle   5 NSaved=   5.
 NSaved= 5 IEnMin= 5 EnMin= -2159.37273218507     IErMin= 5 ErrMin= 2.77D-04
 ErrMax= 2.77D-04  0.00D+00 EMaxC= 1.00D-01 BMatC= 2.63D-04 BMatP= 5.42D-03
 IDIUse=3 WtCom= 9.97D-01 WtEn= 2.77D-03
 Coeff-Com: -0.115D-01 0.258D-01 0.997D-01 0.252D+00 0.633D+00
 Coeff-En:   0.000D+00 0.000D+00 0.000D+00 0.000D+00 0.100D+01
 Coeff:     -0.114D-01 0.258D-01 0.994D-01 0.252D+00 0.635D+00
 Gap=     0.274 Goal=   None    Shift=    0.000
 RMSDP=2.15D-04 MaxDP=9.76D-02 DE=-4.60D-03 OVMax= 1.54D-03

 Cycle   6  Pass 1  IDiag  1:
 RMSU=  7.26D-05    CP:  9.35D-01  1.01D+00  9.05D-01  5.99D-01  6.84D-01
 E= -2159.37293149777     Delta-E=       -0.000199312702 Rises=F Damp=F
 DIIS: error= 5.85D-05 at cycle   6 NSaved=   6.
 NSaved= 6 IEnMin= 6 EnMin= -2159.37293149777     IErMin= 6 ErrMin= 5.85D-05
 ErrMax= 5.85D-05  0.00D+00 EMaxC= 1.00D-01 BMatC= 1.81D-05 BMatP= 2.63D-04
[...]
 0271,-0.00001362,0.00001513,-0.00003195,-0.00005087,-0.00009480,-0.000
 07500,-0.00010703,-0.00005606,-0.00007428,-0.00025361,0.00023848,0.000
 01960,-0.00002044,0.00012131,0.00001747,0.00029281,-0.00132518,0.00067
 095,0.00032716,0.00019838,-0.00027748,-0.00002230,0.00009268,-0.000436
 24,-0.00020726,-0.00515634,-0.00223980,-0.00319430,0.00043925,0.001077
 60,0.00289846,-0.00007623,-0.00016562,0.00014484,-0.00001951,-0.000006
 79,0.00002572,-0.00068956,0.00033906,-0.00028486,0.00038965,0.00005232
 ,0.00041312,0.00003920,-0.00004889,-0.00013916,0.00005029,-0.00018464,
 -0.00000408,-0.00023153,0.00029752,-0.00035702,0.00034319,-0.00043985,
 -0.00026823,-0.00000573,0.00000069,0.00002014,-0.00001058,0.00001566,0
 .00000683,0.00006075,0.00004469,0.00003742,-0.00008422,0.00003529,0.00
 007996,-0.00032878,-0.00012052,-0.00010763,0.00003439,0.00006449,0.000
 13194,-0.00008779,0.00005324,0.00005077,-0.00205301,-0.00139374,0.0000
 5976,-0.00010436,-0.00000763,0.00002484,0.00001198,-0.00003403,0.00005
 504,0.00001497,0.00002625,-0.00000592,-0.00045112,0.00007195,0.0004851
 5,0.00003619,0.00087653,-0.00046857,-0.00004224,-0.00004396,-0.0000566
 8,-0.00000548,-0.00001350,-0.00003178,-0.00025337,0.00029669,-0.000125
 01,-0.00006639,-0.00015019,0.00001236,0.00002414,-0.00003618,0.0000475
 1,0.00009551,-0.00002971,-0.00050028,-0.00001176,0.00004393,0.00012398
 ,0.00006614,-0.00002259,0.00022823,0.00014810,-0.00005289,-0.00012262,
 -0.00005169,-0.00004001,0.00002149,-0.00016258,-0.00007882,-0.00001293
 ,0.00084256,-0.00070262,-0.00006304,0.00021023,0.00054483,-0.00068995,
 -0.00001991,-0.00037722,-0.00020657,-0.00003213,0.00416366,0.03313152,
 -0.00518146,0.00317919,0.00096617,0.00027989,-0.00081733,0.00036720,-0
 .06368375,-0.00033515,-0.00109579,0.00017462,-0.00218929,-0.00230388,0
 .06970751,-0.00023075,-0.00006968,0.00007258,0.00021191,0.00001986,-0.
 00030551,0.00009338,-0.00002008,-0.00002417,0.00000914,0.00010609,-0.0
 0000785,0.00001494,-0.00000254,-0.00003228,0.00009232,0.00010549,0.000
 01065,-0.00000129,-0.00003085,-0.00000986,-0.00001291,-0.00000601,0.00
 001301,0.00000353,0.00002084,0.00000326,-0.00001302,-0.00000964,0.0000
 0938,0.00000077,-0.00000479,-0.00000485,-0.00002501,-0.00003192,0.0000
 4077,-0.00002158,-0.00011976,0.00003204,-0.00013389,-0.00012383,0.0001
 7757,-0.00035698,-0.00019392,0.00027564,0.00004874,0.00001698,-0.00000
 738,-0.00000188,-0.00000268,-0.00000313,0.00000209,-0.00000212,0.00000
 029,-0.00006626,-0.00003676,0.00000654,0.00001314,0.00000463,0.0000012
 7,0.00000932,0.00001400,-0.00001148,0.00001060,0.00002314,-0.00000941,
 -0.00002086,0.00007391,0.00002058,-0.00143129,-0.00001221,-0.00064809,
 0.00121940,0.00016264,0.00100970,0.00007366,0.00021508,0.00002202,0.00
 032212,0.00006975,-0.00005277,0.00014801,0.00000706,-0.00033914,0.0006
 5155,0.00008505,0.00017840,-0.00014627,-0.00001544,-0.00003627,-0.0000
 0904,0.00001848,0.00006056,-0.00001938,-0.00002041,-0.00002884,0.00001
 318,-0.00001050,-0.00003855,-0.00020523,0.00007235,-0.00000790,-0.0013
 0577,-0.00070260,0.00065395,-0.00029032,-0.00021294,-0.00012954,-0.000
 06766,-0.00051137,-0.00085359,0.00100041,-0.00389037,-0.00238044,-0.00
 017251,-0.00004801,-0.00017571,-0.00017463,0.00055454,0.00051369,-0.00
 242647,-0.00642882,0.00573520,0.00183751,0.00406555,0.00249743,0.00001
 083,0.00034507,-0.00028747,0.00002422,0.00003621,0.00002705,0.00065649
 ,-0.00045427,0.00018637,-0.00034398,0.00037185,-0.00042064,-0.00013291
 ,0.00009605,0.00002892,-0.00003624,0.00000813,0.00008024,-0.00016988,0
 .00043825,0.00024161,-0.00044193,0.00060435,0.00013939,0.00004620,-0.0
 0004750,0.00004105,-0.00000716,-0.00003391,-0.00000639,0.00001707,-0.0
 0001505,-0.00000436,0.00005201,-0.00010155,-0.00001894,-0.00004565,0.0
 0018003,0.00008023,0.00009718,-0.00014235,-0.00022400,0.00015352,-0.00
 011088,0.00001905,-0.00010974,-0.00075242,0.00063287,0.00023605,0.0003
 6052,0.00040179,-0.00006750,0.00007456,-0.00013160,-0.00006840,-0.0000
 3623,-0.00006741,0.00012607,-0.00113210,-0.00259882,0.00094281,-0.0011
 6197,0.00105800,-0.00000943,0.00013175,0.00018706,-0.00001397,0.000023
 46,0.00001263,-0.00034202,0.00022173,-0.00011317,0.00007091,-0.0000414
 2,0.00000997,0.00004304,-0.00002211,0.00008891,0.00009265,-0.00010629,
 -0.00062427,0.00006625,0.00018314,0.00022371,-0.00024078,-0.00016336,0
 .00046510,-0.00008061,-0.00037293,-0.00011488,0.00001421,0.00007702,0.
 00004166,0.00006447,0.00009818,0.00019678,-0.00076690,0.00009912,-0.00
 157280,0.00020738,-0.00026439,0.00079920,-0.00008633,0.00040109,0.0004
 9503,0.00108156,-0.00353671,-0.01502322,0.00164873,-0.00045951,-0.0001
 0677,-0.00095910,0.00080650,0.00074639,0.00054399,-0.07002524,-0.04751
 698,-0.00149715,0.01104249,0.03458967,-0.00226476,0.07338994,-0.000579
 19,-0.00011251,0.00012674,0.00054723,-0.00000181,-0.00060495,0.0004073
 0,-0.00010432,-0.00009081,0.00002730,0.00020770,-0.00003043,0.00006042
 ,-0.00003482,-0.00008153,0.00022082,0.00022936,0.00006097,0.00000179,-
 0.00007196,-0.00002636,-0.00005754,0.00000073,0.00003955,0.00002751,0.
 00004034,0.00001391,-0.00003084,-0.00002286,0.00002366,0.00000131,-0.0
 0001732,-0.00001531,-0.00010343,-0.00004568,0.00010894,-0.00011727,-0.
 00023525,0.00007932,-0.00052701,-0.00019365,0.00054368,-0.00081677,-0.
 00028698,0.00041664,0.00012493,0.00003014,-0.00001615,-0.00000300,-0.0
 0000797,-0.00000658,-0.00000473,0.00000103,-0.00000162,-0.00017288,-0.
 00007269,0.00000573,0.00003671,0.00000931,0.00000759,0.00003432,0.0000
 2475,-0.00002832,0.00004487,0.00005458,-0.00003475,0.00001528,0.000146
 19,-0.00002317,-0.00226280,0.00003174,-0.00264634,0.00191879,0.0000976
 3,0.00205176,0.00027547,0.00020475,0.00015029,0.00070549,0.00020296,0.
 00001809,0.00075306,-0.00088051,-0.00074770,0.00170507,0.00138130,0.00
 218532,-0.00012033,-0.00005424,-0.00008690,0.00007865,0.00004427,0.000
 18306,-0.00010143,-0.00002007,-0.00006003,-0.00000503,0.00019085,-0.00
 011963,-0.00086228,0.00012307,-0.00026794,-0.00304331,-0.00054374,0.00
 160110,-0.00062210,-0.00033289,-0.00048888,0.00002854,-0.00095841,-0.0
 0210432,0.00283926,-0.01147171,0.00290605,-0.00011699,0.00098519,-0.00
 007971,-0.00101218,0.00288565,0.00132856,-0.00354487,0.01085111,-0.000
 08404,0.00354682,0.00370240,-0.00329772,0.00024692,0.00083884,-0.00078
 943,0.00009438,0.00007036,0.00011784,0.00110513,-0.00067980,0.00028293
 ,-0.00102459,0.00069519,-0.00128778,-0.00030203,-0.00000439,0.00013474
 ,-0.00021938,-0.00031548,0.00039476,-0.00047282,0.00110919,0.00055253,
 -0.00070842,0.00083902,0.00027249,0.00007780,-0.00003621,0.00010452,0.
 00000809,-0.00002401,0.00000833,0.00007512,0.00003227,-0.00001488,0.00
 016380,-0.00003964,-0.00000167,-0.00033006,0.00005842,0.00033157,0.000
 33969,-0.00006716,-0.00078561,0.00042116,-0.00011237,0.00008140,0.0030
 5623,0.00144116,0.00127287,-0.00057261,-0.00021086,-0.00107174,0.00001
 995,0.00009812,-0.00000462,0.00027948,-0.00015780,0.00026981,0.0020756
 8,-0.00310898,0.00032674,-0.00064262,0.00067989,0.00207303,-0.00005242
 ,0.00028236,0.00048041,-0.00003778,0.00000807,0.00001494,-0.00002643,-
 0.00115969,0.00036730,0.00019205,0.00021995,-0.00004090,-0.00002970,0.
 00018821,-0.00000542,-0.00021905,0.00016763,0.00014194,0.00008861,0.00
 018157,0.00004232,-0.00005952,-0.00009709,0.00028903,-0.00010448,0.000
 03206,-0.00054187,0.00012192,0.00024796,0.00000566,-0.00000579,-0.0002
 2868,-0.00022435,-0.00119687,-0.00111734,0.00224699,0.00028055,-0.0000
 5536,-0.00048397,-0.00003256,0.00077582,-0.00018554,0.00748975,-0.0036
 5658,-0.00180866,-0.00153106,0.00108382,0.00191988,-0.00096850,0.00070
 386,0.00058012,0.00196360,-0.04516872,-0.34130810,-0.00278183,0.002046
 05,-0.01588945,-0.00086291,0.04051074,0.35472108,-0.00010228,-0.000029
 93,-0.00004030,0.00008799,0.00002194,0.00005807,0.00014442,-0.00002784
 ,-0.00002847,0.00001519,0.00001769,0.00006638,0.00000323,-0.00001460,0
 .00003080,0.00004864,0.00005760,0.00007122,0.00000045,-0.00002561,-0.0
 0001712,-0.00001956,0.00000522,-0.00000058,0.00000733,0.00000315,-0.00
 000231,-0.00001467,-0.00000842,0.00000521,-0.00000731,-0.00000658,-0.0
 0002381,-0.00001175,-0.00000142,-0.00005211,-0.00005261,-0.00001488,-0
 .00004328,-0.00018867,-0.00003222,0.00006755,-0.00023405,-0.00007862,-
 0.00015567,0.00001060,0.00000286,0.00000893,0.00000114,-0.00000207,-0.
 00001044,-0.00000360,0.00000657,0.00000442,-0.00001925,-0.00000881,-0.
 00003029,0.00000140,0.00000124,0.00001762,0.00000290,0.00000132,0.0000
 1074,0.00001803,0.00000319,0.00000968,0.00004860,0.00003065,0.00001703
 ,-0.00151155,-0.00023265,-0.00059292,0.00128685,0.00027834,0.00156543,
 -0.00000255,0.00028462,0.00000173,0.00025480,-0.00000089,0.00014539,0.
 00017337,-0.00011355,-0.00016779,0.00040822,0.00021221,0.00055705,-0.0
 0010277,-0.00006229,-0.00013561,0.00003185,-0.00001951,0.00016260,-0.0
 0001970,-0.00001687,-0.00005488,-0.00002189,0.00002346,-0.00004963,-0.
 00013773,0.00001004,-0.00008120,-0.00082405,-0.00014305,0.00023487,-0.
 00017688,-0.00035387,-0.00037173,0.00036496,-0.00159399,-0.00135439,0.
 00060012,-0.00162486,-0.00020626,-0.00001138,-0.00006523,-0.00008142,-
 0.00014610,0.00034198,0.00020933,-0.00124640,0.00165586,0.00334871,0.0
 0087279,0.00060908,-0.00038197,0.00011039,0.00015986,-0.00010352,-0.00
 002588,0.00004331,0.00012214,-0.00132003,-0.00377423,0.00019387,-0.002
 05357,0.00882319,-0.00928907,-0.00124293,-0.00058844,0.00083160,-0.000
 36792,0.00008579,0.00055482,-0.00076590,0.00139676,-0.00028938,-0.0010
 1992,0.00210030,0.00008416,0.00065044,-0.00033344,0.00135653,-0.000195
 28,-0.00007554,0.00006091,0.00020177,-0.00003617,-0.00002890,0.0000677
 3,-0.00032409,0.00004274,-0.00084528,0.00118769,0.00114817,0.00053071,
 -0.00031659,-0.00070643,0.00162325,-0.00044131,0.00078226,-0.00164612,
 0.00324337,0.00335715,0.00173096,0.00029964,0.00187857,-0.00007603,-0.
 00002960,-0.00009792,-0.00043987,-0.00005175,-0.00036247,-0.00327192,0
 .00233221,-0.00165420,0.00069025,-0.00003023,-0.00028816,-0.00013834,0
 .00026820,0.00046019,-0.00002667,-0.00011463,0.00006573,0.00290055,-0.
 00788413,0.00473622,0.00016862,0.00167931,-0.00045820,0.00015068,0.002
 04875,0.00000738,0.00098986,0.00005797,0.00028872,-0.00065891,0.000144
 62,-0.00028245,0.00044666,-0.00042222,-0.00016527,0.00087770,0.0010443
 5,0.00024293,-0.00032505,-0.00030816,0.00000949,0.00015201,0.00002584,
 0.00005736,0.00179939,0.00039115,-0.00139342,-0.00022429,0.00010887,-0
 .00008859,0.00010567,-0.00115420,0.00027346,-0.02789989,-0.00860885,-0
 .00395266,0.00114924,-0.00083010,-0.00018705,-0.00111657,0.00187626,0.
 00161492,-0.24431219,-0.12315396,-0.05689775,0.00740903,-0.00315317,0.
 00342136,0.00676512,0.00284608,-0.00521546,0.25992444,-0.00012703,-0.0
 0005430,0.00003120,0.00010725,0.00001853,-0.00014715,0.00004886,-0.000
 00261,-0.00000822,0.00000866,0.00006673,0.00002283,0.00000272,0.000003
 75,0.00000064,0.00005694,0.00007167,0.00001835,-0.00000273,-0.00001981
 ,-0.00000585,-0.00000656,-0.00000650,0.00000414,0.00000060,0.00001637,
 -0.00000065,-0.00001206,-0.00000697,0.00000566,-0.00000058,-0.00000011
 ,-0.00000953,-0.00000334,-0.00002524,-0.00000452,-0.00001469,-0.000074
 81,-0.00000383,-0.00007879,-0.00007622,0.00006393,-0.00018170,-0.00013
 335,0.00016796,0.00002386,0.00001477,-0.00000166,-0.00000121,-0.000001
 81,-0.00000507,0.00000284,-0.00000108,0.00000240,-0.00003298,-0.000026
 13,-0.00000511,0.00000472,0.00000366,0.00000549,0.00000193,0.00001028,
 -0.00000071,0.00000719,0.00001238,0.00000349,0.00000369,0.00004637,0.0
 0002492,-0.00079820,0.00011257,0.00028691,0.00085989,0.00004256,0.0002
 7459,0.00013866,0.00013764,0.00002638,0.00015606,0.00005959,-0.0000835
 7,0.00006499,0.00007715,-0.00008953,-0.00001826,0.00008047,-0.00021138
 ,-0.00009176,0.00000131,-0.00000871,0.00002448,0.00007273,0.00004778,-
 0.00000308,-0.00001715,-0.00001633,-0.00000814,-0.00002046,0.00000479,
 -0.00005733,0.00003619,0.00004443,-0.00037317,-0.00030665,0.00023037,-
 0.00024022,-0.00022205,-0.00012016,-0.00038963,-0.00035212,-0.00034376
 ,0.00019509,-0.00076979,-0.00004999,-0.00004075,-0.00001544,-0.0000229
 4,-0.00004705,0.00016705,0.00011967,-0.00025371,0.00089273,0.00164673,
 0.00035327,0.00041664,-0.00034368,0.00006451,0.00017958,-0.00010672,0.
 00000504,0.00004018,0.00002710,-0.00235546,-0.00365606,-0.00170884,0.0
 0160386,0.01049842,-0.00662006,-0.00095119,-0.00072845,0.00137392,-0.0
 0010986,0.00089184,0.00008918,0.00045375,-0.00030889,0.00047464,0.0003
 5414,0.00001659,0.00083885,0.00046461,-0.00036292,0.00074263,-0.000343
 61,-0.00012549,0.00002050,-0.00007455,-0.00018283,-0.00009670,-0.00000
 955,-0.00002602,-0.00012817,0.00085782,0.00051015,-0.00033694,0.000127
 28,-0.00054021,-0.00026732,0.00146339,-0.00049924,0.00047126,0.0048104
 6,-0.00522566,0.00737324,0.00133654,-0.00060240,0.00131132,-0.00005335
 ,0.00000425,-0.00009855,-0.00024904,0.00003903,-0.00016069,-0.00051730
 ,0.00263511,-0.00052367,0.00034436,-0.00065752,-0.00052351,0.00000816,
 0.00017228,0.00022650,0.00002897,-0.00006590,0.00020473,-0.00163374,-0
 .00643546,0.00074935,0.00028584,0.00093985,-0.00028445,0.00006965,0.00
 057191,0.00017376,-0.00057090,-0.00146782,0.00021634,-0.00022860,0.000
 46856,0.00009542,-0.00019087,-0.00033052,0.00069792,0.00072245,-0.0007
 2326,-0.00018441,-0.00037766,0.00018992,-0.00013072,0.00017554,-0.0002
 5080,-0.00043998,0.00143773,0.00120165,0.00042590,-0.00013561,-0.00014
 279,0.00006623,-0.00042943,-0.00029308,0.00001586,0.01622123,0.0153019
 7,0.00819338,-0.00018624,-0.00010307,-0.00027762,0.00495492,-0.0025921
 7,-0.00186249,-0.12379019,-0.14428480,-0.04080001,-0.02587948,-0.01950
 401,-0.00889830,0.00063967,-0.00313747,-0.00204607,0.12237802,0.158357
 00,-0.00010525,-0.00001715,0.00000625,0.00009500,-0.00000678,-0.000068
 67,0.00009387,-0.00002073,-0.00001773,0.00000915,0.00002249,0.00000444
 ,0.00001374,-0.00000879,-0.00000232,0.00004165,0.00004203,0.00002823,-
 0.00000050,-0.00001242,-0.00000530,-0.00001255,0.00000164,0.00000616,0
 .00001000,0.00000609,0.00000196,-0.00000679,-0.00000572,0.00000465,-0.
 00000032,-0.00000345,-0.00000824,-0.00002266,-0.00000299,0.00000300,-0
 .00003605,-0.00002684,0.00000218,-0.00011960,-0.00001337,0.00009249,-0
 .00012951,-0.00002733,0.00002946,0.00002222,0.00000534,0.00000041,-0.0
 0000048,-0.00000183,-0.00000344,-0.00000228,0.00000242,0.00000078,-0.0
 0003145,-0.00001163,-0.00000896,0.00000606,0.00000163,0.00000688,0.000
 00697,0.00000282,-0.00000035,0.00001292,0.00000748,-0.00000322,0.00001
 870,0.00001711,-0.00001185,-0.00067970,0.00027625,-0.00017705,0.000774
 63,0.00000420,0.00073293,0.00017669,-0.00003755,-0.00003380,0.00011279
 ,0.00005222,-0.00000713,0.00011459,-0.00022884,-0.00005313,0.00003386,
 -0.00006723,-0.00004310,-0.00008503,0.00000256,-0.00006014,0.00008562,
 0.00004799,0.00005276,-0.00002215,0.00000306,-0.00000171,-0.00002081,0
 .00004649,0.00000970,-0.00002225,0.00003355,0.00001451,-0.00024961,0.0
 0013990,0.00023523,-0.00024028,-0.00011284,-0.00015702,-0.00005636,-0.
 00040218,-0.00090763,0.00027682,-0.00048565,-0.00016097,-0.00002692,0.
 00002979,0.00003094,-0.00004867,0.00009580,0.00007507,0.00080620,0.000
 87513,-0.00042664,0.00002520,-0.00028089,-0.00080870,0.00009430,0.0001
 0924,-0.00012682,0.00001056,0.00001597,0.00003538,0.00140904,-0.002258
 78,0.00038935,-0.00422464,0.00028599,-0.00520129,-0.00044331,-0.000155
 08,0.00038927,-0.00028305,0.00031395,0.00031953,0.00016378,-0.00017070
 ,0.00068859,-0.00119675,0.00226089,0.00077717,0.00003383,0.00009402,0.
 00004474,0.00000680,-0.00003008,0.00000751,-0.00002695,-0.00009250,-0.
 00009350,0.00028672,-0.00034574,-0.00016598,0.00055935,0.00001096,0.00
 017698,0.00020733,-0.00014627,-0.00053529,0.00075934,-0.00020209,0.000
 24436,0.00218312,0.00566909,-0.00354463,0.00070859,0.00028674,0.000848
 06,0.00001522,0.00007674,-0.00007856,-0.00023196,-0.00009880,-0.000208
 48,-0.00152543,0.00068841,-0.00119576,0.00004346,-0.00027132,0.0001099
 6,-0.00002334,0.00014021,0.00022915,-0.00001862,-0.00001778,0.00006586
 ,0.00233199,-0.00396928,0.00204614,0.00023367,0.00138400,-0.00026659,-
 0.00002014,0.00059834,-0.00016754,0.00013813,0.00042989,0.00174475,-0.
 00025153,-0.00017411,-0.00061135,0.00008852,0.00005481,-0.00112670,-0.
 00006074,0.00016845,0.00104084,-0.00016409,-0.00001823,-0.00037132,0.0
 0017480,-0.00023904,-0.00074595,-0.00064617,0.00039331,0.00008313,-0.0
 0020020,0.00001992,-0.00025471,-0.00001304,-0.00018064,-0.00016401,0.0
 0835087,0.00956894,0.00505554,0.00090013,0.00031807,-0.00047298,0.0027
 6187,-0.00183875,-0.00071125,-0.05827209,-0.04186506,-0.08194363,0.017
 06168,0.00778710,0.00566973,-0.02889808,-0.01869945,-0.00349697,0.0571
 5961,0.04015688,0.08314638\\0.00001203,-0.00000330,-0.00000049,-0.0000
 1926,0.00000401,0.00001323,0.00000981,0.00000797,-0.00000888,0.0000031
 5,-0.00000779,0.00000122,0.00000040,-0.00000028,0.00000562,-0.00000456
 ,-0.00000360,-0.00000225,0.00000165,0.00000161,-0.00000228,-0.00000197
 ,0.00000017,0.00000172,0.00000266,-0.00000099,0.00000133,0.00000090,-0
 .00000214,0.00000010,0.00000068,-0.00000205,0.00000068,-0.00000229,0.0
 0000113,-0.00000171,0.00000027,0.00000579,-0.00000096,0.00000202,-0.00
 000039,0.00001473,0.00000695,0.00000604,-0.00000959,-0.00000027,-0.000
 00037,0.00000096,0.00000027,-0.00000222,0.00000012,-0.00000046,-0.0000
 0348,-0.00000100,0.00000227,-0.00000374,0.00000047,0.00000141,-0.00000
 351,0.00000035,0.00000179,0.00000100,0.00000264,0.00000260,0.00000152,
 -0.00000153,0.00000141,0.00000363,0.00000236,-0.00000070,0.00000039,0.
 00000391,-0.00000521,-0.00000193,-0.00001560,-0.00000229,-0.00000021,-
 0.00000072,-0.00000742,-0.00000863,0.00000419,0.00000553,0.00000238,-0
 .00000218,-0.00000253,-0.00000209,-0.00000911,-0.00000396,0.00000030,0
 .00000042,-0.00000025,-0.00000148,0.00000030,-0.00000331,0.00000189,-0
 .00000283,-0.00000319,0.00000149,0.00000022,-0.00000220,0.00000270,-0.
 00000069,-0.00000327,0.00000262,0.00000498,0.00000368,-0.00000186,0.00
 000317,0.00000319,0.00000499,0.00000853,0.00000066,0.00000381,-0.00000
 021,-0.00000271,0.00000211,-0.00000234,-0.00000117,0.00000298,-0.00000
 185,-0.00001508,-0.00000637,0.00000192,0.00000491,0.00001068,-0.000001
 28,0.00000099,0.00000029,-0.00001471,-0.00000128,-0.00000265,-0.000003
 80,-0.00000841,-0.00001062,0.00000094,0.00001324,0.00001389,-0.0000015
 7,-0.00000569,-0.00000168,-0.00001125,-0.00000565,-0.00001167,0.000013
 61,0.00000028,-0.00001055,-0.00000615,-0.00000216,-0.00000127,0.000000
 71,0.00000135,-0.00000333,0.00000039,0.00000195,-0.00000426,0.00000136
 ,-0.00000073,-0.00000083,-0.00000249,-0.00000402,-0.00000190,-0.000000
 51,0.00000001,0.00000064,0.00000125,0.00000956,0.00000580,-0.00000500,
 0.00000185,-0.00000925,0.00000750,-0.00000728,-0.00000705,-0.00000229,
 0.00000431,-0.00000445,0.00000635,-0.00000286,-0.00000500,-0.00000359,
 -0.00000050,0.00000158,-0.00000461,-0.00001416,0.00002095,-0.00000006,
 0.00000152,-0.00000832,0.00000050,-0.00000768,-0.00000460,-0.00000184,
 0.00000017,-0.00000149,0.00000054,0.00000482,0.00000345,0.00000250,0.0
 0000238,-0.00000166,0.00000233,0.00000126,-0.00000125,0.00000131,0.000
 00307,-0.00000018,-0.00000068,0.00000344,0.00000118,0.00000241,0.00000
 181,0.00000174,0.00000188,0.00000230,0.00000166,0.00000304,0.00000357,
 0.00000170,0.00000174,0.00000226,0.00000105,0.00000097,0.00000201,0.00
 000261,-0.00000047,0.00000164,0.00000268,0.00000123,0.00000243,0.00000
 354,0.00000044,-0.00000256,0.00000234,-0.00000588,0.00000034,0.0000013
 9,-0.00000043,0.00000073,0.00000312,-0.00000025,0.00000571,0.00001460,
 0.00000747,0.00000304,-0.00000724,-0.00001142,-0.00000243,-0.00000066,
 0.00000017,0.00000322,0.00000292,0.00001069\\\@


 CONTRAIWISE...CONTINUED TWEEDLEDEE, IF IT WAS SO, IT MIGHT BE,
 AND IF IT WERE SO, IT WOULD BE.....
 BUT AS IT ISN'T, IT AIN'T....
 THAT'S LOGIC.....
 ALICE THROUGH THE LOOKING GLASS
 Job cpu time:      15 days  2 hours 39 minutes  5.8 seconds.
 File lengths (MBytes):  RWF=  17385 Int=      0 D2E=      0 Chk=     98 Scr=      1
 Normal termination of Gaussian 09 at Fri Apr  8 06:22:37 2016.
