 Entering Gaussian System, Link 0=g16
 Input=input.com
 Output=input.log
 Initial command:
 /home/matma/Programs/gaussian/G16_x86_SSE4/tar/g16/l1.exe "/scratch-data/gaussian/Gau-4272.inp" -scrdir="/scratch-data/gaussian/"
 Entering Link 1 = /home/matma/Programs/gaussian/G16_x86_SSE4/tar/g16/l1.exe PID=      4274.
  
 Copyright (c) 1988-2017, Gaussian, Inc.  All Rights Reserved.
  
 This is part of the Gaussian(R) 16 program.  It is based on
 the Gaussian(R) 09 system (copyright 2009, Gaussian, Inc.),
 the Gaussian(R) 03 system (copyright 2003, Gaussian, Inc.),
 the Gaussian(R) 98 system (copyright 1998, Gaussian, Inc.),
 the Gaussian(R) 94 system (copyright 1995, Gaussian, Inc.),
 the Gaussian 92(TM) system (copyright 1992, Gaussian, Inc.),
 the Gaussian 90(TM) system (copyright 1990, Gaussian, Inc.),
 the Gaussian 88(TM) system (copyright 1988, Gaussian, Inc.),
 the Gaussian 86(TM) system (copyright 1986, Carnegie Mellon
 University), and the Gaussian 82(TM) system (copyright 1983,
 Carnegie Mellon University). Gaussian is a federally registered
 trademark of Gaussian, Inc.
  
 This software contains proprietary and confidential information,
 including trade secrets, belonging to Gaussian, Inc.
  
 This software is provided under written license and may be
 used, copied, transmitted, or stored only in accord with that
 written license.
  
 The following legend is applicable only to US Government
 contracts under FAR:
  
                    RESTRICTED RIGHTS LEGEND
  
 Use, reproduction and disclosure by the US Government is
 subject to restrictions as set forth in subparagraphs (a)
 and (c) of the Commercial Computer Software - Restricted
 Rights clause in FAR 52.227-19.
  
 Gaussian, Inc.
 340 Quinnipiac St., Bldg. 40, Wallingford CT 06492
  
  
 ---------------------------------------------------------------
 Warning -- This program may not be used in any manner that
 competes with the business of Gaussian, Inc. or will provide
 assistance to any competitor of Gaussian, Inc.  The licensee
 of this program is prohibited from giving any competitor of
 Gaussian, Inc. access to this program.  By using this program,
 the user acknowledges that Gaussian, Inc. is engaged in the
 business of creating and licensing software in the field of
 computational chemistry and represents and warrants to the
 licensee that it is not a competitor of Gaussian, Inc. and that
 it will not use this program in any manner prohibited above.
 ---------------------------------------------------------------
  

 Cite this work as:
 Gaussian 16, Revision B.01,
 M. J. Frisch, G. W. Trucks, H. B. Schlegel, G. E. Scuseria, 
 M. A. Robb, J. R. Cheeseman, G. Scalmani, V. Barone, 
 G. A. Petersson, H. Nakatsuji, X. Li, M. Caricato, A. V. Marenich, 
 J. Bloino, B. G. Janesko, R. Gomperts, B. Mennucci, H. P. Hratchian, 
 J. V. Ortiz, A. F. Izmaylov, J. L. Sonnenberg, D. Williams-Young, 
 F. Ding, F. Lipparini, F. Egidi, J. Goings, B. Peng, A. Petrone, 
 T. Henderson, D. Ranasinghe, V. G. Zakrzewski, J. Gao, N. Rega, 
 G. Zheng, W. Liang, M. Hada, M. Ehara, K. Toyota, R. Fukuda, 
 J. Hasegawa, M. Ishida, T. Nakajima, Y. Honda, O. Kitao, H. Nakai, 
 T. Vreven, K. Throssell, J. A. Montgomery, Jr., J. E. Peralta, 
 F. Ogliaro, M. J. Bearpark, J. J. Heyd, E. N. Brothers, K. N. Kudin, 
 V. N. Staroverov, T. A. Keith, R. Kobayashi, J. Normand, 
 K. Raghavachari, A. P. Rendell, J. C. Burant, S. S. Iyengar, 
 J. Tomasi, M. Cossi, J. M. Millam, M. Klene, C. Adamo, R. Cammi, 
 J. W. Ochterski, R. L. Martin, K. Morokuma, O. Farkas, 
 J. B. Foresman, and D. J. Fox, Gaussian, Inc., Wallingford CT, 2016.
 
 ******************************************
 Gaussian 16:  ES64L-G16RevB.01 20-Dec-2017
                28-Jun-2021 
 ******************************************
 %nproc=12
 Will use up to   12 processors via shared memory.
 %mem=16GB
 --------------------------------------
 #P pm6 opt=loose freq int=(grid=99590)
 --------------------------------------
 1/7=-1,18=20,19=15,26=1,38=1/1,3;
 2/9=110,12=2,17=6,18=5,40=1/2;
 3/5=2,25=1,41=3900000,71=1,75=99590/1,2,3;
 4/35=1/1;
 5/5=2,35=1,38=5/2;
 6/7=2,8=2,9=2,10=2,28=1/1;
 7//1,2,3,16;
 1/7=-1,18=20,19=15,26=1/3(2);
 2/9=110/2;
 99//99;
 2/9=110/2;
 3/5=2,25=1,41=3900000,71=1,75=99590,135=20/1,2,3;
 4/5=5,16=3,35=1/1;
 5/5=2,35=1,38=5/2;
 7//1,2,3,16;
 1/7=-1,18=20,19=15,26=1/3(-5);
 2/9=110/2;
 6/7=2,8=2,9=2,10=2,19=2,28=1/1;
 99/9=1/99;
 Leave Link    1 at Mon Jun 28 19:19:06 2021, MaxMem=  2147483648 cpu:               0.2 elap:               0.0
 (Enter /home/matma/Programs/gaussian/G16_x86_SSE4/tar/g16/l101.exe)
 ----------
 initial-09
 ----------
 Symbolic Z-matrix:
 Charge =  1 Multiplicity = 1
 C                    -5.324    -1.87      4.02 
 H                    -5.726    -1.811     5.038 
 O                    -5.858    -2.923     3.304 
 H                    -5.679    -3.742     3.774 
 C                    -3.171    -1.056     4.75 
 H                    -2.134    -1.242     4.458 
 O                    -3.915    -2.058     4.061 
 C                    -5.632    -0.584     3.271 
 H                    -6.709    -0.423     3.219 
 N                    -5.102    -0.742     1.924 
 H                    -4.33     -1.389     1.823 
 C                    -5.454    -0.025     0.9 
 O                    -6.381     0.85      1.082 
 C                    -4.785    -0.202    -0.412 
 H                    -4.421    -1.223    -0.535 
 H                    -3.932     0.482    -0.428 
 H                    -5.465     0.051    -1.225 
 C                    -4.986     0.619     3.992 
 H                    -5.065     1.481     3.323 
 O                    -5.695     0.942     5.15 
 H                    -5.401     0.367     5.875 
 C                    -3.493     0.352     4.237 
 H                    -3.118     1.083     4.963 
 O                    -2.783     0.481     3.008 
 C                    -3.202    -1.218     6.257 
 H                    -2.423    -0.574     6.685 
 H                    -2.965    -2.262     6.49 
 O                    -4.481    -0.875     6.782 
 H                    -4.476    -0.949     7.739 
 C                    -1.605    -0.247     2.917 
 H                    -1.244    -0.525     3.923 
 C                     0.611    -0.056     2.128 
 H                     1.01     -0.315     3.123 
 O                    -0.652     0.574     2.281 
 C                    -1.858    -1.509     2.109 
 H                    -2.256    -1.203     1.133 
 O                    -2.787    -2.28      2.832 
 H                    -2.919    -3.101     2.349 
 C                    -0.553    -2.256     1.909 
 H                    -0.212    -2.621     2.888 
 O                    -0.837    -3.343     1.04 
 H                    -0.22     -4.061     1.199 
 C                     0.507    -1.34      1.305 
 H                     1.485    -1.848     1.349 
 O                     0.184    -1.       -0.02 
 H                    -0.125    -1.802    -0.456 
 C                     1.559     0.908     1.46 
 H                     2.214     1.364     2.211 
 H                     0.971     1.708     0.996 
 O                     2.326     0.238     0.47 
 C                     3.588    -0.138     0.956 
 H                     3.659     0.074     2.031 
 C                     4.773     0.415    -1.041 
 H                     3.846     0.742    -1.533 
 O                     4.632     0.583     0.372 
 C                     3.789    -1.617     0.682 
 H                     4.737    -1.903     1.149 
 O                     2.733    -2.381     1.266 
 H                     2.906    -3.3       1.016 
 C                     3.864    -1.897    -0.811 
 H                     2.909    -1.628    -1.272 
 O                     4.048    -3.279    -1.014 
 H                     4.998    -3.444    -0.961 
 C                     4.975    -1.055    -1.421 
 H                     4.931    -1.142    -2.515 
 O                     6.177    -1.614    -0.923 
 H                     6.927    -1.29     -1.425 
 C                     5.922     1.3      -1.464 
 H                     6.088     1.228    -2.543 
 H                     6.836     1.018    -0.937 
 H                     5.707     2.342    -1.219 
 H                    -6.644     1.339     0.238 
 
 ITRead=  0  0  0  0  0  0  0  0  0  0  0  0  0  0  0  0  0  0  0  0
 ITRead=  0  0  0  0  0  0  0  0  0  0  0  0  0  0  0  0  0  0  0  0
 ITRead=  0  0  0  0  0  0  0  0  0  0  0  0  0  0  0  0  0  0  0  0
 ITRead=  0  0  0  0  0  0  0  0  0  0  0  0
 MicOpt= -1 -1 -1 -1 -1 -1 -1 -1 -1 -1 -1 -1 -1 -1 -1 -1 -1 -1 -1 -1
 MicOpt= -1 -1 -1 -1 -1 -1 -1 -1 -1 -1 -1 -1 -1 -1 -1 -1 -1 -1 -1 -1
 MicOpt= -1 -1 -1 -1 -1 -1 -1 -1 -1 -1 -1 -1 -1 -1 -1 -1 -1 -1 -1 -1
 MicOpt= -1 -1 -1 -1 -1 -1 -1 -1 -1 -1 -1 -1
 NAtoms=     72 NQM=       72 NQMF=       0 NMMI=      0 NMMIF=      0
                NMic=       0 NMicF=      0.
                    Isotopes and Nuclear Properties:
 (Nuclear quadrupole moments (NQMom) in fm**2, nuclear magnetic moments (NMagM)
  in nuclear magnetons)

  Atom         1           2           3           4           5           6           7           8           9          10
 IAtWgt=          12           1          16           1          12           1          16          12           1          14
 AtmWgt=  12.0000000   1.0078250  15.9949146   1.0078250  12.0000000   1.0078250  15.9949146  12.0000000   1.0078250  14.0030740
 NucSpn=           0           1           0           1           0           1           0           0           1           2
 AtZEff=  -0.0000000  -0.0000000  -0.0000000  -0.0000000  -0.0000000  -0.0000000  -0.0000000  -0.0000000  -0.0000000  -0.0000000
 NQMom=    0.0000000   0.0000000   0.0000000   0.0000000   0.0000000   0.0000000   0.0000000   0.0000000   0.0000000   2.0440000
 NMagM=    0.0000000   2.7928460   0.0000000   2.7928460   0.0000000   2.7928460   0.0000000   0.0000000   2.7928460   0.4037610
 AtZNuc=   6.0000000   1.0000000   8.0000000   1.0000000   6.0000000   1.0000000   8.0000000   6.0000000   1.0000000   7.0000000

  Atom        11          12          13          14          15          16          17          18          19          20
 IAtWgt=           1          12          16          12           1           1           1          12           1          16
 AtmWgt=   1.0078250  12.0000000  15.9949146  12.0000000   1.0078250   1.0078250   1.0078250  12.0000000   1.0078250  15.9949146
 NucSpn=           1           0           0           0           1           1           1           0           1           0
 AtZEff=  -0.0000000  -0.0000000  -0.0000000  -0.0000000  -0.0000000  -0.0000000  -0.0000000  -0.0000000  -0.0000000  -0.0000000
 NQMom=    0.0000000   0.0000000   0.0000000   0.0000000   0.0000000   0.0000000   0.0000000   0.0000000   0.0000000   0.0000000
 NMagM=    2.7928460   0.0000000   0.0000000   0.0000000   2.7928460   2.7928460   2.7928460   0.0000000   2.7928460   0.0000000
 AtZNuc=   1.0000000   6.0000000   8.0000000   6.0000000   1.0000000   1.0000000   1.0000000   6.0000000   1.0000000   8.0000000

  Atom        21          22          23          24          25          26          27          28          29          30
 IAtWgt=           1          12           1          16          12           1           1          16           1          12
 AtmWgt=   1.0078250  12.0000000   1.0078250  15.9949146  12.0000000   1.0078250   1.0078250  15.9949146   1.0078250  12.0000000
 NucSpn=           1           0           1           0           0           1           1           0           1           0
 AtZEff=  -0.0000000  -0.0000000  -0.0000000  -0.0000000  -0.0000000  -0.0000000  -0.0000000  -0.0000000  -0.0000000  -0.0000000
 NQMom=    0.0000000   0.0000000   0.0000000   0.0000000   0.0000000   0.0000000   0.0000000   0.0000000   0.0000000   0.0000000
 NMagM=    2.7928460   0.0000000   2.7928460   0.0000000   0.0000000   2.7928460   2.7928460   0.0000000   2.7928460   0.0000000
 AtZNuc=   1.0000000   6.0000000   1.0000000   8.0000000   6.0000000   1.0000000   1.0000000   8.0000000   1.0000000   6.0000000

  Atom        31          32          33          34          35          36          37          38          39          40
 IAtWgt=           1          12           1          16          12           1          16           1          12           1
 AtmWgt=   1.0078250  12.0000000   1.0078250  15.9949146  12.0000000   1.0078250  15.9949146   1.0078250  12.0000000   1.0078250
 NucSpn=           1           0           1           0           0           1           0           1           0           1
 AtZEff=  -0.0000000  -0.0000000  -0.0000000  -0.0000000  -0.0000000  -0.0000000  -0.0000000  -0.0000000  -0.0000000  -0.0000000
 NQMom=    0.0000000   0.0000000   0.0000000   0.0000000   0.0000000   0.0000000   0.0000000   0.0000000   0.0000000   0.0000000
 NMagM=    2.7928460   0.0000000   2.7928460   0.0000000   0.0000000   2.7928460   0.0000000   2.7928460   0.0000000   2.7928460
 AtZNuc=   1.0000000   6.0000000   1.0000000   8.0000000   6.0000000   1.0000000   8.0000000   1.0000000   6.0000000   1.0000000

  Atom        41          42          43          44          45          46          47          48          49          50
 IAtWgt=          16           1          12           1          16           1          12           1           1          16
 AtmWgt=  15.9949146   1.0078250  12.0000000   1.0078250  15.9949146   1.0078250  12.0000000   1.0078250   1.0078250  15.9949146
 NucSpn=           0           1           0           1           0           1           0           1           1           0
 AtZEff=  -0.0000000  -0.0000000  -0.0000000  -0.0000000  -0.0000000  -0.0000000  -0.0000000  -0.0000000  -0.0000000  -0.0000000
 NQMom=    0.0000000   0.0000000   0.0000000   0.0000000   0.0000000   0.0000000   0.0000000   0.0000000   0.0000000   0.0000000
 NMagM=    0.0000000   2.7928460   0.0000000   2.7928460   0.0000000   2.7928460   0.0000000   2.7928460   2.7928460   0.0000000
 AtZNuc=   8.0000000   1.0000000   6.0000000   1.0000000   8.0000000   1.0000000   6.0000000   1.0000000   1.0000000   8.0000000

  Atom        51          52          53          54          55          56          57          58          59          60
 IAtWgt=          12           1          12           1          16          12           1          16           1          12
 AtmWgt=  12.0000000   1.0078250  12.0000000   1.0078250  15.9949146  12.0000000   1.0078250  15.9949146   1.0078250  12.0000000
 NucSpn=           0           1           0           1           0           0           1           0           1           0
 AtZEff=  -0.0000000  -0.0000000  -0.0000000  -0.0000000  -0.0000000  -0.0000000  -0.0000000  -0.0000000  -0.0000000  -0.0000000
 NQMom=    0.0000000   0.0000000   0.0000000   0.0000000   0.0000000   0.0000000   0.0000000   0.0000000   0.0000000   0.0000000
 NMagM=    0.0000000   2.7928460   0.0000000   2.7928460   0.0000000   0.0000000   2.7928460   0.0000000   2.7928460   0.0000000
 AtZNuc=   6.0000000   1.0000000   6.0000000   1.0000000   8.0000000   6.0000000   1.0000000   8.0000000   1.0000000   6.0000000

  Atom        61          62          63          64          65          66          67          68          69          70
 IAtWgt=           1          16           1          12           1          16           1          12           1           1
 AtmWgt=   1.0078250  15.9949146   1.0078250  12.0000000   1.0078250  15.9949146   1.0078250  12.0000000   1.0078250   1.0078250
 NucSpn=           1           0           1           0           1           0           1           0           1           1
 AtZEff=  -0.0000000  -0.0000000  -0.0000000  -0.0000000  -0.0000000  -0.0000000  -0.0000000  -0.0000000  -0.0000000  -0.0000000
 NQMom=    0.0000000   0.0000000   0.0000000   0.0000000   0.0000000   0.0000000   0.0000000   0.0000000   0.0000000   0.0000000
 NMagM=    2.7928460   0.0000000   2.7928460   0.0000000   2.7928460   0.0000000   2.7928460   0.0000000   2.7928460   2.7928460
 AtZNuc=   1.0000000   8.0000000   1.0000000   6.0000000   1.0000000   8.0000000   1.0000000   6.0000000   1.0000000   1.0000000

  Atom        71          72
 IAtWgt=           1           1
 AtmWgt=   1.0078250   1.0078250
 NucSpn=           1           1
 AtZEff=  -0.0000000  -0.0000000
 NQMom=    0.0000000   0.0000000
 NMagM=    2.7928460   2.7928460
 AtZNuc=   1.0000000   1.0000000
 Leave Link  101 at Mon Jun 28 19:19:06 2021, MaxMem=  2147483648 cpu:               2.9 elap:               0.2
 (Enter /home/matma/Programs/gaussian/G16_x86_SSE4/tar/g16/l103.exe)

 GradGradGradGradGradGradGradGradGradGradGradGradGradGradGradGradGradGrad
 Berny optimization.
 Initialization pass.
                           ----------------------------
                           !    Initial Parameters    !
                           ! (Angstroms and Degrees)  !
 --------------------------                            --------------------------
 ! Name  Definition              Value          Derivative Info.                !
 --------------------------------------------------------------------------------
 ! R1    R(1,2)                  1.0961         estimate D2E/DX2                !
 ! R2    R(1,3)                  1.3808         estimate D2E/DX2                !
 ! R3    R(1,7)                  1.4221         estimate D2E/DX2                !
 ! R4    R(1,8)                  1.5198         estimate D2E/DX2                !
 ! R5    R(3,4)                  0.9611         estimate D2E/DX2                !
 ! R6    R(5,6)                  1.0933         estimate D2E/DX2                !
 ! R7    R(5,7)                  1.4256         estimate D2E/DX2                !
 ! R8    R(5,22)                 1.5327         estimate D2E/DX2                !
 ! R9    R(5,25)                 1.516          estimate D2E/DX2                !
 ! R10   R(8,9)                  1.0902         estimate D2E/DX2                !
 ! R11   R(8,10)                 1.4561         estimate D2E/DX2                !
 ! R12   R(8,18)                 1.5441         estimate D2E/DX2                !
 ! R13   R(10,11)                1.0123         estimate D2E/DX2                !
 ! R14   R(10,12)                1.2987         estimate D2E/DX2                !
 ! R15   R(12,13)                1.2877         estimate D2E/DX2                !
 ! R16   R(12,14)                1.4833         estimate D2E/DX2                !
 ! R17   R(13,72)                1.0103         estimate D2E/DX2                !
 ! R18   R(14,15)                1.0909         estimate D2E/DX2                !
 ! R19   R(14,16)                1.0935         estimate D2E/DX2                !
 ! R20   R(14,17)                1.0897         estimate D2E/DX2                !
 ! R21   R(18,19)                1.094          estimate D2E/DX2                !
 ! R22   R(18,20)                1.3957         estimate D2E/DX2                !
 ! R23   R(18,22)                1.5363         estimate D2E/DX2                !
 ! R24   R(20,21)                0.9709         estimate D2E/DX2                !
 ! R25   R(22,23)                1.0964         estimate D2E/DX2                !
 ! R26   R(22,24)                1.4252         estimate D2E/DX2                !
 ! R27   R(24,30)                1.3878         estimate D2E/DX2                !
 ! R28   R(25,26)                1.0976         estimate D2E/DX2                !
 ! R29   R(25,27)                1.0956         estimate D2E/DX2                !
 ! R30   R(25,28)                1.4245         estimate D2E/DX2                !
 ! R31   R(28,29)                0.9599         estimate D2E/DX2                !
 ! R32   R(30,31)                1.1044         estimate D2E/DX2                !
 ! R33   R(30,34)                1.4095         estimate D2E/DX2                !
 ! R34   R(30,35)                1.5197         estimate D2E/DX2                !
 ! R35   R(32,33)                1.1029         estimate D2E/DX2                !
 ! R36   R(32,34)                1.4197         estimate D2E/DX2                !
 ! R37   R(32,43)                1.5287         estimate D2E/DX2                !
 ! R38   R(32,47)                1.5081         estimate D2E/DX2                !
 ! R39   R(35,36)                1.0975         estimate D2E/DX2                !
 ! R40   R(35,37)                1.4072         estimate D2E/DX2                !
 ! R41   R(35,39)                1.5169         estimate D2E/DX2                !
 ! R42   R(37,38)                0.9616         estimate D2E/DX2                !
 ! R43   R(39,40)                1.0991         estimate D2E/DX2                !
 ! R44   R(39,41)                1.4203         estimate D2E/DX2                !
 ! R45   R(39,43)                1.5256         estimate D2E/DX2                !
 ! R46   R(41,42)                0.9599         estimate D2E/DX2                !
 ! R47   R(43,44)                1.1029         estimate D2E/DX2                !
 ! R48   R(43,45)                1.4055         estimate D2E/DX2                !
 ! R49   R(45,46)                0.9637         estimate D2E/DX2                !
 ! R50   R(47,48)                1.0959         estimate D2E/DX2                !
 ! R51   R(47,49)                1.0959         estimate D2E/DX2                !
 ! R52   R(47,50)                1.4203         estimate D2E/DX2                !
 ! R53   R(50,51)                1.4036         estimate D2E/DX2                !
 ! R54   R(51,52)                1.098          estimate D2E/DX2                !
 ! R55   R(51,55)                1.3967         estimate D2E/DX2                !
 ! R56   R(51,56)                1.5175         estimate D2E/DX2                !
 ! R57   R(53,54)                1.0992         estimate D2E/DX2                !
 ! R58   R(53,55)                1.4299         estimate D2E/DX2                !
 ! R59   R(53,64)                1.5317         estimate D2E/DX2                !
 ! R60   R(53,68)                1.5107         estimate D2E/DX2                !
 ! R61   R(56,57)                1.0948         estimate D2E/DX2                !
 ! R62   R(56,58)                1.4282         estimate D2E/DX2                !
 ! R63   R(56,60)                1.5209         estimate D2E/DX2                !
 ! R64   R(58,59)                0.968          estimate D2E/DX2                !
 ! R65   R(60,61)                1.094          estimate D2E/DX2                !
 ! R66   R(60,62)                1.4089         estimate D2E/DX2                !
 ! R67   R(60,64)                1.5216         estimate D2E/DX2                !
 ! R68   R(62,63)                0.9657         estimate D2E/DX2                !
 ! R69   R(64,65)                1.0983         estimate D2E/DX2                !
 ! R70   R(64,66)                1.4161         estimate D2E/DX2                !
 ! R71   R(66,67)                0.9589         estimate D2E/DX2                !
 ! R72   R(68,69)                1.0941         estimate D2E/DX2                !
 ! R73   R(68,70)                1.0921         estimate D2E/DX2                !
 ! R74   R(68,71)                1.0918         estimate D2E/DX2                !
 ! A1    A(2,1,3)              112.3838         estimate D2E/DX2                !
 ! A2    A(2,1,7)              110.104          estimate D2E/DX2                !
 ! A3    A(2,1,8)              109.7461         estimate D2E/DX2                !
 ! A4    A(3,1,7)              107.296          estimate D2E/DX2                !
 ! A5    A(3,1,8)              108.1417         estimate D2E/DX2                !
 ! A6    A(7,1,8)              109.0793         estimate D2E/DX2                !
 ! A7    A(1,3,4)              108.9199         estimate D2E/DX2                !
 ! A8    A(6,5,7)              104.2625         estimate D2E/DX2                !
 ! A9    A(6,5,22)             105.4359         estimate D2E/DX2                !
 ! A10   A(6,5,25)             105.4692         estimate D2E/DX2                !
 ! A11   A(7,5,22)             111.979          estimate D2E/DX2                !
 ! A12   A(7,5,25)             113.245          estimate D2E/DX2                !
 ! A13   A(22,5,25)            115.2503         estimate D2E/DX2                !
 ! A14   A(1,7,5)              115.9833         estimate D2E/DX2                !
 ! A15   A(1,8,9)              110.4066         estimate D2E/DX2                !
 ! A16   A(1,8,10)             106.8775         estimate D2E/DX2                !
 ! A17   A(1,8,18)             110.1413         estimate D2E/DX2                !
 ! A18   A(9,8,10)             109.3582         estimate D2E/DX2                !
 ! A19   A(9,8,18)             108.6935         estimate D2E/DX2                !
 ! A20   A(10,8,18)            111.3583         estimate D2E/DX2                !
 ! A21   A(8,10,11)            116.054          estimate D2E/DX2                !
 ! A22   A(8,10,12)            124.8091         estimate D2E/DX2                !
 ! A23   A(11,10,12)           118.7437         estimate D2E/DX2                !
 ! A24   A(10,12,13)           117.3127         estimate D2E/DX2                !
 ! A25   A(10,12,14)           120.6171         estimate D2E/DX2                !
 ! A26   A(13,12,14)           122.059          estimate D2E/DX2                !
 ! A27   A(12,13,72)           113.4685         estimate D2E/DX2                !
 ! A28   A(12,14,15)           111.2169         estimate D2E/DX2                !
 ! A29   A(12,14,16)           106.8654         estimate D2E/DX2                !
 ! A30   A(12,14,17)           110.5343         estimate D2E/DX2                !
 ! A31   A(15,14,16)           108.8749         estimate D2E/DX2                !
 ! A32   A(15,14,17)           109.9624         estimate D2E/DX2                !
 ! A33   A(16,14,17)           109.3081         estimate D2E/DX2                !
 ! A34   A(8,18,19)            107.3444         estimate D2E/DX2                !
 ! A35   A(8,18,20)            110.8046         estimate D2E/DX2                !
 ! A36   A(8,18,22)            110.2195         estimate D2E/DX2                !
 ! A37   A(19,18,20)           106.7585         estimate D2E/DX2                !
 ! A38   A(19,18,22)           107.7356         estimate D2E/DX2                !
 ! A39   A(20,18,22)           113.6761         estimate D2E/DX2                !
 ! A40   A(18,20,21)           109.1878         estimate D2E/DX2                !
 ! A41   A(5,22,18)            114.6561         estimate D2E/DX2                !
 ! A42   A(5,22,23)            108.6019         estimate D2E/DX2                !
 ! A43   A(5,22,24)            105.4923         estimate D2E/DX2                !
 ! A44   A(18,22,23)           108.7904         estimate D2E/DX2                !
 ! A45   A(18,22,24)           109.3219         estimate D2E/DX2                !
 ! A46   A(23,22,24)           109.8938         estimate D2E/DX2                !
 ! A47   A(22,24,30)           115.5903         estimate D2E/DX2                !
 ! A48   A(5,25,26)            108.084          estimate D2E/DX2                !
 ! A49   A(5,25,27)            107.9871         estimate D2E/DX2                !
 ! A50   A(5,25,28)            111.0388         estimate D2E/DX2                !
 ! A51   A(26,25,27)           108.8222         estimate D2E/DX2                !
 ! A52   A(26,25,28)           110.6249         estimate D2E/DX2                !
 ! A53   A(27,25,28)           110.1995         estimate D2E/DX2                !
 ! A54   A(25,28,29)           110.1339         estimate D2E/DX2                !
 ! A55   A(24,30,31)           110.4743         estimate D2E/DX2                !
 ! A56   A(24,30,34)           107.3345         estimate D2E/DX2                !
 ! A57   A(24,30,35)           109.2184         estimate D2E/DX2                !
 ! A58   A(31,30,34)           109.6721         estimate D2E/DX2                !
 ! A59   A(31,30,35)           109.2506         estimate D2E/DX2                !
 ! A60   A(34,30,35)           110.8762         estimate D2E/DX2                !
 ! A61   A(33,32,34)           109.1986         estimate D2E/DX2                !
 ! A62   A(33,32,43)           108.245          estimate D2E/DX2                !
 ! A63   A(33,32,47)           108.8036         estimate D2E/DX2                !
 ! A64   A(34,32,43)           111.7302         estimate D2E/DX2                !
 ! A65   A(34,32,47)           108.8638         estimate D2E/DX2                !
 ! A66   A(43,32,47)           109.9509         estimate D2E/DX2                !
 ! A67   A(30,34,32)           113.0573         estimate D2E/DX2                !
 ! A68   A(30,35,36)           107.5564         estimate D2E/DX2                !
 ! A69   A(30,35,37)           106.961          estimate D2E/DX2                !
 ! A70   A(30,35,39)           109.6222         estimate D2E/DX2                !
 ! A71   A(36,35,37)           111.7307         estimate D2E/DX2                !
 ! A72   A(36,35,39)           109.3912         estimate D2E/DX2                !
 ! A73   A(37,35,39)           111.4617         estimate D2E/DX2                !
 ! A74   A(35,37,38)           107.4773         estimate D2E/DX2                !
 ! A75   A(35,39,40)           108.2412         estimate D2E/DX2                !
 ! A76   A(35,39,41)           106.59           estimate D2E/DX2                !
 ! A77   A(35,39,43)           110.7485         estimate D2E/DX2                !
 ! A78   A(40,39,41)           110.6626         estimate D2E/DX2                !
 ! A79   A(40,39,43)           109.6628         estimate D2E/DX2                !
 ! A80   A(41,39,43)           110.8673         estimate D2E/DX2                !
 ! A81   A(39,41,42)           110.033          estimate D2E/DX2                !
 ! A82   A(32,43,39)           109.782          estimate D2E/DX2                !
 ! A83   A(32,43,44)           107.7621         estimate D2E/DX2                !
 ! A84   A(32,43,45)           108.6617         estimate D2E/DX2                !
 ! A85   A(39,43,44)           108.8904         estimate D2E/DX2                !
 ! A86   A(39,43,45)           111.026          estimate D2E/DX2                !
 ! A87   A(44,43,45)           110.6583         estimate D2E/DX2                !
 ! A88   A(43,45,46)           107.3892         estimate D2E/DX2                !
 ! A89   A(32,47,48)           109.7646         estimate D2E/DX2                !
 ! A90   A(32,47,49)           108.475          estimate D2E/DX2                !
 ! A91   A(32,47,50)           110.2844         estimate D2E/DX2                !
 ! A92   A(48,47,49)           107.8834         estimate D2E/DX2                !
 ! A93   A(48,47,50)           110.5601         estimate D2E/DX2                !
 ! A94   A(49,47,50)           109.8146         estimate D2E/DX2                !
 ! A95   A(47,50,51)           111.7496         estimate D2E/DX2                !
 ! A96   A(50,51,52)           110.2065         estimate D2E/DX2                !
 ! A97   A(50,51,55)           112.8914         estimate D2E/DX2                !
 ! A98   A(50,51,56)           108.5203         estimate D2E/DX2                !
 ! A99   A(52,51,55)           105.1508         estimate D2E/DX2                !
 ! A100  A(52,51,56)           110.8782         estimate D2E/DX2                !
 ! A101  A(55,51,56)           109.184          estimate D2E/DX2                !
 ! A102  A(54,53,55)           108.9159         estimate D2E/DX2                !
 ! A103  A(54,53,64)           106.5989         estimate D2E/DX2                !
 ! A104  A(54,53,68)           109.9864         estimate D2E/DX2                !
 ! A105  A(55,53,64)           111.7721         estimate D2E/DX2                !
 ! A106  A(55,53,68)           106.4304         estimate D2E/DX2                !
 ! A107  A(64,53,68)           113.1065         estimate D2E/DX2                !
 ! A108  A(51,55,53)           115.2286         estimate D2E/DX2                !
 ! A109  A(51,56,57)           106.9941         estimate D2E/DX2                !
 ! A110  A(51,56,58)           110.4616         estimate D2E/DX2                !
 ! A111  A(51,56,60)           111.2972         estimate D2E/DX2                !
 ! A112  A(57,56,58)           109.0303         estimate D2E/DX2                !
 ! A113  A(57,56,60)           109.1442         estimate D2E/DX2                !
 ! A114  A(58,56,60)           109.8389         estimate D2E/DX2                !
 ! A115  A(56,58,59)           105.6706         estimate D2E/DX2                !
 ! A116  A(56,60,61)           108.9861         estimate D2E/DX2                !
 ! A117  A(56,60,62)           109.1761         estimate D2E/DX2                !
 ! A118  A(56,60,64)           109.1272         estimate D2E/DX2                !
 ! A119  A(61,60,62)           107.126          estimate D2E/DX2                !
 ! A120  A(61,60,64)           109.4124         estimate D2E/DX2                !
 ! A121  A(62,60,64)           112.9341         estimate D2E/DX2                !
 ! A122  A(60,62,63)           106.7486         estimate D2E/DX2                !
 ! A123  A(53,64,60)           109.5917         estimate D2E/DX2                !
 ! A124  A(53,64,65)           108.5328         estimate D2E/DX2                !
 ! A125  A(53,64,66)           113.8            estimate D2E/DX2                !
 ! A126  A(60,64,65)           109.0395         estimate D2E/DX2                !
 ! A127  A(60,64,66)           105.09           estimate D2E/DX2                !
 ! A128  A(65,64,66)           110.6723         estimate D2E/DX2                !
 ! A129  A(64,66,67)           110.2682         estimate D2E/DX2                !
 ! A130  A(53,68,69)           110.6699         estimate D2E/DX2                !
 ! A131  A(53,68,70)           110.4963         estimate D2E/DX2                !
 ! A132  A(53,68,71)           110.2724         estimate D2E/DX2                !
 ! A133  A(69,68,70)           109.3865         estimate D2E/DX2                !
 ! A134  A(69,68,71)           108.3003         estimate D2E/DX2                !
 ! A135  A(70,68,71)           107.636          estimate D2E/DX2                !
 ! D1    D(2,1,3,4)            -58.0026         estimate D2E/DX2                !
 ! D2    D(7,1,3,4)             63.1675         estimate D2E/DX2                !
 ! D3    D(8,1,3,4)           -179.2972         estimate D2E/DX2                !
 ! D4    D(2,1,7,5)            -58.1149         estimate D2E/DX2                !
 ! D5    D(3,1,7,5)            179.29           estimate D2E/DX2                !
 ! D6    D(8,1,7,5)             62.3684         estimate D2E/DX2                !
 ! D7    D(2,1,8,9)            -59.7971         estimate D2E/DX2                !
 ! D8    D(2,1,8,10)          -178.6432         estimate D2E/DX2                !
 ! D9    D(2,1,8,18)            60.2485         estimate D2E/DX2                !
 ! D10   D(3,1,8,9)             63.1169         estimate D2E/DX2                !
 ! D11   D(3,1,8,10)           -55.7292         estimate D2E/DX2                !
 ! D12   D(3,1,8,18)          -176.8375         estimate D2E/DX2                !
 ! D13   D(7,1,8,9)            179.5002         estimate D2E/DX2                !
 ! D14   D(7,1,8,10)            60.6541         estimate D2E/DX2                !
 ! D15   D(7,1,8,18)           -60.4542         estimate D2E/DX2                !
 ! D16   D(6,5,7,1)           -166.3669         estimate D2E/DX2                !
 ! D17   D(22,5,7,1)           -52.8671         estimate D2E/DX2                !
 ! D18   D(25,5,7,1)            79.5098         estimate D2E/DX2                !
 ! D19   D(6,5,22,18)          155.5861         estimate D2E/DX2                !
 ! D20   D(6,5,22,23)          -82.513          estimate D2E/DX2                !
 ! D21   D(6,5,22,24)           35.253          estimate D2E/DX2                !
 ! D22   D(7,5,22,18)           42.8144         estimate D2E/DX2                !
 ! D23   D(7,5,22,23)          164.7154         estimate D2E/DX2                !
 ! D24   D(7,5,22,24)          -77.5186         estimate D2E/DX2                !
 ! D25   D(25,5,22,18)         -88.5548         estimate D2E/DX2                !
 ! D26   D(25,5,22,23)          33.3462         estimate D2E/DX2                !
 ! D27   D(25,5,22,24)         151.1122         estimate D2E/DX2                !
 ! D28   D(6,5,25,26)           52.9487         estimate D2E/DX2                !
 ! D29   D(6,5,25,27)          -64.6229         estimate D2E/DX2                !
 ! D30   D(6,5,25,28)          174.4569         estimate D2E/DX2                !
 ! D31   D(7,5,25,26)          166.3444         estimate D2E/DX2                !
 ! D32   D(7,5,25,27)           48.7729         estimate D2E/DX2                !
 ! D33   D(7,5,25,28)          -72.1474         estimate D2E/DX2                !
 ! D34   D(22,5,25,26)         -62.8915         estimate D2E/DX2                !
 ! D35   D(22,5,25,27)         179.5369         estimate D2E/DX2                !
 ! D36   D(22,5,25,28)          58.6167         estimate D2E/DX2                !
 ! D37   D(1,8,10,11)          -25.8417         estimate D2E/DX2                !
 ! D38   D(1,8,10,12)          161.4748         estimate D2E/DX2                !
 ! D39   D(9,8,10,11)         -145.3666         estimate D2E/DX2                !
 ! D40   D(9,8,10,12)           41.9499         estimate D2E/DX2                !
 ! D41   D(18,8,10,11)          94.4907         estimate D2E/DX2                !
 ! D42   D(18,8,10,12)         -78.1928         estimate D2E/DX2                !
 ! D43   D(1,8,18,19)          169.1378         estimate D2E/DX2                !
 ! D44   D(1,8,18,20)          -74.6427         estimate D2E/DX2                !
 ! D45   D(1,8,18,22)           52.0648         estimate D2E/DX2                !
 ! D46   D(9,8,18,19)          -69.7864         estimate D2E/DX2                !
 ! D47   D(9,8,18,20)           46.4331         estimate D2E/DX2                !
 ! D48   D(9,8,18,22)          173.1406         estimate D2E/DX2                !
 ! D49   D(10,8,18,19)          50.748          estimate D2E/DX2                !
 ! D50   D(10,8,18,20)         166.9675         estimate D2E/DX2                !
 ! D51   D(10,8,18,22)         -66.325          estimate D2E/DX2                !
 ! D52   D(8,10,12,13)          -3.1134         estimate D2E/DX2                !
 ! D53   D(8,10,12,14)         175.6953         estimate D2E/DX2                !
 ! D54   D(11,10,12,13)       -175.6156         estimate D2E/DX2                !
 ! D55   D(11,10,12,14)          3.1931         estimate D2E/DX2                !
 ! D56   D(10,12,13,72)       -176.8576         estimate D2E/DX2                !
 ! D57   D(14,12,13,72)          4.352          estimate D2E/DX2                !
 ! D58   D(10,12,14,15)         28.8665         estimate D2E/DX2                !
 ! D59   D(10,12,14,16)        -89.8394         estimate D2E/DX2                !
 ! D60   D(10,12,14,17)        151.3114         estimate D2E/DX2                !
 ! D61   D(13,12,14,15)       -152.3823         estimate D2E/DX2                !
 ! D62   D(13,12,14,16)         88.9117         estimate D2E/DX2                !
 ! D63   D(13,12,14,17)        -29.9375         estimate D2E/DX2                !
 ! D64   D(8,18,20,21)          83.3147         estimate D2E/DX2                !
 ! D65   D(19,18,20,21)       -160.1039         estimate D2E/DX2                !
 ! D66   D(22,18,20,21)        -41.4569         estimate D2E/DX2                !
 ! D67   D(8,18,22,5)          -43.7854         estimate D2E/DX2                !
 ! D68   D(8,18,22,23)        -165.5837         estimate D2E/DX2                !
 ! D69   D(8,18,22,24)          74.4041         estimate D2E/DX2                !
 ! D70   D(19,18,22,5)        -160.6152         estimate D2E/DX2                !
 ! D71   D(19,18,22,23)         77.5866         estimate D2E/DX2                !
 ! D72   D(19,18,22,24)        -42.4257         estimate D2E/DX2                !
 ! D73   D(20,18,22,5)          81.2996         estimate D2E/DX2                !
 ! D74   D(20,18,22,23)        -40.4986         estimate D2E/DX2                !
 ! D75   D(20,18,22,24)       -160.5109         estimate D2E/DX2                !
 ! D76   D(5,22,24,30)         -29.8761         estimate D2E/DX2                !
 ! D77   D(18,22,24,30)       -153.6504         estimate D2E/DX2                !
 ! D78   D(23,22,24,30)         87.0171         estimate D2E/DX2                !
 ! D79   D(22,24,30,31)        -19.4835         estimate D2E/DX2                !
 ! D80   D(22,24,30,34)       -139.0196         estimate D2E/DX2                !
 ! D81   D(22,24,30,35)        100.7059         estimate D2E/DX2                !
 ! D82   D(5,25,28,29)        -177.79           estimate D2E/DX2                !
 ! D83   D(26,25,28,29)        -57.7816         estimate D2E/DX2                !
 ! D84   D(27,25,28,29)         62.6023         estimate D2E/DX2                !
 ! D85   D(24,30,34,32)        179.8202         estimate D2E/DX2                !
 ! D86   D(31,30,34,32)         59.7721         estimate D2E/DX2                !
 ! D87   D(35,30,34,32)        -60.964          estimate D2E/DX2                !
 ! D88   D(24,30,35,36)         56.6416         estimate D2E/DX2                !
 ! D89   D(24,30,35,37)        -63.5229         estimate D2E/DX2                !
 ! D90   D(24,30,35,39)        175.4907         estimate D2E/DX2                !
 ! D91   D(31,30,35,36)        177.5796         estimate D2E/DX2                !
 ! D92   D(31,30,35,37)         57.4151         estimate D2E/DX2                !
 ! D93   D(31,30,35,39)        -63.5713         estimate D2E/DX2                !
 ! D94   D(34,30,35,36)        -61.4351         estimate D2E/DX2                !
 ! D95   D(34,30,35,37)        178.4004         estimate D2E/DX2                !
 ! D96   D(34,30,35,39)         57.4139         estimate D2E/DX2                !
 ! D97   D(33,32,34,30)        -60.487          estimate D2E/DX2                !
 ! D98   D(43,32,34,30)         59.2263         estimate D2E/DX2                !
 ! D99   D(47,32,34,30)       -179.1497         estimate D2E/DX2                !
 ! D100  D(33,32,43,39)         66.7496         estimate D2E/DX2                !
 ! D101  D(33,32,43,44)        -51.7075         estimate D2E/DX2                !
 ! D102  D(33,32,43,45)       -171.6545         estimate D2E/DX2                !
 ! D103  D(34,32,43,39)        -53.5237         estimate D2E/DX2                !
 ! D104  D(34,32,43,44)       -171.9807         estimate D2E/DX2                !
 ! D105  D(34,32,43,45)         68.0722         estimate D2E/DX2                !
 ! D106  D(47,32,43,39)       -174.5179         estimate D2E/DX2                !
 ! D107  D(47,32,43,44)         67.0251         estimate D2E/DX2                !
 ! D108  D(47,32,43,45)        -52.922          estimate D2E/DX2                !
 ! D109  D(33,32,47,48)        -18.3053         estimate D2E/DX2                !
 ! D110  D(33,32,47,49)       -135.9565         estimate D2E/DX2                !
 ! D111  D(33,32,47,50)        103.7443         estimate D2E/DX2                !
 ! D112  D(34,32,47,48)        100.6049         estimate D2E/DX2                !
 ! D113  D(34,32,47,49)        -17.0463         estimate D2E/DX2                !
 ! D114  D(34,32,47,50)       -137.3455         estimate D2E/DX2                !
 ! D115  D(43,32,47,48)       -136.694          estimate D2E/DX2                !
 ! D116  D(43,32,47,49)        105.6548         estimate D2E/DX2                !
 ! D117  D(43,32,47,50)        -14.6444         estimate D2E/DX2                !
 ! D118  D(30,35,37,38)       -177.198          estimate D2E/DX2                !
 ! D119  D(36,35,37,38)         65.3474         estimate D2E/DX2                !
 ! D120  D(39,35,37,38)        -57.3865         estimate D2E/DX2                !
 ! D121  D(30,35,39,40)         66.649          estimate D2E/DX2                !
 ! D122  D(30,35,39,41)       -174.2821         estimate D2E/DX2                !
 ! D123  D(30,35,39,43)        -53.5971         estimate D2E/DX2                !
 ! D124  D(36,35,39,40)       -175.6414         estimate D2E/DX2                !
 ! D125  D(36,35,39,41)        -56.5725         estimate D2E/DX2                !
 ! D126  D(36,35,39,43)         64.1125         estimate D2E/DX2                !
 ! D127  D(37,35,39,40)        -51.5765         estimate D2E/DX2                !
 ! D128  D(37,35,39,41)         67.4924         estimate D2E/DX2                !
 ! D129  D(37,35,39,43)       -171.8226         estimate D2E/DX2                !
 ! D130  D(35,39,41,42)       -152.914          estimate D2E/DX2                !
 ! D131  D(40,39,41,42)        -35.4352         estimate D2E/DX2                !
 ! D132  D(43,39,41,42)         86.4772         estimate D2E/DX2                !
 ! D133  D(35,39,43,32)         51.6499         estimate D2E/DX2                !
 ! D134  D(35,39,43,44)        169.4072         estimate D2E/DX2                !
 ! D135  D(35,39,43,45)        -68.5192         estimate D2E/DX2                !
 ! D136  D(40,39,43,32)        -67.7445         estimate D2E/DX2                !
 ! D137  D(40,39,43,44)         50.0128         estimate D2E/DX2                !
 ! D138  D(40,39,43,45)        172.0864         estimate D2E/DX2                !
 ! D139  D(41,39,43,32)        169.7602         estimate D2E/DX2                !
 ! D140  D(41,39,43,44)        -72.4825         estimate D2E/DX2                !
 ! D141  D(41,39,43,45)         49.5911         estimate D2E/DX2                !
 ! D142  D(32,43,45,46)       -163.9181         estimate D2E/DX2                !
 ! D143  D(39,43,45,46)        -43.0859         estimate D2E/DX2                !
 ! D144  D(44,43,45,46)         77.9528         estimate D2E/DX2                !
 ! D145  D(32,47,50,51)        -97.3944         estimate D2E/DX2                !
 ! D146  D(48,47,50,51)         24.1844         estimate D2E/DX2                !
 ! D147  D(49,47,50,51)        143.1154         estimate D2E/DX2                !
 ! D148  D(47,50,51,52)          6.1827         estimate D2E/DX2                !
 ! D149  D(47,50,51,55)       -111.0574         estimate D2E/DX2                !
 ! D150  D(47,50,51,56)        127.7697         estimate D2E/DX2                !
 ! D151  D(50,51,55,53)        -62.2668         estimate D2E/DX2                !
 ! D152  D(52,51,55,53)        177.5501         estimate D2E/DX2                !
 ! D153  D(56,51,55,53)         58.5288         estimate D2E/DX2                !
 ! D154  D(50,51,56,57)       -175.0053         estimate D2E/DX2                !
 ! D155  D(50,51,56,58)        -56.4537         estimate D2E/DX2                !
 ! D156  D(50,51,56,60)         65.8383         estimate D2E/DX2                !
 ! D157  D(52,51,56,57)        -53.831          estimate D2E/DX2                !
 ! D158  D(52,51,56,58)         64.7206         estimate D2E/DX2                !
 ! D159  D(52,51,56,60)       -172.9873         estimate D2E/DX2                !
 ! D160  D(55,51,56,57)         61.5657         estimate D2E/DX2                !
 ! D161  D(55,51,56,58)       -179.8827         estimate D2E/DX2                !
 ! D162  D(55,51,56,60)        -57.5907         estimate D2E/DX2                !
 ! D163  D(54,53,55,51)         60.005          estimate D2E/DX2                !
 ! D164  D(64,53,55,51)        -57.5142         estimate D2E/DX2                !
 ! D165  D(68,53,55,51)        178.5435         estimate D2E/DX2                !
 ! D166  D(54,53,64,60)        -65.9819         estimate D2E/DX2                !
 ! D167  D(54,53,64,65)         52.9993         estimate D2E/DX2                !
 ! D168  D(54,53,64,66)        176.6957         estimate D2E/DX2                !
 ! D169  D(55,53,64,60)         52.9206         estimate D2E/DX2                !
 ! D170  D(55,53,64,65)        171.9018         estimate D2E/DX2                !
 ! D171  D(55,53,64,66)        -64.4018         estimate D2E/DX2                !
 ! D172  D(68,53,64,60)        173.0237         estimate D2E/DX2                !
 ! D173  D(68,53,64,65)        -67.9951         estimate D2E/DX2                !
 ! D174  D(68,53,64,66)         55.7012         estimate D2E/DX2                !
 ! D175  D(54,53,68,69)        -61.8715         estimate D2E/DX2                !
 ! D176  D(54,53,68,70)        176.811          estimate D2E/DX2                !
 ! D177  D(54,53,68,71)         57.9376         estimate D2E/DX2                !
 ! D178  D(55,53,68,69)       -179.7044         estimate D2E/DX2                !
 ! D179  D(55,53,68,70)         58.9781         estimate D2E/DX2                !
 ! D180  D(55,53,68,71)        -59.8953         estimate D2E/DX2                !
 ! D181  D(64,53,68,69)         57.185          estimate D2E/DX2                !
 ! D182  D(64,53,68,70)        -64.1325         estimate D2E/DX2                !
 ! D183  D(64,53,68,71)        176.9941         estimate D2E/DX2                !
 ! D184  D(51,56,58,59)        177.4206         estimate D2E/DX2                !
 ! D185  D(57,56,58,59)        -65.2769         estimate D2E/DX2                !
 ! D186  D(60,56,58,59)         54.2767         estimate D2E/DX2                !
 ! D187  D(51,56,60,61)        -63.1924         estimate D2E/DX2                !
 ! D188  D(51,56,60,62)       -179.8951         estimate D2E/DX2                !
 ! D189  D(51,56,60,64)         56.2369         estimate D2E/DX2                !
 ! D190  D(57,56,60,61)        178.9428         estimate D2E/DX2                !
 ! D191  D(57,56,60,62)         62.24           estimate D2E/DX2                !
 ! D192  D(57,56,60,64)        -61.6279         estimate D2E/DX2                !
 ! D193  D(58,56,60,61)         59.4587         estimate D2E/DX2                !
 ! D194  D(58,56,60,62)        -57.244          estimate D2E/DX2                !
 ! D195  D(58,56,60,64)        178.888          estimate D2E/DX2                !
 ! D196  D(56,60,62,63)        -85.6523         estimate D2E/DX2                !
 ! D197  D(61,60,62,63)        156.4695         estimate D2E/DX2                !
 ! D198  D(64,60,62,63)         35.9378         estimate D2E/DX2                !
 ! D199  D(56,60,64,53)        -52.9248         estimate D2E/DX2                !
 ! D200  D(56,60,64,65)       -171.5928         estimate D2E/DX2                !
 ! D201  D(56,60,64,66)         69.7323         estimate D2E/DX2                !
 ! D202  D(61,60,64,53)         66.2399         estimate D2E/DX2                !
 ! D203  D(61,60,64,65)        -52.4281         estimate D2E/DX2                !
 ! D204  D(61,60,64,66)       -171.103          estimate D2E/DX2                !
 ! D205  D(62,60,64,53)       -174.5425         estimate D2E/DX2                !
 ! D206  D(62,60,64,65)         66.7895         estimate D2E/DX2                !
 ! D207  D(62,60,64,66)        -51.8854         estimate D2E/DX2                !
 ! D208  D(53,64,66,67)        -74.3843         estimate D2E/DX2                !
 ! D209  D(60,64,66,67)        165.7154         estimate D2E/DX2                !
 ! D210  D(65,64,66,67)         48.1437         estimate D2E/DX2                !
 --------------------------------------------------------------------------------
 Trust Radius=3.00D-01 FncErr=1.00D-07 GrdErr=1.00D-07 EigMax=2.50D+02 EigMin=1.00D-04
 Number of steps in this run=    429 maximum allowed number of steps=    432.
 GradGradGradGradGradGradGradGradGradGradGradGradGradGradGradGradGradGrad

 Leave Link  103 at Mon Jun 28 19:19:06 2021, MaxMem=  2147483648 cpu:               0.1 elap:               0.0
 (Enter /home/matma/Programs/gaussian/G16_x86_SSE4/tar/g16/l202.exe)
 Stoichiometry    C20H36NO15(1+)
 Framework group  C1[X(C20H36NO15)]
 Deg. of freedom   210
 Full point group                 C1      NOp   1
 Largest Abelian subgroup         C1      NOp   1
 Largest concise Abelian subgroup C1      NOp   1
                         Standard orientation:                         
 ---------------------------------------------------------------------
 Center     Atomic      Atomic             Coordinates (Angstroms)
 Number     Number       Type             X           Y           Z
 ---------------------------------------------------------------------
      1          6           0        5.015480   -0.363471    1.052253
      2          1           0        5.798751   -1.096746    0.828191
      3          8           0        5.199064    0.243880    2.278647
      4          1           0        5.218696   -0.432246    2.961414
      5          6           0        3.357254   -1.677885   -0.111150
      6          1           0        2.289460   -1.870541    0.022747
      7          8           0        3.744097   -0.999886    1.081716
      8          6           0        5.004744    0.718621   -0.014810
      9          1           0        5.968305    1.227414   -0.049948
     10          7           0        3.969216    1.671363    0.359673
     11          1           0        3.216284    1.308145    0.930602
     12          6           0        3.880157    2.885423   -0.092759
     13          8           0        4.810122    3.289971   -0.886221
     14          6           0        2.731840    3.747739    0.278746
     15          1           0        2.338264    3.479871    1.260280
     16          1           0        1.954161    3.581162   -0.471713
     17          1           0        3.023282    4.797662    0.268671
     18          6           0        4.722604    0.096841   -1.399784
     19          1           0        4.530902    0.920309   -2.094044
     20          8           0        5.846133   -0.579279   -1.877820
     21          1           0        5.867581   -1.471943   -1.496539
     22          6           0        3.456994   -0.772327   -1.343763
     23          1           0        3.419120   -1.399336   -2.242366
     24          8           0        2.308475    0.069895   -1.291323
     25          6           0        3.999170   -3.043375   -0.258237
     26          1           0        3.469907   -3.584852   -1.052872
     27          1           0        3.866636   -3.583016    0.686018
     28          8           0        5.384705   -2.926458   -0.567651
     29          1           0        5.770126   -3.796751   -0.691709
     30          6           0        1.188165   -0.481224   -0.685416
     31          1           0        1.266434   -1.582468   -0.657581
     32          6           0       -1.154623   -0.611579   -0.938413
     33          1           0       -1.115325   -1.713715   -0.930741
     34          8           0        0.067523   -0.104424   -1.452834
     35          6           0        1.075422    0.049120    0.734281
     36          1           0        1.043480    1.144702    0.676871
     37          8           0        2.210227   -0.403136    1.432774
     38          1           0        2.124550   -0.108943    2.344291
     39          6           0       -0.205526   -0.459571    1.367875
     40          1           0       -0.120974   -1.548778    1.487979
     41          8           0       -0.312980    0.177302    2.632878
     42          1           0       -0.819035   -0.372187    3.235757
     43          6           0       -1.409733   -0.131818    0.490415
     44          1           0       -2.289971   -0.673688    0.875177
     45          8           0       -1.652276    1.252379    0.463503
     46          1           0       -1.556996    1.579068    1.365156
     47          6           0       -2.282213   -0.171643   -1.837980
     48          1           0       -2.568442   -0.994441   -2.502840
     49          1           0       -1.926283    0.656473   -2.461339
     50          8           0       -3.393854    0.252761   -1.062464
     51          6           0       -4.351390   -0.764422   -0.925788
     52          1           0       -3.974915   -1.700401   -1.359171
     53          6           0       -6.242470    0.670224   -1.178079
     54          1           0       -5.593692    1.549121   -1.300344
     55          8           0       -5.534947   -0.492716   -1.615863
     56          6           0       -4.662829   -0.938223    0.549243
     57          1           0       -5.340538   -1.793807    0.634541
     58          8           0       -3.468787   -1.215015    1.282412
     59          1           0       -3.738777   -1.271078    2.210288
     60          6           0       -5.343997    0.296374    1.119203
     61          1           0       -4.657633    1.145501    1.049948
     62          8           0       -5.609871    0.088303    2.487050
     63          1           0       -6.457146   -0.372093    2.538962
     64          6           0       -6.598009    0.592388    0.309751
     65          1           0       -7.005528    1.563174    0.622552
     66          8           0       -7.497870   -0.453588    0.628298
     67          1           0       -8.383908   -0.229378    0.338218
     68          6           0       -7.454339    0.794681   -2.071522
     69          1           0       -8.047249    1.672541   -1.798024
     70          1           0       -8.076470   -0.099928   -1.998877
     71          1           0       -7.146717    0.899914   -3.113783
     72          1           0        4.710850    4.256591   -1.162660
 ---------------------------------------------------------------------
 Rotational constants (GHZ):           0.2553976           0.0474343           0.0468289
 Leave Link  202 at Mon Jun 28 19:19:06 2021, MaxMem=  2147483648 cpu:               0.0 elap:               0.0
 (Enter /home/matma/Programs/gaussian/G16_x86_SSE4/tar/g16/l301.exe)
 Standard basis: VSTO-6G (5D, 7F)
 Ernie: Thresh=  0.10000D-02 Tol=  0.10000D-05 Strict=F.
  NNHCO=     0 NNPyr=     1 NCTC=     0               EPep=        -0.000743951
    EC=      2432.668634290  ECS=        15.805216071   EG=         1.250316516
   EHC=         0.005426217  EAt=      -264.256368941  AtH=        10.039461169
 EPDDG=         0.000000000  ECC=      2449.728849144 EAtT=       274.295830110
 There are   180 symmetry adapted cartesian basis functions of A   symmetry.
 There are   180 symmetry adapted basis functions of A   symmetry.
   180 basis functions,  1080 primitive gaussians,   180 cartesian basis functions
   105 alpha electrons      105 beta electrons
       nuclear repulsion energy      2724.0246792535 Hartrees.
 IExCor=    0 DFT=F Ex=HF Corr=None ExCW=0 ScaHFX=  1.000000
 ScaDFX=  1.000000  1.000000  1.000000  1.000000 ScalE2=  1.000000  1.000000
 IRadAn=  99590 IRanWt=     -1 IRanGd=            0 ICorTp=0 IEmpDi=  4
 Integral buffers will be    131072 words long.
 Regular integral format.
 Two-electron integral symmetry is turned off.
 Leave Link  301 at Mon Jun 28 19:19:06 2021, MaxMem=  2147483648 cpu:               0.2 elap:               0.0
 (Enter /home/matma/Programs/gaussian/G16_x86_SSE4/tar/g16/l302.exe)
 Do NDO integrals.
 NPDir=0 NMtPBC=     1 NCelOv=     1 NCel=       1 NClECP=     1 NCelD=      1
         NCelK=      1 NCelE2=     1 NClLst=     1 CellRange=     0.0.
 One-electron integrals computed using PRISM.
 NBasis=   180 RedAO= F EigKep=  0.00D+00  NBF=   180
 NBsUse=   180 1.00D-04 EigRej=  0.00D+00 NBFU=   180
 Leave Link  302 at Mon Jun 28 19:19:06 2021, MaxMem=  2147483648 cpu:               1.0 elap:               0.1
 (Enter /home/matma/Programs/gaussian/G16_x86_SSE4/tar/g16/l303.exe)
 DipDrv:  MaxL=1.
 Leave Link  303 at Mon Jun 28 19:19:06 2021, MaxMem=  2147483648 cpu:               0.1 elap:               0.0
 (Enter /home/matma/Programs/gaussian/G16_x86_SSE4/tar/g16/l401.exe)
 Simple Huckel Guess.
 JPrj=0 DoOrth=F DoCkMO=F.
 Leave Link  401 at Mon Jun 28 19:19:06 2021, MaxMem=  2147483648 cpu:               0.4 elap:               0.0
 (Enter /home/matma/Programs/gaussian/G16_x86_SSE4/tar/g16/l502.exe)
 Keep J ints in memory in canonical form, NReq=939849.
 FoFCou: FMM=F IPFlag=           0 FMFlag=           0 FMFlg1=        2000
         NFxFlg=           0 DoJE=F BraDBF=F KetDBF=F FulRan=T
         wScrn=  0.000000 ICntrl=       600 IOpCl=  2 I1Cent=           0 NGrid=           0
         NMat0=    1 NMatS0=    396 NMatT0=    0 NMatD0=    1 NMtDS0=    0 NMtDT0=    0
 Symmetry not used in FoFCou.
 Two-electron integral symmetry not used.
 Closed shell SCF:
 Using DIIS extrapolation, IDIIS=  1040.
 Overlap will be assumed to be unity.
 NGot=  2147483648 LenX=  2147275908 LenY=  2147243067
 Requested convergence on RMS density matrix=1.00D-08 within 128 cycles.
 Requested convergence on MAX density matrix=1.00D-06.
 Requested convergence on             energy=1.00D-06.
 No special actions if energy rises.

 Cycle   1  Pass 1  IDiag  1:
 E=  1.23587840481832    
 DIIS: error= 5.81D-02 at cycle   1 NSaved=   1.
 NSaved= 1 IEnMin= 1 EnMin=  1.23587840481832     IErMin= 1 ErrMin= 5.81D-02
 ErrMax= 5.81D-02  0.00D+00 EMaxC= 1.00D-01 BMatC= 4.91D-01 BMatP= 4.91D-01
 IDIUse=3 WtCom= 4.19D-01 WtEn= 5.81D-01
 Coeff-Com:  0.100D+01
 Coeff-En:   0.100D+01
 Coeff:      0.100D+01
 GapD=    2.000 DampG=2.000 DampE=0.500 DampFc=1.0000 IDamp=-1.
 RMSDP=6.48D-03 MaxDP=1.32D-01              OVMax= 0.00D+00

 Cycle   2  Pass 1  IDiag  1:
 E=-0.291639716056125     Delta-E=       -1.527518120874 Rises=F Damp=F
 DIIS: error= 1.69D-02 at cycle   2 NSaved=   2.
 NSaved= 2 IEnMin= 2 EnMin=-0.291639716056125     IErMin= 2 ErrMin= 1.69D-02
 ErrMax= 1.69D-02  0.00D+00 EMaxC= 1.00D-01 BMatC= 6.86D-02 BMatP= 4.91D-01
 IDIUse=3 WtCom= 8.31D-01 WtEn= 1.69D-01
 Coeff-Com: -0.408D+00 0.141D+01
 Coeff-En:   0.000D+00 0.100D+01
 Coeff:     -0.339D+00 0.134D+01
 RMSDP=3.70D-03 MaxDP=5.95D-02 DE=-1.53D+00 OVMax= 0.00D+00

 Cycle   3  Pass 1  IDiag  3:
 E=-0.604108064176671     Delta-E=       -0.312468348121 Rises=F Damp=F
 DIIS: error= 5.58D-03 at cycle   3 NSaved=   3.
 NSaved= 3 IEnMin= 3 EnMin=-0.604108064176671     IErMin= 3 ErrMin= 5.58D-03
 ErrMax= 5.58D-03  0.00D+00 EMaxC= 1.00D-01 BMatC= 7.62D-03 BMatP= 6.86D-02
 IDIUse=3 WtCom= 9.44D-01 WtEn= 5.58D-02
 Coeff-Com:  0.213D+00-0.950D+00 0.174D+01
 Coeff-En:   0.000D+00 0.000D+00 0.100D+01
 Coeff:      0.201D+00-0.897D+00 0.170D+01
 Gap=     0.273 Goal=   None    Shift=    0.000
 RMSDP=1.94D-03 MaxDP=3.86D-02 DE=-3.12D-01 OVMax= 2.49D-02

 Cycle   4  Pass 1  IDiag  3:
 E=-0.653856825215826     Delta-E=       -0.049748761039 Rises=F Damp=F
 DIIS: error= 1.13D-03 at cycle   4 NSaved=   4.
 NSaved= 4 IEnMin= 4 EnMin=-0.653856825215826     IErMin= 4 ErrMin= 1.13D-03
 ErrMax= 1.13D-03  0.00D+00 EMaxC= 1.00D-01 BMatC= 3.80D-04 BMatP= 7.62D-03
 IDIUse=3 WtCom= 9.89D-01 WtEn= 1.13D-02
 Coeff-Com: -0.459D-01 0.243D+00-0.629D+00 0.143D+01
 Coeff-En:   0.000D+00 0.000D+00 0.000D+00 0.100D+01
 Coeff:     -0.453D-01 0.240D+00-0.622D+00 0.143D+01
 Gap=     0.276 Goal=   None    Shift=    0.000
 RMSDP=4.69D-04 MaxDP=1.09D-02 DE=-4.97D-02 OVMax= 6.67D-03

 Cycle   5  Pass 1  IDiag  3:
 E=-0.656485476391481     Delta-E=       -0.002628651176 Rises=F Damp=F
 DIIS: error= 3.07D-04 at cycle   5 NSaved=   5.
 NSaved= 5 IEnMin= 5 EnMin=-0.656485476391481     IErMin= 5 ErrMin= 3.07D-04
 ErrMax= 3.07D-04  0.00D+00 EMaxC= 1.00D-01 BMatC= 2.51D-05 BMatP= 3.80D-04
 IDIUse=3 WtCom= 9.97D-01 WtEn= 3.07D-03
 Coeff-Com:  0.870D-02-0.499D-01 0.156D+00-0.560D+00 0.144D+01
 Coeff-En:   0.000D+00 0.000D+00 0.000D+00 0.000D+00 0.100D+01
 Coeff:      0.867D-02-0.497D-01 0.156D+00-0.559D+00 0.144D+01
 Gap=     0.275 Goal=   None    Shift=    0.000
 RMSDP=1.15D-04 MaxDP=2.50D-03 DE=-2.63D-03 OVMax= 2.12D-03

 Cycle   6  Pass 1  IDiag  3:
 E=-0.656650462090511     Delta-E=       -0.000164985699 Rises=F Damp=F
 DIIS: error= 1.20D-04 at cycle   6 NSaved=   6.
 NSaved= 6 IEnMin= 6 EnMin=-0.656650462090511     IErMin= 6 ErrMin= 1.20D-04
 ErrMax= 1.20D-04  0.00D+00 EMaxC= 1.00D-01 BMatC= 1.95D-06 BMatP= 2.51D-05
 IDIUse=3 WtCom= 9.99D-01 WtEn= 1.20D-03
 Coeff-Com:  0.727D-04 0.265D-02-0.198D-01 0.134D+00-0.602D+00 0.148D+01
 Coeff-En:   0.000D+00 0.000D+00 0.000D+00 0.000D+00 0.000D+00 0.100D+01
 Coeff:      0.726D-04 0.265D-02-0.197D-01 0.134D+00-0.601D+00 0.148D+01
 Gap=     0.275 Goal=   None    Shift=    0.000
 RMSDP=3.25D-05 MaxDP=8.71D-04 DE=-1.65D-04 OVMax= 6.33D-04

 Cycle   7  Pass 1  IDiag  3:
 E=-0.656663737474901     Delta-E=       -0.000013275384 Rises=F Damp=F
 DIIS: error= 3.32D-05 at cycle   7 NSaved=   7.
 NSaved= 7 IEnMin= 7 EnMin=-0.656663737474901     IErMin= 7 ErrMin= 3.32D-05
 ErrMax= 3.32D-05  0.00D+00 EMaxC= 1.00D-01 BMatC= 1.63D-07 BMatP= 1.95D-06
 IDIUse=1 WtCom= 1.00D+00 WtEn= 0.00D+00
 Coeff-Com: -0.470D-03 0.132D-02 0.786D-03-0.297D-01 0.182D+00-0.672D+00
 Coeff-Com:  0.152D+01
 Coeff:     -0.470D-03 0.132D-02 0.786D-03-0.297D-01 0.182D+00-0.672D+00
 Coeff:      0.152D+01
 Gap=     0.275 Goal=   None    Shift=    0.000
 RMSDP=9.90D-06 MaxDP=2.90D-04 DE=-1.33D-05 OVMax= 1.98D-04

 Cycle   8  Pass 1  IDiag  3:
 E=-0.656664949101469     Delta-E=       -0.000001211627 Rises=F Damp=F
 DIIS: error= 1.23D-05 at cycle   8 NSaved=   8.
 NSaved= 8 IEnMin= 8 EnMin=-0.656664949101469     IErMin= 8 ErrMin= 1.23D-05
 ErrMax= 1.23D-05  0.00D+00 EMaxC= 1.00D-01 BMatC= 1.88D-08 BMatP= 1.63D-07
 IDIUse=1 WtCom= 1.00D+00 WtEn= 0.00D+00
 Coeff-Com:  0.116D-03-0.398D-03 0.460D-03 0.437D-02-0.384D-01 0.197D+00
 Coeff-Com: -0.761D+00 0.160D+01
 Coeff:      0.116D-03-0.398D-03 0.460D-03 0.437D-02-0.384D-01 0.197D+00
 Coeff:     -0.761D+00 0.160D+01
 Gap=     0.275 Goal=   None    Shift=    0.000
 RMSDP=3.70D-06 MaxDP=1.19D-04 DE=-1.21D-06 OVMax= 8.54D-05

 Cycle   9  Pass 1  IDiag  3:
 E=-0.656665097993027     Delta-E=       -0.000000148892 Rises=F Damp=F
 DIIS: error= 4.67D-06 at cycle   9 NSaved=   9.
 NSaved= 9 IEnMin= 9 EnMin=-0.656665097993027     IErMin= 9 ErrMin= 4.67D-06
 ErrMax= 4.67D-06  0.00D+00 EMaxC= 1.00D-01 BMatC= 1.70D-09 BMatP= 1.88D-08
 IDIUse=1 WtCom= 1.00D+00 WtEn= 0.00D+00
 Coeff-Com: -0.108D-04 0.355D-04-0.143D-03-0.150D-03 0.424D-02-0.348D-01
 Coeff-Com:  0.199D+00-0.693D+00 0.152D+01
 Coeff:     -0.108D-04 0.355D-04-0.143D-03-0.150D-03 0.424D-02-0.348D-01
 Coeff:      0.199D+00-0.693D+00 0.152D+01
 Gap=     0.275 Goal=   None    Shift=    0.000
 RMSDP=1.11D-06 MaxDP=3.55D-05 DE=-1.49D-07 OVMax= 2.83D-05

 Cycle  10  Pass 1  IDiag  3:
 E=-0.656665110856920     Delta-E=       -0.000000012864 Rises=F Damp=F
 DIIS: error= 1.29D-06 at cycle  10 NSaved=  10.
 NSaved=10 IEnMin=10 EnMin=-0.656665110856920     IErMin=10 ErrMin= 1.29D-06
 ErrMax= 1.29D-06  0.00D+00 EMaxC= 1.00D-01 BMatC= 1.47D-10 BMatP= 1.70D-09
 IDIUse=1 WtCom= 1.00D+00 WtEn= 0.00D+00
 Coeff-Com:  0.718D-06-0.329D-05 0.610D-04-0.242D-03 0.588D-03 0.103D-02
 Coeff-Com: -0.234D-01 0.151D+00-0.610D+00 0.148D+01
 Coeff:      0.718D-06-0.329D-05 0.610D-04-0.242D-03 0.588D-03 0.103D-02
 Coeff:     -0.234D-01 0.151D+00-0.610D+00 0.148D+01
 Gap=     0.275 Goal=   None    Shift=    0.000
 RMSDP=2.97D-07 MaxDP=1.03D-05 DE=-1.29D-08 OVMax= 6.92D-06

 Cycle  11  Pass 1  IDiag  3:
 E=-0.656665111934672     Delta-E=       -0.000000001078 Rises=F Damp=F
 DIIS: error= 4.29D-07 at cycle  11 NSaved=  11.
 NSaved=11 IEnMin=11 EnMin=-0.656665111934672     IErMin=11 ErrMin= 4.29D-07
 ErrMax= 4.29D-07  0.00D+00 EMaxC= 1.00D-01 BMatC= 1.42D-11 BMatP= 1.47D-10
 IDIUse=1 WtCom= 1.00D+00 WtEn= 0.00D+00
 Coeff-Com: -0.291D-07-0.446D-06-0.168D-04 0.894D-04-0.346D-03 0.902D-03
 Coeff-Com:  0.518D-03-0.245D-01 0.155D+00-0.628D+00 0.150D+01
 Coeff:     -0.291D-07-0.446D-06-0.168D-04 0.894D-04-0.346D-03 0.902D-03
 Coeff:      0.518D-03-0.245D-01 0.155D+00-0.628D+00 0.150D+01
 Gap=     0.275 Goal=   None    Shift=    0.000
 RMSDP=9.20D-08 MaxDP=3.33D-06 DE=-1.08D-09 OVMax= 3.21D-06

 Cycle  12  Pass 1  IDiag  3:
 E=-0.656665111976963     Delta-E=       -0.000000000042 Rises=F Damp=F
 DIIS: error= 1.79D-07 at cycle  12 NSaved=  12.
 NSaved=12 IEnMin=12 EnMin=-0.656665111976963     IErMin=12 ErrMin= 1.79D-07
 ErrMax= 1.79D-07  0.00D+00 EMaxC= 1.00D-01 BMatC= 1.74D-12 BMatP= 1.42D-11
 IDIUse=1 WtCom= 1.00D+00 WtEn= 0.00D+00
 Coeff-Com: -0.182D-06 0.710D-06 0.376D-05-0.267D-04 0.124D-03-0.435D-03
 Coeff-Com:  0.110D-02-0.579D-04-0.180D-01 0.132D+00-0.634D+00 0.152D+01
 Coeff:     -0.182D-06 0.710D-06 0.376D-05-0.267D-04 0.124D-03-0.435D-03
 Coeff:      0.110D-02-0.579D-04-0.180D-01 0.132D+00-0.634D+00 0.152D+01
 Gap=     0.275 Goal=   None    Shift=    0.000
 RMSDP=3.38D-08 MaxDP=1.39D-06 DE=-4.23D-11 OVMax= 1.26D-06

 Cycle  13  Pass 1  IDiag  3:
 E=-0.656665112032442     Delta-E=       -0.000000000055 Rises=F Damp=F
 DIIS: error= 6.76D-08 at cycle  13 NSaved=  13.
 NSaved=13 IEnMin=13 EnMin=-0.656665112032442     IErMin=13 ErrMin= 6.76D-08
 ErrMax= 6.76D-08  0.00D+00 EMaxC= 1.00D-01 BMatC= 1.89D-13 BMatP= 1.74D-12
 IDIUse=1 WtCom= 1.00D+00 WtEn= 0.00D+00
 Coeff-Com:  0.298D-07-0.159D-06-0.452D-06 0.212D-05-0.824D-05 0.337D-04
 Coeff-Com: -0.139D-03 0.498D-03-0.128D-02-0.370D-02 0.787D-01-0.466D+00
 Coeff-Com:  0.139D+01
 Coeff:      0.298D-07-0.159D-06-0.452D-06 0.212D-05-0.824D-05 0.337D-04
 Coeff:     -0.139D-03 0.498D-03-0.128D-02-0.370D-02 0.787D-01-0.466D+00
 Coeff:      0.139D+01
 Gap=     0.275 Goal=   None    Shift=    0.000
 RMSDP=1.02D-08 MaxDP=5.09D-07 DE=-5.55D-11 OVMax= 3.69D-07

 Cycle  14  Pass 1  IDiag  3:
 E=-0.656665112041992     Delta-E=       -0.000000000010 Rises=F Damp=F
 DIIS: error= 2.37D-08 at cycle  14 NSaved=  14.
 NSaved=14 IEnMin=14 EnMin=-0.656665112041992     IErMin=14 ErrMin= 2.37D-08
 ErrMax= 2.37D-08  0.00D+00 EMaxC= 1.00D-01 BMatC= 2.39D-14 BMatP= 1.89D-13
 IDIUse=1 WtCom= 1.00D+00 WtEn= 0.00D+00
 Coeff-Com: -0.146D-07 0.873D-07-0.325D-07 0.779D-07-0.175D-05 0.757D-05
 Coeff-Com: -0.189D-04 0.330D-04 0.145D-03-0.163D-02 0.435D-02 0.440D-01
 Coeff-Com: -0.470D+00 0.142D+01
 Coeff:     -0.146D-07 0.873D-07-0.325D-07 0.779D-07-0.175D-05 0.757D-05
 Coeff:     -0.189D-04 0.330D-04 0.145D-03-0.163D-02 0.435D-02 0.440D-01
 Coeff:     -0.470D+00 0.142D+01
 Gap=     0.275 Goal=   None    Shift=    0.000
 RMSDP=3.66D-09 MaxDP=1.86D-07 DE=-9.55D-12 OVMax= 1.14D-07

 Cycle  15  Pass 2  IDiag  1:
 SCF Done:  E(RPM6) = -0.656665112042     A.U. after   15 cycles
            NFock= 14  Conv=0.37D-08     -V/T= 0.9986
 KE=-4.552619947923D+02 PE=-4.826634669563D+03 EE= 2.557215319990D+03
 Leave Link  502 at Mon Jun 28 19:19:06 2021, MaxMem=  2147483648 cpu:               1.2 elap:               0.1
 (Enter /home/matma/Programs/gaussian/G16_x86_SSE4/tar/g16/l601.exe)
 Copying SCF densities to generalized density rwf, IOpCl= 0 IROHF=0.

 **********************************************************************

            Population analysis using the SCF Density.

 **********************************************************************

 Orbital symmetries:
       Occupied  (A) (A) (A) (A) (A) (A) (A) (A) (A) (A) (A) (A)
                 (A) (A) (A) (A) (A) (A) (A) (A) (A) (A) (A) (A)
                 (A) (A) (A) (A) (A) (A) (A) (A) (A) (A) (A) (A)
                 (A) (A) (A) (A) (A) (A) (A) (A) (A) (A) (A) (A)
                 (A) (A) (A) (A) (A) (A) (A) (A) (A) (A) (A) (A)
                 (A) (A) (A) (A) (A) (A) (A) (A) (A) (A) (A) (A)
                 (A) (A) (A) (A) (A) (A) (A) (A) (A) (A) (A) (A)
                 (A) (A) (A) (A) (A) (A) (A) (A) (A) (A) (A) (A)
                 (A) (A) (A) (A) (A) (A) (A) (A) (A)
       Virtual   (A) (A) (A) (A) (A) (A) (A) (A) (A) (A) (A) (A)
                 (A) (A) (A) (A) (A) (A) (A) (A) (A) (A) (A) (A)
                 (A) (A) (A) (A) (A) (A) (A) (A) (A) (A) (A) (A)
                 (A) (A) (A) (A) (A) (A) (A) (A) (A) (A) (A) (A)
                 (A) (A) (A) (A) (A) (A) (A) (A) (A) (A) (A) (A)
                 (A) (A) (A) (A) (A) (A) (A) (A) (A) (A) (A) (A)
                 (A) (A) (A)
 The electronic state is 1-A.
 Alpha  occ. eigenvalues --   -1.42482  -1.35393  -1.30747  -1.28485  -1.26691
 Alpha  occ. eigenvalues --   -1.25777  -1.24983  -1.23889  -1.22892  -1.22142
 Alpha  occ. eigenvalues --   -1.21796  -1.21397  -1.20873  -1.18634  -1.18047
 Alpha  occ. eigenvalues --   -1.17412  -1.16793  -1.13547  -1.12225  -1.10527
 Alpha  occ. eigenvalues --   -1.10377  -1.09504  -1.07816  -1.05089  -1.01122
 Alpha  occ. eigenvalues --   -1.00956  -0.99361  -0.98746  -0.97717  -0.94183
 Alpha  occ. eigenvalues --   -0.92666  -0.90597  -0.88158  -0.88109  -0.87554
 Alpha  occ. eigenvalues --   -0.84818  -0.84134  -0.82767  -0.81668  -0.81242
 Alpha  occ. eigenvalues --   -0.80652  -0.79500  -0.78761  -0.78085  -0.77889
 Alpha  occ. eigenvalues --   -0.77442  -0.77154  -0.76055  -0.75288  -0.74459
 Alpha  occ. eigenvalues --   -0.74253  -0.74004  -0.72697  -0.71969  -0.71253
 Alpha  occ. eigenvalues --   -0.70494  -0.69711  -0.69489  -0.68784  -0.67969
 Alpha  occ. eigenvalues --   -0.67298  -0.66996  -0.66944  -0.66436  -0.66223
 Alpha  occ. eigenvalues --   -0.65986  -0.65211  -0.64456  -0.63880  -0.63394
 Alpha  occ. eigenvalues --   -0.63111  -0.62253  -0.61384  -0.60875  -0.60412
 Alpha  occ. eigenvalues --   -0.59331  -0.58994  -0.58723  -0.58310  -0.57967
 Alpha  occ. eigenvalues --   -0.57639  -0.56834  -0.56725  -0.56415  -0.55928
 Alpha  occ. eigenvalues --   -0.55664  -0.54873  -0.54351  -0.53689  -0.52837
 Alpha  occ. eigenvalues --   -0.52579  -0.52132  -0.51688  -0.51269  -0.51243
 Alpha  occ. eigenvalues --   -0.51018  -0.50489  -0.49517  -0.48691  -0.47695
 Alpha  occ. eigenvalues --   -0.46652  -0.46214  -0.46114  -0.44639  -0.42996
 Alpha virt. eigenvalues --   -0.15591  -0.11487  -0.09459  -0.08774  -0.08043
 Alpha virt. eigenvalues --   -0.06407  -0.04397  -0.04035  -0.03652  -0.03177
 Alpha virt. eigenvalues --   -0.02241  -0.02164  -0.01925  -0.01643  -0.01516
 Alpha virt. eigenvalues --   -0.00907  -0.00673  -0.00124   0.00124   0.00283
 Alpha virt. eigenvalues --    0.00544   0.00715   0.01204   0.01363   0.01646
 Alpha virt. eigenvalues --    0.01940   0.02027   0.02366   0.02730   0.03268
 Alpha virt. eigenvalues --    0.03513   0.03666   0.03783   0.03879   0.04053
 Alpha virt. eigenvalues --    0.04333   0.04442   0.04847   0.05548   0.05770
 Alpha virt. eigenvalues --    0.06196   0.06559   0.06770   0.06917   0.06955
 Alpha virt. eigenvalues --    0.07161   0.07330   0.07493   0.07665   0.08322
 Alpha virt. eigenvalues --    0.08418   0.08594   0.08643   0.08675   0.08870
 Alpha virt. eigenvalues --    0.09084   0.09536   0.10161   0.10473   0.10657
 Alpha virt. eigenvalues --    0.10860   0.11177   0.11344   0.11644   0.11725
 Alpha virt. eigenvalues --    0.12428   0.12551   0.13193   0.13354   0.13764
 Alpha virt. eigenvalues --    0.14273   0.14438   0.14649   0.16238   0.17700
          Condensed to atoms (all electrons):
 Mulliken charges:
               1
     1  C    0.326040
     2  H    0.146026
     3  O   -0.514023
     4  H    0.341462
     5  C    0.060671
     6  H    0.187716
     7  O   -0.412638
     8  C   -0.162838
     9  H    0.202386
    10  N   -0.162611
    11  H    0.324456
    12  C    0.464184
    13  O   -0.370226
    14  C   -0.576558
    15  H    0.224374
    16  H    0.236179
    17  H    0.215395
    18  C    0.142464
    19  H    0.167619
    20  O   -0.489640
    21  H    0.337815
    22  C    0.017364
    23  H    0.164398
    24  O   -0.460554
    25  C   -0.081247
    26  H    0.140027
    27  H    0.156474
    28  O   -0.564492
    29  H    0.338779
    30  C    0.366223
    31  H    0.102331
    32  C    0.078923
    33  H    0.114335
    34  O   -0.448151
    35  C   -0.070060
    36  H    0.151233
    37  O   -0.476157
    38  H    0.314995
    39  C    0.026580
    40  H    0.127814
    41  O   -0.549197
    42  H    0.326817
    43  C   -0.005719
    44  H    0.229889
    45  O   -0.509648
    46  H    0.317976
    47  C   -0.025778
    48  H    0.131850
    49  H    0.178261
    50  O   -0.423930
    51  C    0.322717
    52  H    0.136068
    53  C    0.149739
    54  H    0.132599
    55  O   -0.440641
    56  C   -0.018926
    57  H    0.164903
    58  O   -0.521866
    59  H    0.330804
    60  C    0.083142
    61  H    0.174126
    62  O   -0.528594
    63  H    0.331651
    64  C    0.003246
    65  H    0.139538
    66  O   -0.541518
    67  H    0.325812
    68  C   -0.512253
    69  H    0.167495
    70  H    0.179131
    71  H    0.184810
    72  H    0.380426
 Sum of Mulliken charges =   1.00000
 Mulliken charges with hydrogens summed into heavy atoms:
               1
     1  C    0.472066
     3  O   -0.172561
     5  C    0.248386
     7  O   -0.412638
     8  C    0.039548
    10  N    0.161845
    12  C    0.464184
    13  O    0.010200
    14  C    0.099390
    18  C    0.310083
    20  O   -0.151825
    22  C    0.181763
    24  O   -0.460554
    25  C    0.215254
    28  O   -0.225713
    30  C    0.468554
    32  C    0.193258
    34  O   -0.448151
    35  C    0.081173
    37  O   -0.161162
    39  C    0.154395
    41  O   -0.222380
    43  C    0.224170
    45  O   -0.191672
    47  C    0.284332
    50  O   -0.423930
    51  C    0.458786
    53  C    0.282338
    55  O   -0.440641
    56  C    0.145977
    58  O   -0.191061
    60  C    0.257268
    62  O   -0.196943
    64  C    0.142784
    66  O   -0.215706
    68  C    0.019182
 Charge=              1.0000 electrons
 Dipole moment (field-independent basis, Debye):
    X=              8.9958    Y=              2.7905    Z=              1.5308  Tot=              9.5422
 N-N= 2.724024679254D+03 E-N=-4.826634669516D+03  KE=-4.552619947923D+02
 Leave Link  601 at Mon Jun 28 19:19:06 2021, MaxMem=  2147483648 cpu:               0.2 elap:               0.0
 (Enter /home/matma/Programs/gaussian/G16_x86_SSE4/tar/g16/l701.exe)
 ... and contract with generalized density number  0.
 Compute integral first derivatives.
 Leave Link  701 at Mon Jun 28 19:19:07 2021, MaxMem=  2147483648 cpu:               1.0 elap:               0.1
 (Enter /home/matma/Programs/gaussian/G16_x86_SSE4/tar/g16/l702.exe)
 L702 exits ... SP integral derivatives will be done elsewhere.
 Leave Link  702 at Mon Jun 28 19:19:07 2021, MaxMem=  2147483648 cpu:               0.1 elap:               0.0
 (Enter /home/matma/Programs/gaussian/G16_x86_SSE4/tar/g16/l703.exe)
 Integral derivatives from FoFJK, PRISM(SPDF).
 Compute integral first derivatives, UseDBF=F ICtDFT=           0.
 Calling FoFJK, ICntrl=      2127 FMM=F ISym2X=0 I1Cent= 0 IOpClX= 0 NMat=1 NMatS=1 NMatT=0.
 FoFJK:  IHMeth=40 ICntrl=    2127 DoSepK=F KAlg= 0 I1Cent=           0 FoldK=F
 IRaf=         0 NMat=       1 IRICut=       1 DoRegI=T DoRafI=F ISym2E= 0 IDoP0=3 IntGTp=3.
 FoFCou: FMM=F IPFlag=           0 FMFlag=      100000 FMFlg1=        2800
         NFxFlg=           0 DoJE=F BraDBF=F KetDBF=F FulRan=T
         wScrn=  0.000000 ICntrl=      2127 IOpCl=  0 I1Cent=           0 NGrid=           0
         NMat0=    1 NMatS0=      1 NMatT0=    0 NMatD0=    1 NMtDS0=    0 NMtDT0=    0
 Symmetry not used in FoFCou.
 Leave Link  703 at Mon Jun 28 19:19:07 2021, MaxMem=  2147483648 cpu:               0.2 elap:               0.0
 (Enter /home/matma/Programs/gaussian/G16_x86_SSE4/tar/g16/l716.exe)
 Dipole        = 3.53920730D+00 1.09786382D+00 6.02272056D-01
 ***** Axes restored to original set *****
 -------------------------------------------------------------------
 Center     Atomic                   Forces (Hartrees/Bohr)
 Number     Number              X              Y              Z
 -------------------------------------------------------------------
      1        6          -0.014074075    0.013392873    0.026948438
      2        1          -0.004030053   -0.002650360    0.013989220
[...]
 0.00011328,0.00007313,0.00005697,-0.00003179,-0.00003146,0.00001658,0.
 00006488,0.00000309,-0.00041234,0.00026084,-0.00009083,0.00039688,0.00
 011796,0.00001820,-0.00001089,-0.00023952,-0.00012803,0.00007580,0.000
 06869,0.00001629,-0.00008232,-0.00004591,0.00020827,0.00007045,0.00004
 663,0.00003087,0.00013752,0.00002203,0.00002623,0.00000636,-0.00038281
 ,-0.00031400,-0.00027512,0.00034154,0.00026820,-0.00002619,-0.00009110
 ,0.00002963,0.00001797,0.00000288,-0.00001556,0.00002282,-0.00004322,-
 0.00002528,0.00004422,-0.00000135,-0.00000871,-0.00001354,0.00011907,0
 .00004168,-0.00006024,-0.00003979,-0.00000574,0.00000992,-0.00000589,-
 0.00000442,0.00000272,0.00005444,0.00001921,-0.00001149,-0.00001270,-0
 .00000925,-0.00000540,-0.00001954,-0.00000169,-0.00001845,0.00000203,-
 0.00000949,0.00000410,0.00003758,0.00002458,0.00002133,-0.00000797,-0.
 00001702,-0.00000700,-0.00000207,-0.00000029,-0.00000185,0.00000546,-0
 .00000498,-0.00000456,0.00003214,0.00001785,0.00001556,-0.00001942,-0.
 00000124,-0.00001057,-0.00015011,-0.00005470,-0.00003773,-0.00001038,-
 0.00001226,-0.00000938,0.00000471,-0.00000230,-0.00002499,0.00013061,0
 .00003529,0.00028827,0.00034508,-0.00022021,-0.00074444,-0.00009667,0.
 00005403,0.00013942,-0.00368405,-0.01125943,-0.03147450,0.00054704,-0.
 00128677,-0.00145049,-0.00012603,0.00131034,0.00030891,0.00001437,-0.0
 0009456,-0.00000665,0.00001326,-0.00002146,0.00007093,-0.00009131,0.00
 014428,0.00005366,0.00005473,-0.00002521,-0.00001913,-0.00000830,-0.00
 010002,-0.00018318,0.00001267,0.00000112,-0.00005687,-0.00036184,0.000
 19122,-0.00006240,0.00008019,-0.00002415,0.00014419,0.00115960,-0.0004
 1736,-0.00001548,0.00015579,0.00001760,-0.00015338,0.00038400,0.000030
 62,-0.00117056,0.00004901,-0.00015971,0.00056259,-0.07028479,0.0184497
 7,-0.18146539,-0.00499735,0.00995133,-0.01118504,0.08340248,-0.0170030
 8,0.22652040,0.00005794,-0.00040249,0.00021006,0.00000875,0.00002417,0
 .00004183,0.00007223,0.00024377,-0.00012513,0.00002780,-0.00009537,0.0
 0003884,0.00001958,0.00003619,0.00027637,0.00005936,-0.00006357,-0.000
 07835,-0.00006265,0.00018612,-0.00010370,0.00029312,0.00031859,-0.0002
 9323,-0.00006202,0.00004625,0.00005008,0.00028732,0.00008460,-0.000086
 76,0.00000644,-0.00010337,-0.00004185,-0.00041377,0.00006877,0.0000931
 9,0.00017780,-0.00008966,-0.00011166,0.00015281,0.00007473,0.00008604,
 -0.00000474,-0.00004077,-0.00003785,-0.00003593,0.00000606,-0.00002464
 ,-0.00003804,-0.00003612,0.00000436,-0.00162703,-0.00150283,-0.0005634
 8,-0.00011741,0.00002473,-0.00008720,0.00250850,0.00109903,-0.00073153
 ,-0.00011669,-0.00060355,0.00161475,-0.00033279,-0.00030498,-0.0002682
 7,0.00057238,-0.00013591,-0.00015073,0.00008717,0.00081377,0.00041946,
 -0.00012116,-0.00012046,-0.00016940,0.00030664,0.00011793,-0.00011872,
 0.00003020,-0.00001699,0.00001980,-0.00032828,0.00048271,-0.00036952,0
 .00018002,0.00004966,0.00011103,0.00039510,-0.00074019,-0.00022014,-0.
 00002607,0.00002190,0.00001454,0.00001890,0.00006924,-0.00018205,0.000
 04869,-0.00001608,0.00003676,-0.00043482,0.00011032,0.00024521,-0.0000
 0533,0.00008408,0.00000324,0.00000046,-0.00001927,-0.00002456,-0.00000
 649,0.00007748,0.00006473,-0.00000664,-0.00003911,-0.00002818,0.000021
 89,-0.00000522,-0.00002586,-0.00000073,-0.00001089,0.00000563,-0.00002
 844,0.00003402,0.00005438,0.00000860,-0.00001847,-0.00001810,0.0000146
 1,0.00000829,0.00001162,0.00000651,-0.00000928,-0.00000809,-0.00007414
 ,0.00001010,0.00004372,0.00003231,-0.00001259,-0.00002706,0.00035976,0
 .00014805,0.00018581,0.00008809,-0.00010255,-0.00010075,-0.00000989,-0
 .00001552,-0.00000297,-0.00044734,-0.00002670,-0.00059738,-0.00024162,
 0.00023272,0.00122649,0.00017051,-0.00006353,-0.00018321,-0.01801587,0
 .01112050,0.01265711,0.00027864,-0.00021972,0.00051880,-0.00075420,-0.
 00076852,-0.00052246,-0.00008573,0.00013939,0.00001161,-0.00002246,0.0
 0003258,-0.00002713,0.00010419,-0.00020070,-0.00013599,-0.00005855,0.0
 0002223,0.00004040,-0.00022894,0.00011048,-0.00002107,0.00000061,-0.00
 000875,0.00008115,0.00021775,-0.00014852,0.00002722,-0.00006717,0.0000
 7212,-0.00002173,-0.00053532,0.00046596,0.00044196,-0.00007924,-0.0000
 6236,0.00004176,0.00048939,-0.00035916,0.00007244,-0.00016617,0.000306
 56,-0.00004478,-0.21201840,-0.01342174,0.02136465,-0.00991760,-0.00870
 484,0.00341160,-0.01705959,-0.00082015,-0.00672205,0.25655625,-0.00026
 029,0.00014410,0.00013164,-0.00000211,-0.00000307,0.00002419,0.0001290
 6,0.00004553,-0.00008828,-0.00001129,-0.00002528,0.00004239,-0.0003141
 2,-0.00023335,0.00018222,0.00000821,-0.00005622,-0.00002468,0.00038967
 ,-0.00002610,-0.00021092,0.00010856,-0.00012327,-0.00012835,-0.0000063
 8,0.00007607,0.00001526,0.00012859,-0.00005000,-0.00002099,-0.00007762
 ,0.00003372,0.00002337,-0.00021981,0.00010606,0.00004893,0.00010041,-0
 .00009214,-0.00005843,0.00007205,-0.00002243,0.00002515,-0.00001702,0.
 00000667,-0.00000700,-0.00001778,0.00001521,-0.00001379,-0.00001904,-0
 .00000124,-0.00000013,-0.00035736,0.00007900,0.00041523,-0.00000373,0.
 00010396,-0.00008544,0.00033958,-0.00075206,-0.00023728,-0.00050010,0.
 00037875,0.00029713,-0.00025455,-0.00020712,-0.00033300,-0.00050390,-0
 .00032844,-0.00019939,0.00026255,0.00026682,0.00024632,0.00001707,0.00
 021199,0.00003319,-0.00005003,-0.00031913,0.00026645,0.00004618,-0.000
 07774,0.00001274,0.00023138,-0.00010333,-0.00043692,0.00000617,0.00003
 857,0.00024887,0.00001090,-0.00024528,-0.00007805,-0.00001321,-0.00000
 960,0.00000633,-0.00000548,0.00000144,-0.00009165,0.00000487,-0.000018
 05,-0.00000837,0.00000846,0.00008260,0.00010561,-0.00005062,0.00001703
 ,0.00002687,-0.00000491,0.00002569,-0.00001609,0.00007791,0.00003022,0
 .00003315,-0.00002306,-0.00001712,-0.00002628,-0.00002043,-0.00002217,
 -0.00003684,-0.00000056,-0.00001043,0.00000224,0.00003906,0.00003597,0
 .00007002,-0.00000302,-0.00002464,-0.00001973,-0.00000579,0.00004358,-
 0.00002596,0.00001120,-0.00001257,-0.00000653,0.00003963,-0.00003321,0
 .00007718,-0.00002106,0.00000950,-0.00003408,-0.00011853,-0.00006939,0
 .00008110,-0.00000441,0.00001352,-0.00008275,0.00000794,0.00003772,-0.
 00005706,0.00007392,-0.00005115,0.00049949,0.00025879,-0.00061687,-0.0
 0099168,-0.00007368,0.00004667,0.00007125,0.02080294,-0.00104235,-0.00
 849291,0.00004880,0.00009670,-0.00023334,-0.00045301,0.00034036,0.0007
 7181,0.00010491,0.00005471,0.00004117,-0.00000166,-0.00001489,0.000004
 12,-0.00016937,0.00000849,0.00009184,0.00005549,0.00003879,-0.00004133
 ,0.00038237,0.00011143,0.00007806,-0.00000616,0.00000666,0.00000835,0.
 00002793,-0.00016359,-0.00003837,0.00000988,0.00002817,-0.00002143,0.0
 0064067,-0.00142131,-0.00157876,-0.00007263,0.00004966,-0.00001021,-0.
 00037379,-0.00003504,0.00004291,0.00023197,0.00001000,-0.00002075,-0.0
 1507354,-0.03439985,0.00178140,-0.02109730,-0.00559522,0.00402427,0.00
 303099,0.00407345,0.00040025,0.01254946,0.03953075,0.00007639,0.000051
 27,0.00000050,0.00004934,0.00003090,0.00001976,-0.00006212,-0.00006885
 ,0.00000082,0.00000387,0.00002909,-0.00000013,0.00017869,-0.00002643,0
 .00002023,-0.00003476,0.00003495,0.00002931,-0.00009995,-0.00001014,-0
 .00007418,0.00000423,-0.00006305,-0.00001999,0.00002994,0.00000147,0.0
 0000358,-0.00007963,-0.00002131,-0.00004796,-0.00004724,0.00001506,0.0
 0005759,0.00005980,-0.00002621,0.00002012,-0.00001944,0.00001323,-0.00
 000603,-0.00002404,-0.00000690,-0.00005476,-0.00000867,0.00000796,0.00
 002348,0.00000294,-0.00000734,0.00001539,0.00000443,0.00000302,0.00000
 547,0.00026371,0.00065592,0.00047671,-0.00008296,-0.00012939,0.0001121
 5,-0.00102292,-0.00037339,-0.00103493,0.00099332,0.00027190,-0.0003080
 4,0.00011406,0.00001907,0.00008887,-0.00033282,-0.00031685,0.00030005,
 0.00006614,-0.00006828,-0.00019710,-0.00002474,0.00018733,0.00014611,0
 .00000841,0.00018144,-0.00001657,-0.00002149,0.00003683,-0.00001668,-0
 .00035806,-0.00056439,0.00013503,0.00013831,0.00023178,-0.00023447,-0.
 00010668,0.00008421,0.00000780,0.00000373,-0.00000856,0.00002758,-0.00
 008068,-0.00002431,0.00008750,0.00001900,-0.00000230,-0.00001046,0.000
 12300,0.00003972,-0.00010773,-0.00004330,-0.00001447,0.00000465,-0.000
 00915,-0.00002280,0.00001121,0.00004881,0.00001250,-0.00003041,-0.0000
 0872,-0.00000472,0.00000192,-0.00001580,0.00000684,-0.00001362,0.00000
 348,-0.00000827,0.00000441,0.00003230,0.00001973,0.00000262,-0.0000081
 0,-0.00001294,-0.00000231,-0.00000070,-0.00002288,0.00001101,0.0000054
 9,-0.00000164,-0.00000543,0.00001533,0.00004975,-0.00000411,-0.0000138
 5,-0.00000820,-0.00000401,-0.00003561,-0.00001416,-0.00002018,0.000001
 97,-0.00011087,-0.00003906,-0.00000750,-0.00004016,-0.00002838,-0.0000
 9720,0.00014569,-0.00000694,0.00038392,-0.00000790,-0.00017808,-0.0000
 6695,0.00004139,0.00009068,0.02247209,-0.00625873,-0.00578561,0.000426
 29,-0.00033585,-0.00050118,-0.00032259,0.00059979,0.00001800,0.0000381
 6,0.00000742,-0.00004036,-0.00001281,-0.00000352,0.00002997,-0.0000406
 4,0.00001864,-0.00000673,0.00001767,-0.00000171,0.00000058,0.00028491,
 -0.00002689,-0.00001036,0.00001576,-0.00002605,0.00003524,0.00004770,-
 0.00005969,-0.00006474,-0.00000326,-0.00000699,0.00001567,0.00061156,-
 0.00130189,-0.00113051,-0.00002396,-0.00005158,0.00001425,-0.00028010,
 0.00020714,-0.00027793,-0.00008823,-0.00005270,0.00012155,0.01951632,0
 .00098705,-0.03696337,0.00859011,0.00393598,0.00220926,-0.01990546,-0.
 00133083,-0.00003011,-0.03127832,0.00352460,0.04311923,-0.00029417,0.0
 0120112,-0.00039633,-0.00011542,-0.00035161,-0.00007892,-0.00010870,-0
 .00066417,0.00084287,0.00008878,0.00038780,-0.00029822,-0.00046730,-0.
 00022167,-0.00000937,-0.00003059,0.00011712,0.00003603,0.00078720,-0.0
 0048722,0.00003766,-0.00050824,-0.00029254,-0.00023037,-0.00001568,-0.
 00035954,-0.00031509,0.00535229,-0.00170907,-0.00286763,-0.00060697,0.
 00087929,0.00122350,-0.03080799,0.01597737,0.01646698,-0.19313429,0.01
 419960,0.00864023,-0.00224254,-0.00050174,-0.00010039,-0.00028035,-0.0
 0003302,-0.00010172,0.00157510,-0.00044835,-0.00003416,0.00153228,-0.0
 0002499,-0.00053320,-0.00119830,-0.00069860,0.00006009,-0.00002269,-0.
 00012885,0.00006439,0.00084571,0.00046780,0.00051747,-0.00028547,0.000
 11990,-0.00027101,0.00025119,0.00019437,-0.00009794,-0.00024635,-0.000
 10590,0.00006933,0.00071258,-0.00050110,-0.00056492,0.00011328,-0.0000
 2231,0.00002667,-0.00008751,-0.00001185,0.00004679,-0.00003502,0.00006
 229,-0.00004543,0.00025847,0.00001300,0.00025935,-0.00008832,-0.000056
 39,-0.00014690,-0.00058855,0.00093416,0.00050459,-0.00002197,0.0000023
 0,0.00000967,-0.00001214,-0.00011722,0.00032028,-0.00004439,0.00005564
 ,-0.00003807,0.00054608,-0.00019098,-0.00042646,-0.00012081,-0.0000290
 0,0.00005009,-0.00000880,0.00001664,0.00009409,0.00001461,-0.00040966,
 -0.00037990,0.00013548,0.00017470,0.00012902,0.00009342,0.00002231,0.0
 0014124,0.00000008,0.00004671,-0.00002397,-0.00007678,-0.00015412,-0.0
 0026217,0.00001996,0.00010338,0.00008849,-0.00001486,-0.00010731,0.000
 02056,-0.00002090,0.00004376,0.00002748,0.00000478,0.00003304,-0.00019
 783,0.00001483,0.00000490,0.00011652,-0.00007549,-0.00000350,-0.000152
 55,-0.00004787,0.00001162,0.00006834,-0.00000480,-0.00001320,0.0000692
 6,0.00013187,0.00000369,-0.00001039,-0.00008600,0.00011191,0.00005247,
 -0.00003775,-0.00001521,0.00001000,-0.00013817,-0.00014235,0.00003243,
 -0.00000172,0.00000126,0.00000798,0.00026920,0.00003994,-0.00008152,-0
 .00002895,0.00006006,0.00003057,0.00000112,0.00000547,-0.00001247,0.00
 011530,-0.00005834,-0.00006735,-0.00006306,0.00000676,0.00003504,-0.00
 011964,-0.00001466,-0.00000238,-0.00000895,-0.00000285,0.00001969,0.00
 014761,-0.00000181,0.00003732,-0.00003808,-0.00000476,-0.00003065,0.00
 001712,0.00004890,-0.00006321,-0.00002009,-0.00003210,0.00001325,0.000
 07441,-0.00001975,0.00003151,-0.00004943,0.00000672,0.00000290,0.00020
 174,0.00012458,-0.00002535,-0.00003786,-0.00004580,0.00000449,-0.00005
 046,-0.00003103,-0.00001066,-0.00010913,-0.00005019,0.00001720,0.21909
 767,0.00036745,-0.00033479,-0.00049395,0.00001257,0.00011651,0.0000472
 1,-0.00048374,-0.00010915,0.00008105,0.00005378,-0.00005442,0.00003765
 ,0.00021313,0.00014258,-0.00007020,-0.00001068,-0.00003645,-0.00000809
 ,-0.00035551,0.00008282,0.00021995,-0.00050810,0.00080975,-0.00042363,
 0.00035183,0.00017580,0.00012026,0.00146149,-0.00477711,-0.00423734,0.
 00045951,0.00220983,-0.00098186,0.03872470,-0.01074242,-0.00752962,-0.
 01267091,-0.01481820,-0.01084584,-0.00077834,-0.00295142,0.00097132,0.
 00016523,-0.00000586,-0.00030669,0.00011565,0.00070550,-0.00070740,0.0
 0007874,-0.00076770,-0.00112779,0.00041943,0.00033690,0.00017245,-0.00
 004299,0.00006959,-0.00005069,-0.00013263,-0.00018342,-0.00010509,0.00
 004601,0.00003672,0.00000493,-0.00013660,-0.00010982,-0.00002399,0.000
 06330,0.00003863,-0.00000890,0.00010965,0.00002047,0.00006858,-0.00004
 790,-0.00001365,0.00002459,0.00002759,0.00000825,-0.00002493,0.0000186
 9,-0.00000611,0.00000741,-0.00008466,-0.00006850,-0.00004099,0.0000300
 2,0.00003422,0.00003182,0.00006274,-0.00005659,-0.00003854,0.00001056,
 0.00001950,-0.00003198,0.00001986,0.00002259,-0.00006651,0.00000656,-0
 .00000724,0.00000552,-0.00007643,0.00000391,0.00008002,0.00008404,0.00
 002461,-0.00001355,-0.00000880,0.00002779,-0.00001570,-0.00015296,-0.0
 0005298,0.00006898,0.00003709,-0.00000005,-0.00004106,-0.00002046,-0.0
 0001780,-0.00001660,0.00000331,-0.00000014,-0.00000479,-0.00000662,0.0
 0000226,0.00005619,0.00000690,-0.00000661,-0.00002298,-0.00000209,0.00
 004192,-0.00001765,0.00000271,-0.00000903,-0.00000393,0.00001263,-0.00
 003721,0.00005531,-0.00000841,0.00001085,-0.00002706,0.00001376,-0.000
 00381,0.00003521,0.00000330,0.00000550,-0.00001563,-0.00000073,0.00000
 955,-0.00001733,-0.00001978,-0.00001379,0.00001200,0.00000869,-0.00001
 552,-0.00002218,0.00001196,0.00000720,-0.00000684,0.00003343,0.0000586
 5,-0.00000764,-0.00000288,0.00000130,-0.00000550,-0.00006069,-0.000037
 08,0.00003092,0.00000463,-0.00000871,-0.00000057,0.00000059,0.00000057
 ,-0.00000070,-0.00002224,0.00000254,0.00001604,0.00001225,0.00000175,-
 0.00000933,0.00002519,0.00000684,0.00000264,0.00000085,0.00000185,-0.0
 0000606,-0.00002887,-0.00000735,-0.00000481,0.00000750,0.00000517,0.00
 000409,-0.00001117,-0.00001456,0.00000979,0.00000438,0.00001071,-0.000
 00382,-0.00001245,-0.00000726,0.00000179,0.00001257,0.00000664,-0.0000
 0532,-0.00002869,-0.00005992,0.00001564,0.00000131,0.00001911,-0.00000
 407,0.00000877,0.00001390,-0.00000097,0.00001680,0.00002374,-0.0000087
 9,-0.02741520,0.03021879,-0.00010482,-0.00043288,0.00061355,0.00004538
 ,0.00008221,0.00001417,0.00046543,0.00035343,-0.00042398,-0.00006911,-
 0.00007239,0.00010152,0.00001073,-0.00002045,0.00005435,0.00001141,-0.
 00000918,-0.00000829,-0.00003611,0.00017434,-0.00012056,-0.00081550,-0
 .00062388,0.00015341,0.00003513,0.00002435,0.00005882,0.00343359,-0.00
 406269,-0.00523758,0.00018860,-0.00114259,0.00195104,0.04040076,-0.007
 84016,-0.00977772,-0.02104363,-0.01033034,-0.01698889,-0.00074261,0.00
 095006,-0.00256417,0.00014491,-0.00037126,-0.00013914,0.00015880,-0.00
 089041,-0.00110253,0.00016280,-0.00096487,0.00036711,0.00023570,0.0000
 6140,-0.00021431,0.00002640,-0.00002529,0.00001455,-0.00026540,-0.0000
 7979,-0.00014744,0.00008433,-0.00006611,0.00012726,-0.00004697,-0.0000
 6296,-0.00002519,0.00002943,0.00001711,-0.00000597,0.00012830,0.000107
 07,-0.00002203,-0.00000280,0.00002635,-0.00001384,0.00000826,-0.000003
 82,0.00000460,0.00000003,-0.00001557,0.00001132,-0.00003267,0.00003177
 ,-0.00009466,0.00000486,0.00000196,0.00004323,0.00004797,-0.00006147,-
 0.00000775,-0.00001001,-0.00000690,0.00001122,-0.00000637,0.00000901,-
 0.00000608,0.00001163,-0.00000926,0.00000172,-0.00005366,0.00002960,0.
 00000421,0.00004922,0.00003295,-0.00001369,0.00001224,-0.00003309,0.00
 000981,-0.00015663,0.00005539,-0.00004627,0.00005520,-0.00006417,0.000
 00515,0.00000444,0.00000833,0.00000244,0.00000089,-0.00001313,0.000006
 00,-0.00002346,0.00002540,0.00001039,0.00000163,-0.00001562,-0.0000121
 6,0.00000567,-0.00000589,0.00001129,0.00000347,-0.00000670,-0.00000577
 ,-0.00003621,0.00002370,0.00000512,0.00002395,-0.00001210,-0.00001019,
 0.00002193,0.00001072,0.00001369,0.00001075,-0.00000995,-0.00000548,0.
 00000386,-0.00000379,-0.00000363,-0.00003535,0.00000838,-0.00001947,0.
 00002101,-0.00001998,0.00001782,0.00000265,-0.00000091,0.00000137,0.00
 002217,0.00000718,-0.00000557,0.00000374,-0.00000163,0.00000367,-0.000
 04330,0.00000640,-0.00000486,0.00000473,-0.00000969,-0.00000953,-0.000
 00092,-0.00000234,0.00000544,-0.00001973,0.00001324,0.00000459,0.00001
 121,-0.00000290,-0.00000213,0.00002122,0.00000018,-0.00000314,0.000002
 75,-0.00000058,0.00000020,-0.00002836,0.00000379,-0.00001170,0.0000075
 8,-0.00000061,0.00000956,0.00000364,-0.00000585,0.00002062,0.00000353,
 0.00000337,-0.00000117,-0.00001419,0.00001112,-0.00002136,0.00000532,-
 0.00000630,0.00000645,-0.00004840,-0.00000410,-0.00001257,0.00001176,0
 .00000377,0.00000456,0.00001036,0.00000227,0.00000816,0.00002722,0.000
 00178,0.00000385,-0.02235016,0.02522524,0.03340693\\0.00001368,0.00003
 852,0.00002776,0.00000493,-0.00000552,-0.00000282,-0.00001591,-0.00002
 562,-0.00002330,0.00000050,0.00001159,0.00002204,0.00002038,-0.0000021
 1,0.00002735,-0.00000107,-0.00000625,-0.00000497,-0.00001105,-0.000021
 35,-0.00003111,-0.00001887,-0.00000876,0.00001034,-0.00000341,0.000014
 65,0.00000017,0.00004243,0.00001907,-0.00002089,-0.00000208,-0.0000157
 6,-0.00000309,-0.00006044,0.00001370,0.00001136,0.00001482,-0.00003124
 ,0.00000746,0.00002657,0.00002121,0.00000269,-0.00000295,-0.00000374,0
 .00000563,-0.00000449,-0.00000876,0.00000738,-0.00001237,-0.00001087,-
 0.00000355,0.00000609,-0.00002236,-0.00002378,0.00000645,-0.00000141,-
 0.00000665,-0.00001684,-0.00000123,0.00007481,0.00000154,0.00002171,-0
 .00003824,-0.00005117,0.00001246,-0.00005522,-0.00000180,0.00000443,0.
 00000773,0.00005010,-0.00000088,0.00003810,-0.00002590,-0.00000599,0.0
 0001739,0.00001218,0.00000147,-0.00000578,0.00000337,0.00000286,0.0000
 0032,0.00002806,-0.00000430,0.00000573,-0.00001526,-0.00000182,-0.0000
 0713,-0.00001749,0.00000795,0.00002640,0.00000592,0.00000239,0.0000006
 6,0.00000523,0.00000699,-0.00002522,0.00000198,0.00000403,-0.00000509,
 0.00000731,-0.00000800,-0.00000271,0.00002301,0.00003177,-0.00002629,-
 0.00000325,-0.00000493,-0.00000187,-0.00004804,-0.00004983,-0.00002602
 ,0.00001973,0.00003411,0.00003887,0.00001376,0.00000161,0.00000581,-0.
 00001024,-0.00000672,0.00000544,-0.00002724,-0.00001364,0.00000442,0.0
 0000905,0.00000671,-0.00001195,0.00001090,0.00002995,-0.00000183,0.000
 01019,-0.00000016,-0.00000222,0.00001171,-0.00001391,0.00000420,0.0000
 1856,-0.00000014,0.00002550,-0.00004754,0.00001572,-0.00003486,0.00001
 417,-0.00001640,-0.00000385,-0.00000322,-0.00002080,0.00001092,0.00002
 149,-0.00001187,-0.00000043,-0.00001114,0.00001236,0.00000808,-0.00000
 718,-0.00000363,0.00000405,-0.00001432,0.00001637,-0.00001961,-0.00000
 324,-0.00000592,0.00000366,-0.00000195,-0.00002083,-0.00000227,0.00001
 610,-0.00000302,0.00000707,0.00000969,-0.00000252,-0.00000598,-0.00001
 426,0.00000172,-0.00001368,0.00000508,-0.00000187,0.00000313,-0.000030
 20,0.00000801,-0.00000675,0.00000045,0.00000001,-0.00000536,0.00002899
 ,-0.00000540,0.00004604,-0.00000096,-0.00000404,-0.00003377,0.00002334
 ,0.00001031,-0.00000962,-0.00000220,0.00000165,0.00000048,-0.00000758,
 -0.00002351,0.00001452,0.00000672,0.00001560,0.00000118,0.00000343,0.0
 0000491,-0.00000188,0.00000326,0.00000122,0.00000116,-0.00000365,-0.00
 000224,0.00000424,0.00000511,0.00000649,-0.00000469,-0.00000899,0.0000
 1578,-0.00000958\\\@


 ALL THINGS ARE POSSIBLE EXCEPT SKIING THROUGH A REVOLVING DOOR.
 Job cpu time:       0 days  0 hours  0 minutes 27.6 seconds.
 Elapsed time:       0 days  0 hours  0 minutes  2.3 seconds.
 File lengths (MBytes):  RWF=    873 Int=      0 D2E=      0 Chk=      8 Scr=      1
 Normal termination of Gaussian 16 at Mon Jun 28 19:19:35 2021.
