 Entering Gaussian System, Link 0=g09
 Initial command:
 /share/apps//g09/l1.exe "/scratch/Gau-43912.inp" -scrdir="/scratch/"
 Entering Link 1 = /share/apps//g09/l1.exe PID=     43913.
  
 Copyright (c) 1988,1990,1992,1993,1995,1998,2003,2009,2013,
            Gaussian, Inc.  All Rights Reserved.
  
 This is part of the Gaussian(R) 09 program.  It is based on
 the Gaussian(R) 03 system (copyright 2003, Gaussian, Inc.),
 the Gaussian(R) 98 system (copyright 1998, Gaussian, Inc.),
 the Gaussian(R) 94 system (copyright 1995, Gaussian, Inc.),
 the Gaussian 92(TM) system (copyright 1992, Gaussian, Inc.),
 the Gaussian 90(TM) system (copyright 1990, Gaussian, Inc.),
 the Gaussian 88(TM) system (copyright 1988, Gaussian, Inc.),
 the Gaussian 86(TM) system (copyright 1986, Carnegie Mellon
 University), and the Gaussian 82(TM) system (copyright 1983,
 Carnegie Mellon University). Gaussian is a federally registered
 trademark of Gaussian, Inc.
  
 This software contains proprietary and confidential information,
 including trade secrets, belonging to Gaussian, Inc.
  
 This software is provided under written license and may be
 used, copied, transmitted, or stored only in accord with that
 written license.
  
 The following legend is applicable only to US Government
 contracts under FAR:
  
                    RESTRICTED RIGHTS LEGEND
  
 Use, reproduction and disclosure by the US Government is
 subject to restrictions as set forth in subparagraphs (a)
 and (c) of the Commercial Computer Software - Restricted
 Rights clause in FAR 52.227-19.
  
 Gaussian, Inc.
 340 Quinnipiac St., Bldg. 40, Wallingford CT 06492
  
  
 ---------------------------------------------------------------
 Warning -- This program may not be used in any manner that
 competes with the business of Gaussian, Inc. or will provide
 assistance to any competitor of Gaussian, Inc.  The licensee
 of this program is prohibited from giving any competitor of
 Gaussian, Inc. access to this program.  By using this program,
 the user acknowledges that Gaussian, Inc. is engaged in the
 business of creating and licensing software in the field of
 computational chemistry and represents and warrants to the
 licensee that it is not a competitor of Gaussian, Inc. and that
 it will not use this program in any manner prohibited above.
 ---------------------------------------------------------------
  

 Cite this work as:
 Gaussian 09, Revision D.01,
 M. J. Frisch, G. W. Trucks, H. B. Schlegel, G. E. Scuseria, 
 M. A. Robb, J. R. Cheeseman, G. Scalmani, V. Barone, B. Mennucci, 
 G. A. Petersson, H. Nakatsuji, M. Caricato, X. Li, H. P. Hratchian, 
 A. F. Izmaylov, J. Bloino, G. Zheng, J. L. Sonnenberg, M. Hada, 
 M. Ehara, K. Toyota, R. Fukuda, J. Hasegawa, M. Ishida, T. Nakajima, 
 Y. Honda, O. Kitao, H. Nakai, T. Vreven, J. A. Montgomery, Jr., 
 J. E. Peralta, F. Ogliaro, M. Bearpark, J. J. Heyd, E. Brothers, 
 K. N. Kudin, V. N. Staroverov, T. Keith, R. Kobayashi, J. Normand, 
 K. Raghavachari, A. Rendell, J. C. Burant, S. S. Iyengar, J. Tomasi, 
 M. Cossi, N. Rega, J. M. Millam, M. Klene, J. E. Knox, J. B. Cross, 
 V. Bakken, C. Adamo, J. Jaramillo, R. Gomperts, R. E. Stratmann, 
 O. Yazyev, A. J. Austin, R. Cammi, C. Pomelli, J. W. Ochterski, 
 R. L. Martin, K. Morokuma, V. G. Zakrzewski, G. A. Voth, 
 P. Salvador, J. J. Dannenberg, S. Dapprich, A. D. Daniels, 
 O. Farkas, J. B. Foresman, J. V. Ortiz, J. Cioslowski, 
 and D. J. Fox, Gaussian, Inc., Wallingford CT, 2013.
 
 ******************************************
 Gaussian 09:  EM64L-G09RevD.01 24-Apr-2013
                 6-Apr-2016 
 ******************************************
 %nproc=20
 Will use up to   20 processors via shared memory.
 %mem=80GB
 %chk=Tri_A131_of.chk
 ----------------------------------------------------------------------
 #P PBE1PBE/6-311+G(d,p) opt=ModRedundant freq optcyc=999 EmpiricalDisp
 ersion=GD3
 ----------------------------------------------------------------------
 1/6=999,14=-1,18=120,19=15,26=3,38=1/1,3;
 2/9=110,12=2,17=6,18=5,40=1/2;
 3/5=4,6=6,7=111,11=2,16=1,25=1,30=1,71=1,74=-13,124=31/1,2,3;
 4//1;
 5/5=2,38=5/2;
 6/7=2,8=2,9=2,10=2,28=1/1;
 7//1,2,3,16;
 1/6=999,14=-1,18=20,19=15,26=3/3(2);
 2/9=110/2;
 99//99;
 2/9=110/2;
 3/5=4,6=6,7=111,11=2,16=1,25=1,30=1,71=1,74=-13,124=31/1,2,3;
 4/5=5,16=3,69=1/1;
 5/5=2,38=5/2;
 7//1,2,3,16;
 1/6=999,14=-1,18=20,19=15,26=3/3(-5);
 2/9=110/2;
 6/7=2,8=2,9=2,10=2,19=2,28=1/1;
 99/9=1/99;
 Leave Link    1 at Wed Apr  6 15:55:04 2016, MaxMem= 10737418240 cpu:         1.7
 (Enter /share/apps//g09/l101.exe)
 -------
 disacch
 -------
 Symbolic Z-matrix:
 Charge =  1 Multiplicity = 1
 O                    -2.49391  -0.63952   5.63671 
 C                    -2.99875  -1.71693   6.42944 
 C                    -4.11641  -1.24407   7.35704 
 C                    -5.24309  -0.60634   6.53803 
 C                    -4.69052   0.5371    5.67442 
 C                    -3.50077   0.06449   4.83676 
 H                    -2.13558  -2.06479   7.01558 
 H                    -3.69119  -0.47652   8.02202 
 H                    -5.69272  -1.36883   5.87447 
 H                    -5.48195   0.84049   4.96179 
 H                    -3.88475  -0.62268   4.06318 
 O                    -4.29326   1.64735   6.47779 
 O                    -6.23651  -0.03805   7.39097 
 O                    -4.58506  -2.29589   8.19513 
 O                    -3.54041  -2.7641    5.62864 
 C                    -2.73102   1.21666   4.17443 
 H                    -2.26448   1.82616   4.96332 
 H                    -1.93112   0.79428   3.54637 
 O                    -3.56368   1.98679   3.31783 
 H                    -4.00297   2.66331   3.86358 
 H                    -5.00627   1.76188   7.13632 
 H                    -6.42133  -0.69536   8.08828 
 H                    -4.58453  -3.11738   7.66245 
 O                    -0.29293  -5.29348   4.56451 
 C                    -1.18338  -5.72861   5.62626 
 C                    -1.89815  -4.51396   6.25044 
 C                    -2.66403  -3.78807   5.14121 
 C                    -1.68688  -3.3093    4.05104 
 C                    -0.89289  -4.50988   3.50698 
 H                    -1.92825  -6.44331   5.23285 
 H                    -1.12608  -3.84686   6.66893 
 H                    -3.36544  -4.50228   4.67574 
 H                    -2.27695  -2.89606   3.21208 
 H                    -1.59769  -5.14953   2.94047 
 O                    -0.76264  -2.32146   4.53351 
 O                    -2.80877  -4.93137   7.24703 
 O                    -0.42566  -6.48422   6.53916 
 C                     0.22806  -4.1057    2.54174 
 H                     0.74766  -5.00492   2.17998 
 H                    -0.23489  -3.61669   1.66691 
 O                     1.21665  -3.24219   3.12474 
 H                     0.68911  -2.58418   3.65017 
 H                    -1.29178  -1.52469   4.82444 
 H                    -2.26905  -5.05901   8.05573 
 O                     3.1357   -5.94005   7.1444 
 C                     3.23086  -5.58782   8.54862 
 C                     1.95542  -4.85385   9.00439 
 C                     0.65678  -5.54792   8.5688 
 C                     0.7462   -5.84068   7.0693 
 C                     1.9802   -6.75392   6.88847 
 H                     3.38761  -6.51765   9.13573 
 H                     1.97833  -3.85523   8.5257 
 H                     0.54645  -6.50393   9.11503 
 H                     1.93194  -7.57577   7.63266 
 H                     0.93016  -4.90379   6.52011 
 O                    -0.45957  -4.70211   8.86137 
 O                     1.886    -4.73458   10.42147 
 O                     4.27814  -4.69083   8.7225 
 C                     2.12027  -7.44407   5.53754 
 H                     3.08456  -7.96993   5.51505 
 H                     1.31861  -8.19121   5.44044 
 O                     2.10302  -6.56311   4.40466 
 H                     1.18168  -6.2006    4.33616 
 H                    -0.37718  -4.45439   9.80221 
 H                     2.60032  -4.13946   10.71194 
 C                     5.62414  -5.23702   8.71246 
 H                     6.23371  -4.42987   9.14225 
 H                     5.66877  -6.10214   9.39531 
 C                     6.11986  -5.62317   7.31668 
 H                     5.58679  -6.5275    6.98854 
 H                     7.18258  -5.90051   7.40233 
 C                     5.91936  -4.50871   6.27469 
 H                     5.02235  -3.94527   6.57836 
 H                     6.74746  -3.78452   6.31732 
 C                     5.75397  -5.03389   4.83574 
 H                     6.73014  -5.11663   4.33567 
 H                     5.33961  -6.05587   4.85751 
 C                     4.84572  -4.17184   3.96015 
 H                     4.82681  -4.53475   2.92437 
 H                     5.1613   -3.11899   3.94702 
 N                     3.43254  -4.22543   4.46179 
 H                     2.72704  -3.68957   3.8905 
 H                     3.3813   -3.90843   5.43846 
 H                     3.04827  -5.22226   4.4698 
 
 The following ModRedundant input section has been read:
 B      62      84 B                                                           
 B      41      82 B                                                           
 B      24      63 B                                                           
 B      35      42 B                                                           
 B       1      43 B                                                           
 
 NAtoms=     84 NQM=       84 NQMF=       0 NMMI=      0 NMMIF=      0
                NMic=       0 NMicF=      0.
                    Isotopes and Nuclear Properties:
 (Nuclear quadrupole moments (NQMom) in fm**2, nuclear magnetic moments (NMagM)
  in nuclear magnetons)

  Atom         1           2           3           4           5           6           7           8           9          10
 IAtWgt=          16          12          12          12          12          12           1           1           1           1
 AtmWgt=  15.9949146  12.0000000  12.0000000  12.0000000  12.0000000  12.0000000   1.0078250   1.0078250   1.0078250   1.0078250
 NucSpn=           0           0           0           0           0           0           1           1           1           1
 AtZEff=   0.0000000   0.0000000   0.0000000   0.0000000   0.0000000   0.0000000   0.0000000   0.0000000   0.0000000   0.0000000
 NQMom=    0.0000000   0.0000000   0.0000000   0.0000000   0.0000000   0.0000000   0.0000000   0.0000000   0.0000000   0.0000000
 NMagM=    0.0000000   0.0000000   0.0000000   0.0000000   0.0000000   0.0000000   2.7928460   2.7928460   2.7928460   2.7928460
 AtZNuc=   8.0000000   6.0000000   6.0000000   6.0000000   6.0000000   6.0000000   1.0000000   1.0000000   1.0000000   1.0000000

  Atom        11          12          13          14          15          16          17          18          19          20
 IAtWgt=           1          16          16          16          16          12           1           1          16           1
 AtmWgt=   1.0078250  15.9949146  15.9949146  15.9949146  15.9949146  12.0000000   1.0078250   1.0078250  15.9949146   1.0078250
 NucSpn=           1           0           0           0           0           0           1           1           0           1
 AtZEff=   0.0000000   0.0000000   0.0000000   0.0000000   0.0000000   0.0000000   0.0000000   0.0000000   0.0000000   0.0000000
 NQMom=    0.0000000   0.0000000   0.0000000   0.0000000   0.0000000   0.0000000   0.0000000   0.0000000   0.0000000   0.0000000
 NMagM=    2.7928460   0.0000000   0.0000000   0.0000000   0.0000000   0.0000000   2.7928460   2.7928460   0.0000000   2.7928460
 AtZNuc=   1.0000000   8.0000000   8.0000000   8.0000000   8.0000000   6.0000000   1.0000000   1.0000000   8.0000000   1.0000000

  Atom        21          22          23          24          25          26          27          28          29          30
 IAtWgt=           1           1           1          16          12          12          12          12          12           1
 AtmWgt=   1.0078250   1.0078250   1.0078250  15.9949146  12.0000000  12.0000000  12.0000000  12.0000000  12.0000000   1.0078250
 NucSpn=           1           1           1           0           0           0           0           0           0           1
 AtZEff=   0.0000000   0.0000000   0.0000000   0.0000000   0.0000000   0.0000000   0.0000000   0.0000000   0.0000000   0.0000000
 NQMom=    0.0000000   0.0000000   0.0000000   0.0000000   0.0000000   0.0000000   0.0000000   0.0000000   0.0000000   0.0000000
 NMagM=    2.7928460   2.7928460   2.7928460   0.0000000   0.0000000   0.0000000   0.0000000   0.0000000   0.0000000   2.7928460
 AtZNuc=   1.0000000   1.0000000   1.0000000   8.0000000   6.0000000   6.0000000   6.0000000   6.0000000   6.0000000   1.0000000

  Atom        31          32          33          34          35          36          37          38          39          40
 IAtWgt=           1           1           1           1          16          16          16          12           1           1
 AtmWgt=   1.0078250   1.0078250   1.0078250   1.0078250  15.9949146  15.9949146  15.9949146  12.0000000   1.0078250   1.0078250
 NucSpn=           1           1           1           1           0           0           0           0           1           1
 AtZEff=   0.0000000   0.0000000   0.0000000   0.0000000   0.0000000   0.0000000   0.0000000   0.0000000   0.0000000   0.0000000
 NQMom=    0.0000000   0.0000000   0.0000000   0.0000000   0.0000000   0.0000000   0.0000000   0.0000000   0.0000000   0.0000000
 NMagM=    2.7928460   2.7928460   2.7928460   2.7928460   0.0000000   0.0000000   0.0000000   0.0000000   2.7928460   2.7928460
 AtZNuc=   1.0000000   1.0000000   1.0000000   1.0000000   8.0000000   8.0000000   8.0000000   6.0000000   1.0000000   1.0000000

  Atom        41          42          43          44          45          46          47          48          49          50
 IAtWgt=          16           1           1           1          16          12          12          12          12          12
 AtmWgt=  15.9949146   1.0078250   1.0078250   1.0078250  15.9949146  12.0000000  12.0000000  12.0000000  12.0000000  12.0000000
 NucSpn=           0           1           1           1           0           0           0           0           0           0
 AtZEff=   0.0000000   0.0000000   0.0000000   0.0000000   0.0000000   0.0000000   0.0000000   0.0000000   0.0000000   0.0000000
 NQMom=    0.0000000   0.0000000   0.0000000   0.0000000   0.0000000   0.0000000   0.0000000   0.0000000   0.0000000   0.0000000
 NMagM=    0.0000000   2.7928460   2.7928460   2.7928460   0.0000000   0.0000000   0.0000000   0.0000000   0.0000000   0.0000000
 AtZNuc=   8.0000000   1.0000000   1.0000000   1.0000000   8.0000000   6.0000000   6.0000000   6.0000000   6.0000000   6.0000000

  Atom        51          52          53          54          55          56          57          58          59          60
 IAtWgt=           1           1           1           1           1          16          16          16          12           1
 AtmWgt=   1.0078250   1.0078250   1.0078250   1.0078250   1.0078250  15.9949146  15.9949146  15.9949146  12.0000000   1.0078250
 NucSpn=           1           1           1           1           1           0           0           0           0           1
 AtZEff=   0.0000000   0.0000000   0.0000000   0.0000000   0.0000000   0.0000000   0.0000000   0.0000000   0.0000000   0.0000000
 NQMom=    0.0000000   0.0000000   0.0000000   0.0000000   0.0000000   0.0000000   0.0000000   0.0000000   0.0000000   0.0000000
 NMagM=    2.7928460   2.7928460   2.7928460   2.7928460   2.7928460   0.0000000   0.0000000   0.0000000   0.0000000   2.7928460
 AtZNuc=   1.0000000   1.0000000   1.0000000   1.0000000   1.0000000   8.0000000   8.0000000   8.0000000   6.0000000   1.0000000

  Atom        61          62          63          64          65          66          67          68          69          70
 IAtWgt=           1          16           1           1           1          12           1           1          12           1
 AtmWgt=   1.0078250  15.9949146   1.0078250   1.0078250   1.0078250  12.0000000   1.0078250   1.0078250  12.0000000   1.0078250
 NucSpn=           1           0           1           1           1           0           1           1           0           1
 AtZEff=   0.0000000   0.0000000   0.0000000   0.0000000   0.0000000   0.0000000   0.0000000   0.0000000   0.0000000   0.0000000
 NQMom=    0.0000000   0.0000000   0.0000000   0.0000000   0.0000000   0.0000000   0.0000000   0.0000000   0.0000000   0.0000000
 NMagM=    2.7928460   0.0000000   2.7928460   2.7928460   2.7928460   0.0000000   2.7928460   2.7928460   0.0000000   2.7928460
 AtZNuc=   1.0000000   8.0000000   1.0000000   1.0000000   1.0000000   6.0000000   1.0000000   1.0000000   6.0000000   1.0000000

  Atom        71          72          73          74          75          76          77          78          79          80
 IAtWgt=           1          12           1           1          12           1           1          12           1           1
 AtmWgt=   1.0078250  12.0000000   1.0078250   1.0078250  12.0000000   1.0078250   1.0078250  12.0000000   1.0078250   1.0078250
 NucSpn=           1           0           1           1           0           1           1           0           1           1
 AtZEff=   0.0000000   0.0000000   0.0000000   0.0000000   0.0000000   0.0000000   0.0000000   0.0000000   0.0000000   0.0000000
 NQMom=    0.0000000   0.0000000   0.0000000   0.0000000   0.0000000   0.0000000   0.0000000   0.0000000   0.0000000   0.0000000
 NMagM=    2.7928460   0.0000000   2.7928460   2.7928460   0.0000000   2.7928460   2.7928460   0.0000000   2.7928460   2.7928460
 AtZNuc=   1.0000000   6.0000000   1.0000000   1.0000000   6.0000000   1.0000000   1.0000000   6.0000000   1.0000000   1.0000000

  Atom        81          82          83          84
 IAtWgt=          14           1           1           1
 AtmWgt=  14.0030740   1.0078250   1.0078250   1.0078250
 NucSpn=           2           1           1           1
 AtZEff=   0.0000000   0.0000000   0.0000000   0.0000000
 NQMom=    2.0440000   0.0000000   0.0000000   0.0000000
 NMagM=    0.4037610   2.7928460   2.7928460   2.7928460
 AtZNuc=   7.0000000   1.0000000   1.0000000   1.0000000
 Leave Link  101 at Wed Apr  6 15:55:05 2016, MaxMem= 10737418240 cpu:         4.7
 (Enter /share/apps//g09/l103.exe)

 GradGradGradGradGradGradGradGradGradGradGradGradGradGradGradGradGradGrad
 Berny optimization.
 Initialization pass.
                           ----------------------------
                           !    Initial Parameters    !
                           ! (Angstroms and Degrees)  !
 --------------------------                            --------------------------
 ! Name  Definition              Value          Derivative Info.                !
 --------------------------------------------------------------------------------
 ! R1    R(1,2)                  1.4297         estimate D2E/DX2                !
 ! R2    R(1,6)                  1.4661         estimate D2E/DX2                !
 ! R3    R(1,43)                 1.6995         estimate D2E/DX2                !
 ! R4    R(2,3)                  1.5275         estimate D2E/DX2                !
 ! R5    R(2,7)                  1.0998         estimate D2E/DX2                !
 ! R6    R(2,15)                 1.4252         estimate D2E/DX2                !
 ! R7    R(3,4)                  1.532          estimate D2E/DX2                !
 ! R8    R(3,8)                  1.101          estimate D2E/DX2                !
 ! R9    R(3,14)                 1.4242         estimate D2E/DX2                !
 ! R10   R(4,5)                  1.5358         estimate D2E/DX2                !
 ! R11   R(4,9)                  1.1063         estimate D2E/DX2                !
 ! R12   R(4,13)                 1.4274         estimate D2E/DX2                !
 ! R13   R(5,6)                  1.5299         estimate D2E/DX2                !
 ! R14   R(5,10)                 1.1074         estimate D2E/DX2                !
 ! R15   R(5,12)                 1.4268         estimate D2E/DX2                !
 ! R16   R(6,11)                 1.1037         estimate D2E/DX2                !
 ! R17   R(6,16)                 1.5358         estimate D2E/DX2                !
 ! R18   R(12,21)                0.9773         estimate D2E/DX2                !
 ! R19   R(13,22)                0.9759         estimate D2E/DX2                !
 ! R20   R(14,23)                0.9791         estimate D2E/DX2                !
 ! R21   R(15,27)                1.4332         estimate D2E/DX2                !
 ! R22   R(16,17)                1.1007         estimate D2E/DX2                !
 ! R23   R(16,18)                1.1012         estimate D2E/DX2                !
 ! R24   R(16,19)                1.4213         estimate D2E/DX2                !
 ! R25   R(19,20)                0.9739         estimate D2E/DX2                !
 ! R26   R(24,25)                1.4524         estimate D2E/DX2                !
 ! R27   R(24,29)                1.4465         estimate D2E/DX2                !
 ! R28   R(24,63)                1.7463         estimate D2E/DX2                !
 ! R29   R(25,26)                1.5414         estimate D2E/DX2                !
 ! R30   R(25,30)                1.1047         estimate D2E/DX2                !
 ! R31   R(25,37)                1.4066         estimate D2E/DX2                !
 ! R32   R(26,27)                1.531          estimate D2E/DX2                !
 ! R33   R(26,31)                1.1028         estimate D2E/DX2                !
 ! R34   R(26,36)                1.413          estimate D2E/DX2                !
 ! R35   R(27,28)                1.5403         estimate D2E/DX2                !
 ! R36   R(27,32)                1.104          estimate D2E/DX2                !
 ! R37   R(28,29)                1.5388         estimate D2E/DX2                !
 ! R38   R(28,33)                1.1058         estimate D2E/DX2                !
 ! R39   R(28,35)                1.4363         estimate D2E/DX2                !
 ! R40   R(29,34)                1.1076         estimate D2E/DX2                !
 ! R41   R(29,38)                1.5335         estimate D2E/DX2                !
 ! R42   R(35,42)                1.7196         estimate D2E/DX2                !
 ! R43   R(35,43)                0.9997         estimate D2E/DX2                !
 ! R44   R(36,44)                0.9806         estimate D2E/DX2                !
 ! R45   R(37,49)                1.4382         estimate D2E/DX2                !
 ! R46   R(38,39)                1.0998         estimate D2E/DX2                !
 ! R47   R(38,40)                1.104          estimate D2E/DX2                !
 ! R48   R(38,41)                1.4363         estimate D2E/DX2                !
 ! R49   R(41,42)                0.9937         estimate D2E/DX2                !
 ! R50   R(41,82)                1.7515         estimate D2E/DX2                !
 ! R51   R(45,46)                1.4508         estimate D2E/DX2                !
 ! R52   R(45,50)                1.4363         estimate D2E/DX2                !
 ! R53   R(46,47)                1.5405         estimate D2E/DX2                !
 ! R54   R(46,51)                1.1108         estimate D2E/DX2                !
 ! R55   R(46,58)                1.3898         estimate D2E/DX2                !
 ! R56   R(47,48)                1.5356         estimate D2E/DX2                !
 ! R57   R(47,52)                1.1077         estimate D2E/DX2                !
 ! R58   R(47,57)                1.4238         estimate D2E/DX2                !
 ! R59   R(48,49)                1.5304         estimate D2E/DX2                !
 ! R60   R(48,53)                1.1066         estimate D2E/DX2                !
 ! R61   R(48,56)                1.4308         estimate D2E/DX2                !
 ! R62   R(49,50)                1.5458         estimate D2E/DX2                !
 ! R63   R(49,55)                1.1015         estimate D2E/DX2                !
 ! R64   R(50,54)                1.1098         estimate D2E/DX2                !
 ! R65   R(50,59)                1.5235         estimate D2E/DX2                !
 ! R66   R(56,64)                0.9764         estimate D2E/DX2                !
 ! R67   R(57,65)                0.9741         estimate D2E/DX2                !
 ! R68   R(58,66)                1.4526         estimate D2E/DX2                !
 ! R69   R(59,60)                1.0986         estimate D2E/DX2                !
 ! R70   R(59,61)                1.1001         estimate D2E/DX2                !
 ! R71   R(59,62)                1.4352         estimate D2E/DX2                !
 ! R72   R(62,63)                0.9925         estimate D2E/DX2                !
 ! R73   R(62,84)                1.6418         estimate D2E/DX2                !
 ! R74   R(66,67)                1.099          estimate D2E/DX2                !
 ! R75   R(66,68)                1.103          estimate D2E/DX2                !
 ! R76   R(66,69)                1.5307         estimate D2E/DX2                !
 ! R77   R(69,70)                1.0998         estimate D2E/DX2                !
 ! R78   R(69,71)                1.1016         estimate D2E/DX2                !
 ! R79   R(69,72)                1.5388         estimate D2E/DX2                !
 ! R80   R(72,73)                1.102          estimate D2E/DX2                !
 ! R81   R(72,74)                1.1009         estimate D2E/DX2                !
 ! R82   R(72,75)                1.5407         estimate D2E/DX2                !
 ! R83   R(75,76)                1.0999         estimate D2E/DX2                !
 ! R84   R(75,77)                1.103          estimate D2E/DX2                !
 ! R85   R(75,78)                1.528          estimate D2E/DX2                !
 ! R86   R(78,79)                1.0977         estimate D2E/DX2                !
 ! R87   R(78,80)                1.0992         estimate D2E/DX2                !
 ! R88   R(78,81)                1.5005         estimate D2E/DX2                !
 ! R89   R(81,82)                1.0542         estimate D2E/DX2                !
 ! R90   R(81,83)                1.0281         estimate D2E/DX2                !
 ! R91   R(81,84)                1.0684         estimate D2E/DX2                !
 ! A1    A(2,1,6)              114.9554         estimate D2E/DX2                !
 ! A2    A(2,1,43)              97.0232         estimate D2E/DX2                !
 ! A3    A(6,1,43)             118.366          estimate D2E/DX2                !
 ! A4    A(1,2,3)              111.2104         estimate D2E/DX2                !
 ! A5    A(1,2,7)              104.8754         estimate D2E/DX2                !
 ! A6    A(1,2,15)             112.1075         estimate D2E/DX2                !
 ! A7    A(3,2,7)              110.3973         estimate D2E/DX2                !
 ! A8    A(3,2,15)             106.8928         estimate D2E/DX2                !
 ! A9    A(7,2,15)             111.428          estimate D2E/DX2                !
 ! A10   A(2,3,4)              110.0195         estimate D2E/DX2                !
 ! A11   A(2,3,8)              107.458          estimate D2E/DX2                !
 ! A12   A(2,3,14)             111.6852         estimate D2E/DX2                !
 ! A13   A(4,3,8)              108.4657         estimate D2E/DX2                !
 ! A14   A(4,3,14)             112.3358         estimate D2E/DX2                !
 ! A15   A(8,3,14)             106.6507         estimate D2E/DX2                !
 ! A16   A(3,4,5)              110.2401         estimate D2E/DX2                !
 ! A17   A(3,4,9)              109.4304         estimate D2E/DX2                !
 ! A18   A(3,4,13)             110.9858         estimate D2E/DX2                !
 ! A19   A(5,4,9)              108.7902         estimate D2E/DX2                !
 ! A20   A(5,4,13)             106.8587         estimate D2E/DX2                !
 ! A21   A(9,4,13)             110.4853         estimate D2E/DX2                !
 ! A22   A(4,5,6)              110.9588         estimate D2E/DX2                !
 ! A23   A(4,5,10)             107.9819         estimate D2E/DX2                !
 ! A24   A(4,5,12)             111.2782         estimate D2E/DX2                !
 ! A25   A(6,5,10)             106.7431         estimate D2E/DX2                !
 ! A26   A(6,5,12)             109.3987         estimate D2E/DX2                !
 ! A27   A(10,5,12)            110.3736         estimate D2E/DX2                !
 ! A28   A(1,6,5)              112.5617         estimate D2E/DX2                !
 ! A29   A(1,6,11)             108.8086         estimate D2E/DX2                !
 ! A30   A(1,6,16)             104.5576         estimate D2E/DX2                !
 ! A31   A(5,6,11)             107.7915         estimate D2E/DX2                !
 ! A32   A(5,6,16)             113.2129         estimate D2E/DX2                !
 ! A33   A(11,6,16)            109.8279         estimate D2E/DX2                !
 ! A34   A(5,12,21)            105.5124         estimate D2E/DX2                !
 ! A35   A(4,13,22)            106.8946         estimate D2E/DX2                !
 ! A36   A(3,14,23)            107.4169         estimate D2E/DX2                !
 ! A37   A(2,15,27)            118.9232         estimate D2E/DX2                !
 ! A38   A(6,16,17)            108.5887         estimate D2E/DX2                !
 ! A39   A(6,16,18)            108.8005         estimate D2E/DX2                !
 ! A40   A(6,16,19)            111.8871         estimate D2E/DX2                !
 ! A41   A(17,16,18)           108.2569         estimate D2E/DX2                !
 ! A42   A(17,16,19)           112.3477         estimate D2E/DX2                !
 ! A43   A(18,16,19)           106.8359         estimate D2E/DX2                !
 ! A44   A(16,19,20)           107.6323         estimate D2E/DX2                !
 ! A45   A(25,24,29)           116.2605         estimate D2E/DX2                !
 ! A46   A(25,24,63)           117.2367         estimate D2E/DX2                !
 ! A47   A(29,24,63)           122.4148         estimate D2E/DX2                !
 ! A48   A(24,25,26)           110.1351         estimate D2E/DX2                !
 ! A49   A(24,25,30)           110.2957         estimate D2E/DX2                !
 ! A50   A(24,25,37)           107.7654         estimate D2E/DX2                !
 ! A51   A(26,25,30)           109.9595         estimate D2E/DX2                !
 ! A52   A(26,25,37)           114.2242         estimate D2E/DX2                !
 ! A53   A(30,25,37)           104.2889         estimate D2E/DX2                !
 ! A54   A(25,26,27)           108.1928         estimate D2E/DX2                !
 ! A55   A(25,26,31)           107.8001         estimate D2E/DX2                !
 ! A56   A(25,26,36)           110.589          estimate D2E/DX2                !
 ! A57   A(27,26,31)           109.7763         estimate D2E/DX2                !
 ! A58   A(27,26,36)           109.1881         estimate D2E/DX2                !
 ! A59   A(31,26,36)           111.2363         estimate D2E/DX2                !
 ! A60   A(15,27,26)           113.4678         estimate D2E/DX2                !
 ! A61   A(15,27,28)           113.9881         estimate D2E/DX2                !
 ! A62   A(15,27,32)           102.5391         estimate D2E/DX2                !
 ! A63   A(26,27,28)           110.0483         estimate D2E/DX2                !
 ! A64   A(26,27,32)           108.4565         estimate D2E/DX2                !
 ! A65   A(28,27,32)           107.8025         estimate D2E/DX2                !
 ! A66   A(27,28,29)           109.5766         estimate D2E/DX2                !
 ! A67   A(27,28,33)           108.3374         estimate D2E/DX2                !
 ! A68   A(27,28,35)           112.5982         estimate D2E/DX2                !
 ! A69   A(29,28,33)           107.3771         estimate D2E/DX2                !
 ! A70   A(29,28,35)           108.866          estimate D2E/DX2                !
 ! A71   A(33,28,35)           109.951          estimate D2E/DX2                !
 ! A72   A(24,29,28)           112.2214         estimate D2E/DX2                !
 ! A73   A(24,29,34)           108.9662         estimate D2E/DX2                !
 ! A74   A(24,29,38)           107.4442         estimate D2E/DX2                !
 ! A75   A(28,29,34)           107.6427         estimate D2E/DX2                !
 ! A76   A(28,29,38)           113.2091         estimate D2E/DX2                !
 ! A77   A(34,29,38)           107.1821         estimate D2E/DX2                !
 ! A78   A(28,35,42)           105.4049         estimate D2E/DX2                !
 ! A79   A(28,35,43)           107.7771         estimate D2E/DX2                !
 ! A80   A(42,35,43)           135.8981         estimate D2E/DX2                !
 ! A81   A(26,36,44)           105.3906         estimate D2E/DX2                !
 ! A82   A(25,37,49)           115.9633         estimate D2E/DX2                !
 ! A83   A(29,38,39)           109.6888         estimate D2E/DX2                !
 ! A84   A(29,38,40)           107.9992         estimate D2E/DX2                !
 ! A85   A(29,38,41)           113.9603         estimate D2E/DX2                !
 ! A86   A(39,38,40)           107.4361         estimate D2E/DX2                !
 ! A87   A(39,38,41)           107.4523         estimate D2E/DX2                !
 ! A88   A(40,38,41)           110.1199         estimate D2E/DX2                !
 ! A89   A(38,41,42)           104.3206         estimate D2E/DX2                !
 ! A90   A(38,41,82)           128.13           estimate D2E/DX2                !
 ! A91   A(42,41,82)           113.3146         estimate D2E/DX2                !
 ! A92   A(35,42,41)           145.1885         estimate D2E/DX2                !
 ! A93   A(1,43,35)            158.2097         estimate D2E/DX2                !
 ! A94   A(46,45,50)           111.2713         estimate D2E/DX2                !
 ! A95   A(45,46,47)           110.3475         estimate D2E/DX2                !
 ! A96   A(45,46,51)           108.5176         estimate D2E/DX2                !
 ! A97   A(45,46,58)           109.0988         estimate D2E/DX2                !
 ! A98   A(47,46,51)           111.0563         estimate D2E/DX2                !
 ! A99   A(47,46,58)           106.2222         estimate D2E/DX2                !
 ! A100  A(51,46,58)           111.5796         estimate D2E/DX2                !
 ! A101  A(46,47,48)           113.6353         estimate D2E/DX2                !
 ! A102  A(46,47,52)           106.5326         estimate D2E/DX2                !
 ! A103  A(46,47,57)           112.0084         estimate D2E/DX2                !
 ! A104  A(48,47,52)           107.602          estimate D2E/DX2                !
 ! A105  A(48,47,57)           106.1983         estimate D2E/DX2                !
 ! A106  A(52,47,57)           110.8311         estimate D2E/DX2                !
 ! A107  A(47,48,49)           108.3601         estimate D2E/DX2                !
 ! A108  A(47,48,53)           109.5601         estimate D2E/DX2                !
 ! A109  A(47,48,56)           109.5509         estimate D2E/DX2                !
 ! A110  A(49,48,53)           108.9177         estimate D2E/DX2                !
 ! A111  A(49,48,56)           111.0396         estimate D2E/DX2                !
 ! A112  A(53,48,56)           109.3891         estimate D2E/DX2                !
 ! A113  A(37,49,48)           113.5251         estimate D2E/DX2                !
 ! A114  A(37,49,50)           110.0586         estimate D2E/DX2                !
 ! A115  A(37,49,55)           109.4448         estimate D2E/DX2                !
 ! A116  A(48,49,50)           105.9189         estimate D2E/DX2                !
 ! A117  A(48,49,55)           109.6074         estimate D2E/DX2                !
 ! A118  A(50,49,55)           108.1115         estimate D2E/DX2                !
 ! A119  A(45,50,49)           106.655          estimate D2E/DX2                !
 ! A120  A(45,50,54)           109.5799         estimate D2E/DX2                !
 ! A121  A(45,50,59)           109.9213         estimate D2E/DX2                !
 ! A122  A(49,50,54)           108.9265         estimate D2E/DX2                !
 ! A123  A(49,50,59)           116.4085         estimate D2E/DX2                !
 ! A124  A(54,50,59)           105.2572         estimate D2E/DX2                !
 ! A125  A(48,56,64)           106.3303         estimate D2E/DX2                !
 ! A126  A(47,57,65)           108.1934         estimate D2E/DX2                !
 ! A127  A(46,58,66)           117.0446         estimate D2E/DX2                !
 ! A128  A(50,59,60)           108.4031         estimate D2E/DX2                !
 ! A129  A(50,59,61)           108.5979         estimate D2E/DX2                !
 ! A130  A(50,59,62)           114.884          estimate D2E/DX2                !
 ! A131  A(60,59,61)           108.2235         estimate D2E/DX2                !
 ! A132  A(60,59,62)           106.7508         estimate D2E/DX2                !
 ! A133  A(61,59,62)           109.7818         estimate D2E/DX2                !
 ! A134  A(59,62,63)           106.8488         estimate D2E/DX2                !
 ! A135  A(59,62,84)           117.5846         estimate D2E/DX2                !
 ! A136  A(63,62,84)           103.822          estimate D2E/DX2                !
 ! A137  A(24,63,62)           164.7168         estimate D2E/DX2                !
 ! A138  A(58,66,67)           103.5971         estimate D2E/DX2                !
 ! A139  A(58,66,68)           109.1541         estimate D2E/DX2                !
 ! A140  A(58,66,69)           113.6554         estimate D2E/DX2                !
 ! A141  A(67,66,68)           108.1488         estimate D2E/DX2                !
 ! A142  A(67,66,69)           111.2388         estimate D2E/DX2                !
 ! A143  A(68,66,69)           110.7036         estimate D2E/DX2                !
 ! A144  A(66,69,70)           108.8151         estimate D2E/DX2                !
 ! A145  A(66,69,71)           107.7595         estimate D2E/DX2                !
 ! A146  A(66,69,72)           113.1134         estimate D2E/DX2                !
 ! A147  A(70,69,71)           106.4842         estimate D2E/DX2                !
 ! A148  A(70,69,72)           109.2878         estimate D2E/DX2                !
 ! A149  A(71,69,72)           111.1408         estimate D2E/DX2                !
 ! A150  A(69,72,73)           106.844          estimate D2E/DX2                !
 ! A151  A(69,72,74)           110.6205         estimate D2E/DX2                !
 ! A152  A(69,72,75)           113.5491         estimate D2E/DX2                !
 ! A153  A(73,72,74)           105.3838         estimate D2E/DX2                !
 ! A154  A(73,72,75)           110.138          estimate D2E/DX2                !
 ! A155  A(74,72,75)           109.9463         estimate D2E/DX2                !
 ! A156  A(72,75,76)           110.7928         estimate D2E/DX2                !
 ! A157  A(72,75,77)           109.7384         estimate D2E/DX2                !
 ! A158  A(72,75,78)           113.9973         estimate D2E/DX2                !
 ! A159  A(76,75,77)           105.8236         estimate D2E/DX2                !
 ! A160  A(76,75,78)           108.0261         estimate D2E/DX2                !
 ! A161  A(77,75,78)           108.1042         estimate D2E/DX2                !
 ! A162  A(75,78,79)           111.3731         estimate D2E/DX2                !
 ! A163  A(75,78,80)           112.1217         estimate D2E/DX2                !
 ! A164  A(75,78,81)           110.3706         estimate D2E/DX2                !
 ! A165  A(79,78,80)           108.0801         estimate D2E/DX2                !
 ! A166  A(79,78,81)           106.7038         estimate D2E/DX2                !
 ! A167  A(80,78,81)           107.974          estimate D2E/DX2                !
 ! A168  A(78,81,82)           115.5289         estimate D2E/DX2                !
 ! A169  A(78,81,83)           110.7021         estimate D2E/DX2                !
 ! A170  A(78,81,84)           111.9979         estimate D2E/DX2                !
 ! A171  A(82,81,83)           108.9496         estimate D2E/DX2                !
 ! A172  A(82,81,84)           103.7473         estimate D2E/DX2                !
 ! A173  A(83,81,84)           105.2268         estimate D2E/DX2                !
 ! A174  A(41,82,81)           160.7162         estimate D2E/DX2                !
 ! A175  L(62,84,81,1,-1)      166.524          estimate D2E/DX2                !
 ! A176  L(62,84,81,1,-2)      185.0594         estimate D2E/DX2                !
 ! D1    D(6,1,2,3)            -56.0145         estimate D2E/DX2                !
 ! D2    D(6,1,2,7)           -175.3484         estimate D2E/DX2                !
 ! D3    D(6,1,2,15)            63.5944         estimate D2E/DX2                !
 ! D4    D(43,1,2,3)           178.16           estimate D2E/DX2                !
 ! D5    D(43,1,2,7)            58.8261         estimate D2E/DX2                !
 ! D6    D(43,1,2,15)          -62.2312         estimate D2E/DX2                !
 ! D7    D(2,1,6,5)             52.708          estimate D2E/DX2                !
 ! D8    D(2,1,6,11)           -66.7018         estimate D2E/DX2                !
 ! D9    D(2,1,6,16)           175.9972         estimate D2E/DX2                !
 ! D10   D(43,1,6,5)           166.5695         estimate D2E/DX2                !
 ! D11   D(43,1,6,11)           47.1598         estimate D2E/DX2                !
 ! D12   D(43,1,6,16)          -70.1413         estimate D2E/DX2                !
 ! D13   D(2,1,43,35)            6.738          estimate D2E/DX2                !
 ! D14   D(6,1,43,35)         -116.6034         estimate D2E/DX2                !
 ! D15   D(1,2,3,4)             57.2155         estimate D2E/DX2                !
 ! D16   D(1,2,3,8)            -60.6872         estimate D2E/DX2                !
 ! D17   D(1,2,3,14)          -177.3223         estimate D2E/DX2                !
 ! D18   D(7,2,3,4)            173.1982         estimate D2E/DX2                !
 ! D19   D(7,2,3,8)             55.2954         estimate D2E/DX2                !
 ! D20   D(7,2,3,14)           -61.3397         estimate D2E/DX2                !
 ! D21   D(15,2,3,4)           -65.4513         estimate D2E/DX2                !
 ! D22   D(15,2,3,8)           176.6459         estimate D2E/DX2                !
 ! D23   D(15,2,3,14)           60.0108         estimate D2E/DX2                !
 ! D24   D(1,2,15,27)           86.5994         estimate D2E/DX2                !
 ! D25   D(3,2,15,27)         -151.2954         estimate D2E/DX2                !
 ! D26   D(7,2,15,27)          -30.5999         estimate D2E/DX2                !
 ! D27   D(2,3,4,5)            -56.0203         estimate D2E/DX2                !
 ! D28   D(2,3,4,9)             63.5903         estimate D2E/DX2                !
 ! D29   D(2,3,4,13)          -174.2166         estimate D2E/DX2                !
 ! D30   D(8,3,4,5)             61.2573         estimate D2E/DX2                !
 ! D31   D(8,3,4,9)           -179.1321         estimate D2E/DX2                !
 ! D32   D(8,3,4,13)           -56.9389         estimate D2E/DX2                !
 ! D33   D(14,3,4,5)           178.8893         estimate D2E/DX2                !
 ! D34   D(14,3,4,9)           -61.5001         estimate D2E/DX2                !
 ! D35   D(14,3,4,13)           60.6931         estimate D2E/DX2                !
 ! D36   D(2,3,14,23)          -37.7406         estimate D2E/DX2                !
 ! D37   D(4,3,14,23)           86.4311         estimate D2E/DX2                !
 ! D38   D(8,3,14,23)         -154.8643         estimate D2E/DX2                !
 ! D39   D(3,4,5,6)             52.6493         estimate D2E/DX2                !
 ! D40   D(3,4,5,10)           169.3069         estimate D2E/DX2                !
 ! D41   D(3,4,5,12)           -69.4146         estimate D2E/DX2                !
 ! D42   D(9,4,5,6)            -67.3486         estimate D2E/DX2                !
 ! D43   D(9,4,5,10)            49.309          estimate D2E/DX2                !
 ! D44   D(9,4,5,12)           170.5875         estimate D2E/DX2                !
 ! D45   D(13,4,5,6)           173.352          estimate D2E/DX2                !
 ! D46   D(13,4,5,10)          -69.9904         estimate D2E/DX2                !
 ! D47   D(13,4,5,12)           51.2881         estimate D2E/DX2                !
 ! D48   D(3,4,13,22)          -45.4112         estimate D2E/DX2                !
 ! D49   D(5,4,13,22)         -165.637          estimate D2E/DX2                !
 ! D50   D(9,4,13,22)           76.1662         estimate D2E/DX2                !
 ! D51   D(4,5,6,1)            -49.9842         estimate D2E/DX2                !
 ! D52   D(4,5,6,11)            70.0151         estimate D2E/DX2                !
 ! D53   D(4,5,6,16)          -168.3008         estimate D2E/DX2                !
 ! D54   D(10,5,6,1)          -167.4008         estimate D2E/DX2                !
 ! D55   D(10,5,6,11)          -47.4014         estimate D2E/DX2                !
 ! D56   D(10,5,6,16)           74.2827         estimate D2E/DX2                !
 ! D57   D(12,5,6,1)            73.1688         estimate D2E/DX2                !
 ! D58   D(12,5,6,11)         -166.8318         estimate D2E/DX2                !
 ! D59   D(12,5,6,16)          -45.1477         estimate D2E/DX2                !
 ! D60   D(4,5,12,21)          -43.5096         estimate D2E/DX2                !
 ! D61   D(6,5,12,21)         -166.4731         estimate D2E/DX2                !
 ! D62   D(10,5,12,21)          76.3608         estimate D2E/DX2                !
 ! D63   D(1,6,16,17)          -57.2422         estimate D2E/DX2                !
 ! D64   D(1,6,16,18)           60.3803         estimate D2E/DX2                !
 ! D65   D(1,6,16,19)          178.1869         estimate D2E/DX2                !
 ! D66   D(5,6,16,17)           65.6249         estimate D2E/DX2                !
 ! D67   D(5,6,16,18)         -176.7525         estimate D2E/DX2                !
 ! D68   D(5,6,16,19)          -58.9459         estimate D2E/DX2                !
 ! D69   D(11,6,16,17)        -173.8405         estimate D2E/DX2                !
 ! D70   D(11,6,16,18)         -56.2179         estimate D2E/DX2                !
 ! D71   D(11,6,16,19)          61.5887         estimate D2E/DX2                !
 ! D72   D(2,15,27,26)          56.6437         estimate D2E/DX2                !
 ! D73   D(2,15,27,28)         -70.3868         estimate D2E/DX2                !
 ! D74   D(2,15,27,32)         173.3954         estimate D2E/DX2                !
 ! D75   D(6,16,19,20)          86.1403         estimate D2E/DX2                !
 ! D76   D(17,16,19,20)        -36.3112         estimate D2E/DX2                !
 ! D77   D(18,16,19,20)       -154.8848         estimate D2E/DX2                !
 ! D78   D(29,24,25,26)        -55.6176         estimate D2E/DX2                !
 ! D79   D(29,24,25,30)         65.9321         estimate D2E/DX2                !
 ! D80   D(29,24,25,37)        179.1866         estimate D2E/DX2                !
 ! D81   D(63,24,25,26)        146.5271         estimate D2E/DX2                !
 ! D82   D(63,24,25,30)        -91.9232         estimate D2E/DX2                !
 ! D83   D(63,24,25,37)         21.3313         estimate D2E/DX2                !
 ! D84   D(25,24,29,28)         52.2381         estimate D2E/DX2                !
 ! D85   D(25,24,29,34)        -66.8785         estimate D2E/DX2                !
 ! D86   D(25,24,29,38)        177.3096         estimate D2E/DX2                !
 ! D87   D(63,24,29,28)       -151.1534         estimate D2E/DX2                !
 ! D88   D(63,24,29,34)         89.73           estimate D2E/DX2                !
 ! D89   D(63,24,29,38)        -26.0819         estimate D2E/DX2                !
 ! D90   D(25,24,63,62)        -82.0977         estimate D2E/DX2                !
 ! D91   D(29,24,63,62)        121.5077         estimate D2E/DX2                !
 ! D92   D(24,25,26,27)         58.0148         estimate D2E/DX2                !
 ! D93   D(24,25,26,31)        -60.6429         estimate D2E/DX2                !
 ! D94   D(24,25,26,36)        177.5546         estimate D2E/DX2                !
 ! D95   D(30,25,26,27)        -63.7347         estimate D2E/DX2                !
 ! D96   D(30,25,26,31)        177.6075         estimate D2E/DX2                !
 ! D97   D(30,25,26,36)         55.805          estimate D2E/DX2                !
 ! D98   D(37,25,26,27)        179.4359         estimate D2E/DX2                !
 ! D99   D(37,25,26,31)         60.7781         estimate D2E/DX2                !
 ! D100  D(37,25,26,36)        -61.0244         estimate D2E/DX2                !
 ! D101  D(24,25,37,49)         54.458          estimate D2E/DX2                !
 ! D102  D(26,25,37,49)        -68.2618         estimate D2E/DX2                !
 ! D103  D(30,25,37,49)        171.6816         estimate D2E/DX2                !
 ! D104  D(25,26,27,15)        170.6855         estimate D2E/DX2                !
 ! D105  D(25,26,27,28)        -60.2477         estimate D2E/DX2                !
 ! D106  D(25,26,27,32)         57.456          estimate D2E/DX2                !
 ! D107  D(31,26,27,15)        -71.9199         estimate D2E/DX2                !
 ! D108  D(31,26,27,28)         57.1469         estimate D2E/DX2                !
 ! D109  D(31,26,27,32)        174.8506         estimate D2E/DX2                !
 ! D110  D(36,26,27,15)         50.2672         estimate D2E/DX2                !
 ! D111  D(36,26,27,28)        179.334          estimate D2E/DX2                !
 ! D112  D(36,26,27,32)        -62.9623         estimate D2E/DX2                !
 ! D113  D(25,26,36,44)         82.5406         estimate D2E/DX2                !
 ! D114  D(27,26,36,44)       -158.5212         estimate D2E/DX2                !
 ! D115  D(31,26,36,44)        -37.2167         estimate D2E/DX2                !
 ! D116  D(15,27,28,29)       -174.5794         estimate D2E/DX2                !
 ! D117  D(15,27,28,33)        -57.7195         estimate D2E/DX2                !
 ! D118  D(15,27,28,35)         64.1049         estimate D2E/DX2                !
 ! D119  D(26,27,28,29)         56.637          estimate D2E/DX2                !
 ! D120  D(26,27,28,33)        173.4968         estimate D2E/DX2                !
 ! D121  D(26,27,28,35)        -64.6788         estimate D2E/DX2                !
 ! D122  D(32,27,28,29)        -61.4711         estimate D2E/DX2                !
 ! D123  D(32,27,28,33)         55.3887         estimate D2E/DX2                !
 ! D124  D(32,27,28,35)        177.2131         estimate D2E/DX2                !
 ! D125  D(27,28,29,24)        -50.9561         estimate D2E/DX2                !
 ! D126  D(27,28,29,34)         68.9343         estimate D2E/DX2                !
 ! D127  D(27,28,29,38)       -172.7938         estimate D2E/DX2                !
 ! D128  D(33,28,29,24)       -168.419          estimate D2E/DX2                !
 ! D129  D(33,28,29,34)        -48.5286         estimate D2E/DX2                !
 ! D130  D(33,28,29,38)         69.7434         estimate D2E/DX2                !
 ! D131  D(35,28,29,24)         72.5838         estimate D2E/DX2                !
 ! D132  D(35,28,29,34)       -167.5259         estimate D2E/DX2                !
 ! D133  D(35,28,29,38)        -49.2539         estimate D2E/DX2                !
 ! D134  D(27,28,35,42)        147.3732         estimate D2E/DX2                !
 ! D135  D(27,28,35,43)        -62.1032         estimate D2E/DX2                !
 ! D136  D(29,28,35,42)         25.6534         estimate D2E/DX2                !
 ! D137  D(29,28,35,43)        176.177          estimate D2E/DX2                !
 ! D138  D(33,28,35,42)        -91.7213         estimate D2E/DX2                !
 ! D139  D(33,28,35,43)         58.8022         estimate D2E/DX2                !
 ! D140  D(24,29,38,39)         56.2206         estimate D2E/DX2                !
 ! D141  D(24,29,38,40)        173.0211         estimate D2E/DX2                !
 ! D142  D(24,29,38,41)        -64.283          estimate D2E/DX2                !
 ! D143  D(28,29,38,39)       -179.3034         estimate D2E/DX2                !
 ! D144  D(28,29,38,40)        -62.5029         estimate D2E/DX2                !
 ! D145  D(28,29,38,41)         60.1931         estimate D2E/DX2                !
 ! D146  D(34,29,38,39)        -60.7643         estimate D2E/DX2                !
 ! D147  D(34,29,38,40)         56.0361         estimate D2E/DX2                !
 ! D148  D(34,29,38,41)        178.7321         estimate D2E/DX2                !
 ! D149  D(28,35,42,41)        -22.2062         estimate D2E/DX2                !
 ! D150  D(43,35,42,41)       -159.8844         estimate D2E/DX2                !
 ! D151  D(28,35,43,1)          51.5312         estimate D2E/DX2                !
 ! D152  D(42,35,43,1)        -171.4417         estimate D2E/DX2                !
 ! D153  D(25,37,49,48)        113.3647         estimate D2E/DX2                !
 ! D154  D(25,37,49,50)       -128.1191         estimate D2E/DX2                !
 ! D155  D(25,37,49,55)         -9.4427         estimate D2E/DX2                !
 ! D156  D(29,38,41,42)        -43.0692         estimate D2E/DX2                !
 ! D157  D(29,38,41,82)         92.9575         estimate D2E/DX2                !
 ! D158  D(39,38,41,42)       -164.8172         estimate D2E/DX2                !
 ! D159  D(39,38,41,82)        -28.7905         estimate D2E/DX2                !
 ! D160  D(40,38,41,42)         78.4592         estimate D2E/DX2                !
 ! D161  D(40,38,41,82)       -145.5141         estimate D2E/DX2                !
 ! D162  D(38,41,42,35)         28.9942         estimate D2E/DX2                !
 ! D163  D(82,41,42,35)       -114.5128         estimate D2E/DX2                !
 ! D164  D(38,41,82,81)        -36.8812         estimate D2E/DX2                !
 ! D165  D(42,41,82,81)         96.0169         estimate D2E/DX2                !
 ! D166  D(50,45,46,47)        -57.4953         estimate D2E/DX2                !
 ! D167  D(50,45,46,51)         64.3976         estimate D2E/DX2                !
 ! D168  D(50,45,46,58)       -173.8369         estimate D2E/DX2                !
 ! D169  D(46,45,50,49)         69.8003         estimate D2E/DX2                !
 ! D170  D(46,45,50,54)        -47.9581         estimate D2E/DX2                !
 ! D171  D(46,45,50,59)       -163.1712         estimate D2E/DX2                !
 ! D172  D(45,46,47,48)         47.603          estimate D2E/DX2                !
 ! D173  D(45,46,47,52)        -70.7062         estimate D2E/DX2                !
 ! D174  D(45,46,47,57)        167.9559         estimate D2E/DX2                !
 ! D175  D(51,46,47,48)        -72.7779         estimate D2E/DX2                !
 ! D176  D(51,46,47,52)        168.9129         estimate D2E/DX2                !
 ! D177  D(51,46,47,57)         47.575          estimate D2E/DX2                !
 ! D178  D(58,46,47,48)        165.7245         estimate D2E/DX2                !
 ! D179  D(58,46,47,52)         47.4153         estimate D2E/DX2                !
 ! D180  D(58,46,47,57)        -73.9225         estimate D2E/DX2                !
 ! D181  D(45,46,58,66)        -77.2343         estimate D2E/DX2                !
 ! D182  D(47,46,58,66)        163.8208         estimate D2E/DX2                !
 ! D183  D(51,46,58,66)         42.6587         estimate D2E/DX2                !
 ! D184  D(46,47,48,49)        -50.2762         estimate D2E/DX2                !
 ! D185  D(46,47,48,53)         68.4377         estimate D2E/DX2                !
 ! D186  D(46,47,48,56)       -171.5594         estimate D2E/DX2                !
 ! D187  D(52,47,48,49)         67.4155         estimate D2E/DX2                !
 ! D188  D(52,47,48,53)       -173.8706         estimate D2E/DX2                !
 ! D189  D(52,47,48,56)        -53.8678         estimate D2E/DX2                !
 ! D190  D(57,47,48,49)       -173.8556         estimate D2E/DX2                !
 ! D191  D(57,47,48,53)        -55.1417         estimate D2E/DX2                !
 ! D192  D(57,47,48,56)         64.8611         estimate D2E/DX2                !
 ! D193  D(46,47,57,65)         66.9509         estimate D2E/DX2                !
 ! D194  D(48,47,57,65)       -168.4579         estimate D2E/DX2                !
 ! D195  D(52,47,57,65)        -51.8772         estimate D2E/DX2                !
 ! D196  D(47,48,49,37)       -179.4857         estimate D2E/DX2                !
 ! D197  D(47,48,49,50)         59.6403         estimate D2E/DX2                !
 ! D198  D(47,48,49,55)        -56.7679         estimate D2E/DX2                !
 ! D199  D(53,48,49,37)         61.3946         estimate D2E/DX2                !
 ! D200  D(53,48,49,50)        -59.4794         estimate D2E/DX2                !
 ! D201  D(53,48,49,55)       -175.8876         estimate D2E/DX2                !
 ! D202  D(56,48,49,37)        -59.1252         estimate D2E/DX2                !
 ! D203  D(56,48,49,50)       -179.9992         estimate D2E/DX2                !
 ! D204  D(56,48,49,55)         63.5926         estimate D2E/DX2                !
 ! D205  D(47,48,56,64)        -52.2636         estimate D2E/DX2                !
 ! D206  D(49,48,56,64)       -171.9159         estimate D2E/DX2                !
 ! D207  D(53,48,56,64)         67.8437         estimate D2E/DX2                !
 ! D208  D(37,49,50,45)        166.8714         estimate D2E/DX2                !
 ! D209  D(37,49,50,54)        -74.9405         estimate D2E/DX2                !
 ! D210  D(37,49,50,59)         43.8026         estimate D2E/DX2                !
 ! D211  D(48,49,50,45)        -70.0348         estimate D2E/DX2                !
 ! D212  D(48,49,50,54)         48.1533         estimate D2E/DX2                !
 ! D213  D(48,49,50,59)        166.8964         estimate D2E/DX2                !
 ! D214  D(55,49,50,45)         47.3801         estimate D2E/DX2                !
 ! D215  D(55,49,50,54)        165.5682         estimate D2E/DX2                !
 ! D216  D(55,49,50,59)        -75.6887         estimate D2E/DX2                !
 ! D217  D(45,50,59,60)         52.8423         estimate D2E/DX2                !
 ! D218  D(45,50,59,61)        170.2098         estimate D2E/DX2                !
 ! D219  D(45,50,59,62)        -66.4428         estimate D2E/DX2                !
 ! D220  D(49,50,59,60)        174.1974         estimate D2E/DX2                !
 ! D221  D(49,50,59,61)        -68.4351         estimate D2E/DX2                !
 ! D222  D(49,50,59,62)         54.9122         estimate D2E/DX2                !
 ! D223  D(54,50,59,60)        -65.0835         estimate D2E/DX2                !
 ! D224  D(54,50,59,61)         52.2841         estimate D2E/DX2                !
 ! D225  D(54,50,59,62)        175.6314         estimate D2E/DX2                !
 ! D226  D(46,58,66,67)       -164.4488         estimate D2E/DX2                !
 ! D227  D(46,58,66,68)        -49.4083         estimate D2E/DX2                !
 ! D228  D(46,58,66,69)         74.6981         estimate D2E/DX2                !
 ! D229  D(50,59,62,63)        -68.9689         estimate D2E/DX2                !
 ! D230  D(50,59,62,84)         47.1259         estimate D2E/DX2                !
 ! D231  D(60,59,62,63)        170.8299         estimate D2E/DX2                !
 ! D232  D(60,59,62,84)        -73.0753         estimate D2E/DX2                !
 ! D233  D(61,59,62,63)         53.7447         estimate D2E/DX2                !
 ! D234  D(61,59,62,84)        169.8395         estimate D2E/DX2                !
 ! D235  D(59,62,63,24)         77.6842         estimate D2E/DX2                !
 ! D236  D(84,62,63,24)        -47.2591         estimate D2E/DX2                !
 ! D237  D(59,62,81,78)         91.8742         estimate D2E/DX2                !
 ! D238  D(59,62,81,82)       -144.5686         estimate D2E/DX2                !
 ! D239  D(59,62,81,83)        -33.123          estimate D2E/DX2                !
 ! D240  D(63,62,81,78)       -152.8873         estimate D2E/DX2                !
 ! D241  D(63,62,81,82)        -29.3301         estimate D2E/DX2                !
 ! D242  D(63,62,81,83)         82.1155         estimate D2E/DX2                !
 ! D243  D(58,66,69,70)        -72.0448         estimate D2E/DX2                !
 ! D244  D(58,66,69,71)        172.8743         estimate D2E/DX2                !
 ! D245  D(58,66,69,72)         49.6127         estimate D2E/DX2                !
 ! D246  D(67,66,69,70)        171.493          estimate D2E/DX2                !
 ! D247  D(67,66,69,71)         56.4122         estimate D2E/DX2                !
 ! D248  D(67,66,69,72)        -66.8495         estimate D2E/DX2                !
 ! D249  D(68,66,69,70)         51.2187         estimate D2E/DX2                !
 ! D250  D(68,66,69,71)        -63.8622         estimate D2E/DX2                !
 ! D251  D(68,66,69,72)        172.8762         estimate D2E/DX2                !
 ! D252  D(66,69,72,73)        -30.6059         estimate D2E/DX2                !
 ! D253  D(66,69,72,74)         83.6033         estimate D2E/DX2                !
 ! D254  D(66,69,72,75)       -152.2301         estimate D2E/DX2                !
 ! D255  D(70,69,72,73)         90.7855         estimate D2E/DX2                !
 ! D256  D(70,69,72,74)       -155.0053         estimate D2E/DX2                !
 ! D257  D(70,69,72,75)        -30.8387         estimate D2E/DX2                !
 ! D258  D(71,69,72,73)       -151.9796         estimate D2E/DX2                !
 ! D259  D(71,69,72,74)        -37.7704         estimate D2E/DX2                !
 ! D260  D(71,69,72,75)         86.3962         estimate D2E/DX2                !
 ! D261  D(69,72,75,76)        -89.7265         estimate D2E/DX2                !
 ! D262  D(69,72,75,77)         26.7689         estimate D2E/DX2                !
 ! D263  D(69,72,75,78)        148.1757         estimate D2E/DX2                !
 ! D264  D(73,72,75,76)        150.5052         estimate D2E/DX2                !
 ! D265  D(73,72,75,77)        -92.9994         estimate D2E/DX2                !
 ! D266  D(73,72,75,78)         28.4074         estimate D2E/DX2                !
 ! D267  D(74,72,75,76)         34.8047         estimate D2E/DX2                !
 ! D268  D(74,72,75,77)        151.3001         estimate D2E/DX2                !
 ! D269  D(74,72,75,78)        -87.2931         estimate D2E/DX2                !
 ! D270  D(72,75,78,79)        175.0983         estimate D2E/DX2                !
 ! D271  D(72,75,78,80)         53.8443         estimate D2E/DX2                !
 ! D272  D(72,75,78,81)        -66.5712         estimate D2E/DX2                !
 ! D273  D(76,75,78,79)         51.4907         estimate D2E/DX2                !
 ! D274  D(76,75,78,80)        -69.7633         estimate D2E/DX2                !
 ! D275  D(76,75,78,81)        169.8211         estimate D2E/DX2                !
 ! D276  D(77,75,78,79)        -62.5934         estimate D2E/DX2                !
 ! D277  D(77,75,78,80)        176.1526         estimate D2E/DX2                !
 ! D278  D(77,75,78,81)         55.7371         estimate D2E/DX2                !
 ! D279  D(75,78,81,82)       -177.5177         estimate D2E/DX2                !
 ! D280  D(75,78,81,83)         58.0661         estimate D2E/DX2                !
 ! D281  D(75,78,81,84)        -59.0301         estimate D2E/DX2                !
 ! D282  D(79,78,81,82)        -56.3662         estimate D2E/DX2                !
 ! D283  D(79,78,81,83)        179.2177         estimate D2E/DX2                !
 ! D284  D(79,78,81,84)         62.1215         estimate D2E/DX2                !
 ! D285  D(80,78,81,82)         59.61           estimate D2E/DX2                !
 ! D286  D(80,78,81,83)        -64.8061         estimate D2E/DX2                !
 ! D287  D(80,78,81,84)        178.0977         estimate D2E/DX2                !
 ! D288  D(78,81,82,41)        147.0487         estimate D2E/DX2                !
 ! D289  D(83,81,82,41)        -87.6283         estimate D2E/DX2                !
 ! D290  D(84,81,82,41)         24.0798         estimate D2E/DX2                !
 --------------------------------------------------------------------------------
 Trust Radius=3.00D-01 FncErr=1.00D-07 GrdErr=1.00D-06
 Number of steps in this run=    504 maximum allowed number of steps=    504.
 GradGradGradGradGradGradGradGradGradGradGradGradGradGradGradGradGradGrad

 Leave Link  103 at Wed Apr  6 15:55:05 2016, MaxMem= 10737418240 cpu:         0.5
 (Enter /share/apps//g09/l202.exe)
 Stoichiometry    C23H44NO16(1+)
 Framework group  C1[X(C23H44NO16)]
 Deg. of freedom   246
 Full point group                 C1      NOp   1
 Largest Abelian subgroup         C1      NOp   1
 Largest concise Abelian subgroup C1      NOp   1
                         Standard orientation:                         
 ---------------------------------------------------------------------
 Center     Atomic      Atomic             Coordinates (Angstroms)
 Number     Number       Type             X           Y           Z
 ---------------------------------------------------------------------
      1          8           0        3.608667    0.569529   -1.047973
      2          6           0        3.372451   -0.595682   -0.253882
      3          6           0        4.467999   -1.639129   -0.464108
      4          6           0        5.837311   -1.035079   -0.137013
      5          6           0        6.076210    0.226832   -0.979105
      6          6           0        4.911268    1.208273   -0.836891
      7          1           0        2.403140   -0.982289   -0.601158
      8          1           0        4.456248   -1.920553   -1.528442
      9          1           0        5.872078   -0.760559    0.934108
     10          1           0        6.974433    0.738117   -0.581572
     11          1           0        4.942678    1.623106    0.185359
     12          8           0        6.257767   -0.096761   -2.356856
     13          8           0        6.887629   -1.948521   -0.452925
     14          8           0        4.210594   -2.828750    0.275418
     15          8           0        3.345435   -0.298573    1.139760
     16          6           0        4.952479    2.349584   -1.863732
     17          1           0        4.808668    1.923180   -2.868219
     18          1           0        4.119689    3.040666   -1.659837
     19          8           0        6.150440    3.108094   -1.765047
     20          1           0        6.826009    2.664635   -2.308599
     21          1           0        6.849421   -0.874583   -2.366896
     22          1           0        6.618614   -2.820611   -0.107171
     23          1           0        3.823348   -2.561965    1.134173
     24          8           0       -0.624017    0.920511    2.052748
     25          6           0       -0.219848   -0.427776    2.410970
     26          6           0        0.967349   -0.875949    1.535999
     27          6           0        2.111333    0.121822    1.735079
     28          6           0        1.660869    1.532836    1.312429
     29          6           0        0.406724    1.933815    2.108764
     30          1           0        0.060362   -0.472908    3.478605
     31          1           0        0.636253   -0.859019    0.484173
     32          1           0        2.362739    0.155467    2.809508
     33          1           0        2.462269    2.247558    1.576502
     34          1           0        0.711274    2.079595    3.163669
     35          8           0        1.367998    1.621475   -0.090851
     36          8           0        1.404553   -2.165298    1.914263
     37          8           0       -1.352978   -1.255495    2.314164
     38          6           0       -0.216931    3.250832    1.631165
     39          1           0       -1.098034    3.487680    2.245178
     40          1           0        0.522327    4.055394    1.789153
     41          8           0       -0.640669    3.231708    0.258967
     42          1           0        0.100944    2.776696   -0.220957
     43          1           0        2.209299    1.419198   -0.591618
     44          1           0        0.801719   -2.789074    1.457010
     45          8           0       -4.105194   -0.646915   -0.009768
     46          6           0       -4.138675   -1.814771   -0.869969
     47          6           0       -2.722805   -2.398752   -1.035694
     48          6           0       -1.963427   -2.557680    0.289457
     49          6           0       -2.042919   -1.233392    1.052442
     50          6           0       -3.548291   -0.962603    1.276026
     51          1           0       -4.828851   -2.561983   -0.423667
     52          1           0       -2.157203   -1.681207   -1.661901
     53          1           0       -2.439809   -3.350705    0.896636
     54          1           0       -4.024779   -1.883435    1.671769
     55          1           0       -1.638168   -0.421806    0.427367
     56          8           0       -0.604157   -2.915870    0.022407
     57          8           0       -2.744812   -3.688661   -1.638031
     58          8           0       -4.551970   -1.432020   -2.140524
     59          6           0       -3.898650    0.131745    2.276320
     60          1           0       -4.986285    0.285107    2.255805
     61          1           0       -3.618438   -0.210753    3.283535
     62          8           0       -3.296018    1.407158    2.011821
     63          1           0       -2.322789    1.305359    2.177456
     64          1           0       -0.635902   -3.689841   -0.571979
     65          1           0       -3.053156   -3.590096   -2.556727
     66          6           0       -5.971481   -1.186597   -2.327334
     67          1           0       -6.092444   -1.188454   -3.419649
     68          1           0       -6.542755   -2.036264   -1.916944
     69          6           0       -6.451950    0.133059   -1.718475
     70          1           0       -6.457569    0.036962   -0.622854
     71          1           0       -7.499613    0.282591   -2.024530
     72          6           0       -5.579738    1.335969   -2.118745
     73          1           0       -4.556886    0.953587   -2.266617
     74          1           0       -5.888872    1.729854   -3.099209
     75          6           0       -5.576747    2.468748   -1.074452
     76          1           0       -6.387863    3.184718   -1.272700
     77          1           0       -5.780548    2.053020   -0.073329
     78          6           0       -4.264200    3.248070   -1.006760
     79          1           0       -4.337800    4.096168   -0.313786
     80          1           0       -3.961974    3.636022   -1.989821
     81          7           0       -3.160419    2.368840   -0.496648
     82          1           0       -2.223749    2.837855   -0.378648
     83          1           0       -3.046697    1.542574   -1.097772
     84          1           0       -3.374520    1.981179    0.475606
 ---------------------------------------------------------------------
 Rotational constants (GHZ):      0.1432171      0.0481834      0.0444980
 Leave Link  202 at Wed Apr  6 15:55:07 2016, MaxMem= 10737418240 cpu:         4.0
 (Enter /share/apps//g09/l301.exe)
 Standard basis: 6-311+G(d,p) (5D, 7F)
 Ernie: Thresh=  0.10000D-02 Tol=  0.10000D-05 Strict=F.
 There are  1184 symmetry adapted cartesian basis functions of A   symmetry.
 There are  1144 symmetry adapted basis functions of A   symmetry.
  1144 basis functions,  1792 primitive gaussians,  1184 cartesian basis functions
   158 alpha electrons      158 beta electrons
       nuclear repulsion energy      5691.7049214101 Hartrees.
 IExCor= 1009 DFT=T Ex+Corr=PBE1PBE ExCW=0 ScaHFX=  0.250000
 ScaDFX=  0.750000  0.750000  1.000000  1.000000 ScalE2=  1.000000  1.000000
 IRadAn=      0 IRanWt=     -1 IRanGd=            0 ICorTp=0 IEmpDi=131
 NAtoms=   84 NActive=   84 NUniq=   84 SFac= 1.00D+00 NAtFMM=   60 NAOKFM=T Big=T
 Integral buffers will be    131072 words long.
 Raffenetti 2 integral format.
 Two-electron integral symmetry is turned on.
 R6Disp:  Grimme-D3 Dispersion energy=       -0.0810373558 Hartrees.
 Nuclear repulsion after empirical dispersion term =     5691.6238840543 Hartrees.
 Leave Link  301 at Wed Apr  6 15:55:08 2016, MaxMem= 10737418240 cpu:         2.3
 (Enter /share/apps//g09/l302.exe)
 NPDir=0 NMtPBC=     1 NCelOv=     1 NCel=       1 NClECP=     1 NCelD=      1
         NCelK=      1 NCelE2=     1 NClLst=     1 CellRange=     0.0.
 One-electron integrals computed using PRISM.
 NBasis=  1144 RedAO= T EigKep=  1.42D-06  NBF=  1144
 NBsUse=  1144 1.00D-06 EigRej= -1.00D+00 NBFU=  1144
 Precomputing XC quadrature grid using
 IXCGrd= 4 IRadAn=           0 IRanWt=          -1 IRanGd=           0 AccXCQ= 0.00D+00.
 Generated NRdTot=       0 NPtTot=           0 NUsed=           0 NTot=          32
 NSgBfM=  1052  1052  1064  1065  1075 MxSgAt=    84 MxSgA2=    84.
 Leave Link  302 at Wed Apr  6 15:55:15 2016, MaxMem= 10737418240 cpu:        71.7
 (Enter /share/apps//g09/l303.exe)
 DipDrv:  MaxL=1.
 Leave Link  303 at Wed Apr  6 15:55:16 2016, MaxMem= 10737418240 cpu:         8.6
 (Enter /share/apps//g09/l401.exe)
 ExpMin= 4.38D-02 ExpMax= 8.59D+03 ExpMxC= 1.30D+03 IAcc=2 IRadAn=         4 AccDes= 0.00D+00
 Harris functional with IExCor= 1009 and IRadAn=       4 diagonalized for initial guess.
 HarFok:  IExCor= 1009 AccDes= 0.00D+00 IRadAn=         4 IDoV= 1 UseB2=F ITyADJ=14
 ICtDFT=  3500011 ScaDFX=  1.000000  1.000000  1.000000  1.000000
 FoFCou: FMM=F IPFlag=           0 FMFlag=      100000 FMFlg1=        2001
         NFxFlg=           0 DoJE=T BraDBF=F KetDBF=T FulRan=T
         wScrn=  0.000000 ICntrl=     500 IOpCl=  0 I1Cent=   200000004 NGrid=           0
         NMat0=    1 NMatS0=      1 NMatT0=    0 NMatD0=    1 NMtDS0=    0 NMtDT0=    0
 Petite list used in FoFCou.
 Harris En= -2159.70972661084    
 JPrj=0 DoOrth=F DoCkMO=F.
 Leave Link  401 at Wed Apr  6 15:55:30 2016, MaxMem= 10737418240 cpu:       219.3
 (Enter /share/apps//g09/l502.exe)
 Closed shell SCF:
 Using DIIS extrapolation, IDIIS=  1040.
 Integral symmetry usage will be decided dynamically.
 IVT=     4256630 IEndB=     4256630 NGot= 10737418240 MDV= 10734581291
 LenX= 10734581291 LenY= 10733178251
 Requested convergence on RMS density matrix=1.00D-08 within 128 cycles.
 Requested convergence on MAX density matrix=1.00D-06.
 Requested convergence on             energy=1.00D-06.
 No special actions if energy rises.
 Fock matrices will be formed incrementally for  20 cycles.

 Cycle   1  Pass 1  IDiag  1:
 FoFJK:  IHMeth= 1 ICntrl=       0 DoSepK=F KAlg= 0 I1Cent=   0 FoldK=F
 IRaf= 740000000 NMat=   1 IRICut=       1 DoRegI=T DoRafI=F ISym2E= 0.
 FoFCou: FMM=T IPFlag=           0 FMFlag=      100000 FMFlg1=        2001
         NFxFlg=           0 DoJE=F BraDBF=F KetDBF=F FulRan=T
         wScrn=  0.000000 ICntrl=       0 IOpCl=  0 I1Cent=           0 NGrid=           0
         NMat0=    1 NMatS0=      1 NMatT0=    0 NMatD0=    1 NMtDS0=    0 NMtDT0=    0
 Symmetry not used in FoFCou.
 FMM levels:  10  Number of levels for PrismC:   9
 E= -2158.68554725023    
 DIIS: error= 1.26D-02 at cycle   1 NSaved=   1.
 NSaved= 1 IEnMin= 1 EnMin= -2158.68554725023     IErMin= 1 ErrMin= 1.26D-02
 ErrMax= 1.26D-02  0.00D+00 EMaxC= 1.00D-01 BMatC= 1.02D+00 BMatP= 1.02D+00
 IDIUse=3 WtCom= 8.74D-01 WtEn= 1.26D-01
 Coeff-Com:  0.100D+01
 Coeff-En:   0.100D+01
 Coeff:      0.100D+01
 Gap=     0.283 Goal=   None    Shift=    0.000
 GapD=    0.283 DampG=1.000 DampE=0.500 DampFc=0.5000 IDamp=-1.
 Damping current iteration by 5.00D-01
 RMSDP=9.78D-03 MaxDP=1.71D+00              OVMax= 1.39D-01

 Cycle   2  Pass 1  IDiag  1:
 RMSU=  4.87D-03    CP:  1.01D+00
 E= -2158.96773089229     Delta-E=       -0.282183642053 Rises=F Damp=T
 DIIS: error= 3.44D-03 at cycle   2 NSaved=   2.
 NSaved= 2 IEnMin= 2 EnMin= -2158.96773089229     IErMin= 2 ErrMin= 3.44D-03
 ErrMax= 3.44D-03  0.00D+00 EMaxC= 1.00D-01 BMatC= 8.20D-02 BMatP= 1.02D+00
 IDIUse=3 WtCom= 9.66D-01 WtEn= 3.44D-02
 Coeff-Com:  0.627D-01 0.937D+00
 Coeff-En:   0.161D+00 0.839D+00
 Coeff:      0.660D-01 0.934D+00
 Gap=     0.269 Goal=   None    Shift=    0.000
 RMSDP=4.65D-03 MaxDP=1.39D+00 DE=-2.82D-01 OVMax= 8.94D-02

 Cycle   3  Pass 1  IDiag  1:
 RMSU=  2.64D-03    CP:  9.32D-01  9.40D-01
 E= -2159.33862276326     Delta-E=       -0.370891870971 Rises=F Damp=F
 DIIS: error= 3.37D-03 at cycle   3 NSaved=   3.
 NSaved= 3 IEnMin= 3 EnMin= -2159.33862276326     IErMin= 3 ErrMin= 3.37D-03
 ErrMax= 3.37D-03  0.00D+00 EMaxC= 1.00D-01 BMatC= 4.58D-02 BMatP= 8.20D-02
 IDIUse=3 WtCom= 9.66D-01 WtEn= 3.37D-02
 Coeff-Com: -0.650D-01 0.411D+00 0.654D+00
 Coeff-En:   0.000D+00 0.000D+00 0.100D+01
 Coeff:     -0.628D-01 0.397D+00 0.666D+00
 Gap=     0.254 Goal=   None    Shift=    0.000
 RMSDP=1.59D-03 MaxDP=6.79D-01 DE=-3.71D-01 OVMax= 1.83D-02

 Cycle   4  Pass 1  IDiag  1:
 RMSU=  1.14D-03    CP:  9.44D-01  1.12D+00  8.86D-01
 E= -2159.36678626106     Delta-E=       -0.028163497806 Rises=F Damp=F
 DIIS: error= 1.23D-03 at cycle   4 NSaved=   4.
 NSaved= 4 IEnMin= 4 EnMin= -2159.36678626106     IErMin= 4 ErrMin= 1.23D-03
 ErrMax= 1.23D-03  0.00D+00 EMaxC= 1.00D-01 BMatC= 6.45D-03 BMatP= 4.58D-02
 IDIUse=3 WtCom= 9.88D-01 WtEn= 1.23D-02
 Coeff-Com: -0.362D-01 0.125D+00 0.345D+00 0.566D+00
 Coeff-En:   0.000D+00 0.000D+00 0.910D-01 0.909D+00
 Coeff:     -0.357D-01 0.123D+00 0.342D+00 0.570D+00
 Gap=     0.248 Goal=   None    Shift=    0.000
 RMSDP=1.20D-03 MaxDP=4.63D-01 DE=-2.82D-02 OVMax= 6.19D-03

 Cycle   5  Pass 1  IDiag  1:
 RMSU=  2.92D-04    CP:  9.23D-01  1.06D+00  8.70D-01  6.46D-01
 E= -2159.37223647175     Delta-E=       -0.005450210689 Rises=F Damp=F
 DIIS: error= 2.77D-04 at cycle   5 NSaved=   5.
 NSaved= 5 IEnMin= 5 EnMin= -2159.37223647175     IErMin= 5 ErrMin= 2.77D-04
 ErrMax= 2.77D-04  0.00D+00 EMaxC= 1.00D-01 BMatC= 2.77D-04 BMatP= 6.45D-03
 IDIUse=3 WtCom= 9.97D-01 WtEn= 2.77D-03
 Coeff-Com: -0.115D-01 0.273D-01 0.105D+00 0.249D+00 0.631D+00
 Coeff-En:   0.000D+00 0.000D+00 0.000D+00 0.000D+00 0.100D+01
 Coeff:     -0.115D-01 0.272D-01 0.104D+00 0.248D+00 0.632D+00
 Gap=     0.248 Goal=   None    Shift=    0.000
 RMSDP=1.41D-04 MaxDP=3.65D-02 DE=-5.45D-03 OVMax= 1.80D-03

 Cycle   6  Pass 1  IDiag  1:
 RMSU=  8.02D-05    CP:  9.24D-01  1.06D+00  8.89D-01  6.33D-01  7.84D-01
 E= -2159.37242852683     Delta-E=       -0.000192055081 Rises=F Damp=F
 DIIS: error= 1.20D-04 at cycle   6 NSaved=   6.
 NSaved= 6 IEnMin= 6 EnMin= -2159.37242852683     IErMin= 6 ErrMin= 1.20D-04
 ErrMax= 1.20D-04  0.00D+00 EMaxC= 1.00D-01 BMatC= 3.88D-05 BMatP= 2.77D-04
 IDIUse=3 WtCom= 9.99D-01 WtEn= 1.20D-03
 Coeff-Com: -0.440D-02 0.788D-02 0.387D-01 0.107D+00 0.356D+00 0.495D+00
 Coeff-En:   0.000D+00 0.000D+00 0.000D+00 0.000D+00 0.113D-01 0.989D+00
 Coeff:     -0.439D-02 0.787D-02 0.386D-01 0.107D+00 0.356D+00 0.495D+00
 Gap=     0.248 Goal=   None    Shift=    0.000
 RMSDP=4.56D-05 MaxDP=1.43D-02 DE=-1.92D-04 OVMax= 7.02D-04

 Cycle   7  Pass 1  IDiag  1:
 RMSU=  2.10D-05    CP:  9.25D-01  1.07D+00  8.89D-01  6.50D-01  7.84D-01
                    CP:  7.45D-01
 E= -2159.37245611716     Delta-E=       -0.000027590328 Rises=F Damp=F
[...]
 ,-0.00006259,-0.00019219,0.00001526,0.00008060,0.00005340,0.00003826,0
 .00005949,0.00003104,0.00004831,-0.00087387,0.00078582,0.00103729,-0.0
 0046070,0.00013510,-0.00064531,-0.00008801,0.00010924,0.00004148,-0.00
 004645,-0.00000492,0.00002640,-0.00122059,0.00071044,-0.00103357,0.001
 37606,0.00084881,0.00081338,0.00004522,-0.00046340,0.00042637,-0.00006
 575,0.00030827,0.00013365,-0.00026335,-0.00104716,0.00046938,-0.000015
 63,-0.00059209,0.00016308,-0.00008212,-0.00006886,-0.00018343,0.000047
 50,0.00024464,-0.00001345,0.00003762,0.00001104,-0.00012412,-0.0000397
 5,0.00012704,-0.00004505,-0.00034664,0.00031675,-0.00014271,0.00002863
 ,-0.00002389,-0.00012268,-0.00017796,0.00009108,-0.00041497,-0.0013870
 6,-0.00033883,0.00034320,-0.00015197,-0.00036036,-0.00007214,-0.000020
 23,0.00007387,0.00001603,0.00000431,-0.00002596,0.00003692,-0.00049853
 ,-0.00006021,0.00094941,-0.00000384,-0.00030505,-0.00028844,0.00000356
 ,0.00001295,0.00005288,0.00014174,-0.00002606,0.00000820,0.00061589,-0
 .00026275,-0.00051747,-0.00006395,0.00003022,-0.00004453,-0.00011340,0
 .00000487,0.00014827,0.00111511,0.00004245,-0.00048117,-0.00001762,-0.
 00017848,0.00004593,-0.00003659,-0.00043680,0.00040436,-0.00260695,0.0
 0225107,0.00139977,0.00056451,-0.00158390,-0.00309488,0.00079110,-0.00
 050669,0.00000851,0.00051254,0.00081753,0.00064504,0.00034183,-0.00033
 908,-0.00026720,-0.00005271,-0.00008658,-0.00017900,-0.00021061,0.0123
 9151,0.03572560,-0.00693579,-0.00040989,0.00117489,0.00103008,-0.00057
 862,-0.00013969,-0.05891436,0.00782535,0.01454843,0.00365986,-0.011403
 14,-0.01998676,0.06255699,-0.00006443,-0.00006562,0.00004925,0.0000675
 7,0.00014834,-0.00000986,0.00000621,0.00003572,-0.00002656,0.00000865,
 0.00000787,-0.00000049,0.00001020,0.00000960,0.00000146,0.00000608,-0.
 00000087,0.00000752,0.00000809,0.00001880,-0.00000746,0.00000417,-0.00
 000440,-0.00000656,-0.00000433,-0.00000080,-0.00000222,-0.00000195,-0.
 00000146,-0.00000003,-0.00000462,-0.00000204,-0.00000546,-0.00001617,-
 0.00001743,0.00000406,-0.00001294,-0.00001289,0.00001180,-0.00000109,-
 0.00005950,0.00002709,0.00001521,-0.00014747,-0.00002419,0.00003799,0.
 00000048,0.00000175,0.00000293,-0.00000934,-0.00001127,0.00000085,0.00
 000613,0.00001444,-0.00003687,0.00000136,-0.00000198,0.00001032,0.0000
 0292,-0.00000343,0.00000512,0.00000530,-0.00000443,0.00000073,0.000006
 92,-0.00000267,-0.00001837,0.00003087,-0.00000417,0.00013614,-0.000256
 24,0.00026647,-0.00021798,0.00028503,-0.00034970,0.00002676,0.00001318
 ,0.00004192,-0.00005502,0.00005512,-0.00005653,0.00012447,0.00018265,0
 .00008771,-0.00007598,0.00019106,-0.00018868,0.00003105,-0.00002144,0.
 00003289,0.00000335,0.00003831,-0.00002449,-0.00001133,-0.00001026,0.0
 0000842,-0.00001952,-0.00004327,-0.00001493,0.00001894,-0.00002426,0.0
 0002744,-0.00018704,-0.00024068,-0.00011068,0.00005010,-0.00008368,0.0
 0004215,0.00060854,-0.00009891,0.00023413,0.00017209,0.00015321,-0.000
 07191,-0.00002603,-0.00001991,-0.00002702,-0.00005518,-0.00003339,-0.0
 0000986,0.00043350,-0.00093890,-0.00047878,0.00050726,0.00019917,0.000
 38582,0.00008320,0.00001511,-0.00001071,-0.00007429,0.00003372,-0.0000
 1870,0.00062648,0.00098938,-0.00250124,0.00093024,0.00146062,0.0022686
 3,-0.00023536,0.00047668,-0.00015693,-0.00019450,0.00018093,0.00018943
 ,-0.00033808,-0.00008320,0.00002744,-0.00154321,-0.00117857,-0.0004981
 6,0.00002342,-0.00009393,-0.00049532,0.00008411,-0.00009400,-0.0000050
 9,-0.00003308,-0.00004578,-0.00001947,0.00031612,0.00027962,-0.0000410
 5,-0.00012835,0.00026444,-0.00005487,0.00023537,-0.00022999,-0.0001014
 6,0.00019988,-0.00034847,-0.00022454,-0.00062103,-0.00054587,-0.000264
 94,-0.00044714,-0.00048125,-0.00030133,0.00003253,-0.00002938,-0.00004
 458,0.00004895,-0.00004057,0.00018589,-0.00041512,-0.00051341,0.001974
 02,-0.00039908,-0.00000597,-0.00014951,-0.00000398,0.00004758,0.000010
 91,-0.00002787,0.00013292,0.00001408,0.00030593,-0.00007260,0.00010170
 ,-0.00006056,-0.00000727,-0.00003341,0.00001031,0.00001151,0.00000360,
 0.00040497,-0.00009507,-0.00007293,0.00006873,-0.00019395,0.00002242,-
 0.00008565,-0.00010584,0.00005237,-0.00074547,-0.00036336,0.00080506,0
 .00060066,0.00097456,-0.00019594,-0.00045262,0.00017871,-0.00006124,0.
 00065257,-0.00010507,-0.00114388,-0.00015952,-0.00015857,0.00007181,0.
 00013347,-0.00036792,-0.00017353,0.00047703,0.00042266,0.00194083,-0.0
 0024282,0.00059429,0.00027923,-0.00034523,0.00000077,0.00101908,0.0072
 4745,-0.08782462,-0.10491249,-0.00462386,0.00888975,0.02205704,-0.0062
 7126,0.08626634,0.00007825,-0.00003456,-0.00009456,0.00001513,-0.00002
 168,0.00011626,-0.00000933,-0.00002639,0.00003528,-0.00001616,-0.00000
 043,0.00001385,-0.00000645,0.00001358,0.00002010,-0.00001115,0.0000221
 8,-0.00000429,-0.00000770,-0.00000390,0.00000985,0.00000596,-0.0000040
 5,-0.00000107,-0.00000476,-0.00000206,-0.00000225,0.00000054,-0.000001
 15,-0.00000399,-0.00000650,-0.00000112,0.00000034,0.00000656,-0.000011
 16,-0.00003184,0.00002002,-0.00000128,-0.00003066,-0.00000034,0.000035
 79,-0.00004965,0.00003388,-0.00001655,-0.00012876,-0.00003234,0.000021
 32,0.00001789,-0.00000079,-0.00000002,0.00000343,0.00000596,-0.0000010
 7,-0.00001524,0.00002723,-0.00002019,-0.00000650,-0.00000384,0.0000044
 4,0.00000603,-0.00000053,0.00000021,0.00001025,0.00000044,-0.00000252,
 0.00000965,0.00000406,-0.00001211,0.00002483,0.00034746,0.00019361,-0.
 00054094,0.00000082,-0.00038415,0.00074958,-0.00002105,0.00005276,0.00
 005862,-0.00006402,-0.00000935,0.00011363,-0.00012709,-0.00004258,-0.0
 0002985,0.00002939,-0.00005363,0.00019899,-0.00000106,0.00002924,-0.00
 006843,0.00001689,-0.00003415,0.00004185,-0.00000472,0.00000174,-0.000
 01572,0.00000543,0.00002313,0.00000017,0.00003814,0.00003391,-0.000045
 14,0.00033342,-0.00005583,-0.00018869,-0.00000562,0.00003359,-0.000209
 97,-0.00058924,-0.00000600,-0.00050446,-0.00049129,-0.00057098,-0.0002
 6204,0.00002363,0.00001865,-0.00001076,0.00017357,0.00006173,0.0000828
 8,0.00090705,0.00051857,0.00091808,-0.00059424,0.00028208,0.00001333,-
 0.00008367,0.00011889,0.00009928,0.00013523,0.00000380,0.00009597,-0.0
 0091974,-0.00155423,-0.00085655,0.00027185,0.00056073,-0.00134032,0.00
 014347,0.00043348,-0.00048916,0.00037248,-0.00005337,0.00004436,0.0003
 2800,0.00005615,0.00011713,0.00130811,0.00064723,0.00087805,-0.0000151
 1,-0.00011606,0.00018429,0.00009691,-0.00030045,0.00009210,-0.00005931
 ,-0.00002488,-0.00002925,-0.00028378,-0.00023827,-0.00009228,-0.000003
 24,-0.00004798,0.00028207,-0.00037192,0.00005243,-0.00003634,-0.000191
 69,-0.00005468,0.00044983,0.00036987,-0.00032018,0.00055911,0.00010162
 ,-0.00065512,0.00119783,-0.00003260,0.00005321,-0.00003388,0.00001225,
 0.00012849,-0.00027130,0.00126414,0.00195668,-0.00079830,-0.00034523,-
 0.00001345,0.00000529,0.00010762,0.00000541,-0.00002248,0.00000686,-0.
 00004986,-0.00013149,-0.00071115,0.00019233,-0.00020598,0.00004693,0.0
 0000640,-0.00001570,0.00007975,-0.00008932,0.00001356,0.00083709,-0.00
 014879,-0.00023708,-0.00008722,-0.00000981,0.00005362,0.00002649,-0.00
 022181,0.00016648,-0.00254149,0.00194928,0.00159320,-0.00058264,-0.001
 50424,-0.00131288,0.00050110,-0.00030445,-0.00013055,-0.00072598,0.000
 32446,0.00052099,-0.00022985,0.00003354,-0.00054651,0.00004999,-0.0000
 8893,-0.00006654,0.00600584,-0.00356950,-0.00912512,0.00090558,0.00104
 512,0.00106313,-0.00041643,0.00029794,0.00035324,0.01302726,-0.1040537
 4,-0.37952140,0.00121405,-0.00784509,-0.01592307,-0.01740119,0.1160029
 0,0.40304724,0.00001822,-0.00028694,0.00009627,0.00012414,0.00044644,0
 .00006135,-0.00000967,0.00005241,-0.00001329,-0.00004576,0.00004196,0.
 00002390,0.00001796,0.00005493,0.00002635,-0.00008427,0.00009131,-0.00
 004006,0.00000963,0.00002046,0.00001341,0.00001186,-0.00001036,-0.0000
 1502,-0.00001806,-0.00000637,-0.00000862,0.00000523,-0.00001299,-0.000
 00320,-0.00000719,-0.00000312,-0.00000907,-0.00000848,-0.00009438,-0.0
 0001992,0.00005990,-0.00006135,-0.00002636,0.00005852,-0.00013381,0.00
 000348,0.00016827,-0.00049775,-0.00019191,0.00002887,0.00006451,-0.000
 03151,0.00000346,-0.00001234,-0.00001190,0.00000688,0.00001419,0.00000
 874,-0.00001434,-0.00008152,0.00003541,0.00001316,0.00003139,-0.000009
 12,-0.00000218,0.00003192,0.00000025,-0.00002646,0.00002048,0.00001002
 ,-0.00008956,0.00008471,0.00002965,0.00237066,-0.00140494,-0.00000990,
 -0.00090294,-0.00010447,0.00082723,-0.00005764,0.00016588,0.00016443,-
 0.00032068,0.00023983,-0.00002910,0.00034930,0.00032865,0.00029899,-0.
 00059293,0.00081476,-0.00150090,0.00008913,0.00004681,-0.00007615,0.00
 001311,0.00003821,-0.00001064,-0.00003179,-0.00002066,0.00000805,0.000
 02200,-0.00014981,-0.00003110,0.00002282,-0.00010211,0.00023683,-0.000
 34567,-0.00049928,-0.00006617,0.00030300,-0.00021233,-0.00029914,0.000
 26170,-0.00049940,-0.00045130,-0.00002090,0.00151570,0.00049442,0.0000
 1055,-0.00012563,-0.00047646,-0.00010715,-0.00031565,-0.00012173,-0.00
 260891,-0.00219132,-0.00079703,0.00052204,0.00010214,0.00003769,-0.000
 01885,0.00013612,0.00003871,-0.00003626,0.00008052,0.00011980,-0.00185
 161,-0.00178932,-0.00063875,0.00095333,0.00091651,0.00082929,0.0002442
 3,0.00032693,0.00003572,0.00021766,0.00039103,0.00045688,-0.00042816,0
 .00006700,0.00023284,0.00143157,0.00171145,0.00087578,0.00000734,-0.00
 014130,0.00003299,0.00004807,-0.00009392,-0.00000600,-0.00003839,-0.00
 008810,-0.00004826,-0.00025953,-0.00040510,-0.00058976,0.00006308,0.00
 036462,0.00012493,-0.00000594,-0.00041144,-0.00041333,-0.00027226,-0.0
 0020997,-0.00020299,-0.00148420,-0.00063009,0.00012107,0.00486021,-0.0
 0387678,0.00937302,-0.00036563,0.00079974,-0.00071160,0.00004791,0.001
 88236,-0.00236096,-0.00264274,0.01282989,-0.00587743,-0.00718924,-0.00
 106810,-0.00115226,0.00011670,0.00007117,0.00005571,0.00009088,0.00003
 290,-0.00005055,0.00076823,-0.00039496,-0.00026919,-0.00009074,0.00003
 383,-0.00002373,-0.00011881,0.00001090,0.00019134,0.00002890,0.0004960
 0,0.00004157,0.00006049,-0.00003942,-0.00009721,-0.00000808,-0.0001241
 1,0.00011243,-0.00034354,0.00010586,-0.00022869,0.00023403,-0.00020674
 ,-0.00037905,0.00016120,0.00000596,0.00025450,0.00115166,-0.00140765,-
 0.00110180,0.00084216,0.00012098,0.00054671,-0.00049864,0.00163364,-0.
 00018352,-0.01590253,-0.02639565,0.00088467,0.00163551,-0.00008937,0.0
 0000889,-0.00328474,0.00102877,0.00154585,-0.09300924,-0.07760920,-0.0
 0273907,0.01438125,0.02093241,0.00372942,0.00135098,0.00347919,-0.0022
 8587,0.09995789,-0.00011642,-0.00021400,0.00018673,0.00016078,0.000477
 15,-0.00002534,0.00000205,0.00008053,-0.00005037,-0.00001410,0.0000392
 8,0.00001216,0.00002361,0.00004100,0.00000621,-0.00004296,0.00004912,-
 0.00000965,0.00001567,0.00002898,-0.00000191,0.00000982,-0.00001146,-0
 .00001555,-0.00001430,-0.00000419,-0.00000845,0.00000054,-0.00000864,0
 .00000019,-0.00000351,-0.00000281,-0.00001304,-0.00002418,-0.00007690,
 0.00000604,0.00001686,-0.00005614,0.00000558,0.00003175,-0.00016880,0.
 00004634,0.00011387,-0.00050941,-0.00008618,0.00007088,0.00002839,-0.0
 0003888,0.00000266,-0.00001401,-0.00001673,0.00000027,0.00001423,0.000
 02601,-0.00005540,-0.00004350,0.00002890,0.00001939,0.00002276,-0.0000
 1223,0.00000402,0.00002765,-0.00000792,-0.00001593,0.00002311,0.000001
 77,-0.00007828,0.00010017,0.00000875,0.00306674,-0.00285222,0.00050893
 ,-0.00105964,0.00022763,0.00039489,-0.00000980,0.00021671,0.00011340,-
 0.00027619,0.00025951,-0.00013700,0.00062595,0.00042662,0.00048639,-0.
 00044100,0.00103392,-0.00203151,0.00002563,0.00002867,-0.00000870,0.00
 000993,0.00003236,-0.00005347,-0.00004754,-0.00002133,0.00002097,0.000
 02285,-0.00021961,-0.00005656,-0.00007235,-0.00013775,0.00030237,-0.00
 094287,-0.00039645,0.00021113,0.00028494,-0.00031525,-0.00017742,0.000
 47616,-0.00097957,-0.00035428,0.00157452,0.00246996,0.00147515,0.00009
 726,-0.00007700,-0.00040622,-0.00039252,-0.00041290,-0.00028619,-0.004
 54668,-0.00011311,-0.00185554,0.00069106,-0.00048050,-0.00062780,0.000
 06196,-0.00004448,-0.00007392,-0.00009037,0.00011152,0.00008468,-0.001
 77796,-0.00296031,-0.00139074,0.00138290,0.00121867,0.00138806,0.00011
 542,0.00055216,-0.00013377,0.00018778,0.00024045,0.00059341,-0.0005800
 2,0.00098027,-0.00008251,0.00117748,0.00295410,0.00114123,0.00002595,-
 0.00017735,0.00003821,0.00005484,-0.00019436,0.00000278,-0.00004933,-0
 .00011754,0.00006437,-0.00021029,-0.00057748,-0.00078324,0.00018466,0.
 00000879,0.00012074,0.00013617,-0.00056382,-0.00049018,-0.00015393,-0.
 00035771,-0.00024815,-0.00159780,-0.00085375,0.00004292,0.00305285,-0.
 00754892,0.01103544,-0.00041266,0.00014813,-0.00063490,0.00027153,0.00
 196895,-0.00253783,0.01241971,-0.00132304,-0.00367680,-0.00419333,0.01
 001873,-0.00162763,0.00012151,0.00007445,0.00004696,0.00007185,0.00008
 110,-0.00004336,0.00070019,-0.00044422,-0.00022603,-0.00008216,0.00001
 252,-0.00007016,-0.00011631,0.00000914,0.00021729,0.00027236,0.0006528
 7,0.00014625,0.00007685,-0.00019963,0.00003881,-0.00003564,-0.00020351
 ,0.00014265,-0.00070311,-0.00030331,0.00023793,0.00036643,-0.00035107,
 -0.00075915,0.00015150,-0.00022819,-0.00006431,0.00095039,0.00318333,-
 0.00156679,0.00043049,-0.00058393,0.00053880,-0.00019616,-0.00091700,0
 .00027415,-0.00568772,0.01243538,0.00432547,0.00076525,0.00005117,-0.0
 0016519,0.00505557,0.00049710,-0.00126078,-0.07827043,-0.26683558,-0.0
 0724771,-0.00111137,-0.02012280,0.00220301,-0.00210190,-0.00753417,-0.
 00263387,0.07014330,0.27873108,0.00003502,0.00000321,-0.00006966,0.000
 01083,-0.00004488,0.00007372,-0.00000548,-0.00002582,0.00002089,-0.000
 00289,-0.00000222,0.00000783,-0.00000527,0.00000210,0.00001003,0.00000
 654,0.00000698,0.00000626,-0.00000770,-0.00000565,0.00000297,0.0000034
 5,-0.00000152,-0.00000036,-0.00000136,-0.00000129,-0.00000051,-0.00000
 088,0.00000127,-0.00000226,-0.00000518,-0.00000159,0.00000022,0.000002
 74,0.00000154,-0.00001796,0.00000244,0.00000488,-0.00001542,-0.0000120
 2,0.00003774,-0.00003234,0.00001413,0.00003431,-0.00009573,-0.00001548
 ,0.00000451,0.00001491,-0.00000016,-0.00000077,0.00000005,0.00000463,0
 .00000030,-0.00000671,0.00001020,-0.00000341,-0.00000971,-0.00000198,0
 .00000018,0.00000437,0.00000068,-0.00000347,0.00000589,0.00000443,-0.0
 0000363,0.00000495,0.00001678,-0.00001906,0.00001476,-0.00000971,0.000
 30138,-0.00059911,0.00016569,-0.00035792,0.00060459,0.00001899,0.00005
 196,0.00000806,-0.00002287,-0.00007137,0.00010295,-0.00004844,0.000053
 16,-0.00007010,-0.00000499,-0.00032282,0.00033539,-0.00002495,0.000017
 56,-0.00004954,0.00001005,-0.00004371,0.00001596,-0.00000850,0.0000018
 2,-0.00000965,-0.00001384,0.00003431,-0.00000261,-0.00002287,0.0000248
 1,-0.00004206,0.00021034,-0.00004338,-0.00019627,-0.00005053,0.0000407
 3,-0.00011958,-0.00067228,0.00001661,-0.00038391,-0.00067477,0.0002335
 6,0.00004542,-0.00018525,-0.00016033,-0.00020319,0.00009732,-0.0000606
 1,-0.00001995,0.00049843,-0.00102054,-0.00052612,-0.00000816,0.0001192
 6,0.00045409,-0.00003759,0.00006136,0.00005299,0.00010653,-0.00001168,
 0.00004629,0.00008623,-0.00026357,0.00212242,-0.00095117,-0.00127927,-
 0.00140158,0.00020451,-0.00016535,-0.00001228,0.00019299,-0.00021100,-
 0.00012115,0.00046685,0.00034728,0.00000839,0.00177647,0.00197277,-0.0
 0087244,-0.00000930,0.00006366,0.00038708,-0.00003556,0.00000238,0.000
 01196,-0.00000164,0.00001990,0.00004656,-0.00017999,-0.00024079,0.0000
 4844,0.00008971,-0.00035997,0.00016012,-0.00026182,0.00014025,0.000072
 70,-0.00016168,0.00019882,0.00030505,0.00061086,0.00030133,0.00012728,
 0.00428424,0.00350937,0.00055938,-0.00015477,-0.00000177,0.00016905,-0
 .00019621,0.00037090,-0.00076099,-0.00586769,-0.00159721,-0.01091302,0
 .00017301,-0.00079653,0.00024699,0.00003618,-0.00001306,-0.00002513,-0
 .00000237,-0.00006851,-0.00004939,-0.00032883,0.00014194,-0.00004382,0
 .00003800,0.00000870,0.00002014,0.00001101,-0.00002385,-0.00001736,-0.
 00016066,-0.00012236,-0.00000759,-0.00007877,0.00014836,-0.00002166,0.
 00006414,0.00008031,-0.00003066,0.00005074,-0.00016409,-0.00052192,-0.
 00030004,-0.00000507,0.00010270,0.00003037,0.00004628,-0.00003741,-0.0
 0099515,-0.00089697,0.00023804,-0.00001291,0.00023627,-0.00017371,0.00
 002049,0.00010329,0.00046147,0.00425436,0.01218743,-0.00004888,0.00031
 205,0.00071024,-0.00049976,0.00239246,-0.00046294,-0.00043877,-0.00118
 892,-0.00351668,-0.06307369,0.00837363,0.02062487,0.00112327,-0.013577
 95,-0.03534611,0.00016935,0.00162107,0.00547288,0.07333099\\-0.0000203
 7,-0.00003250,0.00001382,0.00001093,0.00002964,-0.00003387,-0.00000273
 ,-0.00000357,0.00000792,-0.00000901,-0.00000502,-0.00001504,0.00001067
 ,0.00002002,0.00001542,0.00000252,-0.00000222,0.00000236,0.00000019,-0
 .00000275,0.00000262,0.00000092,0.00000177,-0.00000227,0.00000115,0.00
 000247,-0.00000124,0.00000439,0.00000264,-0.00001387,0.00000357,-0.000
 00171,-0.00000523,-0.00001856,-0.00000554,-0.00002590,0.00000271,0.000
 00396,-0.00000058,0.00000251,0.00000226,-0.00000887,0.00001363,-0.0000
 0872,0.00000314,-0.00000335,-0.00000534,-0.00000256,0.00000588,0.00000
 259,-0.00000718,0.00000038,-0.00000079,-0.00000658,0.00001339,0.000006
 14,-0.00000458,-0.00000397,-0.00000372,-0.00000598,0.00000683,-0.00000
 098,0.00000403,-0.00000032,0.00000562,-0.00000598,-0.00000254,0.000003
 40,0.00000043,-0.00002139,-0.00000054,-0.00001793,0.00001830,-0.000019
 50,0.00003125,-0.00000395,0.00000049,-0.00000749,-0.00001488,0.0000112
 6,0.00000113,0.00000205,-0.00000794,-0.00001369,0.00001744,-0.00000945
 ,0.00000696,-0.00000449,0.00000156,-0.00000133,-0.00000259,0.00000224,
 -0.00000269,0.00000060,-0.00000096,-0.00000174,0.00000294,0.00000008,-
 0.00000182,-0.00000190,-0.00000011,-0.00000129,-0.00002248,-0.00001284
 ,0.00004379,0.00000351,-0.00000145,0.00000550,-0.00001961,0.00000495,-
 0.00002639,0.00000694,-0.00000004,0.00000028,-0.00000004,-0.00000498,0
 .00000138,0.00000336,-0.00000405,-0.00000243,0.00001281,0.00001171,-0.
 00001166,-0.00000845,-0.00001751,0.00000429,0.00004414,0.00003292,-0.0
 0003531,-0.00000710,0.00000598,-0.00000561,-0.00000415,-0.00000413,-0.
 00000372,0.00002327,0.00002772,0.00001677,-0.00000491,-0.00000528,-0.0
 0000256,-0.00000570,0.00000828,0.00000064,0.00002043,0.00000117,0.0000
 1861,-0.00000960,0.00000683,0.00000080,-0.00000399,-0.00000221,0.00000
 252,-0.00000183,0.00000076,-0.00000206,-0.00000344,0.00000135,0.000000
 72,-0.00000272,-0.00000197,0.00000348,-0.00000235,-0.00000022,-0.00000
 035,0.00000767,0.00000278,0.00000859,0.00000898,-0.00000015,0.00000633
 ,-0.00002213,-0.00001578,-0.00000215,0.00000572,0.00000683,0.00000328,
 0.00000054,0.00000099,0.00000731,0.00000045,-0.00000202,0.00000113,-0.
 00001823,-0.00003316,-0.00001537,0.00002287,0.00003243,0.00001395,-0.0
 0000483,0.00000035,-0.00000220,-0.00000976,0.00000498,0.00000098,0.000
 00941,-0.00000459,0.00000376,-0.00000416,0.00000130,0.00000334,-0.0000
 0267,0.00000263,0.00000487,-0.00000162,-0.00000012,0.00000929,-0.00000
 215,-0.00000120,0.00000553,-0.00000167,-0.00000252,0.00000290,-0.00000
 067,0.00000262,0.00000472,-0.00000167,-0.00000241,0.00000079,-0.000000
 48,-0.00000181,0.00000306,0.00000307,-0.00000388,0.00000028,0.00000010
 ,-0.00000277,0.00000512,-0.00000146,-0.00000148,0.00000487,-0.00000732
 ,-0.00000317,0.00000190,0.00000290,-0.00000334,0.00000191,0.00000280,-
 0.00000262,0.00000114,0.00000931,0.00001279,0.00002602,-0.00002329,-0.
 00000592,-0.00000756,0.00000422,0.00000226,-0.00000395,-0.00000498,-0.
 00001480,0.00000006\\\@


 ADAM SMITH SAID, "THE REAL PRICE OF ANYTHING IS THE TOIL AND TROUBLE
 OF ACQUIRING IT."  BUT IN ALL UNDERTAKINGS WITH NATURE WE SHOULD FIRST
 READ CAREFULLY THE SMALL PRINT IN THE CONTRACT. THIS MIGHT DISCLOSE
 THAT THE REAL PRICE IS TO BE PAID BY THOSE WHO INHERIT THE DEPLETION
 AND DESPOILATION THAT FOLLOWS.
                               -- E. R. HARRISON IN "COSMOLOGY" (1980)
 Job cpu time:      16 days  6 hours 51 minutes 45.0 seconds.
 File lengths (MBytes):  RWF=  17356 Int=      0 D2E=      0 Chk=     98 Scr=      1
 Normal termination of Gaussian 09 at Fri Apr  8 09:15:34 2016.
