 Entering Gaussian System, Link 0=g09
 Initial command:
 /share/apps//g09/l1.exe "/scratch/Gau-10471.inp" -scrdir="/scratch/"
 Entering Link 1 = /share/apps//g09/l1.exe PID=     10472.
  
 Copyright (c) 1988,1990,1992,1993,1995,1998,2003,2009,2013,
            Gaussian, Inc.  All Rights Reserved.
  
 This is part of the Gaussian(R) 09 program.  It is based on
 the Gaussian(R) 03 system (copyright 2003, Gaussian, Inc.),
 the Gaussian(R) 98 system (copyright 1998, Gaussian, Inc.),
 the Gaussian(R) 94 system (copyright 1995, Gaussian, Inc.),
 the Gaussian 92(TM) system (copyright 1992, Gaussian, Inc.),
 the Gaussian 90(TM) system (copyright 1990, Gaussian, Inc.),
 the Gaussian 88(TM) system (copyright 1988, Gaussian, Inc.),
 the Gaussian 86(TM) system (copyright 1986, Carnegie Mellon
 University), and the Gaussian 82(TM) system (copyright 1983,
 Carnegie Mellon University). Gaussian is a federally registered
 trademark of Gaussian, Inc.
  
 This software contains proprietary and confidential information,
 including trade secrets, belonging to Gaussian, Inc.
  
 This software is provided under written license and may be
 used, copied, transmitted, or stored only in accord with that
 written license.
  
 The following legend is applicable only to US Government
 contracts under FAR:
  
                    RESTRICTED RIGHTS LEGEND
  
 Use, reproduction and disclosure by the US Government is
 subject to restrictions as set forth in subparagraphs (a)
 and (c) of the Commercial Computer Software - Restricted
 Rights clause in FAR 52.227-19.
  
 Gaussian, Inc.
 340 Quinnipiac St., Bldg. 40, Wallingford CT 06492
  
  
 ---------------------------------------------------------------
 Warning -- This program may not be used in any manner that
 competes with the business of Gaussian, Inc. or will provide
 assistance to any competitor of Gaussian, Inc.  The licensee
 of this program is prohibited from giving any competitor of
 Gaussian, Inc. access to this program.  By using this program,
 the user acknowledges that Gaussian, Inc. is engaged in the
 business of creating and licensing software in the field of
 computational chemistry and represents and warrants to the
 licensee that it is not a competitor of Gaussian, Inc. and that
 it will not use this program in any manner prohibited above.
 ---------------------------------------------------------------
  

 Cite this work as:
 Gaussian 09, Revision D.01,
 M. J. Frisch, G. W. Trucks, H. B. Schlegel, G. E. Scuseria, 
 M. A. Robb, J. R. Cheeseman, G. Scalmani, V. Barone, B. Mennucci, 
 G. A. Petersson, H. Nakatsuji, M. Caricato, X. Li, H. P. Hratchian, 
 A. F. Izmaylov, J. Bloino, G. Zheng, J. L. Sonnenberg, M. Hada, 
 M. Ehara, K. Toyota, R. Fukuda, J. Hasegawa, M. Ishida, T. Nakajima, 
 Y. Honda, O. Kitao, H. Nakai, T. Vreven, J. A. Montgomery, Jr., 
 J. E. Peralta, F. Ogliaro, M. Bearpark, J. J. Heyd, E. Brothers, 
 K. N. Kudin, V. N. Staroverov, T. Keith, R. Kobayashi, J. Normand, 
 K. Raghavachari, A. Rendell, J. C. Burant, S. S. Iyengar, J. Tomasi, 
 M. Cossi, N. Rega, J. M. Millam, M. Klene, J. E. Knox, J. B. Cross, 
 V. Bakken, C. Adamo, J. Jaramillo, R. Gomperts, R. E. Stratmann, 
 O. Yazyev, A. J. Austin, R. Cammi, C. Pomelli, J. W. Ochterski, 
 R. L. Martin, K. Morokuma, V. G. Zakrzewski, G. A. Voth, 
 P. Salvador, J. J. Dannenberg, S. Dapprich, A. D. Daniels, 
 O. Farkas, J. B. Foresman, J. V. Ortiz, J. Cioslowski, 
 and D. J. Fox, Gaussian, Inc., Wallingford CT, 2013.
 
 ******************************************
 Gaussian 09:  EM64L-G09RevD.01 24-Apr-2013
                24-Mar-2016 
 ******************************************
 %nproc=20
 Will use up to   20 processors via shared memory.
 %mem=80GB
 %chk=Tri_A154_of.chk
 -------------------------------------------------------------------
 #P PBE1PBE/6-311+G(d,p) opt optcyc=999 freq EmpiricalDispersion=GD3
 -------------------------------------------------------------------
 1/6=999,14=-1,18=20,19=15,26=3,38=1/1,3;
 2/9=110,12=2,17=6,18=5,40=1/2;
 3/5=4,6=6,7=111,11=2,16=1,25=1,30=1,71=1,74=-13,124=31/1,2,3;
 4//1;
 5/5=2,38=5/2;
 6/7=2,8=2,9=2,10=2,28=1/1;
 7//1,2,3,16;
 1/6=999,14=-1,18=20,19=15,26=3/3(2);
 2/9=110/2;
 99//99;
 2/9=110/2;
 3/5=4,6=6,7=111,11=2,16=1,25=1,30=1,71=1,74=-13,124=31/1,2,3;
 4/5=5,16=3,69=1/1;
 5/5=2,38=5/2;
 7//1,2,3,16;
 1/6=999,14=-1,18=20,19=15,26=3/3(-5);
 2/9=110/2;
 6/7=2,8=2,9=2,10=2,19=2,28=1/1;
 99/9=1/99;
 Leave Link    1 at Thu Mar 24 06:08:02 2016, MaxMem= 10737418240 cpu:         1.5
 (Enter /share/apps//g09/l101.exe)
 -------
 disacch
 -------
 Symbolic Z-matrix:
 Charge =  1 Multiplicity = 1
 O                    -3.10783  -0.02291   0.87557 
 C                    -3.38972   1.26694   0.3914 
 C                    -4.25358   1.18688  -0.85888 
 C                    -5.53621   0.44545  -0.55105 
 C                    -5.23776  -0.9125    0.05141 
 C                    -4.25406  -0.77637   1.2072 
 C                    -3.77225  -2.12128   1.71523 
 O                    -2.99062  -2.82296   0.76426 
 O                    -4.70327  -1.77704  -0.9345 
 O                    -6.29211   0.22151  -1.7152 
 O                    -4.62026   2.44998  -1.33216 
 O                    -2.14769   1.80693   0.08232 
 C                    -1.90598   3.16784   0.38068 
 C                    -1.34087   3.84476  -0.84965 
 O                    -2.2879    3.84481  -1.89134 
 C                    -0.0874    3.11472  -1.28122 
 C                     0.92017   3.01939  -0.13458 
 O                     0.31206   2.54151   1.06109 
 C                    -0.84474   3.2552    1.46805 
 C                    -1.29826   2.65061   2.7805 
 O                    -2.47778   3.32      3.15823 
 O                     2.00439   2.20087  -0.41897 
 C                     1.73576   0.85915  -0.77313 
 C                     2.22924   0.56899  -2.17887 
 C                     2.02528  -0.89811  -2.50501 
 C                     2.6627   -1.78857  -1.45428 
 O                     2.17688  -1.42195  -0.17425 
 C                     2.46742  -0.08134   0.18667 
 C                     2.08721   0.10416   1.63906 
 O                     0.69769  -0.01283   1.86977 
 O                     2.28029  -3.08324  -1.70755 
 C                     3.13408  -4.13703  -1.24872 
 C                     2.33398  -5.10889  -0.40871 
 C                     1.92587  -4.50559   0.93694 
 C                     0.47718  -4.74841   1.36922 
 C                    -0.09504  -3.54229   2.08673 
 N                    -0.33279  -2.43126   1.12066 
 O                     2.57458  -1.10747  -3.77863 
 O                     1.53949   1.36155  -3.11836 
 O                     0.45788   3.80315  -2.36982 
 H                    -3.88931   1.86827   1.16735 
 H                    -3.68082   0.62143  -1.60504 
 H                    -6.11069   1.03701   0.17514 
 H                    -6.16714  -1.33926   0.44806 
 H                    -4.79919  -0.28877   2.03023 
 H                    -4.63784  -2.72009   2.01507 
 H                    -3.14706  -1.96821   2.59691 
 H                    -3.45864  -2.74563  -0.08385 
 H                    -5.20355  -1.62244  -1.74337 
 H                    -6.31292   1.04579  -2.20964 
 H                    -3.83715   2.91588  -1.66679 
 H                    -2.81687   3.67215   0.70836 
 H                    -1.08523   4.879    -0.58403 
 H                    -1.82352   4.0807   -2.70032 
 H                    -0.39632   2.10841  -1.57554 
 H                     1.35083   4.00965   0.0488 
 H                    -0.59401   4.31039   1.63488 
 H                    -1.48037   1.5779    2.64177 
 H                    -0.49974   2.77304   3.51785 
 H                    -2.61973   3.2162    4.09858 
 H                     0.66531   0.64285  -0.70928 
 H                     3.3028    0.79825  -2.21868 
 H                     0.94677  -1.10807  -2.4999 
 H                     3.75807  -1.67929  -1.4726 
 H                     3.54858   0.10116   0.10434 
 H                     2.58706  -0.66463   2.22982 
 H                     2.44394   1.08006   1.97329 
 H                     0.30483   0.82977   1.58244 
 H                     3.96196  -3.71459  -0.67172 
 H                     3.5494   -4.63278  -2.12848 
 H                     2.92258  -6.01902  -0.27551 
 H                     1.45211  -5.39912  -0.98627 
 H                     2.09519  -3.42849   0.87869 
 H                     2.59744  -4.85734   1.72289 
 H                     0.39901  -5.61679   2.02493 
 H                    -0.15427  -4.96876   0.50275 
 H                    -1.05113  -3.76459   2.55741 
 H                     0.59058  -3.18178   2.8538 
 H                    -0.11937  -1.492     1.51479 
 H                    -1.32626  -2.46757   0.80118 
 H                     0.30539  -2.5004    0.32666 
 H                     2.36188  -1.99701  -4.0676 
 H                     1.78896   1.04768  -3.99255 
 H                     1.01143   3.16969  -2.84594 
 
 NAtoms=     84 NQM=       84 NQMF=       0 NMMI=      0 NMMIF=      0
                NMic=       0 NMicF=      0.
                    Isotopes and Nuclear Properties:
 (Nuclear quadrupole moments (NQMom) in fm**2, nuclear magnetic moments (NMagM)
  in nuclear magnetons)

  Atom         1           2           3           4           5           6           7           8           9          10
 IAtWgt=          16          12          12          12          12          12          12          16          16          16
 AtmWgt=  15.9949146  12.0000000  12.0000000  12.0000000  12.0000000  12.0000000  12.0000000  15.9949146  15.9949146  15.9949146
 NucSpn=           0           0           0           0           0           0           0           0           0           0
 AtZEff=   0.0000000   0.0000000   0.0000000   0.0000000   0.0000000   0.0000000   0.0000000   0.0000000   0.0000000   0.0000000
 NQMom=    0.0000000   0.0000000   0.0000000   0.0000000   0.0000000   0.0000000   0.0000000   0.0000000   0.0000000   0.0000000
 NMagM=    0.0000000   0.0000000   0.0000000   0.0000000   0.0000000   0.0000000   0.0000000   0.0000000   0.0000000   0.0000000
 AtZNuc=   8.0000000   6.0000000   6.0000000   6.0000000   6.0000000   6.0000000   6.0000000   8.0000000   8.0000000   8.0000000

  Atom        11          12          13          14          15          16          17          18          19          20
 IAtWgt=          16          16          12          12          16          12          12          16          12          12
 AtmWgt=  15.9949146  15.9949146  12.0000000  12.0000000  15.9949146  12.0000000  12.0000000  15.9949146  12.0000000  12.0000000
 NucSpn=           0           0           0           0           0           0           0           0           0           0
 AtZEff=   0.0000000   0.0000000   0.0000000   0.0000000   0.0000000   0.0000000   0.0000000   0.0000000   0.0000000   0.0000000
 NQMom=    0.0000000   0.0000000   0.0000000   0.0000000   0.0000000   0.0000000   0.0000000   0.0000000   0.0000000   0.0000000
 NMagM=    0.0000000   0.0000000   0.0000000   0.0000000   0.0000000   0.0000000   0.0000000   0.0000000   0.0000000   0.0000000
 AtZNuc=   8.0000000   8.0000000   6.0000000   6.0000000   8.0000000   6.0000000   6.0000000   8.0000000   6.0000000   6.0000000

  Atom        21          22          23          24          25          26          27          28          29          30
 IAtWgt=          16          16          12          12          12          12          16          12          12          16
 AtmWgt=  15.9949146  15.9949146  12.0000000  12.0000000  12.0000000  12.0000000  15.9949146  12.0000000  12.0000000  15.9949146
 NucSpn=           0           0           0           0           0           0           0           0           0           0
 AtZEff=   0.0000000   0.0000000   0.0000000   0.0000000   0.0000000   0.0000000   0.0000000   0.0000000   0.0000000   0.0000000
 NQMom=    0.0000000   0.0000000   0.0000000   0.0000000   0.0000000   0.0000000   0.0000000   0.0000000   0.0000000   0.0000000
 NMagM=    0.0000000   0.0000000   0.0000000   0.0000000   0.0000000   0.0000000   0.0000000   0.0000000   0.0000000   0.0000000
 AtZNuc=   8.0000000   8.0000000   6.0000000   6.0000000   6.0000000   6.0000000   8.0000000   6.0000000   6.0000000   8.0000000

  Atom        31          32          33          34          35          36          37          38          39          40
 IAtWgt=          16          12          12          12          12          12          14          16          16          16
 AtmWgt=  15.9949146  12.0000000  12.0000000  12.0000000  12.0000000  12.0000000  14.0030740  15.9949146  15.9949146  15.9949146
 NucSpn=           0           0           0           0           0           0           2           0           0           0
 AtZEff=   0.0000000   0.0000000   0.0000000   0.0000000   0.0000000   0.0000000   0.0000000   0.0000000   0.0000000   0.0000000
 NQMom=    0.0000000   0.0000000   0.0000000   0.0000000   0.0000000   0.0000000   2.0440000   0.0000000   0.0000000   0.0000000
 NMagM=    0.0000000   0.0000000   0.0000000   0.0000000   0.0000000   0.0000000   0.4037610   0.0000000   0.0000000   0.0000000
 AtZNuc=   8.0000000   6.0000000   6.0000000   6.0000000   6.0000000   6.0000000   7.0000000   8.0000000   8.0000000   8.0000000

  Atom        41          42          43          44          45          46          47          48          49          50
 IAtWgt=           1           1           1           1           1           1           1           1           1           1
 AtmWgt=   1.0078250   1.0078250   1.0078250   1.0078250   1.0078250   1.0078250   1.0078250   1.0078250   1.0078250   1.0078250
 NucSpn=           1           1           1           1           1           1           1           1           1           1
 AtZEff=   0.0000000   0.0000000   0.0000000   0.0000000   0.0000000   0.0000000   0.0000000   0.0000000   0.0000000   0.0000000
 NQMom=    0.0000000   0.0000000   0.0000000   0.0000000   0.0000000   0.0000000   0.0000000   0.0000000   0.0000000   0.0000000
 NMagM=    2.7928460   2.7928460   2.7928460   2.7928460   2.7928460   2.7928460   2.7928460   2.7928460   2.7928460   2.7928460
 AtZNuc=   1.0000000   1.0000000   1.0000000   1.0000000   1.0000000   1.0000000   1.0000000   1.0000000   1.0000000   1.0000000

  Atom        51          52          53          54          55          56          57          58          59          60
 IAtWgt=           1           1           1           1           1           1           1           1           1           1
 AtmWgt=   1.0078250   1.0078250   1.0078250   1.0078250   1.0078250   1.0078250   1.0078250   1.0078250   1.0078250   1.0078250
 NucSpn=           1           1           1           1           1           1           1           1           1           1
 AtZEff=   0.0000000   0.0000000   0.0000000   0.0000000   0.0000000   0.0000000   0.0000000   0.0000000   0.0000000   0.0000000
 NQMom=    0.0000000   0.0000000   0.0000000   0.0000000   0.0000000   0.0000000   0.0000000   0.0000000   0.0000000   0.0000000
 NMagM=    2.7928460   2.7928460   2.7928460   2.7928460   2.7928460   2.7928460   2.7928460   2.7928460   2.7928460   2.7928460
 AtZNuc=   1.0000000   1.0000000   1.0000000   1.0000000   1.0000000   1.0000000   1.0000000   1.0000000   1.0000000   1.0000000

  Atom        61          62          63          64          65          66          67          68          69          70
 IAtWgt=           1           1           1           1           1           1           1           1           1           1
 AtmWgt=   1.0078250   1.0078250   1.0078250   1.0078250   1.0078250   1.0078250   1.0078250   1.0078250   1.0078250   1.0078250
 NucSpn=           1           1           1           1           1           1           1           1           1           1
 AtZEff=   0.0000000   0.0000000   0.0000000   0.0000000   0.0000000   0.0000000   0.0000000   0.0000000   0.0000000   0.0000000
 NQMom=    0.0000000   0.0000000   0.0000000   0.0000000   0.0000000   0.0000000   0.0000000   0.0000000   0.0000000   0.0000000
 NMagM=    2.7928460   2.7928460   2.7928460   2.7928460   2.7928460   2.7928460   2.7928460   2.7928460   2.7928460   2.7928460
 AtZNuc=   1.0000000   1.0000000   1.0000000   1.0000000   1.0000000   1.0000000   1.0000000   1.0000000   1.0000000   1.0000000

  Atom        71          72          73          74          75          76          77          78          79          80
 IAtWgt=           1           1           1           1           1           1           1           1           1           1
 AtmWgt=   1.0078250   1.0078250   1.0078250   1.0078250   1.0078250   1.0078250   1.0078250   1.0078250   1.0078250   1.0078250
 NucSpn=           1           1           1           1           1           1           1           1           1           1
 AtZEff=   0.0000000   0.0000000   0.0000000   0.0000000   0.0000000   0.0000000   0.0000000   0.0000000   0.0000000   0.0000000
 NQMom=    0.0000000   0.0000000   0.0000000   0.0000000   0.0000000   0.0000000   0.0000000   0.0000000   0.0000000   0.0000000
 NMagM=    2.7928460   2.7928460   2.7928460   2.7928460   2.7928460   2.7928460   2.7928460   2.7928460   2.7928460   2.7928460
 AtZNuc=   1.0000000   1.0000000   1.0000000   1.0000000   1.0000000   1.0000000   1.0000000   1.0000000   1.0000000   1.0000000

  Atom        81          82          83          84
 IAtWgt=           1           1           1           1
 AtmWgt=   1.0078250   1.0078250   1.0078250   1.0078250
 NucSpn=           1           1           1           1
 AtZEff=   0.0000000   0.0000000   0.0000000   0.0000000
 NQMom=    0.0000000   0.0000000   0.0000000   0.0000000
 NMagM=    2.7928460   2.7928460   2.7928460   2.7928460
 AtZNuc=   1.0000000   1.0000000   1.0000000   1.0000000
 Leave Link  101 at Thu Mar 24 06:08:02 2016, MaxMem= 10737418240 cpu:         4.5
 (Enter /share/apps//g09/l103.exe)

 GradGradGradGradGradGradGradGradGradGradGradGradGradGradGradGradGradGrad
 Berny optimization.
 Initialization pass.
                           ----------------------------
                           !    Initial Parameters    !
                           ! (Angstroms and Degrees)  !
 --------------------------                            --------------------------
 ! Name  Definition              Value          Derivative Info.                !
 --------------------------------------------------------------------------------
 ! R1    R(1,2)                  1.4063         estimate D2E/DX2                !
 ! R2    R(1,6)                  1.4112         estimate D2E/DX2                !
 ! R3    R(2,3)                  1.5218         estimate D2E/DX2                !
 ! R4    R(2,12)                 1.3892         estimate D2E/DX2                !
 ! R5    R(2,41)                 1.1015         estimate D2E/DX2                !
 ! R6    R(3,4)                  1.5131         estimate D2E/DX2                !
 ! R7    R(3,11)                 1.3978         estimate D2E/DX2                !
 ! R8    R(3,42)                 1.0975         estimate D2E/DX2                !
 ! R9    R(4,5)                  1.5153         estimate D2E/DX2                !
 ! R10   R(4,10)                 1.406          estimate D2E/DX2                !
 ! R11   R(4,43)                 1.0988         estimate D2E/DX2                !
 ! R12   R(5,6)                  1.5238         estimate D2E/DX2                !
 ! R13   R(5,9)                  1.416          estimate D2E/DX2                !
 ! R14   R(5,44)                 1.0969         estimate D2E/DX2                !
 ! R15   R(6,7)                  1.5163         estimate D2E/DX2                !
 ! R16   R(6,45)                 1.101          estimate D2E/DX2                !
 ! R17   R(7,8)                  1.4169         estimate D2E/DX2                !
 ! R18   R(7,46)                 1.0944         estimate D2E/DX2                !
 ! R19   R(7,47)                 1.0916         estimate D2E/DX2                !
 ! R20   R(8,48)                 0.9718         estimate D2E/DX2                !
 ! R21   R(9,49)                 0.9636         estimate D2E/DX2                !
 ! R22   R(10,50)                0.9614         estimate D2E/DX2                !
 ! R23   R(11,51)                0.9707         estimate D2E/DX2                !
 ! R24   R(12,13)                1.414          estimate D2E/DX2                !
 ! R25   R(13,14)                1.5137         estimate D2E/DX2                !
 ! R26   R(13,19)                1.5219         estimate D2E/DX2                !
 ! R27   R(13,52)                1.0915         estimate D2E/DX2                !
 ! R28   R(14,15)                1.4078         estimate D2E/DX2                !
 ! R29   R(14,16)                1.5134         estimate D2E/DX2                !
 ! R30   R(14,53)                1.098          estimate D2E/DX2                !
 ! R31   R(15,54)                0.9622         estimate D2E/DX2                !
 ! R32   R(16,17)                1.5294         estimate D2E/DX2                !
 ! R33   R(16,40)                1.3987         estimate D2E/DX2                !
 ! R34   R(16,55)                1.093          estimate D2E/DX2                !
 ! R35   R(17,18)                1.424          estimate D2E/DX2                !
 ! R36   R(17,22)                1.3879         estimate D2E/DX2                !
 ! R37   R(17,56)                1.0953         estimate D2E/DX2                !
 ! R38   R(18,19)                1.4189         estimate D2E/DX2                !
 ! R39   R(19,20)                1.5145         estimate D2E/DX2                !
 ! R40   R(19,57)                1.0973         estimate D2E/DX2                !
 ! R41   R(20,21)                1.4078         estimate D2E/DX2                !
 ! R42   R(20,58)                1.0969         estimate D2E/DX2                !
 ! R43   R(20,59)                1.0938         estimate D2E/DX2                !
 ! R44   R(21,60)                0.9567         estimate D2E/DX2                !
 ! R45   R(22,23)                1.4134         estimate D2E/DX2                !
 ! R46   R(23,24)                1.5178         estimate D2E/DX2                !
 ! R47   R(23,28)                1.5301         estimate D2E/DX2                !
 ! R48   R(23,61)                1.0939         estimate D2E/DX2                !
 ! R49   R(24,25)                1.5167         estimate D2E/DX2                !
 ! R50   R(24,39)                1.4094         estimate D2E/DX2                !
 ! R51   R(24,62)                1.0985         estimate D2E/DX2                !
 ! R52   R(25,26)                1.5176         estimate D2E/DX2                !
 ! R53   R(25,38)                1.4027         estimate D2E/DX2                !
 ! R54   R(25,63)                1.0988         estimate D2E/DX2                !
 ! R55   R(26,27)                1.4174         estimate D2E/DX2                !
 ! R56   R(26,31)                1.3735         estimate D2E/DX2                !
 ! R57   R(26,64)                1.101          estimate D2E/DX2                !
 ! R58   R(27,28)                1.4184         estimate D2E/DX2                !
 ! R59   R(28,29)                1.5127         estimate D2E/DX2                !
 ! R60   R(28,65)                1.0995         estimate D2E/DX2                !
 ! R61   R(29,30)                1.4134         estimate D2E/DX2                !
 ! R62   R(29,66)                1.0908         estimate D2E/DX2                !
 ! R63   R(29,67)                1.0915         estimate D2E/DX2                !
 ! R64   R(30,68)                0.9731         estimate D2E/DX2                !
 ! R65   R(31,32)                1.4318         estimate D2E/DX2                !
 ! R66   R(32,33)                1.5134         estimate D2E/DX2                !
 ! R67   R(32,69)                1.094          estimate D2E/DX2                !
 ! R68   R(32,70)                1.0919         estimate D2E/DX2                !
 ! R69   R(33,34)                1.5301         estimate D2E/DX2                !
 ! R70   R(33,71)                1.092          estimate D2E/DX2                !
 ! R71   R(33,72)                1.0934         estimate D2E/DX2                !
 ! R72   R(34,35)                1.5312         estimate D2E/DX2                !
 ! R73   R(34,73)                1.0919         estimate D2E/DX2                !
 ! R74   R(34,74)                1.092          estimate D2E/DX2                !
 ! R75   R(35,36)                1.5156         estimate D2E/DX2                !
 ! R76   R(35,75)                1.0909         estimate D2E/DX2                !
 ! R77   R(35,76)                1.0946         estimate D2E/DX2                !
 ! R78   R(36,37)                1.4914         estimate D2E/DX2                !
 ! R79   R(36,77)                1.0886         estimate D2E/DX2                !
 ! R80   R(36,78)                1.0902         estimate D2E/DX2                !
 ! R81   R(37,79)                1.0407         estimate D2E/DX2                !
 ! R82   R(37,80)                1.0442         estimate D2E/DX2                !
 ! R83   R(37,81)                1.021          estimate D2E/DX2                !
 ! R84   R(38,82)                0.9592         estimate D2E/DX2                !
 ! R85   R(39,83)                0.9617         estimate D2E/DX2                !
 ! R86   R(40,84)                0.9666         estimate D2E/DX2                !
 ! A1    A(2,1,6)              114.0669         estimate D2E/DX2                !
 ! A2    A(1,2,3)              110.3895         estimate D2E/DX2                !
 ! A3    A(1,2,12)             104.7095         estimate D2E/DX2                !
 ! A4    A(1,2,41)             110.4326         estimate D2E/DX2                !
 ! A5    A(3,2,12)             110.1933         estimate D2E/DX2                !
 ! A6    A(3,2,41)             110.4886         estimate D2E/DX2                !
 ! A7    A(12,2,41)            110.4902         estimate D2E/DX2                !
 ! A8    A(2,3,4)              109.8657         estimate D2E/DX2                !
 ! A9    A(2,3,11)             112.3057         estimate D2E/DX2                !
 ! A10   A(2,3,42)             106.8235         estimate D2E/DX2                !
 ! A11   A(4,3,11)             106.8155         estimate D2E/DX2                !
 ! A12   A(4,3,42)             109.1612         estimate D2E/DX2                !
 ! A13   A(11,3,42)            111.8553         estimate D2E/DX2                !
 ! A14   A(3,4,5)              110.6738         estimate D2E/DX2                !
 ! A15   A(3,4,10)             111.4277         estimate D2E/DX2                !
 ! A16   A(3,4,43)             108.2905         estimate D2E/DX2                !
 ! A17   A(5,4,10)             106.9992         estimate D2E/DX2                !
 ! A18   A(5,4,43)             108.8256         estimate D2E/DX2                !
 ! A19   A(10,4,43)            110.6028         estimate D2E/DX2                !
 ! A20   A(4,5,6)              110.4049         estimate D2E/DX2                !
 ! A21   A(4,5,9)              110.1617         estimate D2E/DX2                !
 ! A22   A(4,5,44)             108.9993         estimate D2E/DX2                !
 ! A23   A(6,5,9)              109.814          estimate D2E/DX2                !
 ! A24   A(6,5,44)             107.9049         estimate D2E/DX2                !
 ! A25   A(9,5,44)             109.5145         estimate D2E/DX2                !
 ! A26   A(1,6,5)              113.1904         estimate D2E/DX2                !
 ! A27   A(1,6,7)              107.1105         estimate D2E/DX2                !
 ! A28   A(1,6,45)             109.9594         estimate D2E/DX2                !
 ! A29   A(5,6,7)              112.3352         estimate D2E/DX2                !
 ! A30   A(5,6,45)             106.6732         estimate D2E/DX2                !
 ! A31   A(7,6,45)             107.4384         estimate D2E/DX2                !
 ! A32   A(6,7,8)              112.9342         estimate D2E/DX2                !
 ! A33   A(6,7,46)             109.0138         estimate D2E/DX2                !
 ! A34   A(6,7,47)             109.1613         estimate D2E/DX2                !
 ! A35   A(8,7,46)             110.44           estimate D2E/DX2                !
 ! A36   A(8,7,47)             107.1925         estimate D2E/DX2                !
 ! A37   A(46,7,47)            107.9636         estimate D2E/DX2                !
 ! A38   A(7,8,48)             106.2999         estimate D2E/DX2                !
 ! A39   A(5,9,49)             106.8903         estimate D2E/DX2                !
 ! A40   A(4,10,50)            107.5118         estimate D2E/DX2                !
 ! A41   A(3,11,51)            109.8033         estimate D2E/DX2                !
 ! A42   A(2,12,13)            118.6852         estimate D2E/DX2                !
 ! A43   A(12,13,14)           108.8269         estimate D2E/DX2                !
 ! A44   A(12,13,19)           108.9771         estimate D2E/DX2                !
 ! A45   A(12,13,52)           111.4296         estimate D2E/DX2                !
 ! A46   A(14,13,19)           107.1412         estimate D2E/DX2                !
 ! A47   A(14,13,52)           110.4224         estimate D2E/DX2                !
 ! A48   A(19,13,52)           109.9317         estimate D2E/DX2                !
 ! A49   A(13,14,15)           110.5051         estimate D2E/DX2                !
 ! A50   A(13,14,16)           108.982          estimate D2E/DX2                !
 ! A51   A(13,14,53)           108.1513         estimate D2E/DX2                !
 ! A52   A(15,14,16)           110.253          estimate D2E/DX2                !
 ! A53   A(15,14,53)           109.6083         estimate D2E/DX2                !
 ! A54   A(16,14,53)           109.3008         estimate D2E/DX2                !
 ! A55   A(14,15,54)           107.3056         estimate D2E/DX2                !
 ! A56   A(14,16,17)           111.2181         estimate D2E/DX2                !
 ! A57   A(14,16,40)           107.9032         estimate D2E/DX2                !
 ! A58   A(14,16,55)           106.6672         estimate D2E/DX2                !
 ! A59   A(17,16,40)           110.9383         estimate D2E/DX2                !
 ! A60   A(17,16,55)           109.3106         estimate D2E/DX2                !
 ! A61   A(40,16,55)           110.7173         estimate D2E/DX2                !
 ! A62   A(16,17,18)           111.6599         estimate D2E/DX2                !
 ! A63   A(16,17,22)           113.4391         estimate D2E/DX2                !
 ! A64   A(16,17,56)           109.1595         estimate D2E/DX2                !
 ! A65   A(18,17,22)           107.9224         estimate D2E/DX2                !
 ! A66   A(18,17,56)           109.3132         estimate D2E/DX2                !
 ! A67   A(22,17,56)           105.0899         estimate D2E/DX2                !
 ! A68   A(17,18,19)           114.8471         estimate D2E/DX2                !
 ! A69   A(13,19,18)           109.5552         estimate D2E/DX2                !
 ! A70   A(13,19,20)           112.7946         estimate D2E/DX2                !
 ! A71   A(13,19,57)           108.8535         estimate D2E/DX2                !
 ! A72   A(18,19,20)           106.9718         estimate D2E/DX2                !
 ! A73   A(18,19,57)           109.9381         estimate D2E/DX2                !
 ! A74   A(20,19,57)           108.6957         estimate D2E/DX2                !
 ! A75   A(19,20,21)           107.0727         estimate D2E/DX2                !
 ! A76   A(19,20,58)           109.3003         estimate D2E/DX2                !
 ! A77   A(19,20,59)           108.7173         estimate D2E/DX2                !
 ! A78   A(21,20,58)           111.09           estimate D2E/DX2                !
 ! A79   A(21,20,59)           112.1832         estimate D2E/DX2                !
 ! A80   A(58,20,59)           108.4179         estimate D2E/DX2                !
 ! A81   A(20,21,60)           109.6613         estimate D2E/DX2                !
 ! A82   A(17,22,23)           117.5608         estimate D2E/DX2                !
 ! A83   A(22,23,24)           110.5937         estimate D2E/DX2                !
 ! A84   A(22,23,28)           109.5985         estimate D2E/DX2                !
 ! A85   A(22,23,61)           111.0412         estimate D2E/DX2                !
 ! A86   A(24,23,28)           107.9384         estimate D2E/DX2                !
 ! A87   A(24,23,61)           109.5357         estimate D2E/DX2                !
 ! A88   A(28,23,61)           108.0454         estimate D2E/DX2                !
 ! A89   A(23,24,25)           109.8981         estimate D2E/DX2                !
 ! A90   A(23,24,39)           110.5323         estimate D2E/DX2                !
 ! A91   A(23,24,62)           108.1442         estimate D2E/DX2                !
 ! A92   A(25,24,39)           109.5597         estimate D2E/DX2                !
 ! A93   A(25,24,62)           108.9967         estimate D2E/DX2                !
 ! A94   A(39,24,62)           109.6793         estimate D2E/DX2                !
 ! A95   A(24,25,26)           111.235          estimate D2E/DX2                !
 ! A96   A(24,25,38)           106.6756         estimate D2E/DX2                !
 ! A97   A(24,25,63)           108.4113         estimate D2E/DX2                !
 ! A98   A(26,25,38)           112.1215         estimate D2E/DX2                !
 ! A99   A(26,25,63)           107.2729         estimate D2E/DX2                !
 ! A100  A(38,25,63)           111.1048         estimate D2E/DX2                !
 ! A101  A(25,26,27)           109.2402         estimate D2E/DX2                !
 ! A102  A(25,26,31)           107.9661         estimate D2E/DX2                !
 ! A103  A(25,26,64)           110.3719         estimate D2E/DX2                !
 ! A104  A(27,26,31)           108.3555         estimate D2E/DX2                !
 ! A105  A(27,26,64)           109.2916         estimate D2E/DX2                !
 ! A106  A(31,26,64)           111.5612         estimate D2E/DX2                !
 ! A107  A(26,27,28)           113.8324         estimate D2E/DX2                !
 ! A108  A(23,28,27)           108.8682         estimate D2E/DX2                !
 ! A109  A(23,28,29)           113.9982         estimate D2E/DX2                !
 ! A110  A(23,28,65)           108.7358         estimate D2E/DX2                !
 ! A111  A(27,28,29)           107.9818         estimate D2E/DX2                !
 ! A112  A(27,28,65)           109.83           estimate D2E/DX2                !
 ! A113  A(29,28,65)           107.3778         estimate D2E/DX2                !
 ! A114  A(28,29,30)           113.1825         estimate D2E/DX2                !
 ! A115  A(28,29,66)           108.5645         estimate D2E/DX2                !
 ! A116  A(28,29,67)           108.7531         estimate D2E/DX2                !
 ! A117  A(30,29,66)           107.6833         estimate D2E/DX2                !
 ! A118  A(30,29,67)           110.202          estimate D2E/DX2                !
 ! A119  A(66,29,67)           108.3333         estimate D2E/DX2                !
 ! A120  A(29,30,68)           106.0835         estimate D2E/DX2                !
 ! A121  A(26,31,32)           117.9459         estimate D2E/DX2                !
 ! A122  A(31,32,33)           109.5884         estimate D2E/DX2                !
 ! A123  A(31,32,69)           109.6387         estimate D2E/DX2                !
 ! A124  A(31,32,70)           107.6248         estimate D2E/DX2                !
 ! A125  A(33,32,69)           110.8128         estimate D2E/DX2                !
 ! A126  A(33,32,70)           110.9006         estimate D2E/DX2                !
 ! A127  A(69,32,70)           108.2064         estimate D2E/DX2                !
 ! A128  A(32,33,34)           112.0829         estimate D2E/DX2                !
 ! A129  A(32,33,71)           108.5394         estimate D2E/DX2                !
 ! A130  A(32,33,72)           107.6784         estimate D2E/DX2                !
 ! A131  A(34,33,71)           111.4134         estimate D2E/DX2                !
 ! A132  A(34,33,72)           110.7372         estimate D2E/DX2                !
 ! A133  A(71,33,72)           106.1367         estimate D2E/DX2                !
 ! A134  A(33,34,35)           115.9827         estimate D2E/DX2                !
 ! A135  A(33,34,73)           107.4976         estimate D2E/DX2                !
 ! A136  A(33,34,74)           109.9945         estimate D2E/DX2                !
 ! A137  A(35,34,73)           108.5549         estimate D2E/DX2                !
 ! A138  A(35,34,74)           109.1222         estimate D2E/DX2                !
 ! A139  A(73,34,74)           105.1166         estimate D2E/DX2                !
 ! A140  A(34,35,36)           111.3872         estimate D2E/DX2                !
 ! A141  A(34,35,75)           111.3283         estimate D2E/DX2                !
 ! A142  A(34,35,76)           110.7479         estimate D2E/DX2                !
 ! A143  A(36,35,75)           108.7753         estimate D2E/DX2                !
 ! A144  A(36,35,76)           108.4916         estimate D2E/DX2                !
 ! A145  A(75,35,76)           105.9156         estimate D2E/DX2                !
 ! A146  A(35,36,37)           110.2659         estimate D2E/DX2                !
 ! A147  A(35,36,77)           111.949          estimate D2E/DX2                !
 ! A148  A(35,36,78)           111.0287         estimate D2E/DX2                !
 ! A149  A(37,36,77)           106.9893         estimate D2E/DX2                !
 ! A150  A(37,36,78)           108.0409         estimate D2E/DX2                !
 ! A151  A(77,36,78)           108.4007         estimate D2E/DX2                !
 ! A152  A(36,37,79)           113.2245         estimate D2E/DX2                !
 ! A153  A(36,37,80)           108.9022         estimate D2E/DX2                !
 ! A154  A(36,37,81)           110.7108         estimate D2E/DX2                !
 ! A155  A(79,37,80)           110.0205         estimate D2E/DX2                !
 ! A156  A(79,37,81)           103.1465         estimate D2E/DX2                !
 ! A157  A(80,37,81)           110.756          estimate D2E/DX2                !
 ! A158  A(25,38,82)           108.9726         estimate D2E/DX2                !
 ! A159  A(24,39,83)           107.1831         estimate D2E/DX2                !
 ! A160  A(16,40,84)           106.5026         estimate D2E/DX2                !
 ! D1    D(6,1,2,3)            -59.2055         estimate D2E/DX2                !
 ! D2    D(6,1,2,12)          -177.7811         estimate D2E/DX2                !
 ! D3    D(6,1,2,41)            63.2713         estimate D2E/DX2                !
 ! D4    D(2,1,6,5)             56.0113         estimate D2E/DX2                !
 ! D5    D(2,1,6,7)           -179.6242         estimate D2E/DX2                !
 ! D6    D(2,1,6,45)           -63.1757         estimate D2E/DX2                !
 ! D7    D(1,2,3,4)             57.9396         estimate D2E/DX2                !
 ! D8    D(1,2,3,11)           176.6709         estimate D2E/DX2                !
 ! D9    D(1,2,3,42)           -60.3449         estimate D2E/DX2                !
 ! D10   D(12,2,3,4)           173.1116         estimate D2E/DX2                !
 ! D11   D(12,2,3,11)          -68.157          estimate D2E/DX2                !
 ! D12   D(12,2,3,42)           54.8272         estimate D2E/DX2                !
 ! D13   D(41,2,3,4)           -64.5044         estimate D2E/DX2                !
 ! D14   D(41,2,3,11)           54.2269         estimate D2E/DX2                !
 ! D15   D(41,2,3,42)          177.2111         estimate D2E/DX2                !
 ! D16   D(1,2,12,13)         -140.4174         estimate D2E/DX2                !
 ! D17   D(3,2,12,13)          100.8742         estimate D2E/DX2                !
 ! D18   D(41,2,12,13)         -21.5088         estimate D2E/DX2                !
 ! D19   D(2,3,4,5)            -54.4754         estimate D2E/DX2                !
 ! D20   D(2,3,4,10)          -173.4075         estimate D2E/DX2                !
 ! D21   D(2,3,4,43)            64.7322         estimate D2E/DX2                !
 ! D22   D(11,3,4,5)          -176.534          estimate D2E/DX2                !
 ! D23   D(11,3,4,10)           64.5339         estimate D2E/DX2                !
 ! D24   D(11,3,4,43)          -57.3264         estimate D2E/DX2                !
 ! D25   D(42,3,4,5)            62.354          estimate D2E/DX2                !
 ! D26   D(42,3,4,10)          -56.5781         estimate D2E/DX2                !
 ! D27   D(42,3,4,43)         -178.4384         estimate D2E/DX2                !
 ! D28   D(2,3,11,51)           67.8233         estimate D2E/DX2                !
 ! D29   D(4,3,11,51)         -171.6666         estimate D2E/DX2                !
 ! D30   D(42,3,11,51)         -52.2829         estimate D2E/DX2                !
 ! D31   D(3,4,5,6)             50.3316         estimate D2E/DX2                !
 ! D32   D(3,4,5,9)            -71.1252         estimate D2E/DX2                !
 ! D33   D(3,4,5,44)           168.6911         estimate D2E/DX2                !
 ! D34   D(10,4,5,6)           171.9103         estimate D2E/DX2                !
 ! D35   D(10,4,5,9)            50.4536         estimate D2E/DX2                !
 ! D36   D(10,4,5,44)          -69.7301         estimate D2E/DX2                !
 ! D37   D(43,4,5,6)           -68.5526         estimate D2E/DX2                !
 ! D38   D(43,4,5,9)           169.9907         estimate D2E/DX2                !
 ! D39   D(43,4,5,44)           49.807          estimate D2E/DX2                !
 ! D40   D(3,4,10,50)          -46.0338         estimate D2E/DX2                !
 ! D41   D(5,4,10,50)         -167.1361         estimate D2E/DX2                !
 ! D42   D(43,4,10,50)          74.4775         estimate D2E/DX2                !
 ! D43   D(4,5,6,1)            -50.3939         estimate D2E/DX2                !
 ! D44   D(4,5,6,7)           -171.8636         estimate D2E/DX2                !
 ! D45   D(4,5,6,45)            70.6682         estimate D2E/DX2                !
 ! D46   D(9,5,6,1)             71.2687         estimate D2E/DX2                !
 ! D47   D(9,5,6,7)            -50.201          estimate D2E/DX2                !
 ! D48   D(9,5,6,45)          -167.6692         estimate D2E/DX2                !
 ! D49   D(44,5,6,1)          -169.4206         estimate D2E/DX2                !
 ! D50   D(44,5,6,7)            69.1097         estimate D2E/DX2                !
 ! D51   D(44,5,6,45)          -48.3585         estimate D2E/DX2                !
 ! D52   D(4,5,9,49)           -40.8004         estimate D2E/DX2                !
 ! D53   D(6,5,9,49)          -162.6084         estimate D2E/DX2                !
 ! D54   D(44,5,9,49)           79.0719         estimate D2E/DX2                !
 ! D55   D(1,6,7,8)            -58.7951         estimate D2E/DX2                !
 ! D56   D(1,6,7,46)           178.051          estimate D2E/DX2                !
 ! D57   D(1,6,7,47)            60.3354         estimate D2E/DX2                !
 ! D58   D(5,6,7,8)             66.0891         estimate D2E/DX2                !
 ! D59   D(5,6,7,46)           -57.0648         estimate D2E/DX2                !
 ! D60   D(5,6,7,47)          -174.7803         estimate D2E/DX2                !
 ! D61   D(45,6,7,8)          -176.8987         estimate D2E/DX2                !
 ! D62   D(45,6,7,46)           59.9475         estimate D2E/DX2                !
 ! D63   D(45,6,7,47)          -57.7681         estimate D2E/DX2                !
 ! D64   D(6,7,8,48)           -44.965          estimate D2E/DX2                !
 ! D65   D(46,7,8,48)           77.3939         estimate D2E/DX2                !
 ! D66   D(47,7,8,48)         -165.2291         estimate D2E/DX2                !
 ! D67   D(2,12,13,14)        -129.9855         estimate D2E/DX2                !
 ! D68   D(2,12,13,19)         113.4932         estimate D2E/DX2                !
 ! D69   D(2,12,13,52)          -7.9892         estimate D2E/DX2                !
 ! D70   D(12,13,14,15)         64.324          estimate D2E/DX2                !
 ! D71   D(12,13,14,16)        -56.9733         estimate D2E/DX2                !
 ! D72   D(12,13,14,53)       -175.6985         estimate D2E/DX2                !
 ! D73   D(19,13,14,15)       -177.9851         estimate D2E/DX2                !
 ! D74   D(19,13,14,16)         60.7176         estimate D2E/DX2                !
 ! D75   D(19,13,14,53)        -58.0076         estimate D2E/DX2                !
 ! D76   D(52,13,14,15)        -58.2815         estimate D2E/DX2                !
 ! D77   D(52,13,14,16)       -179.5787         estimate D2E/DX2                !
 ! D78   D(52,13,14,53)         61.6961         estimate D2E/DX2                !
 ! D79   D(12,13,19,18)         54.7651         estimate D2E/DX2                !
 ! D80   D(12,13,19,20)        -64.266          estimate D2E/DX2                !
 ! D81   D(12,13,19,57)        175.0093         estimate D2E/DX2                !
 ! D82   D(14,13,19,18)        -62.8275         estimate D2E/DX2                !
 ! D83   D(14,13,19,20)        178.1413         estimate D2E/DX2                !
 ! D84   D(14,13,19,57)         57.4166         estimate D2E/DX2                !
 ! D85   D(52,13,19,18)        177.1547         estimate D2E/DX2                !
 ! D86   D(52,13,19,20)         58.1235         estimate D2E/DX2                !
 ! D87   D(52,13,19,57)        -62.6011         estimate D2E/DX2                !
 ! D88   D(13,14,15,54)       -166.3613         estimate D2E/DX2                !
 ! D89   D(16,14,15,54)        -45.8204         estimate D2E/DX2                !
 ! D90   D(53,14,15,54)         74.5405         estimate D2E/DX2                !
 ! D91   D(13,14,16,17)        -54.7292         estimate D2E/DX2                !
 ! D92   D(13,14,16,40)       -176.6184         estimate D2E/DX2                !
 ! D93   D(13,14,16,55)         64.3835         estimate D2E/DX2                !
 ! D94   D(15,14,16,17)       -176.18           estimate D2E/DX2                !
 ! D95   D(15,14,16,40)         61.9308         estimate D2E/DX2                !
 ! D96   D(15,14,16,55)        -57.0674         estimate D2E/DX2                !
 ! D97   D(53,14,16,17)         63.2743         estimate D2E/DX2                !
 ! D98   D(53,14,16,40)        -58.6149         estimate D2E/DX2                !
 ! D99   D(53,14,16,55)       -177.6131         estimate D2E/DX2                !
 ! D100  D(14,16,17,18)         49.3118         estimate D2E/DX2                !
 ! D101  D(14,16,17,22)        171.5246         estimate D2E/DX2                !
 ! D102  D(14,16,17,56)        -71.6661         estimate D2E/DX2                !
 ! D103  D(40,16,17,18)        169.4198         estimate D2E/DX2                !
 ! D104  D(40,16,17,22)        -68.3674         estimate D2E/DX2                !
 ! D105  D(40,16,17,56)         48.4418         estimate D2E/DX2                !
 ! D106  D(55,16,17,18)        -68.2076         estimate D2E/DX2                !
 ! D107  D(55,16,17,22)         54.0052         estimate D2E/DX2                !
 ! D108  D(55,16,17,56)        170.8144         estimate D2E/DX2                !
 ! D109  D(14,16,40,84)       -157.6031         estimate D2E/DX2                !
 ! D110  D(17,16,40,84)         80.3349         estimate D2E/DX2                !
 ! D111  D(55,16,40,84)        -41.2164         estimate D2E/DX2                !
 ! D112  D(16,17,18,19)        -52.9164         estimate D2E/DX2                !
 ! D113  D(22,17,18,19)       -178.245          estimate D2E/DX2                !
 ! D114  D(56,17,18,19)         67.9721         estimate D2E/DX2                !
 ! D115  D(16,17,22,23)        -57.4231         estimate D2E/DX2                !
 ! D116  D(18,17,22,23)         66.8424         estimate D2E/DX2                !
 ! D117  D(56,17,22,23)       -176.5923         estimate D2E/DX2                !
 ! D118  D(17,18,19,13)         60.3114         estimate D2E/DX2                !
 ! D119  D(17,18,19,20)       -177.1226         estimate D2E/DX2                !
 ! D120  D(17,18,19,57)        -59.2689         estimate D2E/DX2                !
 ! D121  D(13,19,20,21)        -57.078          estimate D2E/DX2                !
 ! D122  D(13,19,20,58)         63.3457         estimate D2E/DX2                !
 ! D123  D(13,19,20,59)       -178.4832         estimate D2E/DX2                !
 ! D124  D(18,19,20,21)       -177.5994         estimate D2E/DX2                !
 ! D125  D(18,19,20,58)        -57.1758         estimate D2E/DX2                !
 ! D126  D(18,19,20,59)         60.9954         estimate D2E/DX2                !
 ! D127  D(57,19,20,21)         63.7368         estimate D2E/DX2                !
 ! D128  D(57,19,20,58)       -175.8396         estimate D2E/DX2                !
 ! D129  D(57,19,20,59)        -57.6684         estimate D2E/DX2                !
 ! D130  D(19,20,21,60)       -159.0671         estimate D2E/DX2                !
 ! D131  D(58,20,21,60)         81.6564         estimate D2E/DX2                !
 ! D132  D(59,20,21,60)        -39.8741         estimate D2E/DX2                !
 ! D133  D(17,22,23,24)        118.3238         estimate D2E/DX2                !
 ! D134  D(17,22,23,28)       -122.792          estimate D2E/DX2                !
 ! D135  D(17,22,23,61)         -3.4986         estimate D2E/DX2                !
 ! D136  D(22,23,24,25)        175.889          estimate D2E/DX2                !
 ! D137  D(22,23,24,39)        -63.0627         estimate D2E/DX2                !
 ! D138  D(22,23,24,62)         57.0133         estimate D2E/DX2                !
 ! D139  D(28,23,24,25)         56.003          estimate D2E/DX2                !
 ! D140  D(28,23,24,39)        177.0513         estimate D2E/DX2                !
 ! D141  D(28,23,24,62)        -62.8727         estimate D2E/DX2                !
 ! D142  D(61,23,24,25)        -61.407          estimate D2E/DX2                !
 ! D143  D(61,23,24,39)         59.6413         estimate D2E/DX2                !
 ! D144  D(61,23,24,62)        179.7174         estimate D2E/DX2                !
 ! D145  D(22,23,28,27)        179.4308         estimate D2E/DX2                !
 ! D146  D(22,23,28,29)         58.8161         estimate D2E/DX2                !
 ! D147  D(22,23,28,65)        -60.9345         estimate D2E/DX2                !
 ! D148  D(24,23,28,27)        -60.0576         estimate D2E/DX2                !
 ! D149  D(24,23,28,29)        179.3277         estimate D2E/DX2                !
 ! D150  D(24,23,28,65)         59.5772         estimate D2E/DX2                !
 ! D151  D(61,23,28,27)         58.3105         estimate D2E/DX2                !
 ! D152  D(61,23,28,29)        -62.3042         estimate D2E/DX2                !
 ! D153  D(61,23,28,65)        177.9453         estimate D2E/DX2                !
 ! D154  D(23,24,25,26)        -53.9516         estimate D2E/DX2                !
 ! D155  D(23,24,25,38)       -176.5086         estimate D2E/DX2                !
 ! D156  D(23,24,25,63)         63.7641         estimate D2E/DX2                !
 ! D157  D(39,24,25,26)       -175.5827         estimate D2E/DX2                !
 ! D158  D(39,24,25,38)         61.8604         estimate D2E/DX2                !
 ! D159  D(39,24,25,63)        -57.8669         estimate D2E/DX2                !
 ! D160  D(62,24,25,26)         64.399          estimate D2E/DX2                !
 ! D161  D(62,24,25,38)        -58.1579         estimate D2E/DX2                !
 ! D162  D(62,24,25,63)       -177.8852         estimate D2E/DX2                !
 ! D163  D(23,24,39,83)       -171.5389         estimate D2E/DX2                !
 ! D164  D(25,24,39,83)        -50.2898         estimate D2E/DX2                !
 ! D165  D(62,24,39,83)         69.3103         estimate D2E/DX2                !
 ! D166  D(24,25,26,27)         53.9685         estimate D2E/DX2                !
 ! D167  D(24,25,26,31)        171.6022         estimate D2E/DX2                !
 ! D168  D(24,25,26,64)        -66.2218         estimate D2E/DX2                !
 ! D169  D(38,25,26,27)        173.327          estimate D2E/DX2                !
 ! D170  D(38,25,26,31)        -69.0393         estimate D2E/DX2                !
 ! D171  D(38,25,26,64)         53.1367         estimate D2E/DX2                !
 ! D172  D(63,25,26,27)        -64.4346         estimate D2E/DX2                !
 ! D173  D(63,25,26,31)         53.199          estimate D2E/DX2                !
 ! D174  D(63,25,26,64)        175.375          estimate D2E/DX2                !
 ! D175  D(24,25,38,82)       -172.6127         estimate D2E/DX2                !
 ! D176  D(26,25,38,82)         65.3883         estimate D2E/DX2                !
 ! D177  D(63,25,38,82)        -54.6418         estimate D2E/DX2                !
 ! D178  D(25,26,27,28)        -60.4828         estimate D2E/DX2                !
 ! D179  D(31,26,27,28)       -177.8711         estimate D2E/DX2                !
 ! D180  D(64,26,27,28)         60.3685         estimate D2E/DX2                !
 ! D181  D(25,26,31,32)        154.6844         estimate D2E/DX2                !
 ! D182  D(27,26,31,32)        -87.1137         estimate D2E/DX2                !
 ! D183  D(64,26,31,32)         33.2431         estimate D2E/DX2                !
 ! D184  D(26,27,28,23)         64.3792         estimate D2E/DX2                !
 ! D185  D(26,27,28,29)       -171.3713         estimate D2E/DX2                !
 ! D186  D(26,27,28,65)        -54.5732         estimate D2E/DX2                !
 ! D187  D(23,28,29,30)         55.3938         estimate D2E/DX2                !
 ! D188  D(23,28,29,66)        174.892          estimate D2E/DX2                !
 ! D189  D(23,28,29,67)        -67.4342         estimate D2E/DX2                !
 ! D190  D(27,28,29,30)        -65.715          estimate D2E/DX2                !
 ! D191  D(27,28,29,66)         53.7832         estimate D2E/DX2                !
 ! D192  D(27,28,29,67)        171.457          estimate D2E/DX2                !
 ! D193  D(65,28,29,30)        175.9071         estimate D2E/DX2                !
 ! D194  D(65,28,29,66)        -64.5947         estimate D2E/DX2                !
 ! D195  D(65,28,29,67)         53.0791         estimate D2E/DX2                !
 ! D196  D(28,29,30,68)        -77.9164         estimate D2E/DX2                !
 ! D197  D(66,29,30,68)        162.0808         estimate D2E/DX2                !
 ! D198  D(67,29,30,68)         44.1048         estimate D2E/DX2                !
 ! D199  D(26,31,32,33)        126.3286         estimate D2E/DX2                !
 ! D200  D(26,31,32,69)          4.4972         estimate D2E/DX2                !
 ! D201  D(26,31,32,70)       -112.9831         estimate D2E/DX2                !
 ! D202  D(31,32,33,34)        -70.3581         estimate D2E/DX2                !
 ! D203  D(31,32,33,71)        166.1634         estimate D2E/DX2                !
 ! D204  D(31,32,33,72)         51.6718         estimate D2E/DX2                !
 ! D205  D(69,32,33,34)         50.7667         estimate D2E/DX2                !
 ! D206  D(69,32,33,71)        -72.7117         estimate D2E/DX2                !
 ! D207  D(69,32,33,72)        172.7967         estimate D2E/DX2                !
 ! D208  D(70,32,33,34)        170.9623         estimate D2E/DX2                !
 ! D209  D(70,32,33,71)         47.4838         estimate D2E/DX2                !
 ! D210  D(70,32,33,72)        -67.0078         estimate D2E/DX2                !
 ! D211  D(32,33,34,35)        135.492          estimate D2E/DX2                !
 ! D212  D(32,33,34,73)         13.8366         estimate D2E/DX2                !
 ! D213  D(32,33,34,74)       -100.0974         estimate D2E/DX2                !
 ! D214  D(71,33,34,35)       -102.6594         estimate D2E/DX2                !
 ! D215  D(71,33,34,73)        135.6852         estimate D2E/DX2                !
 ! D216  D(71,33,34,74)         21.7512         estimate D2E/DX2                !
 ! D217  D(72,33,34,35)         15.2254         estimate D2E/DX2                !
 ! D218  D(72,33,34,73)       -106.4299         estimate D2E/DX2                !
 ! D219  D(72,33,34,74)        139.6361         estimate D2E/DX2                !
 ! D220  D(33,34,35,36)       -143.2946         estimate D2E/DX2                !
 ! D221  D(33,34,35,75)         95.1051         estimate D2E/DX2                !
 ! D222  D(33,34,35,76)        -22.457          estimate D2E/DX2                !
 ! D223  D(73,34,35,36)        -22.2035         estimate D2E/DX2                !
 ! D224  D(73,34,35,75)       -143.8039         estimate D2E/DX2                !
 ! D225  D(73,34,35,76)         98.634          estimate D2E/DX2                !
 ! D226  D(74,34,35,36)         91.8461         estimate D2E/DX2                !
 ! D227  D(74,34,35,75)        -29.7543         estimate D2E/DX2                !
 ! D228  D(74,34,35,76)       -147.3164         estimate D2E/DX2                !
 ! D229  D(34,35,36,37)         71.5458         estimate D2E/DX2                !
 ! D230  D(34,35,36,77)       -169.467          estimate D2E/DX2                !
 ! D231  D(34,35,36,78)        -48.1658         estimate D2E/DX2                !
 ! D232  D(75,35,36,37)       -165.3817         estimate D2E/DX2                !
 ! D233  D(75,35,36,77)        -46.3946         estimate D2E/DX2                !
 ! D234  D(75,35,36,78)         74.9067         estimate D2E/DX2                !
 ! D235  D(76,35,36,37)        -50.6047         estimate D2E/DX2                !
 ! D236  D(76,35,36,77)         68.3825         estimate D2E/DX2                !
 ! D237  D(76,35,36,78)       -170.3163         estimate D2E/DX2                !
 ! D238  D(35,36,37,79)       -142.4534         estimate D2E/DX2                !
 ! D239  D(35,36,37,80)         94.8142         estimate D2E/DX2                !
 ! D240  D(35,36,37,81)        -27.1866         estimate D2E/DX2                !
 ! D241  D(77,36,37,79)         95.579          estimate D2E/DX2                !
 ! D242  D(77,36,37,80)        -27.1534         estimate D2E/DX2                !
 ! D243  D(77,36,37,81)       -149.1542         estimate D2E/DX2                !
 ! D244  D(78,36,37,79)        -20.9496         estimate D2E/DX2                !
 ! D245  D(78,36,37,80)       -143.682          estimate D2E/DX2                !
 ! D246  D(78,36,37,81)         94.3172         estimate D2E/DX2                !
 --------------------------------------------------------------------------------
 Trust Radius=3.00D-01 FncErr=1.00D-07 GrdErr=1.00D-06
 Number of steps in this run=    504 maximum allowed number of steps=    504.
 GradGradGradGradGradGradGradGradGradGradGradGradGradGradGradGradGradGrad

 Leave Link  103 at Thu Mar 24 06:08:03 2016, MaxMem= 10737418240 cpu:         0.4
 (Enter /share/apps//g09/l202.exe)
 Stoichiometry    C23H44NO16(1+)
 Framework group  C1[X(C23H44NO16)]
 Deg. of freedom   246
 Full point group                 C1      NOp   1
 Largest Abelian subgroup         C1      NOp   1
 Largest concise Abelian subgroup C1      NOp   1
                         Standard orientation:                         
 ---------------------------------------------------------------------
 Center     Atomic      Atomic             Coordinates (Angstroms)
 Number     Number       Type             X           Y           Z
 ---------------------------------------------------------------------
      1          8           0        1.949575    1.713192    0.446004
      2          6           0        2.912945    0.739453    0.127656
      3          6           0        3.448264    0.963308   -1.279180
      4          6           0        4.042302    2.350666   -1.388596
      5          6           0        3.034248    3.399255   -0.963922
      6          6           0        2.430129    3.038788    0.387800
      7          6           0        1.276927    3.948305    0.764526
      8          8           0        0.156384    3.802046   -0.090246
      9          8           0        2.008454    3.511128   -1.933642
     10          8           0        4.412094    2.648165   -2.712049
     11          8           0        4.463584    0.061423   -1.610235
     12          8           0        2.229324   -0.468026    0.194103
     13          6           0        2.883841   -1.588529    0.755886
     14          6           0        2.745028   -2.760999   -0.191388
     15          8           0        3.411566   -2.497581   -1.403132
     16          6           0        1.275313   -3.016288   -0.446657
     17          6           0        0.511724   -3.212119    0.863934
     18          8           0        0.802044   -2.179658    1.800701
     19          6           0        2.183246   -1.972947    2.051118
     20          6           0        2.283921   -0.898639    3.113879
     21          8           0        3.654012   -0.652159    3.323947
     22          8           0       -0.865325   -3.263610    0.698194
     23          6           0       -1.491425   -2.157479    0.079908
     24          6           0       -2.171771   -2.580902   -1.209147
     25          6           0       -2.922606   -1.406279   -1.806520
     26          6           0       -3.880749   -0.796896   -0.799608
     27          8           0       -3.170473   -0.470541    0.382724
     28          6           0       -2.561868   -1.586462    1.012193
     29          6           0       -2.030767   -1.133393    2.354232
     30          8           0       -0.981059   -0.192857    2.248467
     31          8           0       -4.380050    0.363635   -1.338514
     32          6           0       -5.656324    0.821969   -0.879156
     33          6           0       -5.540950    2.255250   -0.407263
     34          6           0       -4.744018    2.370102    0.893892
     35          6           0       -3.707077    3.495411    0.948316
     36          6           0       -2.466786    3.067846    1.707162
     37          7           0       -1.685442    2.081820    0.906250
     38          8           0       -3.587707   -1.889671   -2.943024
     39          8           0       -1.222263   -3.054944   -2.136652
     40          8           0        1.170652   -4.149205   -1.260206
     41          1           0        3.735087    0.757908    0.860478
     42          1           0        2.592192    0.883169   -1.961281
     43          1           0        4.913890    2.406158   -0.721830
     44          1           0        3.545465    4.363990   -0.858346
     45          1           0        3.223496    3.184206    1.137280
     46          1           0        1.625810    4.985611    0.763221
     47          1           0        0.945091    3.705982    1.775870
     48          1           0        0.505489    3.784241   -0.996956
     49          1           0        2.432985    3.461665   -2.797227
     50          1           0        4.886426    1.886804   -3.057995
     51          1           0        4.097001   -0.834526   -1.682301
     52          1           0        3.937185   -1.378867    0.950645
     53          1           0        3.188538   -3.643145    0.288898
     54          1           0        3.120352   -3.157957   -2.039402
     55          1           0        0.888592   -2.133245   -0.961825
     56          1           0        0.783245   -4.180910    1.296869
     57          1           0        2.635303   -2.894637    2.438745
     58          1           0        1.769151    0.005169    2.765655
     59          1           0        1.784465   -1.253387    4.019973
     60          1           0        3.780006   -0.243271    4.179586
     61          1           0       -0.768189   -1.364426   -0.131570
     62          1           0       -2.887698   -3.379508   -0.971759
     63          1           0       -2.193907   -0.629049   -2.075229
     64          1           0       -4.684697   -1.508616   -0.556225
     65          1           0       -3.315507   -2.364082    1.202788
     66          1           0       -2.843593   -0.661853    2.908171
     67          1           0       -1.697088   -2.009345    2.913440
     68          1           0       -0.183909   -0.702892    2.021998
     69          1           0       -6.010835    0.174308   -0.071921
     70          1           0       -6.356287    0.741657   -1.713325
     71          1           0       -6.546563    2.666347   -0.296488
     72          1           0       -5.063823    2.830251   -1.205528
     73          1           0       -4.232406    1.418315    1.050617
     74          1           0       -5.425293    2.470147    1.741422
     75          1           0       -4.116510    4.389772    1.420156
     76          1           0       -3.409683    3.797781   -0.060734
     77          1           0       -1.804902    3.907688    1.911221
     78          1           0       -2.730520    2.599233    2.655468
     79          1           0       -1.255420    1.331541    1.485266
     80          1           0       -0.945565    2.589926    0.372603
     81          1           0       -2.297482    1.564740    0.273378
     82          1           0       -3.979754   -1.150933   -3.412697
     83          1           0       -1.680423   -3.181574   -2.972721
     84          1           0        0.310599   -4.094351   -1.698019
 ---------------------------------------------------------------------
 Rotational constants (GHZ):      0.1049701      0.0750279      0.0587262
 Leave Link  202 at Thu Mar 24 06:08:03 2016, MaxMem= 10737418240 cpu:         0.5
 (Enter /share/apps//g09/l301.exe)
 Standard basis: 6-311+G(d,p) (5D, 7F)
 Ernie: Thresh=  0.10000D-02 Tol=  0.10000D-05 Strict=F.
 There are  1184 symmetry adapted cartesian basis functions of A   symmetry.
 There are  1144 symmetry adapted basis functions of A   symmetry.
  1144 basis functions,  1792 primitive gaussians,  1184 cartesian basis functions
   158 alpha electrons      158 beta electrons
       nuclear repulsion energy      5913.5597856748 Hartrees.
 IExCor= 1009 DFT=T Ex+Corr=PBE1PBE ExCW=0 ScaHFX=  0.250000
 ScaDFX=  0.750000  0.750000  1.000000  1.000000 ScalE2=  1.000000  1.000000
 IRadAn=      0 IRanWt=     -1 IRanGd=            0 ICorTp=0 IEmpDi=131
 NAtoms=   84 NActive=   84 NUniq=   84 SFac= 1.00D+00 NAtFMM=   60 NAOKFM=T Big=T
 Integral buffers will be    131072 words long.
 Raffenetti 2 integral format.
 Two-electron integral symmetry is turned on.
 R6Disp:  Grimme-D3 Dispersion energy=       -0.0822890308 Hartrees.
 Nuclear repulsion after empirical dispersion term =     5913.4774966440 Hartrees.
 Leave Link  301 at Thu Mar 24 06:08:03 2016, MaxMem= 10737418240 cpu:         1.6
 (Enter /share/apps//g09/l302.exe)
 NPDir=0 NMtPBC=     1 NCelOv=     1 NCel=       1 NClECP=     1 NCelD=      1
         NCelK=      1 NCelE2=     1 NClLst=     1 CellRange=     0.0.
 One-electron integrals computed using PRISM.
 NBasis=  1144 RedAO= T EigKep=  1.55D-06  NBF=  1144
 NBsUse=  1144 1.00D-06 EigRej= -1.00D+00 NBFU=  1144
 Precomputing XC quadrature grid using
 IXCGrd= 4 IRadAn=           0 IRanWt=          -1 IRanGd=           0 AccXCQ= 0.00D+00.
 Generated NRdTot=       0 NPtTot=           0 NUsed=           0 NTot=          32
 NSgBfM=  1093  1095  1103  1103  1104 MxSgAt=    84 MxSgA2=    84.
 Leave Link  302 at Thu Mar 24 06:08:07 2016, MaxMem= 10737418240 cpu:        55.2
 (Enter /share/apps//g09/l303.exe)
 DipDrv:  MaxL=1.
 Leave Link  303 at Thu Mar 24 06:08:09 2016, MaxMem= 10737418240 cpu:        30.4
 (Enter /share/apps//g09/l401.exe)
 ExpMin= 4.38D-02 ExpMax= 8.59D+03 ExpMxC= 1.30D+03 IAcc=2 IRadAn=         4 AccDes= 0.00D+00
 Harris functional with IExCor= 1009 and IRadAn=       4 diagonalized for initial guess.
 HarFok:  IExCor= 1009 AccDes= 0.00D+00 IRadAn=         4 IDoV= 1 UseB2=F ITyADJ=14
 ICtDFT=  3500011 ScaDFX=  1.000000  1.000000  1.000000  1.000000
 FoFCou: FMM=F IPFlag=           0 FMFlag=      100000 FMFlg1=        2001
         NFxFlg=           0 DoJE=T BraDBF=F KetDBF=T FulRan=T
         wScrn=  0.000000 ICntrl=     500 IOpCl=  0 I1Cent=   200000004 NGrid=           0
         NMat0=    1 NMatS0=      1 NMatT0=    0 NMatD0=    1 NMtDS0=    0 NMtDT0=    0
 Petite list used in FoFCou.
 Harris En= -2159.73769383025    
 JPrj=0 DoOrth=F DoCkMO=F.
 Leave Link  401 at Thu Mar 24 06:08:23 2016, MaxMem= 10737418240 cpu:       224.8
 (Enter /share/apps//g09/l502.exe)
 Closed shell SCF:
 Using DIIS extrapolation, IDIIS=  1040.
 Integral symmetry usage will be decided dynamically.
 IVT=     4256630 IEndB=     4256630 NGot= 10737418240 MDV= 10734581291
 LenX= 10734581291 LenY= 10733178251
 Requested convergence on RMS density matrix=1.00D-08 within 128 cycles.
 Requested convergence on MAX density matrix=1.00D-06.
 Requested convergence on             energy=1.00D-06.
 No special actions if energy rises.
 Fock matrices will be formed incrementally for  20 cycles.

 Cycle   1  Pass 1  IDiag  1:
 FoFJK:  IHMeth= 1 ICntrl=       0 DoSepK=F KAlg= 0 I1Cent=   0 FoldK=F
 IRaf= 780000000 NMat=   1 IRICut=       1 DoRegI=T DoRafI=F ISym2E= 0.
 FoFCou: FMM=T IPFlag=           0 FMFlag=      100000 FMFlg1=        2001
         NFxFlg=           0 DoJE=F BraDBF=F KetDBF=F FulRan=T
         wScrn=  0.000000 ICntrl=       0 IOpCl=  0 I1Cent=           0 NGrid=           0
         NMat0=    1 NMatS0=      1 NMatT0=    0 NMatD0=    1 NMtDS0=    0 NMtDT0=    0
 Symmetry not used in FoFCou.
 FMM levels:  10  Number of levels for PrismC:   9
 E= -2158.68175214355    
 DIIS: error= 1.45D-02 at cycle   1 NSaved=   1.
 NSaved= 1 IEnMin= 1 EnMin= -2158.68175214355     IErMin= 1 ErrMin= 1.45D-02
 ErrMax= 1.45D-02  0.00D+00 EMaxC= 1.00D-01 BMatC= 1.06D+00 BMatP= 1.06D+00
 IDIUse=3 WtCom= 8.55D-01 WtEn= 1.45D-01
 Coeff-Com:  0.100D+01
 Coeff-En:   0.100D+01
 Coeff:      0.100D+01
 Gap=     0.269 Goal=   None    Shift=    0.000
 GapD=    0.269 DampG=1.000 DampE=0.500 DampFc=0.5000 IDamp=-1.
 Damping current iteration by 5.00D-01
 RMSDP=1.08D-02 MaxDP=2.97D+00              OVMax= 1.43D-01

 Cycle   2  Pass 1  IDiag  1:
 RMSU=  5.31D-03    CP:  9.79D-01
 E= -2158.98334337142     Delta-E=       -0.301591227872 Rises=F Damp=T
 DIIS: error= 3.53D-03 at cycle   2 NSaved=   2.
 NSaved= 2 IEnMin= 2 EnMin= -2158.98334337142     IErMin= 2 ErrMin= 3.53D-03
 ErrMax= 3.53D-03  0.00D+00 EMaxC= 1.00D-01 BMatC= 7.84D-02 BMatP= 1.06D+00
 IDIUse=3 WtCom= 9.65D-01 WtEn= 3.53D-02
 Coeff-Com:  0.469D-01 0.953D+00
 Coeff-En:   0.135D+00 0.865D+00
 Coeff:      0.500D-01 0.950D+00
 Gap=     0.285 Goal=   None    Shift=    0.000
 RMSDP=4.51D-03 MaxDP=1.28D+00 DE=-3.02D-01 OVMax= 8.55D-02

 Cycle   3  Pass 1  IDiag  1:
 RMSU=  2.82D-03    CP:  8.94D-01  8.33D-01
 E= -2159.36333110675     Delta-E=       -0.379987735328 Rises=F Damp=F
 DIIS: error= 3.39D-03 at cycle   3 NSaved=   3.
 NSaved= 3 IEnMin= 3 EnMin= -2159.36333110675     IErMin= 3 ErrMin= 3.39D-03
 ErrMax= 3.39D-03  0.00D+00 EMaxC= 1.00D-01 BMatC= 4.19D-02 BMatP= 7.84D-02
 IDIUse=3 WtCom= 9.66D-01 WtEn= 3.39D-02
 Coeff-Com: -0.686D-01 0.404D+00 0.665D+00
 Coeff-En:   0.000D+00 0.000D+00 0.100D+01
 Coeff:     -0.663D-01 0.390D+00 0.676D+00
 Gap=     0.271 Goal=   None    Shift=    0.000
 RMSDP=1.51D-03 MaxDP=3.86D-01 DE=-3.80D-01 OVMax= 1.65D-02

 Cycle   4  Pass 1  IDiag  1:
 RMSU=  1.15D-03    CP:  9.10D-01  9.65D-01  9.03D-01
 E= -2159.38867214772     Delta-E=       -0.025341040976 Rises=F Damp=F
 DIIS: error= 1.02D-03 at cycle   4 NSaved=   4.
 NSaved= 4 IEnMin= 4 EnMin= -2159.38867214772     IErMin= 4 ErrMin= 1.02D-03
 ErrMax= 1.02D-03  0.00D+00 EMaxC= 1.00D-01 BMatC= 5.84D-03 BMatP= 4.19D-02
 IDIUse=3 WtCom= 9.90D-01 WtEn= 1.02D-02
 Coeff-Com: -0.363D-01 0.122D+00 0.345D+00 0.569D+00
 Coeff-En:   0.000D+00 0.000D+00 0.817D-01 0.918D+00
 Coeff:     -0.359D-01 0.121D+00 0.343D+00 0.572D+00
 Gap=     0.263 Goal=   None    Shift=    0.000
 RMSDP=1.10D-03 MaxDP=3.75D-01 DE=-2.53D-02 OVMax= 5.46D-03

 Cycle   5  Pass 1  IDiag  1:
 RMSU=  3.00D-04    CP:  8.87D-01  9.24D-01  8.90D-01  5.78D-01
 E= -2159.39355617637     Delta-E=       -0.004884028644 Rises=F Damp=F
 DIIS: error= 2.58D-04 at cycle   5 NSaved=   5.
 NSaved= 5 IEnMin= 5 EnMin= -2159.39355617637     IErMin= 5 ErrMin= 2.58D-04
 ErrMax= 2.58D-04  0.00D+00 EMaxC= 1.00D-01 BMatC= 2.46D-04 BMatP= 5.84D-03
 IDIUse=3 WtCom= 9.97D-01 WtEn= 2.58D-03
 Coeff-Com: -0.114D-01 0.268D-01 0.104D+00 0.247D+00 0.634D+00
 Coeff-En:   0.000D+00 0.000D+00 0.000D+00 0.000D+00 0.100D+01
 Coeff:     -0.114D-01 0.268D-01 0.104D+00 0.246D+00 0.635D+00
 Gap=     0.263 Goal=   None    Shift=    0.000
 RMSDP=1.42D-04 MaxDP=4.55D-02 DE=-4.88D-03 OVMax= 1.46D-03

 Cycle   6  Pass 1  IDiag  1:
 RMSU=  7.98D-05    CP:  8.88D-01  9.31D-01  9.05D-01  5.97D-01  7.50D-01
 E= -2159.39372958792     Delta-E=       -0.000173411557 Rises=F Damp=F
 DIIS: error= 8.84D-05 at cycle   6 NSaved=   6.
 NSaved= 6 IEnMin= 6 EnMin= -2159.39372958792     IErMin= 6 ErrMin= 8.84D-05
 ErrMax= 8.84D-05  0.00D+00 EMaxC= 1.00D-01 BMatC= 2.83D-05 BMatP= 2.46D-04
 IDIUse=1 WtCom= 1.00D+00 WtEn= 0.00D+00
 Coeff-Com: -0.405D-02 0.737D-02 0.360D-01 0.100D+00 0.339D+00 0.521D+00
 Coeff:     -0.405D-02 0.737D-02 0.360D-01 0.100D+00 0.339D+00 0.521D+00
 Gap=     0.263 Goal=   None    Shift=    0.000
 RMSDP=3.51D-05 MaxDP=1.11D-02 DE=-1.73D-04 OVMax= 5.78D-04

 Cycle   7  Pass 1  IDiag  1:
 RMSU=  1.48D-05    CP:  8.89D-01  9.30D-01  9.05D-01  6.08D-01  7.69D-01
                    CP:  7.17D-01
 E= -2159.39374938690     Delta-E=       -0.000019798980 Rises=F Damp=F
 DIIS: error= 2.05D-05 at cycle   7 NSaved=   7.
 NSaved= 7 IEnMin= 7 EnMin= -2159.39374938690     IErMin= 7 ErrMin= 2.05D-05
 ErrMax= 2.05D-05  0.00D+00 EMaxC= 1.00D-01 BMatC= 1.76D-06 BMatP= 2.83D-05
 IDIUse=1 WtCom= 1.00D+00 WtEn= 0.00D+00
 Coeff-Com: -0.106D-02 0.151D-02 0.977D-02 0.313D-01 0.121D+00 0.260D+00
 Coeff-Com:  0.577D+00
 Coeff:     -0.106D-02 0.151D-02 0.977D-02 0.313D-01 0.121D+00 0.260D+00
 Coeff:      0.577D+00
 Gap=     0.263 Goal=   None    Shift=    0.000
 RMSDP=7.17D-06 MaxDP=1.83D-03 DE=-1.98D-05 OVMax= 1.43D-04

 Cycle   8  Pass 1  IDiag  1:
 RMSU=  5.97D-06    CP:  8.89D-01  9.31D-01  9.05D-01  6.10D-01  7.73D-01
                    CP:  7.00D-01  8.74D-01
 E= -2159.39375054090     Delta-E=       -0.000001153993 Rises=F Damp=F
 DIIS: error= 5.52D-06 at cycle   8 NSaved=   8.
 NSaved= 8 IEnMin= 8 EnMin= -2159.39375054090     IErMin= 8 ErrMin= 5.52D-06
 ErrMax= 5.52D-06  0.00D+00 EMaxC= 1.00D-01 BMatC= 1.25D-07 BMatP= 1.76D-06
 IDIUse=1 WtCom= 1.00D+00 WtEn= 0.00D+00
 Coeff-Com:  0.853D-05-0.193D-03 0.167D-03 0.225D-02 0.123D-01 0.490D-01
 Coeff-Com:  0.248D+00 0.688D+00
 Coeff:      0.853D-05-0.193D-03 0.167D-03 0.225D-02 0.123D-01 0.490D-01
 Coeff:      0.248D+00 0.688D+00
 Gap=     0.263 Goal=   None    Shift=    0.000
 RMSDP=3.63D-06 MaxDP=1.22D-03 DE=-1.15D-06 OVMax= 3.60D-05

 Cycle   9  Pass 1  IDiag  1:
 RMSU=  2.11D-06    CP:  8.89D-01  9.30D-01  9.05D-01  6.09D-01  7.75D-01
                    CP:  7.07D-01  9.04D-01  9.18D-01
 E= -2159.39375063152     Delta-E=       -0.000000090618 Rises=F Damp=F
 DIIS: error= 1.72D-06 at cycle   9 NSaved=   9.
 NSaved= 9 IEnMin= 9 EnMin= -2159.39375063152     IErMin= 9 ErrMin= 1.72D-06
 ErrMax= 1.72D-06  0.00D+00 EMaxC= 1.00D-01 BMatC= 1.17D-08 BMatP= 1.25D-07
 IDIUse=1 WtCom= 1.00D+00 WtEn= 0.00D+00
 Coeff-Com:  0.669D-04-0.180D-03-0.538D-03-0.875D-03-0.203D-02 0.533D-02
 Coeff-Com:  0.772D-01 0.323D+00 0.598D+00
 Coeff:      0.669D-04-0.180D-03-0.538D-03-0.875D-03-0.203D-02 0.533D-02
 Coeff:      0.772D-01 0.323D+00 0.598D+00
 Gap=     0.263 Goal=   None    Shift=    0.000
 RMSDP=9.96D-07 MaxDP=2.19D-04 DE=-9.06D-08 OVMax= 1.11D-05

 Cycle  10  Pass 1  IDiag  1:
 RMSU=  6.46D-07    CP:  8.89D-01  9.30D-01  9.05D-01  6.09D-01  7.75D-01
                    CP:  7.13D-01  9.02D-01  9.10D-01  7.74D-01
 E= -2159.39375064056     Delta-E=       -0.000000009045 Rises=F Damp=F
 DIIS: error= 5.53D-07 at cycle  10 NSaved=  10.
 NSaved=10 IEnMin=10 EnMin= -2159.39375064056     IErMin=10 ErrMin= 5.53D-07
 ErrMax= 5.53D-07  0.00D+00 EMaxC= 1.00D-01 BMatC= 1.37D-09 BMatP= 1.17D-08
 IDIUse=1 WtCom= 1.00D+00 WtEn= 0.00D+00
 Coeff-Com:  0.299D-04-0.691D-04-0.280D-03-0.599D-03-0.199D-02-0.136D-02
 Coeff-Com:  0.188D-01 0.105D+00 0.311D+00 0.569D+00
 Coeff:      0.299D-04-0.691D-04-0.280D-03-0.599D-03-0.199D-02-0.136D-02
 Coeff:      0.188D-01 0.105D+00 0.311D+00 0.569D+00
 Gap=     0.263 Goal=   None    Shift=    0.000
 RMSDP=3.57D-07 MaxDP=6.69D-05 DE=-9.04D-09 OVMax= 3.27D-06

 Cycle  11  Pass 1  IDiag  1:
 RMSU=  1.60D-07    CP:  8.89D-01  9.30D-01  9.05D-01  6.10D-01  7.75D-01
                    CP:  7.11D-01  9.10D-01  9.20D-01  7.83D-01  6.89D-01
 E= -2159.39375064152     Delta-E=       -0.000000000955 Rises=F Damp=F
 DIIS: error= 1.41D-07 at cycle  11 NSaved=  11.
 NSaved=11 IEnMin=11 EnMin= -2159.39375064152     IErMin=11 ErrMin= 1.41D-07
 ErrMax= 1.41D-07  0.00D+00 EMaxC= 1.00D-01 BMatC= 1.04D-10 BMatP= 1.37D-09
 IDIUse=1 WtCom= 1.00D+00 WtEn= 0.00D+00
 Coeff-Com:  0.798D-05-0.172D-04-0.912D-04-0.208D-03-0.752D-03-0.106D-02
 Coeff-Com:  0.275D-02 0.235D-01 0.102D+00 0.278D+00 0.596D+00
 Coeff:      0.798D-05-0.172D-04-0.912D-04-0.208D-03-0.752D-03-0.106D-02
 Coeff:      0.275D-02 0.235D-01 0.102D+00 0.278D+00 0.596D+00
 Gap=     0.263 Goal=   None    Shift=    0.000
 RMSDP=6.26D-08 MaxDP=2.14D-05 DE=-9.55D-10 OVMax= 8.77D-07

 Cycle  12  Pass 1  IDiag  1:
 RMSU=  3.57D-08    CP:  8.89D-01  9.30D-01  9.05D-01  6.10D-01  7.75D-01
                    CP:  7.11D-01  9.11D-01  9.22D-01  7.95D-01  6.96D-01
                    CP:  7.82D-01
 E= -2159.39375064167     Delta-E=       -0.000000000153 Rises=F Damp=F
 DIIS: error= 4.01D-08 at cycle  12 NSaved=  12.
 NSaved=12 IEnMin=12 EnMin= -2159.39375064167     IErMin=12 ErrMin= 4.01D-08
 ErrMax= 4.01D-08  0.00D+00 EMaxC= 1.00D-01 BMatC= 5.96D-12 BMatP= 1.04D-10
 IDIUse=1 WtCom= 1.00D+00 WtEn= 0.00D+00
 Coeff-Com:  0.199D-06-0.190D-06-0.113D-04-0.276D-04-0.117D-03-0.291D-03
 Coeff-Com: -0.730D-03-0.860D-03 0.103D-01 0.587D-01 0.238D+00 0.695D+00
 Coeff:      0.199D-06-0.190D-06-0.113D-04-0.276D-04-0.117D-03-0.291D-03
 Coeff:     -0.730D-03-0.860D-03 0.103D-01 0.587D-01 0.238D+00 0.695D+00
 Gap=     0.263 Goal=   None    Shift=    0.000
 RMSDP=1.99D-08 MaxDP=4.40D-06 DE=-1.53D-10 OVMax= 2.25D-07

 Cycle  13  Pass 1  IDiag  1:
 RMSU=  1.44D-08    CP:  8.89D-01  9.30D-01  9.05D-01  6.10D-01  7.75D-01
                    CP:  7.11D-01  9.11D-01  9.22D-01  7.97D-01  7.06D-01
                    CP:  7.65D-01  8.67D-01
 E= -2159.39375064165     Delta-E=        0.000000000018 Rises=F Damp=F
 DIIS: error= 1.39D-08 at cycle  13 NSaved=  13.
 NSaved=13 IEnMin=12 EnMin= -2159.39375064167     IErMin=13 ErrMin= 1.39D-08
 ErrMax= 1.39D-08  0.00D+00 EMaxC= 1.00D-01 BMatC= 5.70D-13 BMatP= 5.96D-12
 IDIUse=1 WtCom= 1.00D+00 WtEn= 0.00D+00
 Coeff-Com: -0.369D-06 0.902D-06 0.170D-06-0.141D-06-0.780D-05-0.625D-04
 Coeff-Com: -0.489D-03-0.178D-02-0.167D-02 0.940D-02 0.699D-01 0.319D+00
 Coeff-Com:  0.605D+00
 Coeff:     -0.369D-06 0.902D-06 0.170D-06-0.141D-06-0.780D-05-0.625D-04
 Coeff:     -0.489D-03-0.178D-02-0.167D-02 0.940D-02 0.699D-01 0.319D+00
 Coeff:      0.605D+00
 Gap=     0.263 Goal=   None    Shift=    0.000
 RMSDP=7.36D-09 MaxDP=2.64D-06 DE= 1.82D-11 OVMax= 7.45D-08

 Cycle  14  Pass 1  IDiag  1:
 RMSU=  4.27D-09    CP:  8.89D-01  9.30D-01  9.05D-01  6.10D-01  7.75D-01
[...]
 9,-0.00189190,-0.00053734,-0.00072161,-0.04488415,0.05870352,0.1082831
 6,-0.00027055,-0.00001758,0.00001049,-0.00001056,-0.00000699,-0.000015
 06,0.00000354,-0.00003073,-0.00000406,0.00001467,-0.00000217,-0.000012
 23,0.00000935,-0.00000061,-0.00001175,0.00000227,-0.00000253,-0.000006
 73,0.00000430,-0.00000119,0.00000053,-0.00000535,-0.00000025,-0.000008
 22,0.00000315,-0.00002564,0.00005436,-0.00004158,-0.00001497,0.0000371
 4,-0.00003157,0.00000953,0.00002537,0.00002640,0.00005971,0.00006953,-
 0.00000953,-0.00001484,0.00001241,-0.00011480,0.00002536,0.00000613,0.
 00003824,0.00013010,0.00013741,0.00043859,0.00020964,0.00000994,0.0000
 4738,-0.00002659,0.00001450,-0.00000789,-0.00000172,-0.00000594,0.0000
 0181,-0.00000514,0.00000370,-0.00000229,-0.00000104,-0.00000572,0.0000
 0245,0.00000703,0.00000396,0.00009934,0.00009966,0.00001294,-0.0005918
 7,-0.00008815,-0.00125593,-0.00042613,-0.00043985,0.00048582,-0.000166
 12,0.00010958,-0.00014919,0.00001952,-0.00005851,0.00002558,0.00001126
 ,-0.00000520,-0.00010228,-0.00000250,-0.00000426,-0.00000029,-0.000000
 02,0.00004068,-0.00000643,-0.00000235,-0.00000340,-0.00001304,0.,0.000
 02123,0.00000440,0.00000010,0.00000531,-0.00000225,-0.00000558,-0.0000
 0594,-0.00000042,0.00000481,-0.00000070,-0.00000085,-0.00000365,0.0000
 0137,-0.00000010,-0.00000330,0.00000068,0.,-0.00000219,-0.00000430,-0.
 00000425,-0.00000114,0.00000218,0.00000419,-0.00000169,0.00000107,-0.0
 0000441,0.00001835,0.00001906,0.00000337,0.00004735,-0.00000399,0.0000
 3638,0.00004407,0.00000025,0.00000995,0.00018301,-0.00063885,0.0010361
 6,0.04436585,-0.00000441,-0.00011907,0.00001696,0.00008841,0.00014155,
 -0.00002754,-0.00003157,0.00008800,0.00000269,0.00000291,0.00001164,-0
 .00000721,-0.00003501,0.00004625,0.00005029,0.00003332,0.00002597,-0.0
 0001116,-0.00005484,0.00005197,0.00006429,0.00009142,-0.00005082,-0.00
 007033,0.00005468,-0.00006567,-0.00005363,0.00000534,-0.00003547,0.000
 00012,-0.00003166,-0.00012084,0.00003703,-0.00011104,-0.00013171,0.000
 01223,0.00002028,0.00013194,0.00000313,-0.00008460,-0.00007963,0.00003
 423,-0.00001763,-0.00002885,0.00010133,-0.00017286,0.00037004,0.000182
 68,-0.00003230,0.00004545,0.00014544,-0.00005614,-0.00005921,0.0001411
 2,0.00003753,-0.00003250,-0.00001702,0.00001788,0.00002303,-0.00000970
 ,-0.00002480,-0.00001588,0.00001678,-0.00005233,0.00025841,-0.00071055
 ,0.00283407,-0.00443075,0.00291699,-0.00439264,0.00734998,0.02587654,-
 0.00046325,-0.00021192,0.00690842,0.00028051,0.00014138,0.00106649,-0.
 00003681,-0.00054057,-0.00167915,-0.00033452,0.00182612,0.00168818,0.0
 0041962,-0.00050727,0.00006988,-0.00012550,-0.00011956,-0.00000411,-0.
 00027097,0.00027783,-0.00072798,0.00025023,-0.00034526,0.00018275,-0.0
 0002937,0.00003380,0.00000565,0.00000599,0.00002286,0.00001978,-0.0000
 1526,-0.00000677,0.00000068,0.00001070,0.00001358,0.00000650,0.0000210
 7,-0.00008186,-0.00005269,-0.00074825,0.00185592,-0.00186557,0.0556405
 3,-0.09302910,-0.17454549,0.00078016,-0.00185711,0.00034702,-0.0000022
 5,-0.00001028,-0.00000368,0.00000529,0.00000138,-0.00001184,0.00000486
 ,-0.00000423,-0.00000248,0.00000429,-0.00000815,-0.00000945,-0.0000001
 7,-0.00000776,-0.00000375,0.00001164,-0.00000661,-0.00000672,0.0000003
 5,0.00000047,-0.00000387,-0.00004502,0.00002148,0.00001943,-0.00002759
 ,0.00002420,0.00000992,0.00000360,0.00001832,-0.00000395,0.00007616,0.
 00006314,-0.00002973,-0.00000638,-0.00001673,0.00000209,0.00004435,0.0
 0000111,-0.00001361,0.00006324,-0.00002716,-0.00011586,-0.00011242,-0.
 00011866,0.00002148,-0.00000854,-0.00001080,-0.00002853,-0.00001029,-0
 .00000219,-0.00000521,-0.00000099,-0.00000593,0.00000179,-0.00000168,-
 0.00000041,0.00000185,0.00000489,0.00000838,-0.00000186,-0.00006582,-0
 .00003250,-0.00019284,0.00081912,0.00009864,-0.00008220,0.00000271,-0.
 00032655,-0.00028273,-0.00005245,0.00009050,-0.00007844,-0.00005240,-0
 .00004177,-0.00002906,-0.00004034,0.00001519,0.00023333,0.00001830,-0.
 00001184,-0.00006486,-0.00000363,0.00005244,-0.00005519,-0.00004592,0.
 00002656,-0.00001664,-0.00000458,-0.00000063,0.00000547,0.00000899,0.0
 0002370,-0.00003336,-0.00000110,-0.00002421,-0.00000140,0.00000437,-0.
 00000677,0.00003384,0.00000246,0.00001204,-0.00002486,0.00000774,0.000
 00322,-0.00001190,-0.00001537,-0.00001050,0.00000087,0.00001056,-0.000
 00319,-0.00000901,-0.00000905,0.00000360,-0.00000167,0.00006072,0.0001
 8078,0.00005460,-0.00007389,0.00001026,0.00002309,-0.00005059,0.000007
 98,0.00013153,-0.00042043,-0.00001804,-0.00126169,-0.05376410,0.087635
 30,-0.00009606,-0.00008185,0.00002512,0.00019515,0.00011085,-0.0000201
 4,0.00000103,-0.00004071,0.00001109,0.00006043,0.00001546,0.00004279,-
 0.00000071,0.00001539,0.00001224,0.00008141,0.00005355,-0.00001318,0.0
 0002049,-0.00001039,-0.00002300,-0.00008146,-0.00002279,0.00000689,-0.
 00003325,-0.00002259,-0.00004132,-0.00006708,-0.00001002,-0.00007597,-
 0.00007631,-0.00000803,-0.00004599,-0.00019899,-0.00009068,0.00004973,
 -0.00000506,0.00007739,-0.00003863,0.00027380,-0.00002983,0.00013075,-
 0.00024876,0.00006113,-0.00011917,-0.00004098,0.00002796,-0.00012091,0
 .00037762,-0.00025202,-0.00043422,-0.00025430,0.00004220,0.00031527,0.
 00015428,-0.00011939,-0.00006453,0.00004188,-0.00000559,-0.00006322,-0
 .00008106,0.00002911,0.00007501,-0.00009297,0.00038312,0.00109978,-0.0
 0380896,0.00311229,-0.00185246,0.00468543,-0.00636720,-0.02949843,0.00
 102685,0.00000253,0.00186462,-0.00000424,-0.00002521,-0.00157013,-0.00
 006199,0.00001954,0.00018203,0.00067755,-0.00064547,-0.00106498,-0.000
 30748,0.00032134,-0.00013920,0.00000380,-0.00007030,0.00016595,0.00027
 464,-0.00108574,0.00035115,-0.00031548,0.00023967,0.00003501,0.0000724
 2,-0.00007592,0.00000564,-0.00000001,0.00000852,-0.00001766,0.00001194
 ,-0.00000241,0.00001057,-0.00001418,0.00005110,-0.00004100,-0.00005852
 ,-0.00006532,0.00003125,0.00007147,-0.00032430,-0.00101107,0.07725349,
 -0.13792324,-0.43054636,-0.00088222,0.00115290,0.00038216,-0.00002077,
 -0.00000125,0.00000766,0.00001312,0.00000804,0.00001608,-0.00000328,-0
 .00000467,-0.00000467,-0.00000542,-0.00000773,-0.00000083,-0.00001253,
 0.00000184,0.00000541,-0.00001013,-0.00000566,0.00000483,0.00000113,0.
 00000437,-0.00000701,0.00003646,0.00001367,0.00002540,0.00001033,0.000
 01364,0.00003107,0.00002167,0.00000301,0.00003104,0.00009076,0.0000338
 1,0.00002909,-0.00002164,-0.00001684,0.00001452,-0.00005658,0.00003598
 ,0.00001229,0.00011040,-0.00005425,0.00011607,0.00026802,-0.00006490,-
 0.00021690,-0.00000312,0.00003106,0.00003722,-0.00001241,0.00001662,-0
 .00000047,0.00000120,0.00000615,0.00000267,-0.00000157,0.00000067,0.00
 000133,0.00000945,-0.00000784,-0.00001647,-0.00005075,0.00002256,0.000
 33128,0.00058288,-0.00096059,0.00097966,0.00016381,0.00030527,-0.00015
 921,0.00002887,-0.00005222,0.00008899,-0.00005033,-0.00002044,-0.00002
 411,0.00003512,-0.00005855,-0.00009762,-0.00001588,0.00000375,-0.00000
 404,0.00001586,0.00004921,-0.00008141,0.00001633,-0.00001204,0.0000020
 8,0.00002996,-0.00004778,-0.00000805,-0.00001111,-0.00003430,0.0000340
 0,-0.00001321,0.00001194,0.00000295,-0.00000503,0.00000469,-0.00002698
 ,-0.00000051,-0.00001037,0.00000912,-0.00000223,-0.00000958,0.00000754
 ,0.00000655,0.00000921,-0.00000355,-0.00000356,-0.00000501,0.00000933,
 0.00000352,-0.00000270,-0.00000167,0.00003299,0.00004992,-0.00002126,0
 .00009792,0.00002752,0.00000300,0.00006120,0.00006589,-0.00007531,0.00
 010244,-0.00008718,0.00028271,-0.08105399,0.14477598,0.46070614,0.0000
 5184,0.00027792,-0.00013644,-0.00025865,-0.00040635,0.00012621,0.00001
 603,-0.00008062,0.00008616,-0.00006560,-0.00004751,-0.00000952,0.00003
 407,-0.00004817,-0.00000997,-0.00011225,-0.00007602,0.00005322,0.00006
 305,-0.00006508,-0.00003124,-0.00012308,0.00007831,0.00000620,-0.00001
 789,0.00010876,-0.00000768,0.00008070,0.00006410,0.00000147,0.00017978
 ,0.00021663,-0.00014618,0.00056610,0.00030580,-0.00052393,-0.00094788,
 0.00082939,0.00043397,-0.00190918,-0.00219326,0.00358407,0.00073138,-0
 .00041355,0.00015367,-0.01341630,0.00925861,0.01316138,0.00401082,-0.0
 0147845,-0.00137648,-0.00078967,0.00079204,-0.00116549,-0.00014568,0.0
 0011841,0.00012406,-0.00006814,-0.00000489,0.00005280,0.00001888,-0.00
 000280,-0.00005498,-0.00116880,0.00061204,0.00148864,0.00069371,0.0005
 5587,-0.00047645,-0.00161508,0.00191347,-0.00184429,0.00041179,-0.0001
 2932,0.00043770,0.00001321,0.00011816,-0.00048639,-0.00010983,-0.00006
 006,0.00023086,-0.00019985,0.00005250,0.00016718,0.00031994,-0.0000990
 3,-0.00010442,-0.00035966,0.00020980,0.00006765,0.00006302,-0.00040620
 ,0.00017469,-0.00011061,0.00013707,-0.00003322,0.00002126,-0.00002639,
 -0.00000083,0.00000195,0.00000505,-0.00000802,0.00001562,-0.00000154,0
 .00000387,0.00000433,-0.00001274,0.00000496,-0.00009772,0.00000681,0.0
 0000719,-0.00003891,-0.00023989,0.00000863,-0.00291564,-0.00251424,-0.
 00012263,-0.15196471,0.15790669,0.13722769,0.00007320,0.00002952,-0.00
 004022,-0.00001838,-0.00004221,-0.00001278,0.00001022,0.00000613,-0.00
 000546,0.00000885,0.00002202,-0.00000005,0.00001366,0.00000459,-0.0000
 0517,-0.00000744,0.00001563,0.00000597,-0.00000806,-0.00000322,-0.0000
 0526,0.00003902,-0.00005654,0.00003255,-0.00001224,-0.00005211,0.00000
 251,-0.00006392,-0.00002388,0.00000018,-0.00032208,-0.00016008,0.00013
 092,-0.00003536,-0.00017945,0.00024026,0.00013900,-0.00010906,-0.00005
 133,-0.00028461,0.00081619,0.00026455,0.00079627,0.00172133,-0.0011602
 0,-0.00003006,-0.00002919,0.00000526,0.00000906,0.00002815,0.00003711,
 0.00002576,0.00000856,0.00000860,0.00000112,-0.00000943,-0.00003328,-0
 .00000349,0.00000427,0.00002660,-0.00008005,-0.00032017,0.00019070,-0.
 00011833,0.00023030,0.00001914,-0.00005433,-0.00004705,0.00000482,-0.0
 0002363,-0.00000380,0.00002273,-0.00009362,0.00006231,-0.00005419,-0.0
 0003621,0.00000370,0.00004054,0.00000022,-0.00001492,-0.00001027,0.000
 16272,-0.00035109,0.00006194,0.00000713,-0.00000811,-0.00000420,0.0000
 1176,-0.00001270,0.00000360,-0.00000639,-0.00001149,0.00001613,-0.0000
 0693,0.00000364,0.00000001,0.00000209,0.00000699,-0.00001856,-0.000004
 32,-0.00000445,0.00000712,-0.00000672,-0.00000249,0.00000634,0.0000036
 4,0.00000042,-0.00000634,-0.00000684,-0.00000427,0.00001159,0.00000309
 ,0.00000209,-0.00000794,0.00004994,-0.00001710,-0.00001475,0.00014783,
 -0.00001712,0.00002481,0.00010163,0.00003554,-0.00007072,0.00003086,0.
 00003431,0.00006902,0.00031967,0.00019247,0.00106045,0.16840389,-0.000
 05477,-0.00049143,0.00009155,0.00046785,0.00061944,-0.00011574,-0.0001
 0821,0.00026013,0.00003309,0.00006279,0.00003381,0.00000011,-0.0000797
 6,0.00009664,0.00008837,0.00014329,0.00009067,-0.00003476,-0.00013520,
 0.00011694,0.00011070,0.00023878,-0.00010756,-0.00009818,0.00009222,-0
 .00015107,-0.00008379,-0.00005763,-0.00009780,-0.00004881,-0.00022066,
 -0.00042405,0.00004163,-0.00041967,-0.00074540,0.00001276,-0.00129194,
 0.00184821,0.00017678,-0.00159607,-0.00310243,0.00459538,-0.00064043,-
 0.00015891,0.00016225,-0.01365278,0.01577048,0.01341753,-0.00324101,0.
 00185854,0.00028083,0.00075446,-0.00127407,0.00167041,-0.00008753,-0.0
 0009469,-0.00046755,0.00009745,0.00013103,-0.00007480,-0.00004818,-0.0
 0006432,0.00014479,0.00132155,-0.00275719,-0.00103403,-0.00043081,0.00
 148982,0.00145505,0.00427432,-0.00238216,0.00731768,-0.00135515,0.0005
 3288,-0.00152153,0.00024498,-0.00023661,0.00156360,0.00015143,-0.00018
 139,-0.00066375,0.00035577,-0.00033654,-0.00033075,-0.00057269,0.00034
 797,0.00025592,0.00055948,-0.00047017,-0.00026328,-0.00032833,0.001194
 09,-0.00055232,0.00039593,-0.00041713,0.00009742,-0.00006970,0.0000816
 4,0.00000087,-0.00000071,-0.00000758,0.00002521,-0.00002695,0.00000529
 ,-0.00000875,0.00001041,-0.00002973,0.00003580,0.00015611,0.00001175,-
 0.00007141,-0.00027665,0.00078555,-0.00010443,-0.00227769,0.00135223,-
 0.00295251,0.18723682,-0.25227136,-0.16503417,-0.00000648,-0.00003189,
 -0.00002309,0.00001540,-0.00002306,-0.00002404,0.00001675,-0.00000623,
 -0.00001020,0.00000058,-0.00002681,-0.00001524,-0.00000605,-0.00001162
 ,-0.00000428,0.00002491,-0.00002366,-0.00001275,0.00000254,0.00000526,
 0.00000164,-0.00007936,0.00005227,-0.00000319,-0.00003137,0.00004967,0
 .00002070,0.00003582,0.00004624,0.00002310,0.00041145,0.00032284,-0.00
 000493,-0.00023736,-0.00039808,0.00045148,0.00027235,0.00004893,0.0000
 2577,0.00092154,-0.00020808,-0.00012487,-0.00186803,-0.00063518,0.0015
 5549,0.00003919,-0.00022326,-0.00031461,0.00000379,-0.00004194,-0.0000
 2884,-0.00004029,-0.00004510,-0.00000071,-0.00000699,0.00000057,0.0000
 6722,0.00003541,0.00000425,-0.00001348,-0.00010607,-0.00003717,0.00002
 508,-0.00086470,0.00059911,-0.00068702,0.00004195,-0.00014225,0.000012
 13,0.00001168,0.00005172,-0.00008183,0.00002621,0.00001250,0.00004217,
 0.00007291,-0.00001683,-0.00012843,-0.00000449,-0.00000604,-0.00005460
 ,-0.00025505,0.00073537,-0.00001156,-0.00003120,0.00001628,-0.00000429
 ,-0.00002970,0.00004693,0.00000116,0.00001478,0.00004167,-0.00004803,0
 .00001216,-0.00002130,-0.00000114,0.00000254,-0.00001621,0.00005101,0.
 00000436,0.00001843,-0.00002463,0.00001184,0.00001219,-0.00001579,-0.0
 0001531,-0.00001234,0.00000751,0.00001658,0.00001210,-0.00002131,-0.00
 001369,0.00000142,0.00000870,-0.00006110,0.00006744,0.00007732,-0.0002
 5846,0.00000255,-0.00000183,-0.00017667,-0.00010440,0.00018614,0.00000
 891,-0.00014932,-0.00021119,-0.00049281,0.00155032,-0.00247595,-0.1670
 0958,0.23765721,-0.00011490,-0.00023493,0.00004667,0.00035656,0.000351
 36,-0.00004517,-0.00006822,0.00008883,0.00003510,0.00008103,0.00001618
 ,0.00003674,-0.00003432,0.00005116,0.00005095,0.00012572,0.00008622,-0
 .00002412,-0.00003406,0.00003862,0.00003047,0.00001749,-0.00006299,-0.
 00004255,0.00001102,-0.00007249,-0.00007553,-0.00008019,-0.00004341,-0
 .00009119,-0.00019721,-0.00021668,-0.00001924,-0.00055551,-0.00035914,
 0.00018503,0.00090649,-0.00054674,0.00009293,0.00037139,0.00307351,-0.
 00355810,-0.00140502,-0.00047958,0.00080064,0.02279423,-0.01962111,-0.
 02397739,0.00178587,-0.00042493,-0.00402478,-0.00072235,-0.00010986,0.
 00129530,0.00041100,-0.00030454,-0.00006559,0.00007714,0.00006256,-0.0
 0014412,-0.00016037,0.00001098,0.00014291,-0.00003517,-0.00178743,0.00
 127923,-0.00012846,0.00271474,0.00028781,0.00154189,0.00086644,0.00306
 709,-0.00064666,0.00048895,-0.00067624,0.00000190,0.00023561,0.0008480
 6,0.00015377,-0.00057586,-0.00039252,0.00003849,0.00021624,-0.00021002
 ,-0.00010365,0.00009021,0.00002342,0.00010628,-0.00031091,0.00003535,-
 0.00009905,0.00016309,-0.00024275,0.00006970,-0.00003598,0.00001919,-0
 .00001625,0.00002277,0.00000872,-0.00000073,0.00001204,0.00000401,-0.0
 0000600,-0.00000504,0.00000689,-0.00000102,0.00004441,-0.00002755,-0.0
 0001348,-0.00010505,-0.00002151,-0.00002274,-0.00004527,-0.00036226,-0
 .00139743,0.00107029,-0.00827137,0.12751456,-0.12599903,-0.14245223,-0
 .00004704,-0.00002324,0.00000918,0.00001760,-0.00000943,0.00000638,0.0
 0000653,-0.00000577,-0.00000904,-0.00000382,-0.00001756,-0.00000761,-0
 .00001196,-0.00000393,0.00000324,0.00000081,-0.00001433,-0.00000171,0.
 00000144,0.00000697,-0.00000818,-0.00000290,0.00002727,0.00002691,-0.0
 0000558,0.00002526,0.00003401,0.00003055,0.00001922,0.00004089,0.00033
 874,0.00023133,0.00002415,-0.00002598,0.00009919,-0.00017912,-0.000249
 09,0.00006333,0.00002333,0.00152354,0.00045764,0.00058051,-0.00028862,
 -0.00034023,0.00227722,0.00007480,-0.00008051,-0.00002912,-0.00004489,
 0.00001411,-0.00001890,-0.00001225,-0.00000404,0.00001123,-0.00000194,
 0.00000421,0.00000075,0.00000440,0.00000108,-0.00002548,-0.00004575,-0
 .00005748,-0.00012951,-0.00033633,0.00018822,-0.00017459,0.00003746,-0
 .00006848,-0.00000882,0.00001348,0.00000969,-0.00004404,0.00002932,-0.
 00002584,0.00005160,0.00000616,-0.00004973,-0.00000457,-0.00003805,-0.
 00000474,-0.00009373,-0.00005444,0.00039478,-0.00014447,-0.00001254,0.
 00000583,0.00000167,0.00000087,-0.00000101,-0.00000733,0.00000839,0.00
 000417,-0.00001204,-0.00000204,-0.00000418,-0.00000112,-0.00000308,-0.
 00000211,0.00000714,0.00000191,0.00000110,-0.00000620,0.00000469,-0.00
 000480,-0.00000229,-0.00000279,-0.00000014,-0.00000130,0.00000461,-0.0
 0000297,-0.00000163,-0.00000458,0.00000285,-0.00000078,0.00006174,0.00
 017564,0.00003787,-0.00000391,0.00002181,0.00001608,-0.00001584,0.0000
 3074,0.00004520,0.00004744,-0.00005721,-0.00001148,0.00033400,-0.00304
 395,-0.00003737,-0.15185680,0.14367400,0.17419078\\0.00000261,-0.00000
 384,0.00000132,-0.00000976,0.00000019,-0.00000078,0.00000587,0.0000027
 1,0.00001142,0.00000508,-0.00000652,0.00001094,0.00000743,0.00000045,0
 .00000095,-0.00001028,-0.00000381,0.00000369,-0.00000078,0.00000176,-0
 .00000241,0.00000202,0.00000496,-0.00000635,-0.00000328,-0.00000558,-0
 .00000396,-0.00000803,0.00000372,-0.00000474,0.00000560,0.00000042,-0.
 00000736,0.00000193,0.00000756,-0.00000696,0.00000836,-0.00000009,0.00
 000441,-0.00000133,-0.00000592,0.00000899,-0.00000969,0.00000701,-0.00
 000304,0.00000746,0.00000427,0.00000956,-0.00000643,0.00000084,-0.0000
 0855,-0.00000061,-0.00000389,0.00000551,-0.00001190,0.00000355,0.00000
 355,0.00001673,-0.00000769,0.00000133,-0.00001172,0.00000002,0.0000035
 9,0.00000303,0.00000737,-0.00000192,0.00000715,-0.00001395,0.00000236,
 -0.00000617,0.00000267,0.00000765,0.00000308,0.00000935,0.00000105,-0.
 00000324,-0.00001490,-0.00001068,-0.00000551,-0.00000439,0.00000501,-0
 .00001353,0.00001350,0.00000653,0.00001314,-0.00000346,-0.00000443,-0.
 00000773,0.00000723,-0.00000413,-0.00000035,0.00001623,-0.00000394,0.0
 0000754,-0.00001029,0.00000021,0.00000325,0.00000785,-0.00000526,0.000
 00403,-0.00000282,0.00000028,0.00000215,0.00000154,0.00000058,-0.00000
 550,-0.00000290,-0.00000277,-0.00000644,0.00001509,-0.00000443,0.00000
 199,-0.00000641,0.00000216,-0.00000264,-0.00000058,-0.00001022,-0.0000
 0116,-0.00000179,0.00000061,0.00000290,-0.00000346,0.00000061,-0.00000
 205,-0.00000030,-0.00000044,-0.00000157,-0.00000142,-0.00000125,0.0000
 0028,-0.00000014,0.00000347,0.00000158,-0.00000192,0.00000112,0.000000
 23,-0.00000033,-0.00000028,0.00000107,-0.00000522,-0.00000294,-0.00000
 241,-0.00000030,0.00000996,0.00000228,0.00000119,-0.00000344,0.0000008
 6,-0.00000247,-0.00000093,-0.00000556,0.00000133,0.00000529,-0.0000006
 9,-0.00000065,0.00000056,-0.00000138,0.00000063,0.00000312,0.00000118,
 -0.00000323,-0.00000056,0.00000044,-0.00000022,0.00000104,-0.00000019,
 0.00000104,0.00000186,-0.00000064,-0.00000138,-0.00000112,-0.00000287,
 0.00000275,-0.00000111,-0.00000272,0.00000087,-0.00000072,0.00000242,-
 0.00000014,-0.00000041,0.00000274,0.00000148,-0.00000034,-0.00000100,0
 .00000042,0.00000022,0.00000130,-0.00000171,-0.00000093,0.00000012,0.0
 0000113,-0.00000115,0.00000093,-0.00000041,-0.00000013,-0.00000042,0.0
 0000185,0.00000036,-0.00000157,-0.00000066,-0.00000045,0.00000822,-0.0
 0000725,-0.00000033,-0.00000305,0.00000054,-0.00000118,-0.00000036,0.0
 0000052,-0.00000020,0.00000130,-0.00000046,-0.00000430,0.00000153,-0.0
 0000092,-0.00000007,-0.00000010,0.00000214,-0.00000264,-0.00000047,0.0
 0000061,-0.00000215,-0.00000047,-0.00000248,-0.00000299,0.00000202,-0.
 00000056,-0.00000003,0.00000128,-0.00000153,-0.00000075,0.00000041,0.0
 0000012,-0.00000194,0.00000420,-0.00000464,-0.00000201,0.00001138,-0.0
 0000944,0.00000805,0.00000149,0.00000076,-0.00000033,-0.00000162,0.000
 00740,-0.00000479,-0.00000160,0.00000370,0.00000092,-0.00000185,0.0000
 0330,0.00000352\\\@


 THE MORE PROGRESS PHYSICAL SCIENCES MAKE, THE MORE THEY TEND TO ENTER
 THE DOMAIN OF MATHEMATICS, WHICH IS A KIND OF CENTRE TO WHICH THEY ALL
 CONVERGE.  WE MAY EVEN JUDGE THE DEGREE OF PERFECTION TO WHICH A 
 SCIENCE HAS ARRIVED BY THE FACILITY WITH WHICH IT MAY BE SUBMITTED
 TO CALCULATION.

                               -- ADOLPHE QUETELET, 1796-1874
 Job cpu time:      19 days 10 hours 15 minutes 33.6 seconds.
 File lengths (MBytes):  RWF=  24169 Int=      0 D2E=      0 Chk=     97 Scr=      1
 Normal termination of Gaussian 09 at Sat Mar 26 10:00:35 2016.
