 Entering Gaussian System, Link 0=g09
 Initial command:
 /share/apps//g09/l1.exe "/scratch/Gau-46543.inp" -scrdir="/scratch/"
 Entering Link 1 = /share/apps//g09/l1.exe PID=     46544.
  
 Copyright (c) 1988,1990,1992,1993,1995,1998,2003,2009,2013,
            Gaussian, Inc.  All Rights Reserved.
  
 This is part of the Gaussian(R) 09 program.  It is based on
 the Gaussian(R) 03 system (copyright 2003, Gaussian, Inc.),
 the Gaussian(R) 98 system (copyright 1998, Gaussian, Inc.),
 the Gaussian(R) 94 system (copyright 1995, Gaussian, Inc.),
 the Gaussian 92(TM) system (copyright 1992, Gaussian, Inc.),
 the Gaussian 90(TM) system (copyright 1990, Gaussian, Inc.),
 the Gaussian 88(TM) system (copyright 1988, Gaussian, Inc.),
 the Gaussian 86(TM) system (copyright 1986, Carnegie Mellon
 University), and the Gaussian 82(TM) system (copyright 1983,
 Carnegie Mellon University). Gaussian is a federally registered
 trademark of Gaussian, Inc.
  
 This software contains proprietary and confidential information,
 including trade secrets, belonging to Gaussian, Inc.
  
 This software is provided under written license and may be
 used, copied, transmitted, or stored only in accord with that
 written license.
  
 The following legend is applicable only to US Government
 contracts under FAR:
  
                    RESTRICTED RIGHTS LEGEND
  
 Use, reproduction and disclosure by the US Government is
 subject to restrictions as set forth in subparagraphs (a)
 and (c) of the Commercial Computer Software - Restricted
 Rights clause in FAR 52.227-19.
  
 Gaussian, Inc.
 340 Quinnipiac St., Bldg. 40, Wallingford CT 06492
  
  
 ---------------------------------------------------------------
 Warning -- This program may not be used in any manner that
 competes with the business of Gaussian, Inc. or will provide
 assistance to any competitor of Gaussian, Inc.  The licensee
 of this program is prohibited from giving any competitor of
 Gaussian, Inc. access to this program.  By using this program,
 the user acknowledges that Gaussian, Inc. is engaged in the
 business of creating and licensing software in the field of
 computational chemistry and represents and warrants to the
 licensee that it is not a competitor of Gaussian, Inc. and that
 it will not use this program in any manner prohibited above.
 ---------------------------------------------------------------
  

 Cite this work as:
 Gaussian 09, Revision D.01,
 M. J. Frisch, G. W. Trucks, H. B. Schlegel, G. E. Scuseria, 
 M. A. Robb, J. R. Cheeseman, G. Scalmani, V. Barone, B. Mennucci, 
 G. A. Petersson, H. Nakatsuji, M. Caricato, X. Li, H. P. Hratchian, 
 A. F. Izmaylov, J. Bloino, G. Zheng, J. L. Sonnenberg, M. Hada, 
 M. Ehara, K. Toyota, R. Fukuda, J. Hasegawa, M. Ishida, T. Nakajima, 
 Y. Honda, O. Kitao, H. Nakai, T. Vreven, J. A. Montgomery, Jr., 
 J. E. Peralta, F. Ogliaro, M. Bearpark, J. J. Heyd, E. Brothers, 
 K. N. Kudin, V. N. Staroverov, T. Keith, R. Kobayashi, J. Normand, 
 K. Raghavachari, A. Rendell, J. C. Burant, S. S. Iyengar, J. Tomasi, 
 M. Cossi, N. Rega, J. M. Millam, M. Klene, J. E. Knox, J. B. Cross, 
 V. Bakken, C. Adamo, J. Jaramillo, R. Gomperts, R. E. Stratmann, 
 O. Yazyev, A. J. Austin, R. Cammi, C. Pomelli, J. W. Ochterski, 
 R. L. Martin, K. Morokuma, V. G. Zakrzewski, G. A. Voth, 
 P. Salvador, J. J. Dannenberg, S. Dapprich, A. D. Daniels, 
 O. Farkas, J. B. Foresman, J. V. Ortiz, J. Cioslowski, 
 and D. J. Fox, Gaussian, Inc., Wallingford CT, 2013.
 
 ******************************************
 Gaussian 09:  EM64L-G09RevD.01 24-Apr-2013
                 7-Apr-2016 
 ******************************************
 %nproc=20
 Will use up to   20 processors via shared memory.
 %mem=80GB
 %chk=Tri_A131_of.chk
 ----------------------------------------------------------------------
 #P PBE1PBE/6-311+G(d,p) opt=ModRedundant freq optcyc=999 EmpiricalDisp
 ersion=GD3
 ----------------------------------------------------------------------
 1/6=999,14=-1,18=120,19=15,26=3,38=1/1,3;
 2/9=110,12=2,17=6,18=5,40=1/2;
 3/5=4,6=6,7=111,11=2,16=1,25=1,30=1,71=1,74=-13,124=31/1,2,3;
 4//1;
 5/5=2,38=5/2;
 6/7=2,8=2,9=2,10=2,28=1/1;
 7//1,2,3,16;
 1/6=999,14=-1,18=20,19=15,26=3/3(2);
 2/9=110/2;
 99//99;
 2/9=110/2;
 3/5=4,6=6,7=111,11=2,16=1,25=1,30=1,71=1,74=-13,124=31/1,2,3;
 4/5=5,16=3,69=1/1;
 5/5=2,38=5/2;
 7//1,2,3,16;
 1/6=999,14=-1,18=20,19=15,26=3/3(-5);
 2/9=110/2;
 6/7=2,8=2,9=2,10=2,19=2,28=1/1;
 99/9=1/99;
 Leave Link    1 at Thu Apr  7 19:07:32 2016, MaxMem= 10737418240 cpu:         1.7
 (Enter /share/apps//g09/l101.exe)
 -------
 disacch
 -------
 Symbolic Z-matrix:
 Charge =  1 Multiplicity = 1
 O                    -2.8789   -2.67591   2.63203 
 C                    -2.77359  -3.68305   3.60964 
 C                    -2.89392  -5.0586    2.95079 
 C                    -1.81562  -5.25196   1.8826 
 C                    -1.91535  -4.13919   0.83601 
 C                    -1.94683  -2.76006   1.52386 
 H                    -3.61856  -3.49856   4.29382 
 H                    -3.88704  -5.08624   2.4721 
 H                    -0.82343  -5.21896   2.36096 
 H                    -1.02118  -4.16758   0.19128 
 H                    -0.9241   -2.54692   1.88684 
 O                    -3.08846  -4.4272    0.06706 
 O                    -1.94604  -6.55228   1.31291 
 O                    -2.8152   -6.12109   3.9233 
 O                    -1.53872  -3.65023   4.33517 
 C                    -2.39993  -1.64919   0.57059 
 H                    -3.50056  -1.68836   0.5025 
 H                    -2.10869  -0.66862   0.98002 
 O                    -1.78297  -1.89662  -0.69905 
 H                    -1.90385  -1.1134   -1.26056 
 H                    -3.01051  -3.92155  -0.76344 
 H                    -2.57843  -6.45071   0.56969 
 H                    -2.72737  -6.93303   3.37958 
 O                    -0.23374  -1.02459   7.32583 
 C                     0.65501  -1.29066   6.24586 
 C                     0.19819  -2.51747   5.43967 
 C                    -1.26942  -2.41961   5.0471 
 C                    -2.13843  -2.22233   6.2944 
 C                    -1.63746  -0.97844   7.05695 
 H                     0.74099  -0.41843   5.57072 
 H                     0.32571  -3.40864   6.07785 
 H                    -1.42826  -1.56543   4.36522 
 H                    -3.18421  -2.02082   5.9957 
 H                    -1.88981  -0.08274   6.45357 
 O                    -2.10122  -3.40064   7.11454 
 O                     1.05484  -2.61097   4.29816 
 O                     1.93905  -1.44322   6.79156 
 C                    -2.29136  -0.84455   8.4394 
 H                    -1.9092    0.0607    8.93498 
 H                    -3.38123  -0.74347   8.33043 
 O                    -2.04335  -2.00328   9.24994 
 H                    -1.10972  -1.93919   9.62133 
 H                    -2.07878  -3.06716   8.07647 
 H                     0.68186  -3.3159    3.73738 
 O                     3.34856  -2.64581   9.95751 
 C                     3.12409  -4.01557   9.84085 
 C                     3.34977  -4.56553   8.41464 
 C                     3.12393  -3.48712   7.34735 
 C                     2.08693  -2.46143   7.81442 
 C                     2.58013  -1.75965   9.09457 
 H                     3.84118  -4.49081   10.52844 
 H                     2.60401  -5.36104   8.22903 
 H                     4.08113  -2.95709   7.1859 
 H                     3.29552  -0.98093   8.78224 
 H                     1.11772  -2.9488    8.00111 
 O                     2.72594  -4.17331   6.15465 
 O                     4.66744  -5.10571   8.38536 
 O                     1.76513  -4.30149   10.26659 
 C                     1.48926  -1.06989   9.91425 
 H                     1.96405  -0.64136   10.81195 
 H                     1.05398  -0.25619   9.32053 
 O                     0.40877  -1.93237   10.30286 
 H                     0.80087  -2.80629   10.54673 
 H                     2.6228   -3.51025   5.4401 
 H                     4.84402  -5.41575   7.47903 
 C                     1.55508  -5.61633   10.82408 
 H                     2.25549  -6.33397   10.36307 
 H                     1.76373  -5.58601   11.9067 
 C                     0.11522  -6.03099   10.55355 
 H                    -0.56018  -5.25785   10.95703 
 H                    -0.09257  -6.95063   11.12413 
 C                    -0.172    -6.25746   9.06385 
 H                     0.17491  -5.36588   8.51375 
 H                     0.43387  -7.10959   8.70542 
 C                    -1.65361  -6.51444   8.76655 
 H                    -2.02748  -7.33465   9.40028 
 H                    -2.25085  -5.62843   9.03762 
 C                    -1.95178  -6.90737   7.32088 
 H                    -3.03333  -6.9941    7.15455 
 H                    -1.49183  -7.87178   7.06263 
 N                    -1.45188  -5.89003   6.33433 
 H                    -1.86614  -6.02825   5.37607 
 H                    -0.42913  -5.91543   6.24951 
 H                    -1.71693  -4.8993    6.63013 
 
 The following ModRedundant input section has been read:
 B      35      84 B                                                           
 B      14      82 B                                                           
 B      42      62 B                                                           
 B      58      63 B                                                           
 B      36      64 B                                                           
 B      41      43 B                                                           
 
 NAtoms=     84 NQM=       84 NQMF=       0 NMMI=      0 NMMIF=      0
                NMic=       0 NMicF=      0.
                    Isotopes and Nuclear Properties:
 (Nuclear quadrupole moments (NQMom) in fm**2, nuclear magnetic moments (NMagM)
  in nuclear magnetons)

  Atom         1           2           3           4           5           6           7           8           9          10
 IAtWgt=          16          12          12          12          12          12           1           1           1           1
 AtmWgt=  15.9949146  12.0000000  12.0000000  12.0000000  12.0000000  12.0000000   1.0078250   1.0078250   1.0078250   1.0078250
 NucSpn=           0           0           0           0           0           0           1           1           1           1
 AtZEff=   0.0000000   0.0000000   0.0000000   0.0000000   0.0000000   0.0000000   0.0000000   0.0000000   0.0000000   0.0000000
 NQMom=    0.0000000   0.0000000   0.0000000   0.0000000   0.0000000   0.0000000   0.0000000   0.0000000   0.0000000   0.0000000
 NMagM=    0.0000000   0.0000000   0.0000000   0.0000000   0.0000000   0.0000000   2.7928460   2.7928460   2.7928460   2.7928460
 AtZNuc=   8.0000000   6.0000000   6.0000000   6.0000000   6.0000000   6.0000000   1.0000000   1.0000000   1.0000000   1.0000000

  Atom        11          12          13          14          15          16          17          18          19          20
 IAtWgt=           1          16          16          16          16          12           1           1          16           1
 AtmWgt=   1.0078250  15.9949146  15.9949146  15.9949146  15.9949146  12.0000000   1.0078250   1.0078250  15.9949146   1.0078250
 NucSpn=           1           0           0           0           0           0           1           1           0           1
 AtZEff=   0.0000000   0.0000000   0.0000000   0.0000000   0.0000000   0.0000000   0.0000000   0.0000000   0.0000000   0.0000000
 NQMom=    0.0000000   0.0000000   0.0000000   0.0000000   0.0000000   0.0000000   0.0000000   0.0000000   0.0000000   0.0000000
 NMagM=    2.7928460   0.0000000   0.0000000   0.0000000   0.0000000   0.0000000   2.7928460   2.7928460   0.0000000   2.7928460
 AtZNuc=   1.0000000   8.0000000   8.0000000   8.0000000   8.0000000   6.0000000   1.0000000   1.0000000   8.0000000   1.0000000

  Atom        21          22          23          24          25          26          27          28          29          30
 IAtWgt=           1           1           1          16          12          12          12          12          12           1
 AtmWgt=   1.0078250   1.0078250   1.0078250  15.9949146  12.0000000  12.0000000  12.0000000  12.0000000  12.0000000   1.0078250
 NucSpn=           1           1           1           0           0           0           0           0           0           1
 AtZEff=   0.0000000   0.0000000   0.0000000   0.0000000   0.0000000   0.0000000   0.0000000   0.0000000   0.0000000   0.0000000
 NQMom=    0.0000000   0.0000000   0.0000000   0.0000000   0.0000000   0.0000000   0.0000000   0.0000000   0.0000000   0.0000000
 NMagM=    2.7928460   2.7928460   2.7928460   0.0000000   0.0000000   0.0000000   0.0000000   0.0000000   0.0000000   2.7928460
 AtZNuc=   1.0000000   1.0000000   1.0000000   8.0000000   6.0000000   6.0000000   6.0000000   6.0000000   6.0000000   1.0000000

  Atom        31          32          33          34          35          36          37          38          39          40
 IAtWgt=           1           1           1           1          16          16          16          12           1           1
 AtmWgt=   1.0078250   1.0078250   1.0078250   1.0078250  15.9949146  15.9949146  15.9949146  12.0000000   1.0078250   1.0078250
 NucSpn=           1           1           1           1           0           0           0           0           1           1
 AtZEff=   0.0000000   0.0000000   0.0000000   0.0000000   0.0000000   0.0000000   0.0000000   0.0000000   0.0000000   0.0000000
 NQMom=    0.0000000   0.0000000   0.0000000   0.0000000   0.0000000   0.0000000   0.0000000   0.0000000   0.0000000   0.0000000
 NMagM=    2.7928460   2.7928460   2.7928460   2.7928460   0.0000000   0.0000000   0.0000000   0.0000000   2.7928460   2.7928460
 AtZNuc=   1.0000000   1.0000000   1.0000000   1.0000000   8.0000000   8.0000000   8.0000000   6.0000000   1.0000000   1.0000000

  Atom        41          42          43          44          45          46          47          48          49          50
 IAtWgt=          16           1           1           1          16          12          12          12          12          12
 AtmWgt=  15.9949146   1.0078250   1.0078250   1.0078250  15.9949146  12.0000000  12.0000000  12.0000000  12.0000000  12.0000000
 NucSpn=           0           1           1           1           0           0           0           0           0           0
 AtZEff=   0.0000000   0.0000000   0.0000000   0.0000000   0.0000000   0.0000000   0.0000000   0.0000000   0.0000000   0.0000000
 NQMom=    0.0000000   0.0000000   0.0000000   0.0000000   0.0000000   0.0000000   0.0000000   0.0000000   0.0000000   0.0000000
 NMagM=    0.0000000   2.7928460   2.7928460   2.7928460   0.0000000   0.0000000   0.0000000   0.0000000   0.0000000   0.0000000
 AtZNuc=   8.0000000   1.0000000   1.0000000   1.0000000   8.0000000   6.0000000   6.0000000   6.0000000   6.0000000   6.0000000

  Atom        51          52          53          54          55          56          57          58          59          60
 IAtWgt=           1           1           1           1           1          16          16          16          12           1
 AtmWgt=   1.0078250   1.0078250   1.0078250   1.0078250   1.0078250  15.9949146  15.9949146  15.9949146  12.0000000   1.0078250
 NucSpn=           1           1           1           1           1           0           0           0           0           1
 AtZEff=   0.0000000   0.0000000   0.0000000   0.0000000   0.0000000   0.0000000   0.0000000   0.0000000   0.0000000   0.0000000
 NQMom=    0.0000000   0.0000000   0.0000000   0.0000000   0.0000000   0.0000000   0.0000000   0.0000000   0.0000000   0.0000000
 NMagM=    2.7928460   2.7928460   2.7928460   2.7928460   2.7928460   0.0000000   0.0000000   0.0000000   0.0000000   2.7928460
 AtZNuc=   1.0000000   1.0000000   1.0000000   1.0000000   1.0000000   8.0000000   8.0000000   8.0000000   6.0000000   1.0000000

  Atom        61          62          63          64          65          66          67          68          69          70
 IAtWgt=           1          16           1           1           1          12           1           1          12           1
 AtmWgt=   1.0078250  15.9949146   1.0078250   1.0078250   1.0078250  12.0000000   1.0078250   1.0078250  12.0000000   1.0078250
 NucSpn=           1           0           1           1           1           0           1           1           0           1
 AtZEff=   0.0000000   0.0000000   0.0000000   0.0000000   0.0000000   0.0000000   0.0000000   0.0000000   0.0000000   0.0000000
 NQMom=    0.0000000   0.0000000   0.0000000   0.0000000   0.0000000   0.0000000   0.0000000   0.0000000   0.0000000   0.0000000
 NMagM=    2.7928460   0.0000000   2.7928460   2.7928460   2.7928460   0.0000000   2.7928460   2.7928460   0.0000000   2.7928460
 AtZNuc=   1.0000000   8.0000000   1.0000000   1.0000000   1.0000000   6.0000000   1.0000000   1.0000000   6.0000000   1.0000000

  Atom        71          72          73          74          75          76          77          78          79          80
 IAtWgt=           1          12           1           1          12           1           1          12           1           1
 AtmWgt=   1.0078250  12.0000000   1.0078250   1.0078250  12.0000000   1.0078250   1.0078250  12.0000000   1.0078250   1.0078250
 NucSpn=           1           0           1           1           0           1           1           0           1           1
 AtZEff=   0.0000000   0.0000000   0.0000000   0.0000000   0.0000000   0.0000000   0.0000000   0.0000000   0.0000000   0.0000000
 NQMom=    0.0000000   0.0000000   0.0000000   0.0000000   0.0000000   0.0000000   0.0000000   0.0000000   0.0000000   0.0000000
 NMagM=    2.7928460   0.0000000   2.7928460   2.7928460   0.0000000   2.7928460   2.7928460   0.0000000   2.7928460   2.7928460
 AtZNuc=   1.0000000   6.0000000   1.0000000   1.0000000   6.0000000   1.0000000   1.0000000   6.0000000   1.0000000   1.0000000

  Atom        81          82          83          84
 IAtWgt=          14           1           1           1
 AtmWgt=  14.0030740   1.0078250   1.0078250   1.0078250
 NucSpn=           2           1           1           1
 AtZEff=   0.0000000   0.0000000   0.0000000   0.0000000
 NQMom=    2.0440000   0.0000000   0.0000000   0.0000000
 NMagM=    0.4037610   2.7928460   2.7928460   2.7928460
 AtZNuc=   7.0000000   1.0000000   1.0000000   1.0000000
 Leave Link  101 at Thu Apr  7 19:07:33 2016, MaxMem= 10737418240 cpu:         5.2
 (Enter /share/apps//g09/l103.exe)

 GradGradGradGradGradGradGradGradGradGradGradGradGradGradGradGradGradGrad
 Berny optimization.
 Initialization pass.
                           ----------------------------
                           !    Initial Parameters    !
                           ! (Angstroms and Degrees)  !
 --------------------------                            --------------------------
 ! Name  Definition              Value          Derivative Info.                !
 --------------------------------------------------------------------------------
 ! R1    R(1,2)                  1.4075         estimate D2E/DX2                !
 ! R2    R(1,6)                  1.4505         estimate D2E/DX2                !
 ! R3    R(2,3)                  1.5299         estimate D2E/DX2                !
 ! R4    R(2,7)                  1.1028         estimate D2E/DX2                !
 ! R5    R(2,15)                 1.4326         estimate D2E/DX2                !
 ! R6    R(3,4)                  1.5301         estimate D2E/DX2                !
 ! R7    R(3,8)                  1.1028         estimate D2E/DX2                !
 ! R8    R(3,14)                 1.4425         estimate D2E/DX2                !
 ! R9    R(4,5)                  1.5309         estimate D2E/DX2                !
 ! R10   R(4,9)                  1.102          estimate D2E/DX2                !
 ! R11   R(4,13)                 1.4256         estimate D2E/DX2                !
 ! R12   R(5,6)                  1.5415         estimate D2E/DX2                !
 ! R13   R(5,10)                 1.1027         estimate D2E/DX2                !
 ! R14   R(5,12)                 1.4319         estimate D2E/DX2                !
 ! R15   R(6,11)                 1.106          estimate D2E/DX2                !
 ! R16   R(6,16)                 1.5323         estimate D2E/DX2                !
 ! R17   R(12,21)                0.9754         estimate D2E/DX2                !
 ! R18   R(13,22)                0.9811         estimate D2E/DX2                !
 ! R19   R(14,23)                0.9811         estimate D2E/DX2                !
 ! R20   R(14,82)                1.7378         estimate D2E/DX2                !
 ! R21   R(15,27)                1.447          estimate D2E/DX2                !
 ! R22   R(16,17)                1.1034         estimate D2E/DX2                !
 ! R23   R(16,18)                1.1018         estimate D2E/DX2                !
 ! R24   R(16,19)                1.4331         estimate D2E/DX2                !
 ! R25   R(19,20)                0.9713         estimate D2E/DX2                !
 ! R26   R(24,25)                1.4237         estimate D2E/DX2                !
 ! R27   R(24,29)                1.43           estimate D2E/DX2                !
 ! R28   R(25,26)                1.5374         estimate D2E/DX2                !
 ! R29   R(25,30)                1.1063         estimate D2E/DX2                !
 ! R30   R(25,37)                1.4035         estimate D2E/DX2                !
 ! R31   R(26,27)                1.5224         estimate D2E/DX2                !
 ! R32   R(26,31)                1.1035         estimate D2E/DX2                !
 ! R33   R(26,36)                1.4303         estimate D2E/DX2                !
 ! R34   R(27,28)                1.5329         estimate D2E/DX2                !
 ! R35   R(27,32)                1.1045         estimate D2E/DX2                !
 ! R36   R(28,29)                1.5426         estimate D2E/DX2                !
 ! R37   R(28,33)                1.1061         estimate D2E/DX2                !
 ! R38   R(28,35)                1.4361         estimate D2E/DX2                !
 ! R39   R(29,34)                1.1091         estimate D2E/DX2                !
 ! R40   R(29,38)                1.5351         estimate D2E/DX2                !
 ! R41   R(35,43)                1.0183         estimate D2E/DX2                !
 ! R42   R(35,84)                1.6212         estimate D2E/DX2                !
 ! R43   R(36,44)                0.9749         estimate D2E/DX2                !
 ! R44   R(36,64)                2.138          estimate D2E/DX2                !
 ! R45   R(37,49)                1.4508         estimate D2E/DX2                !
 ! R46   R(38,39)                1.1005         estimate D2E/DX2                !
 ! R47   R(38,40)                1.1            estimate D2E/DX2                !
 ! R48   R(38,41)                1.4357         estimate D2E/DX2                !
 ! R49   R(41,42)                1.0068         estimate D2E/DX2                !
 ! R50   R(41,43)                1.5843         estimate D2E/DX2                !
 ! R51   R(42,62)                1.6644         estimate D2E/DX2                !
 ! R52   R(45,46)                1.3929         estimate D2E/DX2                !
 ! R53   R(45,50)                1.4562         estimate D2E/DX2                !
 ! R54   R(46,47)                1.5451         estimate D2E/DX2                !
 ! R55   R(46,51)                1.1013         estimate D2E/DX2                !
 ! R56   R(46,58)                1.4525         estimate D2E/DX2                !
 ! R57   R(47,48)                1.534          estimate D2E/DX2                !
 ! R58   R(47,52)                1.1061         estimate D2E/DX2                !
 ! R59   R(47,57)                1.4244         estimate D2E/DX2                !
 ! R60   R(48,49)                1.5315         estimate D2E/DX2                !
 ! R61   R(48,53)                1.106          estimate D2E/DX2                !
 ! R62   R(48,56)                1.4324         estimate D2E/DX2                !
 ! R63   R(49,50)                1.5409         estimate D2E/DX2                !
 ! R64   R(49,55)                1.1008         estimate D2E/DX2                !
 ! R65   R(50,54)                1.1026         estimate D2E/DX2                !
 ! R66   R(50,59)                1.5289         estimate D2E/DX2                !
 ! R67   R(56,64)                0.9802         estimate D2E/DX2                !
 ! R68   R(57,65)                0.974          estimate D2E/DX2                !
 ! R69   R(58,63)                1.8011         estimate D2E/DX2                !
 ! R70   R(58,66)                1.4435         estimate D2E/DX2                !
 ! R71   R(59,60)                1.1022         estimate D2E/DX2                !
 ! R72   R(59,61)                1.0973         estimate D2E/DX2                !
 ! R73   R(59,62)                1.4361         estimate D2E/DX2                !
 ! R74   R(62,63)                0.9884         estimate D2E/DX2                !
 ! R75   R(66,67)                1.1037         estimate D2E/DX2                !
 ! R76   R(66,68)                1.103          estimate D2E/DX2                !
 ! R77   R(66,69)                1.5226         estimate D2E/DX2                !
 ! R78   R(69,70)                1.103          estimate D2E/DX2                !
 ! R79   R(69,71)                1.102          estimate D2E/DX2                !
 ! R80   R(69,72)                1.5339         estimate D2E/DX2                !
 ! R81   R(72,73)                1.1036         estimate D2E/DX2                !
 ! R82   R(72,74)                1.1053         estimate D2E/DX2                !
 ! R83   R(72,75)                1.5328         estimate D2E/DX2                !
 ! R84   R(75,76)                1.1019         estimate D2E/DX2                !
 ! R85   R(75,77)                1.1024         estimate D2E/DX2                !
 ! R86   R(75,78)                1.5275         estimate D2E/DX2                !
 ! R87   R(78,79)                1.0977         estimate D2E/DX2                !
 ! R88   R(78,80)                1.0992         estimate D2E/DX2                !
 ! R89   R(78,81)                1.5027         estimate D2E/DX2                !
 ! R90   R(81,82)                1.0531         estimate D2E/DX2                !
 ! R91   R(81,83)                1.0266         estimate D2E/DX2                !
 ! R92   R(81,84)                1.0674         estimate D2E/DX2                !
 ! A1    A(2,1,6)              116.1712         estimate D2E/DX2                !
 ! A2    A(1,2,3)              109.776          estimate D2E/DX2                !
 ! A3    A(1,2,7)              104.7072         estimate D2E/DX2                !
 ! A4    A(1,2,15)             113.5688         estimate D2E/DX2                !
 ! A5    A(3,2,7)              110.9361         estimate D2E/DX2                !
 ! A6    A(3,2,15)             107.8475         estimate D2E/DX2                !
 ! A7    A(7,2,15)             110.0247         estimate D2E/DX2                !
 ! A8    A(2,3,4)              111.0286         estimate D2E/DX2                !
 ! A9    A(2,3,8)              106.2773         estimate D2E/DX2                !
 ! A10   A(2,3,14)             111.5682         estimate D2E/DX2                !
 ! A11   A(4,3,8)              109.174          estimate D2E/DX2                !
 ! A12   A(4,3,14)             109.8234         estimate D2E/DX2                !
 ! A13   A(8,3,14)             108.8637         estimate D2E/DX2                !
 ! A14   A(3,4,5)              109.8471         estimate D2E/DX2                !
 ! A15   A(3,4,9)              109.1284         estimate D2E/DX2                !
 ! A16   A(3,4,13)             109.2549         estimate D2E/DX2                !
 ! A17   A(5,4,9)              109.491          estimate D2E/DX2                !
 ! A18   A(5,4,13)             112.5721         estimate D2E/DX2                !
 ! A19   A(9,4,13)             106.4483         estimate D2E/DX2                !
 ! A20   A(4,5,6)              110.2794         estimate D2E/DX2                !
 ! A21   A(4,5,10)             109.1579         estimate D2E/DX2                !
 ! A22   A(4,5,12)             105.92           estimate D2E/DX2                !
 ! A23   A(6,5,10)             107.4869         estimate D2E/DX2                !
 ! A24   A(6,5,12)             113.7563         estimate D2E/DX2                !
 ! A25   A(10,5,12)            110.1915         estimate D2E/DX2                !
 ! A26   A(1,6,5)              113.9507         estimate D2E/DX2                !
 ! A27   A(1,6,11)             109.4088         estimate D2E/DX2                !
 ! A28   A(1,6,16)             104.0767         estimate D2E/DX2                !
 ! A29   A(5,6,11)             107.4571         estimate D2E/DX2                !
 ! A30   A(5,6,16)             112.1505         estimate D2E/DX2                !
 ! A31   A(11,6,16)            109.7491         estimate D2E/DX2                !
 ! A32   A(5,12,21)            106.7069         estimate D2E/DX2                !
 ! A33   A(4,13,22)            105.5008         estimate D2E/DX2                !
 ! A34   A(3,14,23)            103.9346         estimate D2E/DX2                !
 ! A35   A(3,14,82)            123.6459         estimate D2E/DX2                !
 ! A36   A(23,14,82)           117.2978         estimate D2E/DX2                !
 ! A37   A(2,15,27)            115.4089         estimate D2E/DX2                !
 ! A38   A(6,16,17)            107.9144         estimate D2E/DX2                !
 ! A39   A(6,16,18)            109.6243         estimate D2E/DX2                !
 ! A40   A(6,16,19)            107.3781         estimate D2E/DX2                !
 ! A41   A(17,16,18)           108.553          estimate D2E/DX2                !
 ! A42   A(17,16,19)           111.6299         estimate D2E/DX2                !
 ! A43   A(18,16,19)           111.6582         estimate D2E/DX2                !
 ! A44   A(16,19,20)           108.625          estimate D2E/DX2                !
 ! A45   A(25,24,29)           118.436          estimate D2E/DX2                !
 ! A46   A(24,25,26)           111.1867         estimate D2E/DX2                !
 ! A47   A(24,25,30)           111.3509         estimate D2E/DX2                !
 ! A48   A(24,25,37)           107.2467         estimate D2E/DX2                !
 ! A49   A(26,25,30)           109.4024         estimate D2E/DX2                !
 ! A50   A(26,25,37)           112.8915         estimate D2E/DX2                !
 ! A51   A(30,25,37)           104.5881         estimate D2E/DX2                !
 ! A52   A(25,26,27)           111.7386         estimate D2E/DX2                !
 ! A53   A(25,26,31)           107.8681         estimate D2E/DX2                !
 ! A54   A(25,26,36)           107.0203         estimate D2E/DX2                !
 ! A55   A(27,26,31)           108.2069         estimate D2E/DX2                !
 ! A56   A(27,26,36)           112.0739         estimate D2E/DX2                !
 ! A57   A(31,26,36)           109.85           estimate D2E/DX2                !
 ! A58   A(15,27,26)           104.5735         estimate D2E/DX2                !
 ! A59   A(15,27,28)           113.8459         estimate D2E/DX2                !
 ! A60   A(15,27,32)           109.1002         estimate D2E/DX2                !
 ! A61   A(26,27,28)           110.1794         estimate D2E/DX2                !
 ! A62   A(26,27,32)           110.3387         estimate D2E/DX2                !
 ! A63   A(28,27,32)           108.7412         estimate D2E/DX2                !
 ! A64   A(27,28,29)           108.777          estimate D2E/DX2                !
 ! A65   A(27,28,33)           109.8582         estimate D2E/DX2                !
 ! A66   A(27,28,35)           110.1448         estimate D2E/DX2                !
 ! A67   A(29,28,33)           107.0752         estimate D2E/DX2                !
 ! A68   A(29,28,35)           111.77           estimate D2E/DX2                !
 ! A69   A(33,28,35)           109.1589         estimate D2E/DX2                !
 ! A70   A(24,29,28)           112.6877         estimate D2E/DX2                !
 ! A71   A(24,29,34)           110.5923         estimate D2E/DX2                !
 ! A72   A(24,29,38)           104.5732         estimate D2E/DX2                !
 ! A73   A(28,29,34)           107.9625         estimate D2E/DX2                !
 ! A74   A(28,29,38)           112.1571         estimate D2E/DX2                !
 ! A75   A(34,29,38)           108.8186         estimate D2E/DX2                !
 ! A76   A(28,35,43)           105.7435         estimate D2E/DX2                !
 ! A77   A(28,35,84)           126.4391         estimate D2E/DX2                !
 ! A78   A(43,35,84)           125.4322         estimate D2E/DX2                !
 ! A79   A(26,36,44)           106.0932         estimate D2E/DX2                !
 ! A80   A(26,36,64)            92.3191         estimate D2E/DX2                !
 ! A81   A(44,36,64)           106.4783         estimate D2E/DX2                !
 ! A82   A(25,37,49)           116.3378         estimate D2E/DX2                !
 ! A83   A(29,38,39)           109.2295         estimate D2E/DX2                !
 ! A84   A(29,38,40)           109.9285         estimate D2E/DX2                !
 ! A85   A(29,38,41)           111.3732         estimate D2E/DX2                !
 ! A86   A(39,38,40)           108.2458         estimate D2E/DX2                !
 ! A87   A(39,38,41)           110.4674         estimate D2E/DX2                !
 ! A88   A(40,38,41)           107.5335         estimate D2E/DX2                !
 ! A89   A(38,41,42)           108.4857         estimate D2E/DX2                !
 ! A90   A(38,41,43)            96.8888         estimate D2E/DX2                !
 ! A91   A(42,41,43)           109.6755         estimate D2E/DX2                !
 ! A92   A(35,43,41)           156.9303         estimate D2E/DX2                !
 ! A93   A(46,45,50)           117.6302         estimate D2E/DX2                !
 ! A94   A(45,46,47)           113.8145         estimate D2E/DX2                !
 ! A95   A(45,46,51)           105.4936         estimate D2E/DX2                !
 ! A96   A(45,46,58)           108.6506         estimate D2E/DX2                !
 ! A97   A(47,46,51)           109.1228         estimate D2E/DX2                !
 ! A98   A(47,46,58)           109.7024         estimate D2E/DX2                !
 ! A99   A(51,46,58)           109.9532         estimate D2E/DX2                !
 ! A100  A(46,47,48)           111.7456         estimate D2E/DX2                !
 ! A101  A(46,47,52)           108.2039         estimate D2E/DX2                !
 ! A102  A(46,47,57)           106.8022         estimate D2E/DX2                !
 ! A103  A(48,47,52)           106.8338         estimate D2E/DX2                !
 ! A104  A(48,47,57)           112.8612         estimate D2E/DX2                !
 ! A105  A(52,47,57)           110.3353         estimate D2E/DX2                !
 ! A106  A(47,48,49)           110.9971         estimate D2E/DX2                !
 ! A107  A(47,48,53)           108.1229         estimate D2E/DX2                !
 ! A108  A(47,48,56)           106.467          estimate D2E/DX2                !
 ! A109  A(49,48,53)           108.0337         estimate D2E/DX2                !
 ! A110  A(49,48,56)           112.745          estimate D2E/DX2                !
 ! A111  A(53,48,56)           110.3952         estimate D2E/DX2                !
 ! A112  A(37,49,48)           108.9066         estimate D2E/DX2                !
 ! A113  A(37,49,50)           107.3797         estimate D2E/DX2                !
 ! A114  A(37,49,55)           109.9104         estimate D2E/DX2                !
 ! A115  A(48,49,50)           109.9771         estimate D2E/DX2                !
 ! A116  A(48,49,55)           110.5713         estimate D2E/DX2                !
 ! A117  A(50,49,55)           110.032          estimate D2E/DX2                !
 ! A118  A(45,50,49)           112.5856         estimate D2E/DX2                !
 ! A119  A(45,50,54)           104.7899         estimate D2E/DX2                !
 ! A120  A(45,50,59)           109.4721         estimate D2E/DX2                !
 ! A121  A(49,50,54)           107.0965         estimate D2E/DX2                !
 ! A122  A(49,50,59)           114.9909         estimate D2E/DX2                !
 ! A123  A(54,50,59)           107.2274         estimate D2E/DX2                !
 ! A124  A(48,56,64)           108.1896         estimate D2E/DX2                !
 ! A125  A(47,57,65)           107.9113         estimate D2E/DX2                !
 ! A126  A(46,58,63)           112.5241         estimate D2E/DX2                !
 ! A127  A(46,58,66)           115.3813         estimate D2E/DX2                !
 ! A128  A(63,58,66)           128.1844         estimate D2E/DX2                !
 ! A129  A(50,59,60)           107.7394         estimate D2E/DX2                !
 ! A130  A(50,59,61)           109.1164         estimate D2E/DX2                !
 ! A131  A(50,59,62)           114.2642         estimate D2E/DX2                !
 ! A132  A(60,59,61)           108.8589         estimate D2E/DX2                !
 ! A133  A(60,59,62)           109.7061         estimate D2E/DX2                !
 ! A134  A(61,59,62)           107.0564         estimate D2E/DX2                !
 ! A135  A(42,62,59)           125.3149         estimate D2E/DX2                !
 ! A136  A(42,62,63)           117.3432         estimate D2E/DX2                !
 ! A137  A(59,62,63)           107.416          estimate D2E/DX2                !
 ! A138  A(58,63,62)           155.2325         estimate D2E/DX2                !
 ! A139  A(36,64,56)           138.6783         estimate D2E/DX2                !
 ! A140  A(58,66,67)           109.7917         estimate D2E/DX2                !
 ! A141  A(58,66,68)           109.0574         estimate D2E/DX2                !
 ! A142  A(58,66,69)           108.4844         estimate D2E/DX2                !
 ! A143  A(67,66,68)           107.928          estimate D2E/DX2                !
 ! A144  A(67,66,69)           110.4158         estimate D2E/DX2                !
 ! A145  A(68,66,69)           111.148          estimate D2E/DX2                !
 ! A146  A(66,69,70)           108.8538         estimate D2E/DX2                !
 ! A147  A(66,69,71)           108.2748         estimate D2E/DX2                !
 ! A148  A(66,69,72)           112.9436         estimate D2E/DX2                !
 ! A149  A(70,69,71)           106.2644         estimate D2E/DX2                !
 ! A150  A(70,69,72)           110.125          estimate D2E/DX2                !
 ! A151  A(71,69,72)           110.1396         estimate D2E/DX2                !
 ! A152  A(69,72,73)           107.8157         estimate D2E/DX2                !
 ! A153  A(69,72,74)           109.0332         estimate D2E/DX2                !
 ! A154  A(69,72,75)           113.2096         estimate D2E/DX2                !
 ! A155  A(73,72,74)           106.7919         estimate D2E/DX2                !
 ! A156  A(73,72,75)           110.036          estimate D2E/DX2                !
 ! A157  A(74,72,75)           109.736          estimate D2E/DX2                !
 ! A158  A(72,75,76)           109.9504         estimate D2E/DX2                !
 ! A159  A(72,75,77)           109.9523         estimate D2E/DX2                !
 ! A160  A(72,75,78)           114.5424         estimate D2E/DX2                !
 ! A161  A(76,75,77)           105.8446         estimate D2E/DX2                !
 ! A162  A(76,75,78)           106.6552         estimate D2E/DX2                !
 ! A163  A(77,75,78)           109.4949         estimate D2E/DX2                !
 ! A164  A(75,78,79)           110.8586         estimate D2E/DX2                !
 ! A165  A(75,78,80)           111.4911         estimate D2E/DX2                !
 ! A166  A(75,78,81)           112.4734         estimate D2E/DX2                !
 ! A167  A(79,78,80)           107.8997         estimate D2E/DX2                !
 ! A168  A(79,78,81)           106.3666         estimate D2E/DX2                !
 ! A169  A(80,78,81)           107.4893         estimate D2E/DX2                !
 ! A170  A(78,81,82)           112.1898         estimate D2E/DX2                !
 ! A171  A(78,81,83)           111.6489         estimate D2E/DX2                !
 ! A172  A(78,81,84)           111.3363         estimate D2E/DX2                !
 ! A173  A(82,81,83)           108.2691         estimate D2E/DX2                !
 ! A174  A(82,81,84)           106.0406         estimate D2E/DX2                !
 ! A175  A(83,81,84)           107.053          estimate D2E/DX2                !
 ! A176  L(41,42,62,9,-1)      180.791          estimate D2E/DX2                !
 ! A177  L(14,82,81,15,-1)     178.7008         estimate D2E/DX2                !
 ! A178  L(35,84,81,1,-1)      181.3566         estimate D2E/DX2                !
 ! A179  L(41,42,62,9,-2)      184.399          estimate D2E/DX2                !
 ! A180  L(14,82,81,15,-2)     169.1347         estimate D2E/DX2                !
 ! A181  L(35,84,81,1,-2)      179.5795         estimate D2E/DX2                !
 ! D1    D(6,1,2,3)            -55.3763         estimate D2E/DX2                !
 ! D2    D(6,1,2,7)           -174.5172         estimate D2E/DX2                !
 ! D3    D(6,1,2,15)            65.4332         estimate D2E/DX2                !
 ! D4    D(2,1,6,5)             51.4791         estimate D2E/DX2                !
 ! D5    D(2,1,6,11)           -68.8215         estimate D2E/DX2                !
 ! D6    D(2,1,6,16)           173.9398         estimate D2E/DX2                !
 ! D7    D(1,2,3,4)             58.1775         estimate D2E/DX2                !
 ! D8    D(1,2,3,8)            -60.4307         estimate D2E/DX2                !
 ! D9    D(1,2,3,14)          -178.9593         estimate D2E/DX2                !
 ! D10   D(7,2,3,4)            173.4181         estimate D2E/DX2                !
 ! D11   D(7,2,3,8)             54.8099         estimate D2E/DX2                !
 ! D12   D(7,2,3,14)           -63.7187         estimate D2E/DX2                !
 ! D13   D(15,2,3,4)           -66.0278         estimate D2E/DX2                !
 ! D14   D(15,2,3,8)           175.364          estimate D2E/DX2                !
 ! D15   D(15,2,3,14)           56.8353         estimate D2E/DX2                !
 ! D16   D(1,2,15,27)           59.1576         estimate D2E/DX2                !
 ! D17   D(3,2,15,27)         -178.9543         estimate D2E/DX2                !
 ! D18   D(7,2,15,27)          -57.8302         estimate D2E/DX2                !
 ! D19   D(2,3,4,5)            -57.1818         estimate D2E/DX2                !
 ! D20   D(2,3,4,9)             62.8612         estimate D2E/DX2                !
 ! D21   D(2,3,4,13)           178.8764         estimate D2E/DX2                !
 ! D22   D(8,3,4,5)             59.6646         estimate D2E/DX2                !
 ! D23   D(8,3,4,9)            179.7076         estimate D2E/DX2                !
 ! D24   D(8,3,4,13)           -64.2772         estimate D2E/DX2                !
 ! D25   D(14,3,4,5)           178.9539         estimate D2E/DX2                !
 ! D26   D(14,3,4,9)           -61.0031         estimate D2E/DX2                !
 ! D27   D(14,3,4,13)           55.0121         estimate D2E/DX2                !
 ! D28   D(2,3,14,23)         -169.3775         estimate D2E/DX2                !
 ! D29   D(2,3,14,82)          -32.2607         estimate D2E/DX2                !
 ! D30   D(4,3,14,23)          -45.8286         estimate D2E/DX2                !
 ! D31   D(4,3,14,82)           91.2883         estimate D2E/DX2                !
 ! D32   D(8,3,14,23)           73.6506         estimate D2E/DX2                !
 ! D33   D(8,3,14,82)         -149.2325         estimate D2E/DX2                !
 ! D34   D(3,4,5,6)             50.8824         estimate D2E/DX2                !
 ! D35   D(3,4,5,10)           168.7543         estimate D2E/DX2                !
 ! D36   D(3,4,5,12)           -72.6215         estimate D2E/DX2                !
 ! D37   D(9,4,5,6)            -68.94           estimate D2E/DX2                !
 ! D38   D(9,4,5,10)            48.932          estimate D2E/DX2                !
 ! D39   D(9,4,5,12)           167.5562         estimate D2E/DX2                !
 ! D40   D(13,4,5,6)           172.8692         estimate D2E/DX2                !
 ! D41   D(13,4,5,10)          -69.2589         estimate D2E/DX2                !
 ! D42   D(13,4,5,12)           49.3654         estimate D2E/DX2                !
 ! D43   D(3,4,13,22)           88.3237         estimate D2E/DX2                !
 ! D44   D(5,4,13,22)          -33.9976         estimate D2E/DX2                !
 ! D45   D(9,4,13,22)         -153.9633         estimate D2E/DX2                !
 ! D46   D(4,5,6,1)            -47.5145         estimate D2E/DX2                !
 ! D47   D(4,5,6,11)            73.8754         estimate D2E/DX2                !
 ! D48   D(4,5,6,16)          -165.4301         estimate D2E/DX2                !
 ! D49   D(10,5,6,1)          -166.4106         estimate D2E/DX2                !
 ! D50   D(10,5,6,11)          -45.0206         estimate D2E/DX2                !
 ! D51   D(10,5,6,16)           75.6739         estimate D2E/DX2                !
 ! D52   D(12,5,6,1)            71.3099         estimate D2E/DX2                !
 ! D53   D(12,5,6,11)         -167.3002         estimate D2E/DX2                !
 ! D54   D(12,5,6,16)          -46.6057         estimate D2E/DX2                !
 ! D55   D(4,5,12,21)         -161.7689         estimate D2E/DX2                !
 ! D56   D(6,5,12,21)           76.9436         estimate D2E/DX2                !
 ! D57   D(10,5,12,21)         -43.8316         estimate D2E/DX2                !
 ! D58   D(1,6,16,17)          -43.7613         estimate D2E/DX2                !
 ! D59   D(1,6,16,18)           74.2912         estimate D2E/DX2                !
 ! D60   D(1,6,16,19)         -164.2316         estimate D2E/DX2                !
 ! D61   D(5,6,16,17)           79.8767         estimate D2E/DX2                !
 ! D62   D(5,6,16,18)         -162.0707         estimate D2E/DX2                !
 ! D63   D(5,6,16,19)          -40.5936         estimate D2E/DX2                !
 ! D64   D(11,6,16,17)        -160.7637         estimate D2E/DX2                !
 ! D65   D(11,6,16,18)         -42.7112         estimate D2E/DX2                !
 ! D66   D(11,6,16,19)          78.766          estimate D2E/DX2                !
 ! D67   D(3,14,81,78)         159.0588         estimate D2E/DX2                !
 ! D68   D(3,14,81,83)         -73.8357         estimate D2E/DX2                !
 ! D69   D(3,14,81,84)          40.9808         estimate D2E/DX2                !
 ! D70   D(23,14,81,78)        -64.836          estimate D2E/DX2                !
 ! D71   D(23,14,81,83)         62.2694         estimate D2E/DX2                !
 ! D72   D(23,14,81,84)        177.086          estimate D2E/DX2                !
 ! D73   D(2,15,27,26)        -167.097          estimate D2E/DX2                !
 ! D74   D(2,15,27,28)          72.5975         estimate D2E/DX2                !
 ! D75   D(2,15,27,32)         -49.0578         estimate D2E/DX2                !
 ! D76   D(6,16,19,20)        -168.3259         estimate D2E/DX2                !
 ! D77   D(17,16,19,20)         73.5864         estimate D2E/DX2                !
 ! D78   D(18,16,19,20)        -48.1323         estimate D2E/DX2                !
 ! D79   D(29,24,25,26)        -49.12           estimate D2E/DX2                !
 ! D80   D(29,24,25,30)         73.1599         estimate D2E/DX2                !
 ! D81   D(29,24,25,37)       -172.9794         estimate D2E/DX2                !
 ! D82   D(25,24,29,28)         51.3601         estimate D2E/DX2                !
 ! D83   D(25,24,29,34)        -69.5803         estimate D2E/DX2                !
 ! D84   D(25,24,29,38)        173.4368         estimate D2E/DX2                !
 ! D85   D(24,25,26,27)         50.4015         estimate D2E/DX2                !
 ! D86   D(24,25,26,31)        -68.4118         estimate D2E/DX2                !
 ! D87   D(24,25,26,36)        173.4373         estimate D2E/DX2                !
 ! D88   D(30,25,26,27)        -72.9997         estimate D2E/DX2                !
 ! D89   D(30,25,26,31)        168.187          estimate D2E/DX2                !
 ! D90   D(30,25,26,36)         50.0361         estimate D2E/DX2                !
 ! D91   D(37,25,26,27)        170.9873         estimate D2E/DX2                !
 ! D92   D(37,25,26,31)         52.1739         estimate D2E/DX2                !
 ! D93   D(37,25,26,36)        -65.9769         estimate D2E/DX2                !
 ! D94   D(24,25,37,49)         56.5683         estimate D2E/DX2                !
 ! D95   D(26,25,37,49)        -66.2418         estimate D2E/DX2                !
 ! D96   D(30,25,37,49)        174.9091         estimate D2E/DX2                !
 ! D97   D(25,26,27,15)       -178.6328         estimate D2E/DX2                !
 ! D98   D(25,26,27,28)        -55.9092         estimate D2E/DX2                !
 ! D99   D(25,26,27,32)         64.1767         estimate D2E/DX2                !
 ! D100  D(31,26,27,15)        -60.0208         estimate D2E/DX2                !
 ! D101  D(31,26,27,28)         62.7027         estimate D2E/DX2                !
 ! D102  D(31,26,27,32)       -177.2114         estimate D2E/DX2                !
 ! D103  D(36,26,27,15)         61.252          estimate D2E/DX2                !
 ! D104  D(36,26,27,28)       -176.0245         estimate D2E/DX2                !
 ! D105  D(36,26,27,32)        -55.9386         estimate D2E/DX2                !
 ! D106  D(25,26,36,44)       -172.6175         estimate D2E/DX2                !
 ! D107  D(25,26,36,64)         79.4951         estimate D2E/DX2                !
 ! D108  D(27,26,36,44)        -49.7898         estimate D2E/DX2                !
 ! D109  D(27,26,36,64)       -157.6772         estimate D2E/DX2                !
 ! D110  D(31,26,36,44)         70.5322         estimate D2E/DX2                !
 ! D111  D(31,26,36,64)        -37.3552         estimate D2E/DX2                !
 ! D112  D(15,27,28,29)        172.881          estimate D2E/DX2                !
 ! D113  D(15,27,28,33)        -70.2129         estimate D2E/DX2                !
 ! D114  D(15,27,28,35)         50.063          estimate D2E/DX2                !
 ! D115  D(26,27,28,29)         55.781          estimate D2E/DX2                !
 ! D116  D(26,27,28,33)        172.6871         estimate D2E/DX2                !
 ! D117  D(26,27,28,35)        -67.0369         estimate D2E/DX2                !
 ! D118  D(32,27,28,29)        -65.2649         estimate D2E/DX2                !
 ! D119  D(32,27,28,33)         51.6412         estimate D2E/DX2                !
 ! D120  D(32,27,28,35)        171.9172         estimate D2E/DX2                !
 ! D121  D(27,28,29,24)        -52.4972         estimate D2E/DX2                !
 ! D122  D(27,28,29,34)         69.9335         estimate D2E/DX2                !
 ! D123  D(27,28,29,38)       -170.1884         estimate D2E/DX2                !
 ! D124  D(33,28,29,24)       -171.1672         estimate D2E/DX2                !
 ! D125  D(33,28,29,34)        -48.7365         estimate D2E/DX2                !
 ! D126  D(33,28,29,38)         71.1417         estimate D2E/DX2                !
 ! D127  D(35,28,29,24)         69.337          estimate D2E/DX2                !
 ! D128  D(35,28,29,34)       -168.2323         estimate D2E/DX2                !
 ! D129  D(35,28,29,38)        -48.3541         estimate D2E/DX2                !
 ! D130  D(27,28,35,43)        141.26           estimate D2E/DX2                !
 ! D131  D(27,28,35,84)        -21.8482         estimate D2E/DX2                !
 ! D132  D(29,28,35,43)         20.2163         estimate D2E/DX2                !
 ! D133  D(29,28,35,84)       -142.8918         estimate D2E/DX2                !
 ! D134  D(33,28,35,43)        -98.0433         estimate D2E/DX2                !
 ! D135  D(33,28,35,84)         98.8486         estimate D2E/DX2                !
 ! D136  D(24,29,38,39)         58.1758         estimate D2E/DX2                !
 ! D137  D(24,29,38,40)        176.8077         estimate D2E/DX2                !
 ! D138  D(24,29,38,41)        -64.1137         estimate D2E/DX2                !
 ! D139  D(28,29,38,39)       -179.4005         estimate D2E/DX2                !
 ! D140  D(28,29,38,40)        -60.7686         estimate D2E/DX2                !
 ! D141  D(28,29,38,41)         58.31           estimate D2E/DX2                !
 ! D142  D(34,29,38,39)        -60.0228         estimate D2E/DX2                !
 ! D143  D(34,29,38,40)         58.6091         estimate D2E/DX2                !
 ! D144  D(34,29,38,41)        177.6876         estimate D2E/DX2                !
 ! D145  D(28,35,43,41)         -1.4924         estimate D2E/DX2                !
 ! D146  D(84,35,43,41)        161.8358         estimate D2E/DX2                !
 ! D147  D(28,35,81,78)       -161.3304         estimate D2E/DX2                !
 ! D148  D(28,35,81,82)        -38.7767         estimate D2E/DX2                !
 ! D149  D(28,35,81,83)         76.8966         estimate D2E/DX2                !
 ! D150  D(43,35,81,78)         39.107          estimate D2E/DX2                !
 ! D151  D(43,35,81,82)        161.6606         estimate D2E/DX2                !
 ! D152  D(43,35,81,83)        -82.666          estimate D2E/DX2                !
 ! D153  D(26,36,64,56)         40.0616         estimate D2E/DX2                !
 ! D154  D(44,36,64,56)        -67.4735         estimate D2E/DX2                !
 ! D155  D(25,37,49,48)        120.4702         estimate D2E/DX2                !
 ! D156  D(25,37,49,50)       -120.4777         estimate D2E/DX2                !
 ! D157  D(25,37,49,55)         -0.8002         estimate D2E/DX2                !
 ! D158  D(29,38,41,42)         78.7165         estimate D2E/DX2                !
 ! D159  D(29,38,41,43)        -34.7356         estimate D2E/DX2                !
 ! D160  D(39,38,41,42)        -42.8559         estimate D2E/DX2                !
 ! D161  D(39,38,41,43)       -156.3081         estimate D2E/DX2                !
 ! D162  D(40,38,41,42)       -160.7861         estimate D2E/DX2                !
 ! D163  D(40,38,41,43)         85.7618         estimate D2E/DX2                !
 ! D164  D(38,41,62,59)        -14.1271         estimate D2E/DX2                !
 ! D165  D(38,41,62,63)       -155.5987         estimate D2E/DX2                !
 ! D166  D(43,41,62,59)         91.6148         estimate D2E/DX2                !
 ! D167  D(43,41,62,63)        -49.8568         estimate D2E/DX2                !
 ! D168  D(38,41,43,35)          9.9668         estimate D2E/DX2                !
 ! D169  D(42,41,43,35)       -102.5142         estimate D2E/DX2                !
 ! D170  D(50,45,46,47)         57.0733         estimate D2E/DX2                !
 ! D171  D(50,45,46,51)        176.6725         estimate D2E/DX2                !
 ! D172  D(50,45,46,58)        -65.4676         estimate D2E/DX2                !
 ! D173  D(46,45,50,49)        -24.0301         estimate D2E/DX2                !
 ! D174  D(46,45,50,54)       -140.0788         estimate D2E/DX2                !
 ! D175  D(46,45,50,59)        105.1972         estimate D2E/DX2                !
 ! D176  D(45,46,47,48)        -26.7336         estimate D2E/DX2                !
 ! D177  D(45,46,47,52)       -144.0808         estimate D2E/DX2                !
 ! D178  D(45,46,47,57)         97.1398         estimate D2E/DX2                !
 ! D179  D(51,46,47,48)       -144.2547         estimate D2E/DX2                !
 ! D180  D(51,46,47,52)         98.398          estimate D2E/DX2                !
 ! D181  D(51,46,47,57)        -20.3813         estimate D2E/DX2                !
 ! D182  D(58,46,47,48)         95.2275         estimate D2E/DX2                !
 ! D183  D(58,46,47,52)        -22.1197         estimate D2E/DX2                !
 ! D184  D(58,46,47,57)       -140.8991         estimate D2E/DX2                !
 ! D185  D(45,46,58,63)          8.4914         estimate D2E/DX2                !
 ! D186  D(45,46,58,66)       -151.1441         estimate D2E/DX2                !
 ! D187  D(47,46,58,63)       -116.5048         estimate D2E/DX2                !
 ! D188  D(47,46,58,66)         83.8598         estimate D2E/DX2                !
 ! D189  D(51,46,58,63)        123.4824         estimate D2E/DX2                !
 ! D190  D(51,46,58,66)        -36.153          estimate D2E/DX2                !
 ! D191  D(46,47,48,49)        -29.9293         estimate D2E/DX2                !
 ! D192  D(46,47,48,53)         88.3988         estimate D2E/DX2                !
 ! D193  D(46,47,48,56)       -152.9738         estimate D2E/DX2                !
 ! D194  D(52,47,48,49)         88.2398         estimate D2E/DX2                !
 ! D195  D(52,47,48,53)       -153.4321         estimate D2E/DX2                !
 ! D196  D(52,47,48,56)        -34.8048         estimate D2E/DX2                !
 ! D197  D(57,47,48,49)       -150.3215         estimate D2E/DX2                !
 ! D198  D(57,47,48,53)        -31.9934         estimate D2E/DX2                !
 ! D199  D(57,47,48,56)         86.634          estimate D2E/DX2                !
 ! D200  D(46,47,57,65)       -177.0972         estimate D2E/DX2                !
 ! D201  D(48,47,57,65)        -53.9144         estimate D2E/DX2                !
 ! D202  D(52,47,57,65)         65.5201         estimate D2E/DX2                !
 ! D203  D(47,48,49,37)        178.2672         estimate D2E/DX2                !
 ! D204  D(47,48,49,50)         60.8506         estimate D2E/DX2                !
 ! D205  D(47,48,49,55)        -60.8668         estimate D2E/DX2                !
 ! D206  D(53,48,49,37)         59.8852         estimate D2E/DX2                !
 ! D207  D(53,48,49,50)        -57.5315         estimate D2E/DX2                !
 ! D208  D(53,48,49,55)       -179.2489         estimate D2E/DX2                !
 ! D209  D(56,48,49,37)        -62.3836         estimate D2E/DX2                !
 ! D210  D(56,48,49,50)       -179.8003         estimate D2E/DX2                !
 ! D211  D(56,48,49,55)         58.4824         estimate D2E/DX2                !
 ! D212  D(47,48,56,64)       -176.8984         estimate D2E/DX2                !
 ! D213  D(49,48,56,64)         61.1587         estimate D2E/DX2                !
 ! D214  D(53,48,56,64)        -59.7721         estimate D2E/DX2                !
 ! D215  D(37,49,50,45)       -152.8363         estimate D2E/DX2                !
 ! D216  D(37,49,50,54)        -38.1783         estimate D2E/DX2                !
 ! D217  D(37,49,50,59)         80.8491         estimate D2E/DX2                !
 ! D218  D(48,49,50,45)        -34.4742         estimate D2E/DX2                !
 ! D219  D(48,49,50,54)         80.1838         estimate D2E/DX2                !
 ! D220  D(48,49,50,59)       -160.7888         estimate D2E/DX2                !
 ! D221  D(55,49,50,45)         87.5639         estimate D2E/DX2                !
 ! D222  D(55,49,50,54)       -157.7781         estimate D2E/DX2                !
 ! D223  D(55,49,50,59)        -38.7506         estimate D2E/DX2                !
 ! D224  D(45,50,59,60)         50.19           estimate D2E/DX2                !
 ! D225  D(45,50,59,61)        168.2282         estimate D2E/DX2                !
 ! D226  D(45,50,59,62)        -71.9867         estimate D2E/DX2                !
 ! D227  D(49,50,59,60)        178.0872         estimate D2E/DX2                !
 ! D228  D(49,50,59,61)        -63.8746         estimate D2E/DX2                !
 ! D229  D(49,50,59,62)         55.9105         estimate D2E/DX2                !
 ! D230  D(54,50,59,60)        -62.9583         estimate D2E/DX2                !
 ! D231  D(54,50,59,61)         55.0798         estimate D2E/DX2                !
 ! D232  D(54,50,59,62)        174.8649         estimate D2E/DX2                !
 ! D233  D(48,56,64,36)       -109.8069         estimate D2E/DX2                !
 ! D234  D(46,58,63,62)         54.8033         estimate D2E/DX2                !
 ! D235  D(66,58,63,62)       -148.7743         estimate D2E/DX2                !
 ! D236  D(46,58,66,67)        -30.3882         estimate D2E/DX2                !
 ! D237  D(46,58,66,68)         87.6741         estimate D2E/DX2                !
 ! D238  D(46,58,66,69)       -151.1316         estimate D2E/DX2                !
 ! D239  D(63,58,66,67)        173.7509         estimate D2E/DX2                !
 ! D240  D(63,58,66,68)        -68.1869         estimate D2E/DX2                !
 ! D241  D(63,58,66,69)         53.0075         estimate D2E/DX2                !
 ! D242  D(50,59,62,42)       -104.9572         estimate D2E/DX2                !
 ! D243  D(50,59,62,63)         39.3514         estimate D2E/DX2                !
 ! D244  D(60,59,62,42)        133.9481         estimate D2E/DX2                !
 ! D245  D(60,59,62,63)        -81.7433         estimate D2E/DX2                !
 ! D246  D(61,59,62,42)         15.9766         estimate D2E/DX2                !
 ! D247  D(61,59,62,63)        160.2852         estimate D2E/DX2                !
 ! D248  D(42,62,63,58)         90.6583         estimate D2E/DX2                !
 ! D249  D(59,62,63,58)        -56.9338         estimate D2E/DX2                !
 ! D250  D(58,66,69,70)        -55.3324         estimate D2E/DX2                !
 ! D251  D(58,66,69,71)       -170.4473         estimate D2E/DX2                !
 ! D252  D(58,66,69,72)         67.3078         estimate D2E/DX2                !
 ! D253  D(67,66,69,70)       -175.6888         estimate D2E/DX2                !
 ! D254  D(67,66,69,71)         69.1963         estimate D2E/DX2                !
 ! D255  D(67,66,69,72)        -53.0486         estimate D2E/DX2                !
 ! D256  D(68,66,69,70)         64.5653         estimate D2E/DX2                !
 ! D257  D(68,66,69,71)        -50.5496         estimate D2E/DX2                !
 ! D258  D(68,66,69,72)       -172.7945         estimate D2E/DX2                !
 ! D259  D(66,69,72,73)        -51.3147         estimate D2E/DX2                !
 ! D260  D(66,69,72,74)         64.271          estimate D2E/DX2                !
 ! D261  D(66,69,72,75)       -173.2768         estimate D2E/DX2                !
 ! D262  D(70,69,72,73)         70.6134         estimate D2E/DX2                !
 ! D263  D(70,69,72,74)       -173.8009         estimate D2E/DX2                !
 ! D264  D(70,69,72,75)        -51.3487         estimate D2E/DX2                !
 ! D265  D(71,69,72,73)       -172.5084         estimate D2E/DX2                !
 ! D266  D(71,69,72,74)        -56.9227         estimate D2E/DX2                !
 ! D267  D(71,69,72,75)         65.5295         estimate D2E/DX2                !
 ! D268  D(69,72,75,76)        -53.0276         estimate D2E/DX2                !
 ! D269  D(69,72,75,77)         63.1263         estimate D2E/DX2                !
 ! D270  D(69,72,75,78)       -173.09           estimate D2E/DX2                !
 ! D271  D(73,72,75,76)       -173.7393         estimate D2E/DX2                !
 ! D272  D(73,72,75,77)        -57.5854         estimate D2E/DX2                !
 ! D273  D(73,72,75,78)         66.1984         estimate D2E/DX2                !
 ! D274  D(74,72,75,76)         69.0328         estimate D2E/DX2                !
 ! D275  D(74,72,75,77)       -174.8133         estimate D2E/DX2                !
 ! D276  D(74,72,75,78)        -51.0296         estimate D2E/DX2                !
 ! D277  D(72,75,78,79)       -175.2354         estimate D2E/DX2                !
 ! D278  D(72,75,78,80)         64.5322         estimate D2E/DX2                !
 ! D279  D(72,75,78,81)        -56.2918         estimate D2E/DX2                !
 ! D280  D(76,75,78,79)         62.8857         estimate D2E/DX2                !
 ! D281  D(76,75,78,80)        -57.3467         estimate D2E/DX2                !
 ! D282  D(76,75,78,81)       -178.1706         estimate D2E/DX2                !
 ! D283  D(77,75,78,79)        -51.2077         estimate D2E/DX2                !
 ! D284  D(77,75,78,80)       -171.4401         estimate D2E/DX2                !
 ! D285  D(77,75,78,81)         67.736          estimate D2E/DX2                !
 ! D286  D(75,78,81,82)       -165.2421         estimate D2E/DX2                !
 ! D287  D(75,78,81,83)         73.0126         estimate D2E/DX2                !
 ! D288  D(75,78,81,84)        -46.576          estimate D2E/DX2                !
 ! D289  D(79,78,81,82)        -43.7026         estimate D2E/DX2                !
 ! D290  D(79,78,81,83)       -165.4479         estimate D2E/DX2                !
 ! D291  D(79,78,81,84)         74.9635         estimate D2E/DX2                !
 ! D292  D(80,78,81,82)         71.6631         estimate D2E/DX2                !
 ! D293  D(80,78,81,83)        -50.0822         estimate D2E/DX2                !
 ! D294  D(80,78,81,84)       -169.6707         estimate D2E/DX2                !
 --------------------------------------------------------------------------------
 Trust Radius=3.00D-01 FncErr=1.00D-07 GrdErr=1.00D-06
 Number of steps in this run=    504 maximum allowed number of steps=    504.
 GradGradGradGradGradGradGradGradGradGradGradGradGradGradGradGradGradGrad

 Leave Link  103 at Thu Apr  7 19:07:33 2016, MaxMem= 10737418240 cpu:         0.7
 (Enter /share/apps//g09/l202.exe)
 Stoichiometry    C23H44NO16(1+)
 Framework group  C1[X(C23H44NO16)]
 Deg. of freedom   246
 Full point group                 C1      NOp   1
 Largest Abelian subgroup         C1      NOp   1
 Largest concise Abelian subgroup C1      NOp   1
                         Standard orientation:                         
 ---------------------------------------------------------------------
 Center     Atomic      Atomic             Coordinates (Angstroms)
 Number     Number       Type             X           Y           Z
 ---------------------------------------------------------------------
      1          8           0        4.298522   -0.734376    0.923638
      2          6           0        3.400083    0.347815    0.976654
      3          6           0        4.064338    1.600680    0.402376
      4          6           0        4.519149    1.368848   -1.040035
      5          6           0        5.474384    0.173982   -1.098128
      6          6           0        4.854240   -1.041188   -0.380555
      7          1           0        3.178776    0.475673    2.049402
      8          1           0        4.946999    1.799225    1.033000
      9          1           0        3.637116    1.165341   -1.668495
     10          1           0        5.635284   -0.109824   -2.151498
     11          1           0        4.057380   -1.441634   -1.034633
     12          8           0        6.702098    0.623878   -0.514406
     13          8           0        5.107604    2.564958   -1.545437
     14          8           0        3.183641    2.741682    0.460215
     15          8           0        2.186937    0.121340    0.249083
     16          6           0        5.889422   -2.134751   -0.096700
     17          1           0        6.457396   -1.839407    0.802040
     18          1           0        5.374742   -3.086574    0.110931
     19          8           0        6.736418   -2.231774   -1.248668
     20          1           0        7.276675   -3.035032   -1.169686
     21          1           0        7.394382   -0.000571   -0.801279
     22          1           0        6.056640    2.513461   -1.301945
     23          1           0        3.639975    3.420101   -0.082095
     24          8           0       -1.114224   -2.280073    1.185326
     25          6           0       -0.560393   -2.397785   -0.120974
     26          6           0        0.386973   -1.227126   -0.430397
     27          6           0        1.409514   -1.021052    0.678437
     28          6           0        0.699297   -0.817879    2.021630
     29          6           0       -0.229972   -2.021991    2.279103
     30          1           0       -0.016116   -3.353208   -0.243127
     31          1           0       -0.222491   -0.310824   -0.512026
     32          1           0        2.072833   -1.900604    0.757234
     33          1           0        1.442452   -0.800172    2.840710
     34          1           0        0.406016   -2.907228    2.483800
     35          8           0       -0.025028    0.422179    2.015521
     36          8           0        1.007176   -1.511468   -1.687431
     37          8           0       -1.633336   -2.484530   -1.021579
     38          6           0       -1.158081   -1.790719    3.479855
     39          1           0       -1.789766   -2.679911    3.626260
     40          1           0       -0.561242   -1.638432    4.391173
     41          8           0       -1.971306   -0.622097    3.295124
     42          1           0       -2.731983   -0.856706    2.678657
     43          1           0       -0.894902    0.236516    2.511374
     44          1           0        1.688983   -0.826091   -1.813567
     45          8           0       -5.071056   -1.214428   -1.180017
     46          6           0       -4.840126    0.136907   -1.426603
     47          6           0       -3.668680    0.402458   -2.398539
     48          6           0       -2.636396   -0.731791   -2.367740
     49          6           0       -2.591344   -1.395506   -0.988242
     50          6           0       -3.966884   -2.002685   -0.650976
     51          1           0       -5.772243    0.518102   -1.872359
     52          1           0       -3.146567    1.319818   -2.067943
     53          1           0       -2.943216   -1.496335   -3.105686
     54          1           0       -4.032806   -2.968831   -1.178189
     55          1           0       -2.302141   -0.665291   -0.216945
     56          8           0       -1.382585   -0.150025   -2.743628
     57          8           0       -4.240030    0.595828   -3.688916
     58          8           0       -4.587121    0.803400   -0.161078
     59          6           0       -4.204065   -2.279943    0.833785
     60          1           0       -5.226919   -2.676093    0.942245
     61          1           0       -3.490970   -3.040649    1.175693
     62          8           0       -4.036236   -1.133605    1.682368
     63          1           0       -4.417906   -0.355423    1.207276
     64          1           0       -0.712570   -0.864570   -2.780695
     65          1           0       -3.511563    0.718681   -4.323725
     66          6           0       -4.962088    2.196407   -0.109580
     67          1           0       -4.862915    2.647419   -1.112009
     68          1           0       -6.019507    2.273726    0.194404
     69          6           0       -4.051645    2.904982    0.884071
     70          1           0       -4.112252    2.386310    1.855675
     71          1           0       -4.446201    3.920320    1.051076
     72          6           0       -2.593328    2.975804    0.413661
     73          1           0       -2.280523    1.956517    0.128917
     74          1           0       -2.539297    3.593679   -0.501208
     75          6           0       -1.642667    3.539422    1.475816
     76          1           0       -2.018528    4.508956    1.840329
     77          1           0       -1.623736    2.874275    2.354684
     78          6           0       -0.215463    3.778942    0.986959
     79          1           0        0.431745    4.101001    1.812997
     80          1           0       -0.181171    4.554528    0.208740
     81          7           0        0.412022    2.538490    0.416256
     82          1           0        1.455654    2.632706    0.311694
     83          1           0        0.016749    2.301817   -0.501133
     84          1           0        0.254189    1.695715    1.051955
 ---------------------------------------------------------------------
 Rotational constants (GHZ):      0.1442310      0.0543577      0.0516898
 Leave Link  202 at Thu Apr  7 19:07:33 2016, MaxMem= 10737418240 cpu:         2.0
 (Enter /share/apps//g09/l301.exe)
 Standard basis: 6-311+G(d,p) (5D, 7F)
 Ernie: Thresh=  0.10000D-02 Tol=  0.10000D-05 Strict=F.
 There are  1184 symmetry adapted cartesian basis functions of A   symmetry.
 There are  1144 symmetry adapted basis functions of A   symmetry.
  1144 basis functions,  1792 primitive gaussians,  1184 cartesian basis functions
   158 alpha electrons      158 beta electrons
       nuclear repulsion energy      5831.1764153271 Hartrees.
 IExCor= 1009 DFT=T Ex+Corr=PBE1PBE ExCW=0 ScaHFX=  0.250000
 ScaDFX=  0.750000  0.750000  1.000000  1.000000 ScalE2=  1.000000  1.000000
 IRadAn=      0 IRanWt=     -1 IRanGd=            0 ICorTp=0 IEmpDi=131
 NAtoms=   84 NActive=   84 NUniq=   84 SFac= 1.00D+00 NAtFMM=   60 NAOKFM=T Big=T
 Integral buffers will be    131072 words long.
 Raffenetti 2 integral format.
 Two-electron integral symmetry is turned on.
 R6Disp:  Grimme-D3 Dispersion energy=       -0.0841806952 Hartrees.
 Nuclear repulsion after empirical dispersion term =     5831.0922346319 Hartrees.
 Leave Link  301 at Thu Apr  7 19:07:34 2016, MaxMem= 10737418240 cpu:         1.6
 (Enter /share/apps//g09/l302.exe)
 NPDir=0 NMtPBC=     1 NCelOv=     1 NCel=       1 NClECP=     1 NCelD=      1
         NCelK=      1 NCelE2=     1 NClLst=     1 CellRange=     0.0.
 One-electron integrals computed using PRISM.
 NBasis=  1144 RedAO= T EigKep=  1.10D-06  NBF=  1144
 NBsUse=  1144 1.00D-06 EigRej= -1.00D+00 NBFU=  1144
 Precomputing XC quadrature grid using
 IXCGrd= 4 IRadAn=           0 IRanWt=          -1 IRanGd=           0 AccXCQ= 0.00D+00.
 Generated NRdTot=       0 NPtTot=           0 NUsed=           0 NTot=          32
 NSgBfM=  1064  1092  1101  1101  1101 MxSgAt=    84 MxSgA2=    84.
 Leave Link  302 at Thu Apr  7 19:07:37 2016, MaxMem= 10737418240 cpu:        51.7
 (Enter /share/apps//g09/l303.exe)
 DipDrv:  MaxL=1.
 Leave Link  303 at Thu Apr  7 19:07:39 2016, MaxMem= 10737418240 cpu:        25.1
 (Enter /share/apps//g09/l401.exe)
 ExpMin= 4.38D-02 ExpMax= 8.59D+03 ExpMxC= 1.30D+03 IAcc=2 IRadAn=         4 AccDes= 0.00D+00
 Harris functional with IExCor= 1009 and IRadAn=       4 diagonalized for initial guess.
 HarFok:  IExCor= 1009 AccDes= 0.00D+00 IRadAn=         4 IDoV= 1 UseB2=F ITyADJ=14
 ICtDFT=  3500011 ScaDFX=  1.000000  1.000000  1.000000  1.000000
 FoFCou: FMM=F IPFlag=           0 FMFlag=      100000 FMFlg1=        2001
         NFxFlg=           0 DoJE=T BraDBF=F KetDBF=T FulRan=T
         wScrn=  0.000000 ICntrl=     500 IOpCl=  0 I1Cent=   200000004 NGrid=           0
         NMat0=    1 NMatS0=      1 NMatT0=    0 NMatD0=    1 NMtDS0=    0 NMtDT0=    0
 Petite list used in FoFCou.
 Harris En= -2159.70992881411    
 JPrj=0 DoOrth=F DoCkMO=F.
 Leave Link  401 at Thu Apr  7 19:07:52 2016, MaxMem= 10737418240 cpu:       219.2
 (Enter /share/apps//g09/l502.exe)
 Closed shell SCF:
 Using DIIS extrapolation, IDIIS=  1040.
 Integral symmetry usage will be decided dynamically.
 IVT=     4256630 IEndB=     4256630 NGot= 10737418240 MDV= 10734581291
 LenX= 10734581291 LenY= 10733178251
 Requested convergence on RMS density matrix=1.00D-08 within 128 cycles.
 Requested convergence on MAX density matrix=1.00D-06.
 Requested convergence on             energy=1.00D-06.
 No special actions if energy rises.
 Fock matrices will be formed incrementally for  20 cycles.

 Cycle   1  Pass 1  IDiag  1:
 FoFJK:  IHMeth= 1 ICntrl=       0 DoSepK=F KAlg= 0 I1Cent=   0 FoldK=F
 IRaf= 770000000 NMat=   1 IRICut=       1 DoRegI=T DoRafI=F ISym2E= 0.
 FoFCou: FMM=T IPFlag=           0 FMFlag=      100000 FMFlg1=        2001
         NFxFlg=           0 DoJE=F BraDBF=F KetDBF=F FulRan=T
         wScrn=  0.000000 ICntrl=       0 IOpCl=  0 I1Cent=           0 NGrid=           0
         NMat0=    1 NMatS0=      1 NMatT0=    0 NMatD0=    1 NMtDS0=    0 NMtDT0=    0
 Symmetry not used in FoFCou.
 FMM levels:  10  Number of levels for PrismC:   9
 E= -2158.69787183059    
 DIIS: error= 1.47D-02 at cycle   1 NSaved=   1.
 NSaved= 1 IEnMin= 1 EnMin= -2158.69787183059     IErMin= 1 ErrMin= 1.47D-02
 ErrMax= 1.47D-02  0.00D+00 EMaxC= 1.00D-01 BMatC= 1.01D+00 BMatP= 1.01D+00
 IDIUse=3 WtCom= 8.53D-01 WtEn= 1.47D-01
 Coeff-Com:  0.100D+01
 Coeff-En:   0.100D+01
 Coeff:      0.100D+01
 Gap=     0.253 Goal=   None    Shift=    0.000
 GapD=    0.253 DampG=1.000 DampE=0.500 DampFc=0.5000 IDamp=-1.
 Damping current iteration by 5.00D-01
 RMSDP=1.17D-02 MaxDP=2.65D+00              OVMax= 1.34D-01

 Cycle   2  Pass 1  IDiag  1:
 RMSU=  5.85D-03    CP:  9.99D-01
 E= -2158.98075257226     Delta-E=       -0.282880741675 Rises=F Damp=T
 DIIS: error= 2.98D-03 at cycle   2 NSaved=   2.
 NSaved= 2 IEnMin= 2 EnMin= -2158.98075257226     IErMin= 2 ErrMin= 2.98D-03
 ErrMax= 2.98D-03  0.00D+00 EMaxC= 1.00D-01 BMatC= 7.89D-02 BMatP= 1.01D+00
 IDIUse=3 WtCom= 9.70D-01 WtEn= 2.98D-02
 Coeff-Com:  0.543D-01 0.946D+00
 Coeff-En:   0.147D+00 0.853D+00
 Coeff:      0.570D-01 0.943D+00
 Gap=     0.271 Goal=   None    Shift=    0.000
 RMSDP=5.88D-03 MaxDP=3.26D+00 DE=-2.83D-01 OVMax= 8.51D-02

 Cycle   3  Pass 1  IDiag  1:
 RMSU=  3.50D-03    CP:  9.13D-01  7.49D-01
 E= -2159.34312895022     Delta-E=       -0.362376377956 Rises=F Damp=F
 DIIS: error= 3.39D-03 at cycle   3 NSaved=   3.
 NSaved= 3 IEnMin= 3 EnMin= -2159.34312895022     IErMin= 2 ErrMin= 2.98D-03
 ErrMax= 3.39D-03  0.00D+00 EMaxC= 1.00D-01 BMatC= 4.39D-02 BMatP= 7.89D-02
 IDIUse=3 WtCom= 9.66D-01 WtEn= 3.39D-02
 Coeff-Com: -0.693D-01 0.410D+00 0.659D+00
 Coeff-En:   0.000D+00 0.000D+00 0.100D+01
 Coeff:     -0.669D-01 0.396D+00 0.671D+00
 Gap=     0.260 Goal=   None    Shift=    0.000
 RMSDP=1.84D-03 MaxDP=1.04D+00 DE=-3.62D-01 OVMax= 1.67D-02

 Cycle   4  Pass 1  IDiag  1:
 RMSU=  1.38D-03    CP:  9.31D-01  8.33D-01  8.18D-01
 E= -2159.37031878965     Delta-E=       -0.027189839432 Rises=F Damp=F
 DIIS: error= 1.08D-03 at cycle   4 NSaved=   4.
 NSaved= 4 IEnMin= 4 EnMin= -2159.37031878965     IErMin= 4 ErrMin= 1.08D-03
 ErrMax= 1.08D-03  0.00D+00 EMaxC= 1.00D-01 BMatC= 5.89D-03 BMatP= 4.39D-02
 IDIUse=3 WtCom= 9.89D-01 WtEn= 1.08D-02
 Coeff-Com: -0.365D-01 0.124D+00 0.343D+00 0.570D+00
 Coeff-En:   0.000D+00 0.000D+00 0.807D-01 0.919D+00
 Coeff:     -0.361D-01 0.122D+00 0.340D+00 0.574D+00
 Gap=     0.254 Goal=   None    Shift=    0.000
 RMSDP=1.45D-03 MaxDP=7.75D-01 DE=-2.72D-02 OVMax= 5.72D-03

 Cycle   5  Pass 1  IDiag  1:
 RMSU=  3.99D-04    CP:  9.06D-01  8.06D-01  8.41D-01  6.43D-01
 E= -2159.37536928016     Delta-E=       -0.005050490510 Rises=F Damp=F
 DIIS: error= 2.85D-04 at cycle   5 NSaved=   5.
 NSaved= 5 IEnMin= 5 EnMin= -2159.37536928016     IErMin= 5 ErrMin= 2.85D-04
 ErrMax= 2.85D-04  0.00D+00 EMaxC= 1.00D-01 BMatC= 2.33D-04 BMatP= 5.89D-03
 IDIUse=3 WtCom= 9.97D-01 WtEn= 2.85D-03
 Coeff-Com: -0.112D-01 0.254D-01 0.100D+00 0.242D+00 0.643D+00
 Coeff-En:   0.000D+00 0.000D+00 0.000D+00 0.000D+00 0.100D+01
 Coeff:     -0.111D-01 0.253D-01 0.998D-01 0.242D+00 0.644D+00
 Gap=     0.253 Goal=   None    Shift=    0.000
 RMSDP=2.17D-04 MaxDP=5.75D-02 DE=-5.05D-03 OVMax= 1.40D-03

 Cycle   6  Pass 1  IDiag  1:
[...]
 .00002870,0.00000546,-0.00000753,0.00037445,-0.00037044,0.00003324,-0.
 00005195,-0.00008419,0.00001043,-0.00001016,-0.00008367,0.00008042,-0.
 00004493,-0.00003673,-0.00002355,0.00027146,-0.00119404,-0.00017792,-0
 .00040764,0.00024125,-0.00001025,-0.00035458,0.00021877,-0.00019431,-0
 .00004474,0.00005169,-0.00001202,0.00000288,-0.00002361,-0.00001435,-0
 .00001554,0.00000980,0.00001503,-0.00012531,-0.00018698,-0.00021869,0.
 00021279,-0.00000791,0.00009804,0.00010037,0.00018826,0.00040032,0.000
 22974,-0.00010213,0.00012975,-0.00010654,0.00018389,0.00011472,0.00030
 026,-0.00010339,-0.00033048,-0.00041069,-0.00020193,0.00006375,-0.0000
 6018,-0.00029711,-0.00079802,0.00013981,-0.00017752,0.00018786,-0.0000
 0669,-0.00003759,-0.00003923,-0.00001947,0.00001607,0.00003973,0.00012
 314,0.00015256,-0.00012409,0.00006478,0.00013124,0.00016438,-0.0000005
 9,0.00000562,0.00000529,0.00007574,0.00000360,-0.00004292,0.00059216,0
 .00087717,0.00032502,0.00022300,0.00004229,0.00006108,-0.00026114,-0.0
 0006671,0.00017807,0.00012463,0.00004920,-0.00001707,-0.00002925,0.000
 00060,0.00001633,0.00000067,0.00000703,0.00000225,-0.00020412,-0.00000
 191,0.00001259,0.00006232,-0.00005697,-0.00001721,0.00020932,-0.000181
 93,0.00027573,-0.00012557,-0.00000792,-0.00001788,0.00012657,0.0000901
 5,-0.00012148,-0.00002508,0.00002237,-0.00000764,-0.00003384,-0.000012
 53,0.00001209,-0.00022467,0.00020154,-0.00004969,0.00001678,0.00003639
 ,0.00009993,0.00000237,-0.00002527,-0.00001005,0.00047885,-0.00043325,
 0.00005063,0.00036286,-0.00000415,-0.00079227,-0.00020979,0.00044726,-
 0.00001926,0.00020124,0.00040072,0.00016431,-0.00010762,-0.00007950,-0
 .00030108,-0.00015359,-0.00006879,-0.00001290,-0.00955166,-0.00183942,
 0.00173240,0.00135611,-0.00117037,0.00109866,0.00133885,0.00038142,-0.
 00060988,-0.42059103,0.01193706,0.00554982,-0.01046761,0.00159038,0.00
 129019,0.44452235,-0.00023907,-0.00001965,-0.00028312,0.00073550,0.000
 33954,0.00029565,0.00001666,0.00031477,-0.00027668,0.00000348,0.000112
 29,0.00009070,0.00001844,0.00005840,0.00003381,0.00003627,0.00003339,0
 .00013610,-0.00014556,0.00004833,-0.00004280,0.00000610,-0.00007518,0.
 00001553,-0.00001914,0.00006022,0.00001206,-0.00000135,-0.00000662,0.0
 0000090,-0.00001829,-0.00000849,0.00001032,-0.00002745,-0.00007997,-0.
 00002937,0.00000320,-0.00016562,-0.00001664,0.00019458,-0.00025223,0.0
 0000225,-0.00094351,-0.00017846,-0.00038009,-0.00001320,-0.00001025,0.
 00004051,-0.00000325,0.00000350,-0.00000811,0.00000568,-0.00001771,0.0
 0000323,-0.00000101,-0.00000948,-0.00005790,0.00000704,-0.00000056,0.0
 0001093,0.00000465,0.00001614,0.00001304,-0.00000965,0.00000975,-0.000
 01245,-0.00021855,0.00004102,-0.00013617,-0.00031967,0.00018042,0.0002
 4341,-0.00018868,-0.00008423,-0.00098212,0.00018850,-0.00096044,0.0019
 0287,0.00043100,-0.00000035,-0.00000510,0.00000605,-0.00007381,-0.0006
 0954,0.00030631,-0.00020492,0.00021435,0.00007256,0.00018675,0.0001425
 1,-0.00054053,-0.00055326,-0.00057602,-0.00014598,0.00004216,-0.000048
 76,-0.00005043,0.00001845,0.00003700,-0.00005212,-0.00005459,-0.000041
 29,-0.00072459,-0.00217447,-0.00042850,0.00023094,0.00028996,-0.000796
 01,0.00015470,0.00001533,0.00025341,-0.00000115,0.00008164,-0.00008829
 ,0.00000375,-0.00000853,0.00001233,-0.00001204,-0.00000400,0.00001404,
 -0.00004060,-0.00011951,-0.00002076,0.00005584,-0.00001351,-0.00004270
 ,0.00000404,-0.00017747,0.00009481,0.00003281,-0.00006033,0.00034615,0
 .00002608,-0.00015815,0.00012492,0.00011365,0.00011881,-0.00008495,-0.
 00006420,0.00016513,-0.00004180,-0.00015508,-0.00016618,-0.00037554,-0
 .00025174,-0.00001442,-0.00002248,-0.00003208,0.00008398,-0.00019643,0
 .00000023,-0.00000022,0.00003232,-0.00002325,0.00005352,-0.00000523,0.
 00005708,0.00003766,0.00008190,0.00000820,0.00000552,0.00002860,0.0001
 0234,-0.00000993,-0.00013085,0.00078808,0.00007262,0.00020609,0.000113
 68,-0.00018006,0.00005671,-0.00010411,-0.00022384,0.00014380,0.0000667
 0,0.00000955,-0.00002603,-0.00001194,0.00000510,0.00002512,0.00000205,
 -0.00002215,-0.00001523,-0.00004717,-0.00003587,0.00010517,-0.00000970
 ,0.00006400,-0.00006331,-0.00025778,-0.00002843,0.00005639,-0.00000811
 ,0.00012220,-0.00001382,0.00005537,0.00023283,-0.00007911,0.00002366,-
 0.00001358,0.00001145,-0.00000757,-0.00002858,0.00001348,0.00019939,-0
 .00056780,0.00010176,-0.00002024,-0.00001954,-0.00017147,-0.00000947,0
 .00001878,0.00011172,0.00001580,0.00168513,-0.00006537,-0.00013346,-0.
 00030279,-0.00023020,0.00034391,-0.00061710,0.00014116,0.00065143,0.00
 014608,-0.00041332,-0.00004672,-0.00005886,-0.00011833,0.00004904,-0.0
 0005619,-0.00014339,-0.02829462,0.00036265,-0.00058922,-0.00138453,-0.
 00348927,0.00401766,-0.00024694,0.00008212,-0.00072723,0.01373916,-0.0
 5563471,0.00014922,-0.00714491,-0.00102701,0.00073308,-0.01122035,0.05
 671439,0.00018738,-0.00012033,0.00015234,-0.00052806,-0.00020057,-0.00
 014939,-0.00007212,-0.00033494,-0.00006100,-0.00040202,-0.00003053,-0.
 00015485,0.00002985,0.00007078,-0.00009792,-0.00001913,0.00000875,-0.0
 0002294,0.00013603,-0.00003145,0.00000983,0.00002408,0.00005446,-0.000
 02548,0.00013400,0.00006307,-0.00006105,0.00000073,0.00001753,-0.00001
 486,0.00001198,0.00002170,0.00000677,0.00008564,-0.00005869,0.00010233
 ,0.00014926,0.00004345,0.00007692,0.00018180,-0.00045708,-0.00206629,0
 .00055952,-0.00048641,0.00002283,0.00001100,0.00002857,-0.00003451,0.0
 0000266,-0.00000119,0.00000836,-0.00000363,-0.00000944,0.00000290,-0.0
 0000685,-0.00003292,0.00004087,0.00000208,0.00000952,-0.00001213,0.000
 00310,0.00001214,-0.00001909,-0.00001130,-0.00000106,-0.00002961,-0.00
 043276,0.00009123,-0.00040481,-0.00001767,-0.00000385,-0.00019428,0.00
 023017,0.00005412,0.00046074,-0.00030000,0.00000926,0.00013939,0.00019
 539,0.00047214,0.00029323,-0.00016932,-0.00034345,0.00013535,0.0000921
 1,0.00002866,0.00000331,-0.00002751,-0.00001435,-0.00005801,-0.0000276
 8,0.00011665,0.00040186,-0.00000502,-0.00010191,-0.00004616,0.00000220
 ,0.00005879,-0.00004841,-0.00000033,0.00001056,-0.00001573,-0.00024420
 ,-0.00032061,-0.00045356,0.00016297,-0.00025210,-0.00034628,-0.0001603
 5,0.00017460,-0.00037256,0.00000057,-0.00012572,0.00013439,0.00000812,
 0.00001194,-0.00002794,-0.00001186,0.00000895,-0.00000857,-0.00010814,
 0.00013092,-0.00019320,0.00011536,-0.00008849,0.00006849,0.00015413,-0
 .00013559,0.00014432,0.00001113,0.00039894,-0.00023634,0.00005140,0.00
 032775,-0.00008335,-0.00046447,-0.00029882,0.00008214,-0.00039257,-0.0
 0023766,0.00004234,-0.00000651,0.00004866,0.00044225,-0.00017156,-0.00
 024663,0.00020455,0.00011547,-0.00011370,0.00008993,0.00002271,0.00000
 359,-0.00001621,0.00002059,0.00015642,0.00002918,-0.00000230,-0.000021
 16,-0.00008756,0.00001720,0.00002745,0.00000157,0.00008674,-0.00005306
 ,-0.00001945,-0.00016090,-0.00007622,-0.00086262,0.00031726,0.00004034
 ,-0.00011820,0.00049074,0.00041687,-0.00003259,-0.00009888,-0.00008673
 ,0.00001430,0.00001904,0.00000555,-0.00000499,-0.00000082,0.00002845,0
 .00000516,-0.00000344,0.00022012,-0.00005739,0.00002135,-0.00022369,-0
 .00002079,0.00024637,0.00012795,0.00018813,-0.00002871,-0.00002051,0.0
 0007797,-0.00031506,-0.00023764,0.00001548,-0.00001235,0.00001509,-0.0
 0005497,0.00009261,0.00006993,0.00002950,-0.00063924,-0.00061779,-0.00
 016457,0.00003268,0.00008760,0.00023410,0.00009649,0.00005541,0.000396
 00,0.00058462,0.00091085,-0.00001783,-0.00120754,-0.00180109,-0.001119
 03,-0.00021730,0.00052043,-0.00013189,0.00164995,0.00013213,-0.0001230
 4,-0.00046431,-0.00005450,0.00003099,-0.00013233,0.00007758,-0.0000405
 1,0.02406736,-0.00228480,0.00108746,0.00094389,0.00287883,-0.00284209,
 -0.00070295,-0.00053119,0.00119905,0.00745515,0.00079125,-0.05882817,-
 0.03419083,0.00324943,0.00867587,-0.00796568,-0.00367951,0.05541824,-0
 .00041900,0.00009338,0.00034043,0.00091258,0.00016152,-0.00104256,-0.0
 0019738,-0.00069770,0.00013493,0.00012260,0.00005671,-0.00005754,0.000
 00053,-0.00007507,-0.00002180,0.00015093,-0.00007033,-0.00015682,-0.00
 049872,0.00019531,-0.00010296,-0.00004043,0.00013420,-0.00013126,-0.00
 003654,-0.00001741,0.00002610,-0.00000340,0.00002020,0.00001128,-0.000
 01556,-0.00000958,0.00001124,-0.00001678,0.00007454,0.00000188,-0.0000
 4938,0.00014570,0.00002116,-0.00114437,0.00112639,-0.00131741,-0.00119
 998,0.00034705,0.00044552,-0.00000614,0.00001330,-0.00004125,-0.000006
 75,-0.00000157,-0.00000827,0.00000678,0.00001749,-0.00000608,-0.000028
 86,-0.00000404,0.00007996,0.00000339,0.00000543,-0.00000543,0.00000230
 ,-0.00002110,-0.00001295,0.00000319,-0.00001852,0.00001432,0.00007256,
 -0.00006853,0.00026835,-0.00126117,0.00021322,0.00034253,0.00081986,-0
 .00017424,-0.00115308,0.00062228,-0.00112334,0.00174892,0.00096524,-0.
 00099974,-0.00024566,-0.00097874,0.00130016,-0.00520854,0.00115548,-0.
 00089457,0.00158977,0.00002523,0.00018788,0.00015295,-0.00113575,-0.00
 015064,-0.00025381,-0.00029713,0.00008756,0.00010647,0.00009125,-0.000
 02385,0.00014580,-0.00029727,-0.00052250,-0.00027630,-0.00471489,-0.00
 189911,0.00020614,-0.00019267,0.00055924,-0.00061447,-0.00038608,0.000
 29440,-0.00007160,-0.00018710,0.00057132,0.00002529,-0.00001154,-0.000
 09600,-0.00003226,-0.00004019,0.00002475,0.00005080,-0.00040490,-0.001
 25869,-0.00172435,0.00077417,-0.00015513,0.00034722,-0.00004599,-0.001
 09279,0.00380592,0.00013465,-0.00014623,0.00020630,-0.00003520,0.00027
 634,-0.00000483,-0.00016541,-0.00023958,-0.00004103,-0.00014693,-0.000
 07112,0.00002440,-0.00006974,-0.00012186,-0.00018863,-0.00013615,-0.00
 023855,0.00018086,0.00012134,-0.00011585,-0.00002349,0.00000583,0.0000
 1129,0.00000407,0.00001583,0.00007964,0.00000693,0.00003285,0.00003291
 ,0.00002570,0.00000112,0.00003210,0.00002195,0.00013163,-0.00008191,-0
 .00011669,0.00028026,0.00015719,0.00006450,0.00012605,0.00003118,-0.00
 000676,0.00017262,0.00029259,0.00004674,0.00013000,0.00005902,-0.00004
 067,-0.00003623,-0.00000800,0.00000726,0.00002381,0.00003003,0.0000099
 8,-0.00045889,0.00013466,-0.00008810,0.00007770,-0.00025852,-0.0000175
 2,-0.00003779,-0.00006988,0.00005870,-0.00003735,-0.00000974,0.0000079
 3,-0.00016011,-0.00012327,0.00005359,-0.00002148,0.00001727,-0.0000235
 4,0.00006188,0.00003660,0.00002369,0.00003141,-0.00044622,-0.00006400,
 -0.00000139,0.00003799,0.00006005,0.00002261,0.00003950,0.00017004,0.0
 0015952,0.00110058,0.00016329,-0.00056498,-0.00059057,-0.00018393,-0.0
 0016412,-0.00015401,-0.00001144,0.00098195,-0.00009774,-0.00097785,-0.
 00021484,0.00015054,0.00009918,-0.00012232,0.00047254,0.00068673,0.006
 91437,-0.01268804,-0.00709190,-0.00042432,-0.00095810,-0.00012368,-0.0
 0120233,-0.00234817,0.00251545,-0.08491698,0.05947021,0.01761165,0.005
 93763,-0.01404263,-0.00026584,-0.00896232,0.03431586,0.01090283,0.0904
 0414,-0.00022973,-0.00066410,-0.00111212,0.00135705,0.00115767,0.00196
 994,-0.00003711,0.00302376,-0.00171838,-0.00003775,-0.00007838,0.00024
 969,-0.00005957,0.00040986,0.00015553,-0.00002772,0.00021362,0.0006239
 5,0.00023496,0.00017364,0.00005616,0.00012081,-0.00053352,0.00028427,0
 .00001212,0.00015458,-0.00007116,0.00001071,-0.00008928,0.00002802,-0.
 00006821,-0.00000201,0.00004376,-0.00003488,-0.00040429,0.00000340,-0.
 00005942,-0.00062675,0.00018667,0.00226787,-0.00187503,0.00435368,-0.0
 0089409,-0.00347204,-0.00208180,-0.00004454,0.00002346,0.00017532,0.00
 000016,0.00002074,-0.00000805,-0.00000124,-0.00010981,0.00002947,0.000
 02795,-0.00009159,-0.00026113,0.00002463,0.00000321,0.00003778,0.00000
 341,0.00009219,0.00003143,-0.00001732,0.00006958,-0.00012823,-0.000068
 69,-0.00026187,-0.00034037,0.00273717,0.00031835,-0.00046624,-0.002916
 09,0.00002225,0.00088543,-0.00141167,-0.00000640,0.00038445,-0.0004243
 1,0.00127332,0.00309537,-0.00040300,-0.00915966,0.01210060,-0.00225794
 ,0.00073061,-0.00285053,0.00013602,0.00003189,-0.00009421,-0.00116817,
 0.00018222,0.00040830,0.00053802,-0.00031967,-0.00077880,-0.00052631,0
 .00194585,-0.00135555,0.00067629,0.00108030,0.00046945,-0.00035775,0.0
 0751227,0.00593015,0.00170720,-0.00063251,-0.00123533,0.00157405,-0.00
 073548,0.00082584,0.00059396,-0.00164573,-0.00014503,0.00004085,0.0002
 6554,0.00011858,0.00007024,-0.00008593,-0.00016901,0.00123399,0.003617
 02,0.00494775,-0.00196000,0.00040666,-0.00115673,-0.00251786,0.0015383
 6,-0.01186746,-0.00017555,0.00056989,0.00002568,0.00020627,-0.00105774
 ,0.00031176,0.00054212,0.00089036,-0.00005323,0.00024890,0.00044883,-0
 .00017076,-0.00006244,0.00030865,0.00037363,-0.00045848,0.00056255,-0.
 00050853,-0.00031429,0.00048222,-0.00038930,0.00000057,-0.00004661,0.0
 0003585,-0.00006793,-0.00017887,-0.00000159,0.00000543,-0.00011212,-0.
 00006626,0.00002960,-0.00005127,0.00001781,-0.00023838,0.00021112,-0.0
 0007060,0.00011646,-0.00082563,-0.00011237,-0.00008682,-0.00037880,0.0
 0011236,-0.00056455,-0.00122067,0.00021965,-0.00029720,-0.00022660,0.0
 0004206,0.00010222,0.00004019,0.00004531,-0.00006477,-0.00013494,-0.00
 007677,0.00122843,-0.00032825,0.00058475,-0.00023815,0.00082097,-0.000
 15596,-0.00043495,0.00035997,-0.00016594,0.00006120,0.00018379,-0.0000
 2499,0.00052307,0.00077295,-0.00045996,0.00006996,-0.00008763,0.000064
 47,-0.00019364,-0.00015725,-0.00002330,-0.00038051,0.00019644,0.000438
 99,0.00007315,-0.00002802,-0.00025297,-0.00000247,-0.00009688,-0.00008
 215,0.00063623,-0.00008623,-0.00066733,0.00013926,0.00052236,0.0004793
 9,0.00014612,-0.00029271,0.00013842,0.00061089,0.00297363,0.00022880,-
 0.00029164,-0.00027922,-0.00128311,0.00020942,-0.00005577,0.00004442,-
 0.00067438,-0.02078474,0.00380254,0.00018974,0.00057385,-0.00098117,-0
 .00086312,0.00100475,-0.00015945,0.06535918,-0.26650965,-0.06111227,-0
 .00344131,-0.00115266,-0.00878500,0.00073161,0.00613621,0.00164693,-0.
 06022335,0.27356064,0.00031579,-0.00074522,0.00093221,-0.00204211,0.00
 035013,-0.00193513,-0.00033402,0.00016924,-0.00070413,0.00003737,-0.00
 011061,-0.00014258,-0.00010832,0.00006161,-0.00007035,0.00024157,-0.00
 002590,-0.00026400,0.00002487,0.00023802,0.00002712,0.00002204,0.00006
 998,0.00004482,0.00006329,-0.00000788,-0.00003971,0.00000914,0.0000020
 5,0.00003708,-0.00001674,0.00004404,0.00001512,0.00008403,-0.00005203,
 0.00014120,-0.00003418,0.00006456,0.00025107,-0.00044675,0.00116398,0.
 00021907,0.00029715,-0.00261268,0.00168649,-0.00000547,0.00011363,-0.0
 0004098,-0.00000449,0.00000160,0.00001129,-0.00001104,-0.00002928,0.00
 000529,-0.00003311,-0.00010247,0.00010207,0.00000959,0.00002432,-0.000
 00792,-0.00001131,0.00001636,-0.00003985,-0.00001215,-0.00000029,-0.00
 007013,0.00026285,-0.00021928,0.00023349,0.00091074,-0.00003261,-0.000
 37942,-0.00067505,0.00023583,0.00107243,-0.00025748,-0.00007251,-0.000
 41730,0.00086774,0.00395069,0.00120704,-0.00198307,-0.00043326,0.00658
 087,-0.00070211,0.00085858,-0.00155408,-0.00000007,-0.00004705,-0.0001
 2241,0.00030585,0.00026355,0.00036294,0.00014082,-0.00047968,-0.000263
 13,-0.00020981,0.00109934,-0.00070519,0.00030911,0.00051642,0.00025635
 ,0.00046469,0.00640844,-0.01420449,0.00013240,-0.00025875,-0.00035904,
 0.00014166,-0.00009655,-0.00026389,0.00011577,-0.00055782,0.00002897,0
 .00002717,0.00008812,-0.00001479,0.00001384,-0.00002050,-0.00004698,0.
 00008574,0.00075699,0.00047643,-0.00040131,-0.00008805,-0.00029217,0.0
 0084634,-0.00277868,-0.00151236,0.00025384,0.00015049,-0.00006883,0.00
 008664,-0.00005008,-0.00002691,-0.00022006,0.00000189,0.00010686,-0.00
 005829,0.00003958,-0.00001090,0.00004525,0.00015862,0.00025913,-0.0001
 7781,-0.00010014,0.00010210,-0.00001873,0.00006635,-0.00001067,0.00001
 902,-0.00000843,-0.00000837,-0.00000928,0.00001109,0.00003289,0.000007
 60,-0.00003839,-0.00004778,0.00002389,0.00000328,0.00000263,-0.0000659
 3,0.00002364,0.00000232,-0.00013237,-0.00014805,-0.00031076,0.00009051
 ,-0.00005792,-0.00004650,0.00023647,-0.00001940,-0.00000530,-0.0001820
 3,-0.00014826,0.00005389,0.00004789,0.00002096,0.00000295,-0.00001606,
 -0.00000777,-0.00001443,0.00036867,0.00012347,0.00009314,-0.00008778,0
 .00005249,-0.00006289,0.00006407,0.00003727,0.00007798,0.00000330,0.00
 002130,0.00002400,-0.00007284,0.00000852,-0.00005586,0.00002486,-0.000
 00845,-0.00000615,0.00001371,0.00001095,0.00001487,-0.00005538,-0.0002
 9193,0.00000414,0.00000810,-0.00001760,-0.00012242,0.00003689,0.000003
 41,0.00011242,-0.00001345,0.00032660,-0.00047085,-0.00090093,-0.000041
 71,-0.00020054,0.00033591,-0.00026255,0.00020195,-0.00129665,0.0015940
 1,0.00169392,0.00027583,-0.00065462,0.00005282,0.00090191,-0.00078637,
 -0.00103679,-0.00983610,0.02387706,0.00907656,0.00009094,-0.00040194,0
 .00019237,0.00271200,0.00379607,-0.00385603,0.01983924,-0.06224943,-0.
 07970173,0.01069934,-0.03020456,-0.00777208,-0.00040867,0.00200879,-0.
 00068825,-0.02107451,0.05543536,0.09217578\\-0.00001497,0.00001931,-0.
 00002105,0.00002730,-0.00000267,0.00004295,-0.00000822,-0.00002444,-0.
 00001880,-0.00000573,-0.00003335,-0.00000273,-0.00001787,0.00001094,-0
 .00003173,-0.00000535,0.00000260,0.00002587,-0.00000915,0.00000637,0.0
 0000047,-0.00001209,0.00000696,0.00000159,0.00000618,0.00000158,0.0000
 0340,0.00001122,-0.00000198,0.00000165,0.00001419,-0.00000912,-0.00000
 633,-0.00000094,-0.00001255,0.00002835,0.00002238,0.00000157,0.0000230
 9,0.00002779,0.00004561,0.00002794,0.00001256,0.00000312,-0.00000713,0
 .00002733,-0.00001688,-0.00005233,-0.00001364,0.00000590,0.00000257,-0
 .00000315,0.00001183,0.00001112,-0.00000094,-0.00002244,0.00002882,0.0
 0000158,0.00001898,-0.00000974,0.00000801,0.00001069,-0.00000939,-0.00
 002066,0.00001246,-0.00001385,-0.00000002,-0.00000852,-0.00000656,-0.0
 0000038,-0.00001071,0.00001611,-0.00002212,0.00002820,-0.00000266,0.00
 000304,-0.00003310,-0.00003762,-0.00001001,-0.00003354,-0.00000898,-0.
 00000476,0.00003405,0.00000122,0.00001477,0.00001243,-0.00001418,0.000
 00615,0.00000322,-0.00000411,0.00000380,-0.00000340,0.00001396,-0.0000
 0261,0.00001435,-0.00000309,-0.00000028,-0.00000458,-0.00000724,-0.000
 00297,0.00000380,-0.00000497,-0.00001051,0.00001560,-0.00004286,-0.000
 00777,0.00002816,0.00002499,0.00003521,-0.00001651,0.00001617,0.000012
 97,-0.00000032,0.00001697,0.00000665,0.00000748,0.00000212,-0.00000297
 ,0.00000670,-0.00000663,-0.00003782,0.00002034,-0.00001923,0.00001610,
 0.00001122,-0.00000564,0.00002345,-0.00005974,0.00005054,-0.00000948,-
 0.00001693,-0.00001053,-0.00000939,0.00003226,-0.00000866,-0.00000957,
 -0.00002496,0.00000651,0.00002120,-0.00002031,-0.00001849,0.00000382,0
 .00001261,-0.00000449,-0.00002948,0.00002574,-0.00002914,0.00003670,-0
 .00003289,0.00003395,0.00000896,-0.00000457,-0.00000069,-0.00001549,-0
 .00000575,-0.00000427,0.00001139,-0.00000453,-0.00000183,0.00000552,0.
 00000539,-0.00000261,-0.00000609,-0.00000997,0.00000301,-0.00000870,-0
 .00003264,0.00001118,-0.00001192,0.00002288,0.00003511,0.00000009,0.00
 001730,0.00002434,-0.00001646,-0.00000521,0.00001098,0.00000177,0.0000
 0808,0.00000464,0.00000323,0.00000275,-0.00001039,-0.00001668,0.000031
 81,0.00000608,0.00003756,-0.00005757,-0.00002723,0.00001717,0.00000317
 ,-0.00001196,-0.00000320,-0.00001743,-0.00001877,-0.00001073,0.0000125
 4,-0.00000863,0.00000311,-0.00000619,-0.00000196,-0.00000070,-0.000001
 03,0.00000903,-0.00000839,0.00000425,-0.00000897,-0.00000726,0.0000060
 9,0.00000312,0.00000073,-0.00000188,0.00000832,-0.00000224,0.00000517,
 0.00000611,0.,0.00000635,-0.00000282,0.00000203,-0.00000843,-0.0000016
 4,-0.00000902,0.00001170,0.00001135,-0.00000439,-0.00000295,-0.0000000
 3,-0.00000561,0.00000424,0.00000107,0.00000135,-0.00000281,0.00000162,
 -0.00000789,0.00000379,-0.00000131,-0.00000085,-0.00000480,0.00000259,
 0.00000793,-0.00000175,0.00000310,-0.00003601,-0.00001944,-0.00003423,
 0.00000774,0.00000065,0.00000429,-0.00000648,0.00001565,0.00001923\\\@


 Until you make peace with who you are,
 you'll never be content with what you have.
                           -- Doris Mortman
 Job cpu time:      19 days 20 hours 13 minutes 33.7 seconds.
 File lengths (MBytes):  RWF=  23877 Int=      0 D2E=      0 Chk=     98 Scr=      1
 Normal termination of Gaussian 09 at Sat Apr  9 11:45:42 2016.
