 Entering Gaussian System, Link 0=g09
 Initial command:
 /share/apps//g09/l1.exe "/scratch/Gau-35295.inp" -scrdir="/scratch/"
 Entering Link 1 = /share/apps//g09/l1.exe PID=     35296.
  
 Copyright (c) 1988,1990,1992,1993,1995,1998,2003,2009,2013,
            Gaussian, Inc.  All Rights Reserved.
  
 This is part of the Gaussian(R) 09 program.  It is based on
 the Gaussian(R) 03 system (copyright 2003, Gaussian, Inc.),
 the Gaussian(R) 98 system (copyright 1998, Gaussian, Inc.),
 the Gaussian(R) 94 system (copyright 1995, Gaussian, Inc.),
 the Gaussian 92(TM) system (copyright 1992, Gaussian, Inc.),
 the Gaussian 90(TM) system (copyright 1990, Gaussian, Inc.),
 the Gaussian 88(TM) system (copyright 1988, Gaussian, Inc.),
 the Gaussian 86(TM) system (copyright 1986, Carnegie Mellon
 University), and the Gaussian 82(TM) system (copyright 1983,
 Carnegie Mellon University). Gaussian is a federally registered
 trademark of Gaussian, Inc.
  
 This software contains proprietary and confidential information,
 including trade secrets, belonging to Gaussian, Inc.
  
 This software is provided under written license and may be
 used, copied, transmitted, or stored only in accord with that
 written license.
  
 The following legend is applicable only to US Government
 contracts under FAR:
  
                    RESTRICTED RIGHTS LEGEND
  
 Use, reproduction and disclosure by the US Government is
 subject to restrictions as set forth in subparagraphs (a)
 and (c) of the Commercial Computer Software - Restricted
 Rights clause in FAR 52.227-19.
  
 Gaussian, Inc.
 340 Quinnipiac St., Bldg. 40, Wallingford CT 06492
  
  
 ---------------------------------------------------------------
 Warning -- This program may not be used in any manner that
 competes with the business of Gaussian, Inc. or will provide
 assistance to any competitor of Gaussian, Inc.  The licensee
 of this program is prohibited from giving any competitor of
 Gaussian, Inc. access to this program.  By using this program,
 the user acknowledges that Gaussian, Inc. is engaged in the
 business of creating and licensing software in the field of
 computational chemistry and represents and warrants to the
 licensee that it is not a competitor of Gaussian, Inc. and that
 it will not use this program in any manner prohibited above.
 ---------------------------------------------------------------
  

 Cite this work as:
 Gaussian 09, Revision D.01,
 M. J. Frisch, G. W. Trucks, H. B. Schlegel, G. E. Scuseria, 
 M. A. Robb, J. R. Cheeseman, G. Scalmani, V. Barone, B. Mennucci, 
 G. A. Petersson, H. Nakatsuji, M. Caricato, X. Li, H. P. Hratchian, 
 A. F. Izmaylov, J. Bloino, G. Zheng, J. L. Sonnenberg, M. Hada, 
 M. Ehara, K. Toyota, R. Fukuda, J. Hasegawa, M. Ishida, T. Nakajima, 
 Y. Honda, O. Kitao, H. Nakai, T. Vreven, J. A. Montgomery, Jr., 
 J. E. Peralta, F. Ogliaro, M. Bearpark, J. J. Heyd, E. Brothers, 
 K. N. Kudin, V. N. Staroverov, T. Keith, R. Kobayashi, J. Normand, 
 K. Raghavachari, A. Rendell, J. C. Burant, S. S. Iyengar, J. Tomasi, 
 M. Cossi, N. Rega, J. M. Millam, M. Klene, J. E. Knox, J. B. Cross, 
 V. Bakken, C. Adamo, J. Jaramillo, R. Gomperts, R. E. Stratmann, 
 O. Yazyev, A. J. Austin, R. Cammi, C. Pomelli, J. W. Ochterski, 
 R. L. Martin, K. Morokuma, V. G. Zakrzewski, G. A. Voth, 
 P. Salvador, J. J. Dannenberg, S. Dapprich, A. D. Daniels, 
 O. Farkas, J. B. Foresman, J. V. Ortiz, J. Cioslowski, 
 and D. J. Fox, Gaussian, Inc., Wallingford CT, 2013.
 
 ******************************************
 Gaussian 09:  EM64L-G09RevD.01 24-Apr-2013
                 6-Apr-2016 
 ******************************************
 %nproc=20
 Will use up to   20 processors via shared memory.
 %mem=80GB
 %chk=Tri_A131_of.chk
 ----------------------------------------------------------------------
 #P PBE1PBE/6-311+G(d,p) opt=ModRedundant freq optcyc=999 EmpiricalDisp
 ersion=GD3
 ----------------------------------------------------------------------
 1/6=999,14=-1,18=120,19=15,26=3,38=1/1,3;
 2/9=110,12=2,17=6,18=5,40=1/2;
 3/5=4,6=6,7=111,11=2,16=1,25=1,30=1,71=1,74=-13,124=31/1,2,3;
 4//1;
 5/5=2,38=5/2;
 6/7=2,8=2,9=2,10=2,28=1/1;
 7//1,2,3,16;
 1/6=999,14=-1,18=20,19=15,26=3/3(2);
 2/9=110/2;
 99//99;
 2/9=110/2;
 3/5=4,6=6,7=111,11=2,16=1,25=1,30=1,71=1,74=-13,124=31/1,2,3;
 4/5=5,16=3,69=1/1;
 5/5=2,38=5/2;
 7//1,2,3,16;
 1/6=999,14=-1,18=20,19=15,26=3/3(-5);
 2/9=110/2;
 6/7=2,8=2,9=2,10=2,19=2,28=1/1;
 99/9=1/99;
 Leave Link    1 at Wed Apr  6 20:36:32 2016, MaxMem= 10737418240 cpu:         1.6
 (Enter /share/apps//g09/l101.exe)
 -------
 disacch
 -------
 Symbolic Z-matrix:
 Charge =  1 Multiplicity = 1
 O                     0.67287  -6.15492   8.17249 
 C                    -0.36643  -6.96843   7.635 
 C                    -1.31472  -7.52471   8.73217 
 C                    -0.54759  -7.67698   10.05405 
 C                     0.0705   -6.315     10.5266 
 C                     0.22977  -5.37173   9.32078 
 H                     0.14947  -7.78862   7.11242 
 H                    -1.65112  -8.52343   8.40019 
 H                    -1.2423   -8.04344   10.8225 
 H                    -0.62824  -5.83776   11.23248 
 H                    -0.75962  -4.94436   9.08545 
 O                     1.28669  -6.53257   11.21706 
 O                     0.51865  -8.62086   9.84173 
 O                    -2.43092  -6.67544   8.98195 
 O                    -1.18672  -6.23271   6.73427 
 C                     1.20705  -4.23129   9.53313 
 H                     1.03534  -3.79244   10.52672 
 H                     2.24343  -4.59578   9.50739 
 O                     1.01378  -3.19358   8.55051 
 H                     1.72383  -3.23367   7.85183 
 H                     1.66342  -7.34924   10.8243 
 H                     0.35763  -9.40022   10.3984 
 H                    -2.77262  -6.40559   8.10805 
 O                    -0.37417  -4.19864   3.17936 
 C                     0.81362  -4.62785   3.86978 
 C                     0.51386  -5.07822   5.31723 
 C                    -0.7044   -6.02254   5.39604 
 C                    -1.89185  -5.43977   4.62626 
 C                    -1.4667   -5.13682   3.18243 
 H                     1.27631  -5.46656   3.32017 
 H                     0.27155  -4.1906    5.92115 
 H                    -0.43111  -6.99682   4.94755 
 H                    -2.70134  -6.19252   4.61572 
 H                    -1.14706  -6.07939   2.69538 
 O                    -2.3514   -4.24857   5.29367 
 O                     1.72818  -5.66418   5.7758 
 O                     1.75623  -3.5922    3.7844 
 C                    -2.58366  -4.53424   2.32218 
 H                    -2.18059  -4.2878    1.32865 
 H                    -3.37491  -5.28666   2.19355 
 O                    -3.205    -3.3807    2.91988 
 H                    -2.68502  -2.58126   2.6753 
 H                    -2.87206  -3.75566   4.60321 
 H                     1.59915  -5.8307    6.74478 
 O                     1.44852   0.09611   4.1016 
 C                     1.34536   0.16336   5.49893 
 C                     2.31795  -0.77199   6.2581 
 C                     2.57042  -2.08393   5.49994 
 C                     1.46351  -2.35368   4.47615 
 C                     1.41676  -1.20225   3.45519 
 H                     1.60708   1.21046   5.72843 
 H                     1.85695  -1.00899   7.23234 
 H                     3.52437  -1.97114   4.95558 
 H                     2.33528  -1.25875   2.84475 
 H                     0.48838  -2.42775   4.97869 
 O                     2.70295  -3.13996   6.46105 
 O                     3.58908  -0.15438   6.43154 
 O                     0.00809  -0.07841   5.98891 
 C                     0.22129  -1.26016   2.49659 
 H                     0.11115  -0.27371   2.02762 
 H                     0.43106  -2.00203   1.70892 
 O                    -1.01803  -1.56827   3.15497 
 H                    -0.90016  -2.51483   3.40018 
 H                     2.72824  -4.00848   5.99167 
 H                     3.54583   0.45941   7.18499 
 C                    -0.92863   0.93903   5.5299 
 H                    -0.47211   1.92602   5.71625 
 H                    -1.07884   0.82121   4.44612 
 C                    -2.24355   0.81481   6.28169 
 H                    -2.83176   1.71235   6.03986 
 H                    -2.04126   0.8846    7.36287 
 C                    -3.06155  -0.45493   5.93612 
 H                    -3.98395  -0.16822   5.41197 
 H                    -2.49933  -1.05298   5.20092 
 C                    -3.46654  -1.32996   7.13498 
 H                    -4.15459  -0.77657   7.7936 
 H                    -4.03364  -2.20032   6.76762 
 C                    -2.30953  -1.82099   8.00671 
 H                    -2.64754  -2.59184   8.71178 
 H                    -1.85601  -1.00912   8.5906 
 N                    -1.20902  -2.41094   7.17828 
 H                    -0.77869  -1.65222   6.60166 
 H                    -1.5786   -3.15491   6.54223 
 H                    -0.42571  -2.80419   7.78075 
 
 The following ModRedundant input section has been read:
 B      58      82 B                                                           
 B      35      83 B                                                           
 B      19      84 B                                                           
 B       1      44 B                                                           
 B      36      64 B                                                           
 
 NAtoms=     84 NQM=       84 NQMF=       0 NMMI=      0 NMMIF=      0
                NMic=       0 NMicF=      0.
                    Isotopes and Nuclear Properties:
 (Nuclear quadrupole moments (NQMom) in fm**2, nuclear magnetic moments (NMagM)
  in nuclear magnetons)

  Atom         1           2           3           4           5           6           7           8           9          10
 IAtWgt=          16          12          12          12          12          12           1           1           1           1
 AtmWgt=  15.9949146  12.0000000  12.0000000  12.0000000  12.0000000  12.0000000   1.0078250   1.0078250   1.0078250   1.0078250
 NucSpn=           0           0           0           0           0           0           1           1           1           1
 AtZEff=   0.0000000   0.0000000   0.0000000   0.0000000   0.0000000   0.0000000   0.0000000   0.0000000   0.0000000   0.0000000
 NQMom=    0.0000000   0.0000000   0.0000000   0.0000000   0.0000000   0.0000000   0.0000000   0.0000000   0.0000000   0.0000000
 NMagM=    0.0000000   0.0000000   0.0000000   0.0000000   0.0000000   0.0000000   2.7928460   2.7928460   2.7928460   2.7928460
 AtZNuc=   8.0000000   6.0000000   6.0000000   6.0000000   6.0000000   6.0000000   1.0000000   1.0000000   1.0000000   1.0000000

  Atom        11          12          13          14          15          16          17          18          19          20
 IAtWgt=           1          16          16          16          16          12           1           1          16           1
 AtmWgt=   1.0078250  15.9949146  15.9949146  15.9949146  15.9949146  12.0000000   1.0078250   1.0078250  15.9949146   1.0078250
 NucSpn=           1           0           0           0           0           0           1           1           0           1
 AtZEff=   0.0000000   0.0000000   0.0000000   0.0000000   0.0000000   0.0000000   0.0000000   0.0000000   0.0000000   0.0000000
 NQMom=    0.0000000   0.0000000   0.0000000   0.0000000   0.0000000   0.0000000   0.0000000   0.0000000   0.0000000   0.0000000
 NMagM=    2.7928460   0.0000000   0.0000000   0.0000000   0.0000000   0.0000000   2.7928460   2.7928460   0.0000000   2.7928460
 AtZNuc=   1.0000000   8.0000000   8.0000000   8.0000000   8.0000000   6.0000000   1.0000000   1.0000000   8.0000000   1.0000000

  Atom        21          22          23          24          25          26          27          28          29          30
 IAtWgt=           1           1           1          16          12          12          12          12          12           1
 AtmWgt=   1.0078250   1.0078250   1.0078250  15.9949146  12.0000000  12.0000000  12.0000000  12.0000000  12.0000000   1.0078250
 NucSpn=           1           1           1           0           0           0           0           0           0           1
 AtZEff=   0.0000000   0.0000000   0.0000000   0.0000000   0.0000000   0.0000000   0.0000000   0.0000000   0.0000000   0.0000000
 NQMom=    0.0000000   0.0000000   0.0000000   0.0000000   0.0000000   0.0000000   0.0000000   0.0000000   0.0000000   0.0000000
 NMagM=    2.7928460   2.7928460   2.7928460   0.0000000   0.0000000   0.0000000   0.0000000   0.0000000   0.0000000   2.7928460
 AtZNuc=   1.0000000   1.0000000   1.0000000   8.0000000   6.0000000   6.0000000   6.0000000   6.0000000   6.0000000   1.0000000

  Atom        31          32          33          34          35          36          37          38          39          40
 IAtWgt=           1           1           1           1          16          16          16          12           1           1
 AtmWgt=   1.0078250   1.0078250   1.0078250   1.0078250  15.9949146  15.9949146  15.9949146  12.0000000   1.0078250   1.0078250
 NucSpn=           1           1           1           1           0           0           0           0           1           1
 AtZEff=   0.0000000   0.0000000   0.0000000   0.0000000   0.0000000   0.0000000   0.0000000   0.0000000   0.0000000   0.0000000
 NQMom=    0.0000000   0.0000000   0.0000000   0.0000000   0.0000000   0.0000000   0.0000000   0.0000000   0.0000000   0.0000000
 NMagM=    2.7928460   2.7928460   2.7928460   2.7928460   0.0000000   0.0000000   0.0000000   0.0000000   2.7928460   2.7928460
 AtZNuc=   1.0000000   1.0000000   1.0000000   1.0000000   8.0000000   8.0000000   8.0000000   6.0000000   1.0000000   1.0000000

  Atom        41          42          43          44          45          46          47          48          49          50
 IAtWgt=          16           1           1           1          16          12          12          12          12          12
 AtmWgt=  15.9949146   1.0078250   1.0078250   1.0078250  15.9949146  12.0000000  12.0000000  12.0000000  12.0000000  12.0000000
 NucSpn=           0           1           1           1           0           0           0           0           0           0
 AtZEff=   0.0000000   0.0000000   0.0000000   0.0000000   0.0000000   0.0000000   0.0000000   0.0000000   0.0000000   0.0000000
 NQMom=    0.0000000   0.0000000   0.0000000   0.0000000   0.0000000   0.0000000   0.0000000   0.0000000   0.0000000   0.0000000
 NMagM=    0.0000000   2.7928460   2.7928460   2.7928460   0.0000000   0.0000000   0.0000000   0.0000000   0.0000000   0.0000000
 AtZNuc=   8.0000000   1.0000000   1.0000000   1.0000000   8.0000000   6.0000000   6.0000000   6.0000000   6.0000000   6.0000000

  Atom        51          52          53          54          55          56          57          58          59          60
 IAtWgt=           1           1           1           1           1          16          16          16          12           1
 AtmWgt=   1.0078250   1.0078250   1.0078250   1.0078250   1.0078250  15.9949146  15.9949146  15.9949146  12.0000000   1.0078250
 NucSpn=           1           1           1           1           1           0           0           0           0           1
 AtZEff=   0.0000000   0.0000000   0.0000000   0.0000000   0.0000000   0.0000000   0.0000000   0.0000000   0.0000000   0.0000000
 NQMom=    0.0000000   0.0000000   0.0000000   0.0000000   0.0000000   0.0000000   0.0000000   0.0000000   0.0000000   0.0000000
 NMagM=    2.7928460   2.7928460   2.7928460   2.7928460   2.7928460   0.0000000   0.0000000   0.0000000   0.0000000   2.7928460
 AtZNuc=   1.0000000   1.0000000   1.0000000   1.0000000   1.0000000   8.0000000   8.0000000   8.0000000   6.0000000   1.0000000

  Atom        61          62          63          64          65          66          67          68          69          70
 IAtWgt=           1          16           1           1           1          12           1           1          12           1
 AtmWgt=   1.0078250  15.9949146   1.0078250   1.0078250   1.0078250  12.0000000   1.0078250   1.0078250  12.0000000   1.0078250
 NucSpn=           1           0           1           1           1           0           1           1           0           1
 AtZEff=   0.0000000   0.0000000   0.0000000   0.0000000   0.0000000   0.0000000   0.0000000   0.0000000   0.0000000   0.0000000
 NQMom=    0.0000000   0.0000000   0.0000000   0.0000000   0.0000000   0.0000000   0.0000000   0.0000000   0.0000000   0.0000000
 NMagM=    2.7928460   0.0000000   2.7928460   2.7928460   2.7928460   0.0000000   2.7928460   2.7928460   0.0000000   2.7928460
 AtZNuc=   1.0000000   8.0000000   1.0000000   1.0000000   1.0000000   6.0000000   1.0000000   1.0000000   6.0000000   1.0000000

  Atom        71          72          73          74          75          76          77          78          79          80
 IAtWgt=           1          12           1           1          12           1           1          12           1           1
 AtmWgt=   1.0078250  12.0000000   1.0078250   1.0078250  12.0000000   1.0078250   1.0078250  12.0000000   1.0078250   1.0078250
 NucSpn=           1           0           1           1           0           1           1           0           1           1
 AtZEff=   0.0000000   0.0000000   0.0000000   0.0000000   0.0000000   0.0000000   0.0000000   0.0000000   0.0000000   0.0000000
 NQMom=    0.0000000   0.0000000   0.0000000   0.0000000   0.0000000   0.0000000   0.0000000   0.0000000   0.0000000   0.0000000
 NMagM=    2.7928460   0.0000000   2.7928460   2.7928460   0.0000000   2.7928460   2.7928460   0.0000000   2.7928460   2.7928460
 AtZNuc=   1.0000000   6.0000000   1.0000000   1.0000000   6.0000000   1.0000000   1.0000000   6.0000000   1.0000000   1.0000000

  Atom        81          82          83          84
 IAtWgt=          14           1           1           1
 AtmWgt=  14.0030740   1.0078250   1.0078250   1.0078250
 NucSpn=           2           1           1           1
 AtZEff=   0.0000000   0.0000000   0.0000000   0.0000000
 NQMom=    2.0440000   0.0000000   0.0000000   0.0000000
 NMagM=    0.4037610   2.7928460   2.7928460   2.7928460
 AtZNuc=   7.0000000   1.0000000   1.0000000   1.0000000
 Leave Link  101 at Wed Apr  6 20:36:33 2016, MaxMem= 10737418240 cpu:         4.0
 (Enter /share/apps//g09/l103.exe)

 GradGradGradGradGradGradGradGradGradGradGradGradGradGradGradGradGradGrad
 Berny optimization.
 Initialization pass.
                           ----------------------------
                           !    Initial Parameters    !
                           ! (Angstroms and Degrees)  !
 --------------------------                            --------------------------
 ! Name  Definition              Value          Derivative Info.                !
 --------------------------------------------------------------------------------
 ! R1    R(1,2)                  1.4251         estimate D2E/DX2                !
 ! R2    R(1,6)                  1.4589         estimate D2E/DX2                !
 ! R3    R(1,44)                 1.7325         estimate D2E/DX2                !
 ! R4    R(2,3)                  1.5532         estimate D2E/DX2                !
 ! R5    R(2,7)                  1.1009         estimate D2E/DX2                !
 ! R6    R(2,15)                 1.4232         estimate D2E/DX2                !
 ! R7    R(3,4)                  1.5359         estimate D2E/DX2                !
 ! R8    R(3,8)                  1.1049         estimate D2E/DX2                !
 ! R9    R(3,14)                 1.4246         estimate D2E/DX2                !
 ! R10   R(4,5)                  1.5685         estimate D2E/DX2                !
 ! R11   R(4,9)                  1.0988         estimate D2E/DX2                !
 ! R12   R(4,13)                 1.4397         estimate D2E/DX2                !
 ! R13   R(5,6)                  1.5392         estimate D2E/DX2                !
 ! R14   R(5,10)                 1.1019         estimate D2E/DX2                !
 ! R15   R(5,12)                 1.4153         estimate D2E/DX2                !
 ! R16   R(6,11)                 1.1031         estimate D2E/DX2                !
 ! R17   R(6,16)                 1.5168         estimate D2E/DX2                !
 ! R18   R(12,21)                0.9814         estimate D2E/DX2                !
 ! R19   R(13,22)                0.9712         estimate D2E/DX2                !
 ! R20   R(14,23)                0.9764         estimate D2E/DX2                !
 ! R21   R(15,27)                1.4379         estimate D2E/DX2                !
 ! R22   R(16,17)                1.0997         estimate D2E/DX2                !
 ! R23   R(16,18)                1.0989         estimate D2E/DX2                !
 ! R24   R(16,19)                1.4421         estimate D2E/DX2                !
 ! R25   R(19,20)                0.997          estimate D2E/DX2                !
 ! R26   R(19,84)                1.6782         estimate D2E/DX2                !
 ! R27   R(24,25)                1.4394         estimate D2E/DX2                !
 ! R28   R(24,29)                1.4401         estimate D2E/DX2                !
 ! R29   R(25,26)                1.5453         estimate D2E/DX2                !
 ! R30   R(25,30)                1.1043         estimate D2E/DX2                !
 ! R31   R(25,37)                1.403          estimate D2E/DX2                !
 ! R32   R(26,27)                1.5434         estimate D2E/DX2                !
 ! R33   R(26,31)                1.1006         estimate D2E/DX2                !
 ! R34   R(26,36)                1.4242         estimate D2E/DX2                !
 ! R35   R(27,28)                1.5304         estimate D2E/DX2                !
 ! R36   R(27,32)                1.1068         estimate D2E/DX2                !
 ! R37   R(28,29)                1.5353         estimate D2E/DX2                !
 ! R38   R(28,33)                1.1054         estimate D2E/DX2                !
 ! R39   R(28,35)                1.4407         estimate D2E/DX2                !
 ! R40   R(29,34)                1.1081         estimate D2E/DX2                !
 ! R41   R(29,38)                1.5332         estimate D2E/DX2                !
 ! R42   R(35,43)                0.9954         estimate D2E/DX2                !
 ! R43   R(35,83)                1.8309         estimate D2E/DX2                !
 ! R44   R(36,44)                0.9916         estimate D2E/DX2                !
 ! R45   R(36,64)                1.9463         estimate D2E/DX2                !
 ! R46   R(37,49)                1.4485         estimate D2E/DX2                !
 ! R47   R(38,39)                1.1001         estimate D2E/DX2                !
 ! R48   R(38,40)                1.0994         estimate D2E/DX2                !
 ! R49   R(38,41)                1.4401         estimate D2E/DX2                !
 ! R50   R(41,42)                0.9845         estimate D2E/DX2                !
 ! R51   R(45,46)                1.4027         estimate D2E/DX2                !
 ! R52   R(45,50)                1.4507         estimate D2E/DX2                !
 ! R53   R(46,47)                1.5483         estimate D2E/DX2                !
 ! R54   R(46,51)                1.1034         estimate D2E/DX2                !
 ! R55   R(46,58)                1.4446         estimate D2E/DX2                !
 ! R56   R(47,48)                1.5361         estimate D2E/DX2                !
 ! R57   R(47,52)                1.1036         estimate D2E/DX2                !
 ! R58   R(47,57)                1.4238         estimate D2E/DX2                !
 ! R59   R(48,49)                1.5317         estimate D2E/DX2                !
 ! R60   R(48,53)                1.1041         estimate D2E/DX2                !
 ! R61   R(48,56)                1.434          estimate D2E/DX2                !
 ! R62   R(49,50)                1.5396         estimate D2E/DX2                !
 ! R63   R(49,55)                1.0995         estimate D2E/DX2                !
 ! R64   R(50,54)                1.1043         estimate D2E/DX2                !
 ! R65   R(50,59)                1.5334         estimate D2E/DX2                !
 ! R66   R(56,64)                0.9876         estimate D2E/DX2                !
 ! R67   R(57,65)                0.9728         estimate D2E/DX2                !
 ! R68   R(58,66)                1.4572         estimate D2E/DX2                !
 ! R69   R(58,82)                1.8632         estimate D2E/DX2                !
 ! R70   R(59,60)                1.0978         estimate D2E/DX2                !
 ! R71   R(59,61)                1.1022         estimate D2E/DX2                !
 ! R72   R(59,62)                1.4368         estimate D2E/DX2                !
 ! R73   R(62,63)                0.9849         estimate D2E/DX2                !
 ! R74   R(66,67)                1.1033         estimate D2E/DX2                !
 ! R75   R(66,68)                1.1005         estimate D2E/DX2                !
 ! R76   R(66,69)                1.5197         estimate D2E/DX2                !
 ! R77   R(69,70)                1.1            estimate D2E/DX2                !
 ! R78   R(69,71)                1.1022         estimate D2E/DX2                !
 ! R79   R(69,72)                1.5494         estimate D2E/DX2                !
 ! R80   R(72,73)                1.099          estimate D2E/DX2                !
 ! R81   R(72,74)                1.1019         estimate D2E/DX2                !
 ! R82   R(72,75)                1.5385         estimate D2E/DX2                !
 ! R83   R(75,76)                1.1016         estimate D2E/DX2                !
 ! R84   R(75,77)                1.1019         estimate D2E/DX2                !
 ! R85   R(75,78)                1.5296         estimate D2E/DX2                !
 ! R86   R(78,79)                1.098          estimate D2E/DX2                !
 ! R87   R(78,80)                1.0981         estimate D2E/DX2                !
 ! R88   R(78,81)                1.4985         estimate D2E/DX2                !
 ! R89   R(81,82)                1.0456         estimate D2E/DX2                !
 ! R90   R(81,83)                1.0463         estimate D2E/DX2                !
 ! R91   R(81,84)                1.0636         estimate D2E/DX2                !
 ! A1    A(2,1,6)              112.4468         estimate D2E/DX2                !
 ! A2    A(2,1,44)             100.7157         estimate D2E/DX2                !
 ! A3    A(6,1,44)             135.2814         estimate D2E/DX2                !
 ! A4    A(1,2,3)              112.5372         estimate D2E/DX2                !
 ! A5    A(1,2,7)              105.2229         estimate D2E/DX2                !
 ! A6    A(1,2,15)             111.3429         estimate D2E/DX2                !
 ! A7    A(3,2,7)              110.7686         estimate D2E/DX2                !
 ! A8    A(3,2,15)             106.2791         estimate D2E/DX2                !
 ! A9    A(7,2,15)             110.7821         estimate D2E/DX2                !
 ! A10   A(2,3,4)              109.7865         estimate D2E/DX2                !
 ! A11   A(2,3,8)              107.2997         estimate D2E/DX2                !
 ! A12   A(2,3,14)             112.8738         estimate D2E/DX2                !
 ! A13   A(4,3,8)              108.7261         estimate D2E/DX2                !
 ! A14   A(4,3,14)             107.4296         estimate D2E/DX2                !
 ! A15   A(8,3,14)             110.6696         estimate D2E/DX2                !
 ! A16   A(3,4,5)              111.7165         estimate D2E/DX2                !
 ! A17   A(3,4,9)              108.6127         estimate D2E/DX2                !
 ! A18   A(3,4,13)             107.9366         estimate D2E/DX2                !
 ! A19   A(5,4,9)              109.149          estimate D2E/DX2                !
 ! A20   A(5,4,13)             108.7752         estimate D2E/DX2                !
 ! A21   A(9,4,13)             110.6528         estimate D2E/DX2                !
 ! A22   A(4,5,6)              109.6874         estimate D2E/DX2                !
 ! A23   A(4,5,10)             108.613          estimate D2E/DX2                !
 ! A24   A(4,5,12)             110.6157         estimate D2E/DX2                !
 ! A25   A(6,5,10)             107.5801         estimate D2E/DX2                !
 ! A26   A(6,5,12)             112.7971         estimate D2E/DX2                !
 ! A27   A(10,5,12)            107.3947         estimate D2E/DX2                !
 ! A28   A(1,6,5)              108.6061         estimate D2E/DX2                !
 ! A29   A(1,6,11)             108.2087         estimate D2E/DX2                !
 ! A30   A(1,6,16)             108.5502         estimate D2E/DX2                !
 ! A31   A(5,6,11)             108.1638         estimate D2E/DX2                !
 ! A32   A(5,6,16)             114.6931         estimate D2E/DX2                !
 ! A33   A(11,6,16)            108.4478         estimate D2E/DX2                !
 ! A34   A(5,12,21)            105.221          estimate D2E/DX2                !
 ! A35   A(4,13,22)            108.5894         estimate D2E/DX2                !
 ! A36   A(3,14,23)            106.3818         estimate D2E/DX2                !
 ! A37   A(2,15,27)            118.1146         estimate D2E/DX2                !
 ! A38   A(6,16,17)            109.022          estimate D2E/DX2                !
 ! A39   A(6,16,18)            110.7918         estimate D2E/DX2                !
 ! A40   A(6,16,19)            111.0559         estimate D2E/DX2                !
 ! A41   A(17,16,18)           107.505          estimate D2E/DX2                !
 ! A42   A(17,16,19)           107.9116         estimate D2E/DX2                !
 ! A43   A(18,16,19)           110.4323         estimate D2E/DX2                !
 ! A44   A(16,19,20)           110.6785         estimate D2E/DX2                !
 ! A45   A(16,19,84)           126.4736         estimate D2E/DX2                !
 ! A46   A(20,19,84)           107.3851         estimate D2E/DX2                !
 ! A47   A(25,24,29)           115.5167         estimate D2E/DX2                !
 ! A48   A(24,25,26)           112.0948         estimate D2E/DX2                !
 ! A49   A(24,25,30)           109.4807         estimate D2E/DX2                !
 ! A50   A(24,25,37)           107.7655         estimate D2E/DX2                !
 ! A51   A(26,25,30)           109.0326         estimate D2E/DX2                !
 ! A52   A(26,25,37)           113.7334         estimate D2E/DX2                !
 ! A53   A(30,25,37)           104.4088         estimate D2E/DX2                !
 ! A54   A(25,26,27)           112.2888         estimate D2E/DX2                !
 ! A55   A(25,26,31)           108.7625         estimate D2E/DX2                !
 ! A56   A(25,26,36)           104.8404         estimate D2E/DX2                !
 ! A57   A(27,26,31)           106.9564         estimate D2E/DX2                !
 ! A58   A(27,26,36)           113.8818         estimate D2E/DX2                !
 ! A59   A(31,26,36)           110.0516         estimate D2E/DX2                !
 ! A60   A(15,27,26)           113.6851         estimate D2E/DX2                !
 ! A61   A(15,27,28)           105.2783         estimate D2E/DX2                !
 ! A62   A(15,27,32)           109.346          estimate D2E/DX2                !
 ! A63   A(26,27,28)           110.7181         estimate D2E/DX2                !
 ! A64   A(26,27,32)           108.8436         estimate D2E/DX2                !
 ! A65   A(28,27,32)           108.8418         estimate D2E/DX2                !
 ! A66   A(27,28,29)           109.4689         estimate D2E/DX2                !
 ! A67   A(27,28,33)           108.2802         estimate D2E/DX2                !
 ! A68   A(27,28,35)           109.2281         estimate D2E/DX2                !
 ! A69   A(29,28,33)           109.1581         estimate D2E/DX2                !
 ! A70   A(29,28,35)           111.1515         estimate D2E/DX2                !
 ! A71   A(33,28,35)           109.5033         estimate D2E/DX2                !
 ! A72   A(24,29,28)           109.9159         estimate D2E/DX2                !
 ! A73   A(24,29,34)           109.5355         estimate D2E/DX2                !
 ! A74   A(24,29,38)           107.1847         estimate D2E/DX2                !
 ! A75   A(28,29,34)           108.9891         estimate D2E/DX2                !
 ! A76   A(28,29,38)           113.7948         estimate D2E/DX2                !
 ! A77   A(34,29,38)           107.3283         estimate D2E/DX2                !
 ! A78   A(28,35,43)           104.7705         estimate D2E/DX2                !
 ! A79   A(28,35,83)           132.4671         estimate D2E/DX2                !
 ! A80   A(43,35,83)           113.4545         estimate D2E/DX2                !
 ! A81   A(26,36,44)           105.8303         estimate D2E/DX2                !
 ! A82   A(26,36,64)            97.1127         estimate D2E/DX2                !
 ! A83   A(44,36,64)            95.816          estimate D2E/DX2                !
 ! A84   A(25,37,49)           117.7965         estimate D2E/DX2                !
 ! A85   A(29,38,39)           109.1374         estimate D2E/DX2                !
 ! A86   A(29,38,40)           108.7219         estimate D2E/DX2                !
 ! A87   A(29,38,41)           113.3444         estimate D2E/DX2                !
 ! A88   A(39,38,40)           108.1392         estimate D2E/DX2                !
 ! A89   A(39,38,41)           110.699          estimate D2E/DX2                !
 ! A90   A(40,38,41)           106.6323         estimate D2E/DX2                !
 ! A91   A(38,41,42)           108.629          estimate D2E/DX2                !
 ! A92   A(1,44,36)            154.9953         estimate D2E/DX2                !
 ! A93   A(46,45,50)           119.0226         estimate D2E/DX2                !
 ! A94   A(45,46,47)           114.4111         estimate D2E/DX2                !
 ! A95   A(45,46,51)           103.6054         estimate D2E/DX2                !
 ! A96   A(45,46,58)           113.4488         estimate D2E/DX2                !
 ! A97   A(47,46,51)           108.8021         estimate D2E/DX2                !
 ! A98   A(47,46,58)           108.3059         estimate D2E/DX2                !
 ! A99   A(51,46,58)           107.9289         estimate D2E/DX2                !
 ! A100  A(46,47,48)           112.1598         estimate D2E/DX2                !
 ! A101  A(46,47,52)           107.4698         estimate D2E/DX2                !
 ! A102  A(46,47,57)           111.0073         estimate D2E/DX2                !
 ! A103  A(48,47,52)           108.7207         estimate D2E/DX2                !
 ! A104  A(48,47,57)           106.4902         estimate D2E/DX2                !
 ! A105  A(52,47,57)           111.0116         estimate D2E/DX2                !
 ! A106  A(47,48,49)           111.1935         estimate D2E/DX2                !
 ! A107  A(47,48,53)           107.3429         estimate D2E/DX2                !
 ! A108  A(47,48,56)           108.2599         estimate D2E/DX2                !
 ! A109  A(49,48,53)           108.2297         estimate D2E/DX2                !
 ! A110  A(49,48,56)           112.6475         estimate D2E/DX2                !
 ! A111  A(53,48,56)           109.0146         estimate D2E/DX2                !
 ! A112  A(37,49,48)           108.8894         estimate D2E/DX2                !
 ! A113  A(37,49,50)           109.2028         estimate D2E/DX2                !
 ! A114  A(37,49,55)           109.8708         estimate D2E/DX2                !
 ! A115  A(48,49,50)           109.4796         estimate D2E/DX2                !
 ! A116  A(48,49,55)           110.3211         estimate D2E/DX2                !
 ! A117  A(50,49,55)           109.0593         estimate D2E/DX2                !
 ! A118  A(45,50,49)           111.9125         estimate D2E/DX2                !
 ! A119  A(45,50,54)           105.8956         estimate D2E/DX2                !
 ! A120  A(45,50,59)           109.2331         estimate D2E/DX2                !
 ! A121  A(49,50,54)           107.6407         estimate D2E/DX2                !
 ! A122  A(49,50,59)           114.2035         estimate D2E/DX2                !
 ! A123  A(54,50,59)           107.5146         estimate D2E/DX2                !
 ! A124  A(48,56,64)           109.357          estimate D2E/DX2                !
 ! A125  A(47,57,65)           109.1685         estimate D2E/DX2                !
 ! A126  A(46,58,66)           111.8008         estimate D2E/DX2                !
 ! A127  A(46,58,82)           130.0783         estimate D2E/DX2                !
 ! A128  A(66,58,82)           114.9569         estimate D2E/DX2                !
 ! A129  A(50,59,60)           108.1397         estimate D2E/DX2                !
 ! A130  A(50,59,61)           108.8925         estimate D2E/DX2                !
 ! A131  A(50,59,62)           113.2102         estimate D2E/DX2                !
 ! A132  A(60,59,61)           108.58           estimate D2E/DX2                !
 ! A133  A(60,59,62)           107.5724         estimate D2E/DX2                !
 ! A134  A(61,59,62)           110.3224         estimate D2E/DX2                !
 ! A135  A(59,62,63)           102.5304         estimate D2E/DX2                !
 ! A136  A(36,64,56)           141.9716         estimate D2E/DX2                !
 ! A137  A(58,66,67)           107.7839         estimate D2E/DX2                !
 ! A138  A(58,66,68)           108.8576         estimate D2E/DX2                !
 ! A139  A(58,66,69)           110.0781         estimate D2E/DX2                !
 ! A140  A(67,66,68)           108.578          estimate D2E/DX2                !
 ! A141  A(67,66,69)           110.339          estimate D2E/DX2                !
 ! A142  A(68,66,69)           111.1204         estimate D2E/DX2                !
 ! A143  A(66,69,70)           106.6912         estimate D2E/DX2                !
 ! A144  A(66,69,71)           108.7408         estimate D2E/DX2                !
 ! A145  A(66,69,72)           114.4206         estimate D2E/DX2                !
 ! A146  A(70,69,71)           105.1968         estimate D2E/DX2                !
 ! A147  A(70,69,72)           109.713          estimate D2E/DX2                !
 ! A148  A(71,69,72)           111.5659         estimate D2E/DX2                !
 ! A149  A(69,72,73)           109.6142         estimate D2E/DX2                !
 ! A150  A(69,72,74)           108.917          estimate D2E/DX2                !
 ! A151  A(69,72,75)           115.5478         estimate D2E/DX2                !
 ! A152  A(73,72,74)           104.5729         estimate D2E/DX2                !
 ! A153  A(73,72,75)           107.4032         estimate D2E/DX2                !
 ! A154  A(74,72,75)           110.214          estimate D2E/DX2                !
 ! A155  A(72,75,76)           110.1576         estimate D2E/DX2                !
 ! A156  A(72,75,77)           108.9623         estimate D2E/DX2                !
 ! A157  A(72,75,78)           115.3128         estimate D2E/DX2                !
 ! A158  A(76,75,77)           105.9435         estimate D2E/DX2                !
 ! A159  A(76,75,78)           107.037          estimate D2E/DX2                !
 ! A160  A(77,75,78)           109.0105         estimate D2E/DX2                !
 ! A161  A(75,78,79)           111.0067         estimate D2E/DX2                !
 ! A162  A(75,78,80)           112.2165         estimate D2E/DX2                !
 ! A163  A(75,78,81)           111.5205         estimate D2E/DX2                !
 ! A164  A(79,78,80)           107.7439         estimate D2E/DX2                !
 ! A165  A(79,78,81)           107.7398         estimate D2E/DX2                !
 ! A166  A(80,78,81)           106.3636         estimate D2E/DX2                !
 ! A167  A(78,81,82)           108.7506         estimate D2E/DX2                !
 ! A168  A(78,81,83)           110.8926         estimate D2E/DX2                !
 ! A169  A(78,81,84)           111.9188         estimate D2E/DX2                !
 ! A170  A(82,81,83)           109.0322         estimate D2E/DX2                !
 ! A171  A(82,81,84)           106.115          estimate D2E/DX2                !
 ! A172  A(83,81,84)           109.9749         estimate D2E/DX2                !
 ! A173  L(58,82,81,20,-1)     177.8586         estimate D2E/DX2                !
 ! A174  L(35,83,81,1,-1)      188.6508         estimate D2E/DX2                !
 ! A175  L(19,84,81,2,-1)      187.9283         estimate D2E/DX2                !
 ! A176  L(58,82,81,20,-2)     165.2338         estimate D2E/DX2                !
 ! A177  L(35,83,81,1,-2)      178.8484         estimate D2E/DX2                !
 ! A178  L(19,84,81,2,-2)      189.7373         estimate D2E/DX2                !
 ! D1    D(6,1,2,3)            -35.4368         estimate D2E/DX2                !
 ! D2    D(6,1,2,7)           -156.1538         estimate D2E/DX2                !
 ! D3    D(6,1,2,15)            83.7718         estimate D2E/DX2                !
 ! D4    D(44,1,2,3)           175.1741         estimate D2E/DX2                !
 ! D5    D(44,1,2,7)            54.4571         estimate D2E/DX2                !
 ! D6    D(44,1,2,15)          -65.6172         estimate D2E/DX2                !
 ! D7    D(2,1,6,5)             73.3037         estimate D2E/DX2                !
 ! D8    D(2,1,6,11)           -43.8906         estimate D2E/DX2                !
 ! D9    D(2,1,6,16)          -161.3916         estimate D2E/DX2                !
 ! D10   D(44,1,6,5)          -152.0183         estimate D2E/DX2                !
 ! D11   D(44,1,6,11)           90.7874         estimate D2E/DX2                !
 ! D12   D(44,1,6,16)          -26.7136         estimate D2E/DX2                !
 ! D13   D(2,1,44,36)           33.5061         estimate D2E/DX2                !
 ! D14   D(6,1,44,36)         -104.5149         estimate D2E/DX2                !
 ! D15   D(1,2,3,4)            -28.743          estimate D2E/DX2                !
 ! D16   D(1,2,3,8)           -146.7385         estimate D2E/DX2                !
 ! D17   D(1,2,3,14)            91.0765         estimate D2E/DX2                !
 ! D18   D(7,2,3,4)             88.7355         estimate D2E/DX2                !
 ! D19   D(7,2,3,8)            -29.2601         estimate D2E/DX2                !
 ! D20   D(7,2,3,14)          -151.4451         estimate D2E/DX2                !
 ! D21   D(15,2,3,4)          -150.8622         estimate D2E/DX2                !
 ! D22   D(15,2,3,8)            91.1422         estimate D2E/DX2                !
 ! D23   D(15,2,3,14)          -31.0428         estimate D2E/DX2                !
 ! D24   D(1,2,15,27)           79.582          estimate D2E/DX2                !
 ! D25   D(3,2,15,27)         -157.5435         estimate D2E/DX2                !
 ! D26   D(7,2,15,27)          -37.15           estimate D2E/DX2                !
 ! D27   D(2,3,4,5)             57.9407         estimate D2E/DX2                !
 ! D28   D(2,3,4,9)            178.3854         estimate D2E/DX2                !
 ! D29   D(2,3,4,13)           -61.6015         estimate D2E/DX2                !
 ! D30   D(8,3,4,5)            175.0472         estimate D2E/DX2                !
 ! D31   D(8,3,4,9)            -64.5081         estimate D2E/DX2                !
 ! D32   D(8,3,4,13)            55.505          estimate D2E/DX2                !
 ! D33   D(14,3,4,5)           -65.1466         estimate D2E/DX2                !
 ! D34   D(14,3,4,9)            55.2982         estimate D2E/DX2                !
 ! D35   D(14,3,4,13)          175.3113         estimate D2E/DX2                !
 ! D36   D(2,3,14,23)           44.8028         estimate D2E/DX2                !
 ! D37   D(4,3,14,23)          165.97           estimate D2E/DX2                !
 ! D38   D(8,3,14,23)          -75.4696         estimate D2E/DX2                !
 ! D39   D(3,4,5,6)            -22.5293         estimate D2E/DX2                !
 ! D40   D(3,4,5,10)            94.7932         estimate D2E/DX2                !
 ! D41   D(3,4,5,12)          -147.5786         estimate D2E/DX2                !
 ! D42   D(9,4,5,6)           -142.66           estimate D2E/DX2                !
 ! D43   D(9,4,5,10)           -25.3375         estimate D2E/DX2                !
 ! D44   D(9,4,5,12)            92.2907         estimate D2E/DX2                !
 ! D45   D(13,4,5,6)            96.5169         estimate D2E/DX2                !
 ! D46   D(13,4,5,10)         -146.1605         estimate D2E/DX2                !
 ! D47   D(13,4,5,12)          -28.5324         estimate D2E/DX2                !
 ! D48   D(3,4,13,22)         -115.7582         estimate D2E/DX2                !
 ! D49   D(5,4,13,22)          122.855          estimate D2E/DX2                !
 ! D50   D(9,4,13,22)            2.9615         estimate D2E/DX2                !
 ! D51   D(4,5,6,1)            -39.2434         estimate D2E/DX2                !
 ! D52   D(4,5,6,11)            77.9796         estimate D2E/DX2                !
 ! D53   D(4,5,6,16)          -160.8618         estimate D2E/DX2                !
 ! D54   D(10,5,6,1)          -157.2104         estimate D2E/DX2                !
 ! D55   D(10,5,6,11)          -39.9874         estimate D2E/DX2                !
 ! D56   D(10,5,6,16)           81.1712         estimate D2E/DX2                !
 ! D57   D(12,5,6,1)            84.5383         estimate D2E/DX2                !
 ! D58   D(12,5,6,11)         -158.2387         estimate D2E/DX2                !
 ! D59   D(12,5,6,16)          -37.0801         estimate D2E/DX2                !
 ! D60   D(4,5,12,21)           29.7229         estimate D2E/DX2                !
 ! D61   D(6,5,12,21)          -93.5446         estimate D2E/DX2                !
 ! D62   D(10,5,12,21)         148.0956         estimate D2E/DX2                !
 ! D63   D(1,6,16,17)         -165.8682         estimate D2E/DX2                !
 ! D64   D(1,6,16,18)          -47.754          estimate D2E/DX2                !
 ! D65   D(1,6,16,19)           75.3605         estimate D2E/DX2                !
 ! D66   D(5,6,16,17)          -44.2193         estimate D2E/DX2                !
 ! D67   D(5,6,16,18)           73.8949         estimate D2E/DX2                !
 ! D68   D(5,6,16,19)         -162.9906         estimate D2E/DX2                !
 ! D69   D(11,6,16,17)          76.7834         estimate D2E/DX2                !
 ! D70   D(11,6,16,18)        -165.1024         estimate D2E/DX2                !
 ! D71   D(11,6,16,19)         -41.9879         estimate D2E/DX2                !
 ! D72   D(2,15,27,26)         -68.5294         estimate D2E/DX2                !
 ! D73   D(2,15,27,28)         170.1189         estimate D2E/DX2                !
 ! D74   D(2,15,27,32)          53.3283         estimate D2E/DX2                !
 ! D75   D(6,16,19,20)        -103.4889         estimate D2E/DX2                !
 ! D76   D(6,16,19,84)          29.057          estimate D2E/DX2                !
 ! D77   D(17,16,19,20)        137.0737         estimate D2E/DX2                !
 ! D78   D(17,16,19,84)        -90.3804         estimate D2E/DX2                !
 ! D79   D(18,16,19,20)         19.832          estimate D2E/DX2                !
 ! D80   D(18,16,19,84)        152.378          estimate D2E/DX2                !
 ! D81   D(16,19,81,78)         65.5715         estimate D2E/DX2                !
 ! D82   D(16,19,81,82)       -178.7129         estimate D2E/DX2                !
 ! D83   D(16,19,81,83)        -63.7198         estimate D2E/DX2                !
 ! D84   D(20,19,81,78)       -160.0667         estimate D2E/DX2                !
 ! D85   D(20,19,81,82)        -44.3511         estimate D2E/DX2                !
 ! D86   D(20,19,81,83)         70.642          estimate D2E/DX2                !
 ! D87   D(29,24,25,26)        -53.1844         estimate D2E/DX2                !
 ! D88   D(29,24,25,30)         67.9419         estimate D2E/DX2                !
 ! D89   D(29,24,25,37)       -179.0722         estimate D2E/DX2                !
 ! D90   D(25,24,29,28)         59.6945         estimate D2E/DX2                !
 ! D91   D(25,24,29,34)        -60.0266         estimate D2E/DX2                !
 ! D92   D(25,24,29,38)       -176.1648         estimate D2E/DX2                !
 ! D93   D(24,25,26,27)         46.7809         estimate D2E/DX2                !
 ! D94   D(24,25,26,31)        -71.3915         estimate D2E/DX2                !
 ! D95   D(24,25,26,36)        170.9233         estimate D2E/DX2                !
 ! D96   D(30,25,26,27)        -74.6033         estimate D2E/DX2                !
 ! D97   D(30,25,26,31)        167.2243         estimate D2E/DX2                !
 ! D98   D(30,25,26,36)         49.5391         estimate D2E/DX2                !
 ! D99   D(37,25,26,27)        169.3429         estimate D2E/DX2                !
 ! D100  D(37,25,26,31)         51.1704         estimate D2E/DX2                !
 ! D101  D(37,25,26,36)        -66.5147         estimate D2E/DX2                !
 ! D102  D(24,25,37,49)         66.5717         estimate D2E/DX2                !
 ! D103  D(26,25,37,49)        -58.3414         estimate D2E/DX2                !
 ! D104  D(30,25,37,49)       -177.0766         estimate D2E/DX2                !
 ! D105  D(25,26,27,15)       -167.4398         estimate D2E/DX2                !
 ! D106  D(25,26,27,28)        -49.1745         estimate D2E/DX2                !
 ! D107  D(25,26,27,32)         70.4241         estimate D2E/DX2                !
 ! D108  D(31,26,27,15)        -48.2045         estimate D2E/DX2                !
 ! D109  D(31,26,27,28)         70.0608         estimate D2E/DX2                !
 ! D110  D(31,26,27,32)       -170.3406         estimate D2E/DX2                !
 ! D111  D(36,26,27,15)         73.5991         estimate D2E/DX2                !
 ! D112  D(36,26,27,28)       -168.1356         estimate D2E/DX2                !
 ! D113  D(36,26,27,32)        -48.537          estimate D2E/DX2                !
 ! D114  D(25,26,36,44)        171.4488         estimate D2E/DX2                !
 ! D115  D(25,26,36,64)         73.3126         estimate D2E/DX2                !
 ! D116  D(27,26,36,44)        -65.4296         estimate D2E/DX2                !
 ! D117  D(27,26,36,64)       -163.5658         estimate D2E/DX2                !
 ! D118  D(31,26,36,44)         54.6456         estimate D2E/DX2                !
 ! D119  D(31,26,36,64)        -43.4905         estimate D2E/DX2                !
 ! D120  D(15,27,28,29)        178.3122         estimate D2E/DX2                !
 ! D121  D(15,27,28,33)        -62.7832         estimate D2E/DX2                !
 ! D122  D(15,27,28,35)         56.3995         estimate D2E/DX2                !
 ! D123  D(26,27,28,29)         55.0454         estimate D2E/DX2                !
 ! D124  D(26,27,28,33)        173.9501         estimate D2E/DX2                !
 ! D125  D(26,27,28,35)        -66.8673         estimate D2E/DX2                !
 ! D126  D(32,27,28,29)        -64.5542         estimate D2E/DX2                !
 ! D127  D(32,27,28,33)         54.3505         estimate D2E/DX2                !
 ! D128  D(32,27,28,35)        173.5331         estimate D2E/DX2                !
 ! D129  D(27,28,29,24)        -59.2652         estimate D2E/DX2                !
 ! D130  D(27,28,29,34)         60.7881         estimate D2E/DX2                !
 ! D131  D(27,28,29,38)       -179.4772         estimate D2E/DX2                !
 ! D132  D(33,28,29,24)       -177.625          estimate D2E/DX2                !
 ! D133  D(33,28,29,34)        -57.5717         estimate D2E/DX2                !
 ! D134  D(33,28,29,38)         62.163          estimate D2E/DX2                !
 ! D135  D(35,28,29,24)         61.4856         estimate D2E/DX2                !
 ! D136  D(35,28,29,34)       -178.4611         estimate D2E/DX2                !
 ! D137  D(35,28,29,38)        -58.7263         estimate D2E/DX2                !
 ! D138  D(27,28,35,43)        160.2592         estimate D2E/DX2                !
 ! D139  D(27,28,35,83)         17.1931         estimate D2E/DX2                !
 ! D140  D(29,28,35,43)         39.3666         estimate D2E/DX2                !
 ! D141  D(29,28,35,83)       -103.6995         estimate D2E/DX2                !
 ! D142  D(33,28,35,43)        -81.3195         estimate D2E/DX2                !
 ! D143  D(33,28,35,83)        135.6144         estimate D2E/DX2                !
 ! D144  D(24,29,38,39)         54.6119         estimate D2E/DX2                !
 ! D145  D(24,29,38,40)        172.358          estimate D2E/DX2                !
 ! D146  D(24,29,38,41)        -69.2545         estimate D2E/DX2                !
 ! D147  D(28,29,38,39)        176.3509         estimate D2E/DX2                !
 ! D148  D(28,29,38,40)        -65.9031         estimate D2E/DX2                !
 ! D149  D(28,29,38,41)         52.4844         estimate D2E/DX2                !
 ! D150  D(34,29,38,39)        -62.9785         estimate D2E/DX2                !
 ! D151  D(34,29,38,40)         54.7675         estimate D2E/DX2                !
 ! D152  D(34,29,38,41)        173.155          estimate D2E/DX2                !
 ! D153  D(28,35,81,78)       -151.3747         estimate D2E/DX2                !
 ! D154  D(28,35,81,82)         92.0979         estimate D2E/DX2                !
 ! D155  D(28,35,81,84)        -24.6291         estimate D2E/DX2                !
 ! D156  D(43,35,81,78)         69.7299         estimate D2E/DX2                !
 ! D157  D(43,35,81,82)        -46.7975         estimate D2E/DX2                !
 ! D158  D(43,35,81,84)       -163.5245         estimate D2E/DX2                !
 ! D159  D(26,36,44,1)          27.4882         estimate D2E/DX2                !
 ! D160  D(64,36,44,1)         126.5935         estimate D2E/DX2                !
 ! D161  D(26,36,64,56)         57.5312         estimate D2E/DX2                !
 ! D162  D(44,36,64,56)        -49.2691         estimate D2E/DX2                !
 ! D163  D(25,37,49,48)        120.4272         estimate D2E/DX2                !
 ! D164  D(25,37,49,50)       -120.0748         estimate D2E/DX2                !
 ! D165  D(25,37,49,55)         -0.5002         estimate D2E/DX2                !
 ! D166  D(29,38,41,42)         86.519          estimate D2E/DX2                !
 ! D167  D(39,38,41,42)        -36.4904         estimate D2E/DX2                !
 ! D168  D(40,38,41,42)       -153.8914         estimate D2E/DX2                !
 ! D169  D(50,45,46,47)         50.2698         estimate D2E/DX2                !
 ! D170  D(50,45,46,51)        168.5643         estimate D2E/DX2                !
 ! D171  D(50,45,46,58)        -74.6783         estimate D2E/DX2                !
 ! D172  D(46,45,50,49)         -7.9056         estimate D2E/DX2                !
 ! D173  D(46,45,50,54)       -124.9181         estimate D2E/DX2                !
 ! D174  D(46,45,50,59)        119.5658         estimate D2E/DX2                !
 ! D175  D(45,46,47,48)        -33.8299         estimate D2E/DX2                !
 ! D176  D(45,46,47,52)       -153.2683         estimate D2E/DX2                !
 ! D177  D(45,46,47,57)         85.1635         estimate D2E/DX2                !
 ! D178  D(51,46,47,48)       -149.1333         estimate D2E/DX2                !
 ! D179  D(51,46,47,52)         91.4283         estimate D2E/DX2                !
 ! D180  D(51,46,47,57)        -30.1399         estimate D2E/DX2                !
 ! D181  D(58,46,47,48)         93.7913         estimate D2E/DX2                !
 ! D182  D(58,46,47,52)        -25.6471         estimate D2E/DX2                !
 ! D183  D(58,46,47,57)       -147.2153         estimate D2E/DX2                !
 ! D184  D(45,46,58,66)        -63.4438         estimate D2E/DX2                !
 ! D185  D(45,46,58,82)         95.0643         estimate D2E/DX2                !
 ! D186  D(47,46,58,66)        168.3864         estimate D2E/DX2                !
 ! D187  D(47,46,58,82)        -33.1055         estimate D2E/DX2                !
 ! D188  D(51,46,58,66)         50.7507         estimate D2E/DX2                !
 ! D189  D(51,46,58,82)       -150.7413         estimate D2E/DX2                !
 ! D190  D(46,47,48,49)        -19.9529         estimate D2E/DX2                !
 ! D191  D(46,47,48,53)         98.2494         estimate D2E/DX2                !
 ! D192  D(46,47,48,56)       -144.2044         estimate D2E/DX2                !
 ! D193  D(52,47,48,49)         98.7502         estimate D2E/DX2                !
 ! D194  D(52,47,48,53)       -143.0474         estimate D2E/DX2                !
 ! D195  D(52,47,48,56)        -25.5013         estimate D2E/DX2                !
 ! D196  D(57,47,48,49)       -141.5705         estimate D2E/DX2                !
 ! D197  D(57,47,48,53)        -23.3681         estimate D2E/DX2                !
 ! D198  D(57,47,48,56)         94.178          estimate D2E/DX2                !
 ! D199  D(46,47,57,65)         80.4009         estimate D2E/DX2                !
 ! D200  D(48,47,57,65)       -157.2514         estimate D2E/DX2                !
 ! D201  D(52,47,57,65)        -39.0699         estimate D2E/DX2                !
 ! D202  D(47,48,49,37)        179.5148         estimate D2E/DX2                !
 ! D203  D(47,48,49,50)         60.1891         estimate D2E/DX2                !
 ! D204  D(47,48,49,55)        -59.8342         estimate D2E/DX2                !
 ! D205  D(53,48,49,37)         61.849          estimate D2E/DX2                !
 ! D206  D(53,48,49,50)        -57.4767         estimate D2E/DX2                !
 ! D207  D(53,48,49,55)       -177.5            estimate D2E/DX2                !
 ! D208  D(56,48,49,37)        -58.7553         estimate D2E/DX2                !
 ! D209  D(56,48,49,50)       -178.081          estimate D2E/DX2                !
 ! D210  D(56,48,49,55)         61.8957         estimate D2E/DX2                !
 ! D211  D(47,48,56,64)        171.4612         estimate D2E/DX2                !
 ! D212  D(49,48,56,64)         48.0833         estimate D2E/DX2                !
 ! D213  D(53,48,56,64)        -72.0697         estimate D2E/DX2                !
 ! D214  D(37,49,50,45)       -166.2045         estimate D2E/DX2                !
 ! D215  D(37,49,50,54)        -50.2474         estimate D2E/DX2                !
 ! D216  D(37,49,50,59)         69.0389         estimate D2E/DX2                !
 ! D217  D(48,49,50,45)        -47.0721         estimate D2E/DX2                !
 ! D218  D(48,49,50,54)         68.885          estimate D2E/DX2                !
 ! D219  D(48,49,50,59)       -171.8288         estimate D2E/DX2                !
 ! D220  D(55,49,50,45)         73.7206         estimate D2E/DX2                !
 ! D221  D(55,49,50,54)       -170.3223         estimate D2E/DX2                !
 ! D222  D(55,49,50,59)        -51.036          estimate D2E/DX2                !
 ! D223  D(45,50,59,60)         37.2505         estimate D2E/DX2                !
 ! D224  D(45,50,59,61)        155.0581         estimate D2E/DX2                !
 ! D225  D(45,50,59,62)        -81.8383         estimate D2E/DX2                !
 ! D226  D(49,50,59,60)        163.4192         estimate D2E/DX2                !
 ! D227  D(49,50,59,61)        -78.7732         estimate D2E/DX2                !
 ! D228  D(49,50,59,62)         44.3304         estimate D2E/DX2                !
 ! D229  D(54,50,59,60)        -77.2234         estimate D2E/DX2                !
 ! D230  D(54,50,59,61)         40.5842         estimate D2E/DX2                !
 ! D231  D(54,50,59,62)        163.6878         estimate D2E/DX2                !
 ! D232  D(48,56,64,36)       -114.7721         estimate D2E/DX2                !
 ! D233  D(46,58,66,67)        -48.2342         estimate D2E/DX2                !
 ! D234  D(46,58,66,68)         69.3541         estimate D2E/DX2                !
 ! D235  D(46,58,66,69)       -168.6238         estimate D2E/DX2                !
 ! D236  D(82,58,66,67)        149.7771         estimate D2E/DX2                !
 ! D237  D(82,58,66,68)        -92.6346         estimate D2E/DX2                !
 ! D238  D(82,58,66,69)         29.3876         estimate D2E/DX2                !
 ! D239  D(46,58,81,78)        154.1491         estimate D2E/DX2                !
 ! D240  D(46,58,81,83)        -83.4757         estimate D2E/DX2                !
 ! D241  D(46,58,81,84)         37.8267         estimate D2E/DX2                !
 ! D242  D(66,58,81,78)        -41.168          estimate D2E/DX2                !
 ! D243  D(66,58,81,83)         81.2072         estimate D2E/DX2                !
 ! D244  D(66,58,81,84)       -157.4904         estimate D2E/DX2                !
 ! D245  D(50,59,62,63)        -70.5901         estimate D2E/DX2                !
 ! D246  D(60,59,62,63)        169.9949         estimate D2E/DX2                !
 ! D247  D(61,59,62,63)         51.7203         estimate D2E/DX2                !
 ! D248  D(58,66,69,70)        169.3312         estimate D2E/DX2                !
 ! D249  D(58,66,69,71)         56.332          estimate D2E/DX2                !
 ! D250  D(58,66,69,72)        -69.1423         estimate D2E/DX2                !
 ! D251  D(67,66,69,70)         50.4951         estimate D2E/DX2                !
 ! D252  D(67,66,69,71)        -62.5041         estimate D2E/DX2                !
 ! D253  D(67,66,69,72)        172.0216         estimate D2E/DX2                !
 ! D254  D(68,66,69,70)        -69.9981         estimate D2E/DX2                !
 ! D255  D(68,66,69,71)        177.0027         estimate D2E/DX2                !
 ! D256  D(68,66,69,72)         51.5284         estimate D2E/DX2                !
 ! D257  D(66,69,72,73)       -112.6398         estimate D2E/DX2                !
 ! D258  D(66,69,72,74)          1.2193         estimate D2E/DX2                !
 ! D259  D(66,69,72,75)        125.8756         estimate D2E/DX2                !
 ! D260  D(70,69,72,73)          7.2122         estimate D2E/DX2                !
 ! D261  D(70,69,72,74)        121.0713         estimate D2E/DX2                !
 ! D262  D(70,69,72,75)       -114.2723         estimate D2E/DX2                !
 ! D263  D(71,69,72,73)        123.382          estimate D2E/DX2                !
 ! D264  D(71,69,72,74)       -122.7589         estimate D2E/DX2                !
 ! D265  D(71,69,72,75)          1.8974         estimate D2E/DX2                !
 ! D266  D(69,72,75,76)         64.5551         estimate D2E/DX2                !
 ! D267  D(69,72,75,77)       -179.6258         estimate D2E/DX2                !
 ! D268  D(69,72,75,78)        -56.7019         estimate D2E/DX2                !
 ! D269  D(73,72,75,76)        -58.1106         estimate D2E/DX2                !
 ! D270  D(73,72,75,77)         57.7085         estimate D2E/DX2                !
 ! D271  D(73,72,75,78)       -179.3676         estimate D2E/DX2                !
 ! D272  D(74,72,75,76)       -171.4639         estimate D2E/DX2                !
 ! D273  D(74,72,75,77)        -55.6448         estimate D2E/DX2                !
 ! D274  D(74,72,75,78)         67.2792         estimate D2E/DX2                !
 ! D275  D(72,75,78,79)       -168.6673         estimate D2E/DX2                !
 ! D276  D(72,75,78,80)         70.7039         estimate D2E/DX2                !
 ! D277  D(72,75,78,81)        -48.5173         estimate D2E/DX2                !
 ! D278  D(76,75,78,79)         68.4012         estimate D2E/DX2                !
 ! D279  D(76,75,78,80)        -52.2276         estimate D2E/DX2                !
 ! D280  D(76,75,78,81)       -171.4489         estimate D2E/DX2                !
 ! D281  D(77,75,78,79)        -45.769          estimate D2E/DX2                !
 ! D282  D(77,75,78,80)       -166.3978         estimate D2E/DX2                !
 ! D283  D(77,75,78,81)         74.381          estimate D2E/DX2                !
 ! D284  D(75,78,81,82)         66.3178         estimate D2E/DX2                !
 ! D285  D(75,78,81,83)        -53.5626         estimate D2E/DX2                !
 ! D286  D(75,78,81,84)       -176.7743         estimate D2E/DX2                !
 ! D287  D(79,78,81,82)       -171.6277         estimate D2E/DX2                !
 ! D288  D(79,78,81,83)         68.4919         estimate D2E/DX2                !
 ! D289  D(79,78,81,84)        -54.7199         estimate D2E/DX2                !
 ! D290  D(80,78,81,82)        -56.3238         estimate D2E/DX2                !
 ! D291  D(80,78,81,83)       -176.2043         estimate D2E/DX2                !
 ! D292  D(80,78,81,84)         60.584          estimate D2E/DX2                !
 --------------------------------------------------------------------------------
 Trust Radius=3.00D-01 FncErr=1.00D-07 GrdErr=1.00D-06
 Number of steps in this run=    504 maximum allowed number of steps=    504.
 GradGradGradGradGradGradGradGradGradGradGradGradGradGradGradGradGradGrad

 Leave Link  103 at Wed Apr  6 20:36:33 2016, MaxMem= 10737418240 cpu:         0.5
 (Enter /share/apps//g09/l202.exe)
 Stoichiometry    C23H44NO16(1+)
 Framework group  C1[X(C23H44NO16)]
 Deg. of freedom   246
 Full point group                 C1      NOp   1
 Largest Abelian subgroup         C1      NOp   1
 Largest concise Abelian subgroup C1      NOp   1
                         Standard orientation:                         
 ---------------------------------------------------------------------
 Center     Atomic      Atomic             Coordinates (Angstroms)
 Number     Number       Type             X           Y           Z
 ---------------------------------------------------------------------
      1          8           0       -3.207248   -0.451857   -0.732575
      2          6           0       -3.507756    0.922641   -0.506108
      3          6           0       -4.634661    1.120417    0.544347
      4          6           0       -5.579702   -0.090222    0.527242
      5          6           0       -4.813832   -1.428461    0.815146
      6          6           0       -3.321605   -1.254248    0.480431
      7          1           0       -3.814920    1.316810   -1.487044
      8          1           0       -5.204799    2.019675    0.249228
      9          1           0       -6.351120    0.056152    1.295956
     10          1           0       -4.889569   -1.652499    1.891405
     11          1           0       -2.846298   -0.699314    1.306900
     12          8           0       -5.410700   -2.504576    0.115921
     13          8           0       -6.175220   -0.169387   -0.781172
     14          8           0       -4.136538    1.254188    1.872326
     15          8           0       -2.373656    1.626178   -0.011813
     16          6           0       -2.562793   -2.551357    0.274311
     17          1           0       -2.846472   -3.261957    1.064164
     18          1           0       -2.824922   -3.007554   -0.690454
     19          8           0       -1.139111   -2.338018    0.360063
     20          1           0       -0.727741   -2.338400   -0.548071
     21          1           0       -5.797394   -2.103887   -0.692196
     22          1           0       -7.132104   -0.027463   -0.694913
     23          1           0       -3.379302    1.868454    1.821821
     24          8           0        1.446353    2.288649   -1.562209
     25          6           0        0.684711    1.333453   -2.323293
     26          6           0       -0.576564    0.860175   -1.566330
     27          6           0       -1.366944    2.035631   -0.953377
     28          6           0       -0.435974    2.964085   -0.170122
     29          6           0        0.708973    3.428404   -1.081539
     30          1           0        0.379850    1.786429   -3.283220
     31          1           0       -0.266651    0.212242   -0.732400
     32          1           0       -1.841770    2.611817   -1.770446
     33          1           0       -1.019101    3.844431    0.156944
     34          1           0        0.283278    3.983555   -1.940851
     35          8           0        0.069129    2.265770    0.984351
     36          8           0       -1.314360    0.105752   -2.522735
     37          8           0        1.548871    0.290230   -2.688379
     38          6           0        1.712551    4.358071   -0.389238
     39          1           0        2.530519    4.589829   -1.087462
     40          1           0        1.203964    5.298662   -0.133532
     41          8           0        2.231328    3.821888    0.842566
     42          1           0        3.009588    3.255403    0.635905
     43          1           0        0.883746    2.771926    1.250788
     44          1           0       -2.053333   -0.321722   -2.018271
     45          8           0        4.217497   -1.506633   -0.831325
     46          6           0        3.391414   -2.324768   -0.046508
     47          6           0        2.191713   -2.940377   -0.807359
     48          6           0        1.648637   -1.998281   -1.892374
     49          6           0        2.076346   -0.550481   -1.633338
     50          6           0        3.613333   -0.461028   -1.635246
     51          1           0        4.063195   -3.138458    0.276299
     52          1           0        1.392915   -3.128700   -0.069600
     53          1           0        2.083233   -2.319844   -2.855075
     54          1           0        3.957559   -0.637725   -2.669555
     55          1           0        1.698038   -0.209068   -0.659052
     56          8           0        0.223907   -2.151550   -1.948492
     57          8           0        2.569707   -4.143256   -1.468795
     58          8           0        2.888687   -1.667099    1.137367
     59          6           0        4.164446    0.899414   -1.191525
     60          1           0        5.225968    0.773172   -0.941762
     61          1           0        4.083201    1.608514   -2.031391
     62          8           0        3.504807    1.425582   -0.028626
     63          1           0        2.614936    1.663665   -0.377115
     64          1           0       -0.156776   -1.458776   -2.540463
     65          1           0        2.573652   -4.873492   -0.826115
     66          6           0        3.963859   -1.296548    2.048420
     67          1           0        4.616974   -2.176772    2.174639
     68          1           0        4.552321   -0.485750    1.593072
     69          6           0        3.388215   -0.869410    3.388502
     70          1           0        4.235433   -0.790947    4.085722
     71          1           0        2.764283   -1.687864    3.782945
     72          6           0        2.613315    0.471918    3.354577
     73          1           0        3.160982    1.229089    3.932945
     74          1           0        2.612789    0.858189    2.322555
     75          6           0        1.177301    0.422669    3.904484
     76          1           0        1.190554    0.183585    4.979703
     77          1           0        0.728080    1.425480    3.822922
     78          6           0        0.253498   -0.593419    3.230799
     79          1           0       -0.790898   -0.435009    3.530342
     80          1           0        0.520601   -1.628285    3.482691
     81          7           0        0.320583   -0.491682    1.737276
     82          1           0        1.275313   -0.780170    1.423276
     83          1           0        0.139503    0.489239    1.421611
     84          1           0       -0.359883   -1.157441    1.263018
 ---------------------------------------------------------------------
 Rotational constants (GHZ):      0.1276773      0.0719796      0.0655278
 Leave Link  202 at Wed Apr  6 20:36:33 2016, MaxMem= 10737418240 cpu:         0.4
 (Enter /share/apps//g09/l301.exe)
 Standard basis: 6-311+G(d,p) (5D, 7F)
 Ernie: Thresh=  0.10000D-02 Tol=  0.10000D-05 Strict=F.
 There are  1184 symmetry adapted cartesian basis functions of A   symmetry.
 There are  1144 symmetry adapted basis functions of A   symmetry.
  1144 basis functions,  1792 primitive gaussians,  1184 cartesian basis functions
   158 alpha electrons      158 beta electrons
       nuclear repulsion energy      6071.4798337909 Hartrees.
 IExCor= 1009 DFT=T Ex+Corr=PBE1PBE ExCW=0 ScaHFX=  0.250000
 ScaDFX=  0.750000  0.750000  1.000000  1.000000 ScalE2=  1.000000  1.000000
 IRadAn=      0 IRanWt=     -1 IRanGd=            0 ICorTp=0 IEmpDi=131
 NAtoms=   84 NActive=   84 NUniq=   84 SFac= 1.00D+00 NAtFMM=   60 NAOKFM=T Big=T
 Integral buffers will be    131072 words long.
 Raffenetti 2 integral format.
 Two-electron integral symmetry is turned on.
 R6Disp:  Grimme-D3 Dispersion energy=       -0.0906865901 Hartrees.
 Nuclear repulsion after empirical dispersion term =     6071.3891472008 Hartrees.
 Leave Link  301 at Wed Apr  6 20:36:33 2016, MaxMem= 10737418240 cpu:         1.0
 (Enter /share/apps//g09/l302.exe)
 NPDir=0 NMtPBC=     1 NCelOv=     1 NCel=       1 NClECP=     1 NCelD=      1
         NCelK=      1 NCelE2=     1 NClLst=     1 CellRange=     0.0.
 One-electron integrals computed using PRISM.
 NBasis=  1144 RedAO= T EigKep=  1.07D-06  NBF=  1144
 NBsUse=  1143 1.00D-06 EigRej=  8.58D-07 NBFU=  1143
 Precomputing XC quadrature grid using
 IXCGrd= 4 IRadAn=           0 IRanWt=          -1 IRanGd=           0 AccXCQ= 0.00D+00.
 Generated NRdTot=       0 NPtTot=           0 NUsed=           0 NTot=          32
 NSgBfM=  1102  1102  1104  1104  1104 MxSgAt=    84 MxSgA2=    84.
 Leave Link  302 at Wed Apr  6 20:36:37 2016, MaxMem= 10737418240 cpu:        56.1
 (Enter /share/apps//g09/l303.exe)
 DipDrv:  MaxL=1.
 Leave Link  303 at Wed Apr  6 20:36:39 2016, MaxMem= 10737418240 cpu:        26.5
 (Enter /share/apps//g09/l401.exe)
 ExpMin= 4.38D-02 ExpMax= 8.59D+03 ExpMxC= 1.30D+03 IAcc=2 IRadAn=         4 AccDes= 0.00D+00
 Harris functional with IExCor= 1009 and IRadAn=       4 diagonalized for initial guess.
 HarFok:  IExCor= 1009 AccDes= 0.00D+00 IRadAn=         4 IDoV= 1 UseB2=F ITyADJ=14
 ICtDFT=  3500011 ScaDFX=  1.000000  1.000000  1.000000  1.000000
 FoFCou: FMM=F IPFlag=           0 FMFlag=      100000 FMFlg1=        2001
         NFxFlg=           0 DoJE=T BraDBF=F KetDBF=T FulRan=T
         wScrn=  0.000000 ICntrl=     500 IOpCl=  0 I1Cent=   200000004 NGrid=           0
         NMat0=    1 NMatS0=      1 NMatT0=    0 NMatD0=    1 NMtDS0=    0 NMtDT0=    0
 Petite list used in FoFCou.
 Harris En= -2159.69932335826    
 JPrj=0 DoOrth=F DoCkMO=F.
 Leave Link  401 at Wed Apr  6 20:36:46 2016, MaxMem= 10737418240 cpu:       124.6
 (Enter /share/apps//g09/l502.exe)
 Closed shell SCF:
 Using DIIS extrapolation, IDIIS=  1040.
 Integral symmetry usage will be decided dynamically.
 IVT=     4256630 IEndB=     4256630 NGot= 10737418240 MDV= 10734581291
 LenX= 10734581291 LenY= 10733178251
 Requested convergence on RMS density matrix=1.00D-08 within 128 cycles.
 Requested convergence on MAX density matrix=1.00D-06.
 Requested convergence on             energy=1.00D-06.
 No special actions if energy rises.
 Fock matrices will be formed incrementally for  20 cycles.

 Cycle   1  Pass 1  IDiag  1:
 FoFJK:  IHMeth= 1 ICntrl=       0 DoSepK=F KAlg= 0 I1Cent=   0 FoldK=F
 IRaf= 810000000 NMat=   1 IRICut=       1 DoRegI=T DoRafI=F ISym2E= 0.
 FoFCou: FMM=T IPFlag=           0 FMFlag=      100000 FMFlg1=        2001
         NFxFlg=           0 DoJE=F BraDBF=F KetDBF=F FulRan=T
         wScrn=  0.000000 ICntrl=       0 IOpCl=  0 I1Cent=           0 NGrid=           0
         NMat0=    1 NMatS0=      1 NMatT0=    0 NMatD0=    1 NMtDS0=    0 NMtDT0=    0
 Symmetry not used in FoFCou.
 FMM levels:  10  Number of levels for PrismC:   9
 E= -2158.70320102122    
 DIIS: error= 1.16D-02 at cycle   1 NSaved=   1.
 NSaved= 1 IEnMin= 1 EnMin= -2158.70320102122     IErMin= 1 ErrMin= 1.16D-02
 ErrMax= 1.16D-02  0.00D+00 EMaxC= 1.00D-01 BMatC= 1.01D+00 BMatP= 1.01D+00
 IDIUse=3 WtCom= 8.84D-01 WtEn= 1.16D-01
 Coeff-Com:  0.100D+01
 Coeff-En:   0.100D+01
 Coeff:      0.100D+01
 Gap=     0.297 Goal=   None    Shift=    0.000
 GapD=    0.297 DampG=1.000 DampE=0.500 DampFc=0.5000 IDamp=-1.
 Damping current iteration by 5.00D-01
 RMSDP=1.59D-02 MaxDP=4.69D+00              OVMax= 1.42D-01

 Cycle   2  Pass 1  IDiag  1:
 RMSU=  7.71D-03    CP:  1.04D+00
 E= -2158.98291340098     Delta-E=       -0.279712379761 Rises=F Damp=T
 DIIS: error= 2.80D-03 at cycle   2 NSaved=   2.
 NSaved= 2 IEnMin= 2 EnMin= -2158.98291340098     IErMin= 2 ErrMin= 2.80D-03
 ErrMax= 2.80D-03  0.00D+00 EMaxC= 1.00D-01 BMatC= 7.95D-02 BMatP= 1.01D+00
 IDIUse=3 WtCom= 9.72D-01 WtEn= 2.80D-02
 Coeff-Com:  0.546D-01 0.945D+00
 Coeff-En:   0.148D+00 0.852D+00
 Coeff:      0.572D-01 0.943D+00
 Gap=     0.301 Goal=   None    Shift=    0.000
 RMSDP=6.99D-03 MaxDP=2.26D+00 DE=-2.80D-01 OVMax= 7.74D-02

 Cycle   3  Pass 1  IDiag  1:
 RMSU=  3.25D-03    CP:  9.22D-01  7.69D-01
 E= -2159.34105477517     Delta-E=       -0.358141374194 Rises=F Damp=F
 DIIS: error= 3.40D-03 at cycle   3 NSaved=   3.
 NSaved= 3 IEnMin= 3 EnMin= -2159.34105477517     IErMin= 2 ErrMin= 2.80D-03
 ErrMax= 3.40D-03  0.00D+00 EMaxC= 1.00D-01 BMatC= 4.52D-02 BMatP= 7.95D-02
 IDIUse=3 WtCom= 9.66D-01 WtEn= 3.40D-02
 Coeff-Com: -0.691D-01 0.415D+00 0.654D+00
 Coeff-En:   0.000D+00 0.000D+00 0.100D+01
 Coeff:     -0.667D-01 0.401D+00 0.666D+00
 Gap=     0.277 Goal=   None    Shift=    0.000
 RMSDP=1.41D-03 MaxDP=3.98D-01 DE=-3.58D-01 OVMax= 1.77D-02

 Cycle   4  Pass 1  IDiag  1:
 RMSU=  9.93D-04    CP:  9.36D-01  8.52D-01  8.96D-01
 E= -2159.36946821113     Delta-E=       -0.028413435957 Rises=F Damp=F
 DIIS: error= 1.01D-03 at cycle   4 NSaved=   4.
 NSaved= 4 IEnMin= 4 EnMin= -2159.36946821113     IErMin= 4 ErrMin= 1.01D-03
 ErrMax= 1.01D-03  0.00D+00 EMaxC= 1.00D-01 BMatC= 5.70D-03 BMatP= 4.52D-02
 IDIUse=3 WtCom= 9.90D-01 WtEn= 1.01D-02
 Coeff-Com: -0.363D-01 0.123D+00 0.336D+00 0.577D+00
 Coeff-En:   0.000D+00 0.000D+00 0.638D-01 0.936D+00
 Coeff:     -0.360D-01 0.122D+00 0.333D+00 0.581D+00
 Gap=     0.271 Goal=   None    Shift=    0.000
 RMSDP=1.02D-03 MaxDP=3.82D-01 DE=-2.84D-02 OVMax= 5.56D-03

 Cycle   5  Pass 1  IDiag  1:
 RMSU=  3.32D-04    CP:  9.18D-01  8.33D-01  8.86D-01  6.49D-01
 E= -2159.37418214981     Delta-E=       -0.004713938681 Rises=F Damp=F
 DIIS: error= 2.93D-04 at cycle   5 NSaved=   5.
 NSaved= 5 IEnMin= 5 EnMin= -2159.37418214981     IErMin= 5 ErrMin= 2.93D-04
 ErrMax= 2.93D-04  0.00D+00 EMaxC= 1.00D-01 BMatC= 3.01D-04 BMatP= 5.70D-03
 IDIUse=3 WtCom= 9.97D-01 WtEn= 2.93D-03
 Coeff-Com: -0.121D-01 0.284D-01 0.107D+00 0.265D+00 0.612D+00
 Coeff-En:   0.000D+00 0.000D+00 0.000D+00 0.000D+00 0.100D+01
 Coeff:     -0.121D-01 0.283D-01 0.107D+00 0.264D+00 0.613D+00
 Gap=     0.272 Goal=   None    Shift=    0.000
 RMSDP=2.39D-04 MaxDP=9.10D-02 DE=-4.71D-03 OVMax= 1.54D-03

 Cycle   6  Pass 1  IDiag  1:
 RMSU=  8.87D-05    CP:  9.21D-01  8.45D-01  9.08D-01  6.42D-01  6.66D-01
 E= -2159.37439558522     Delta-E=       -0.000213435407 Rises=F Damp=F
 DIIS: error= 1.02D-04 at cycle   6 NSaved=   6.
 NSaved= 6 IEnMin= 6 EnMin= -2159.37439558522     IErMin= 6 ErrMin= 1.02D-04
 ErrMax= 1.02D-04  0.00D+00 EMaxC= 1.00D-01 BMatC= 3.74D-05 BMatP= 3.01D-04
 IDIUse=3 WtCom= 9.99D-01 WtEn= 1.02D-03
 EnCoef did     1 forward-backward iterations
 Coeff-Com: -0.454D-02 0.823D-02 0.392D-01 0.112D+00 0.342D+00 0.503D+00
 Coeff-En:   0.000D+00 0.000D+00 0.000D+00 0.000D+00 0.881D-03 0.999D+00
[...]
 427,-0.00026660,0.00085183,0.00050212,-0.00027455,-0.00016033,0.000516
 25,-0.00628600,0.00518595,0.00102828,0.00035880,-0.00124725,-0.0002486
 8,-0.00018406,-0.00045881,-0.00043440,-0.00003536,-0.00032887,-0.00036
 348,-0.00000767,0.00000278,0.00009585,-0.00006181,0.00002900,-0.000042
 87,0.00009091,-0.00032571,0.00115331,0.00022164,0.00033294,-0.00001706
 ,-0.00119953,0.00080593,-0.00173737,0.00004481,0.00033040,-0.00019206,
 -0.00004024,0.00001338,-0.00015953,-0.00010005,-0.00001634,0.00017895,
 -0.00008301,-0.00009354,-0.00004637,-0.00003225,-0.00017599,-0.0000178
 9,-0.00089364,0.00028827,0.00049555,0.00024674,-0.00016626,0.00002936,
 0.00003220,0.00002875,-0.00001965,0.00002394,-0.00000824,-0.00001650,0
 .00007192,0.00003198,0.00002917,-0.00000612,0.00008340,-0.00009430,0.0
 0014319,-0.00019034,0.00038746,0.00030655,0.00010167,-0.00007990,0.000
 06791,0.00008484,0.00002917,0.00002574,0.00028983,-0.00001296,0.000301
 68,0.00010701,-0.00001962,-0.00004521,-0.00000411,-0.00000602,-0.00000
 652,-0.00000222,-0.00000540,-0.00056247,-0.00025921,-0.00010453,0.0003
 6010,0.00026650,0.00010496,-0.00013595,0.00005436,0.00003926,-0.000014
 41,-0.00001498,-0.00000414,0.00025445,-0.00030401,0.00009915,-0.000077
 69,0.00003469,-0.00000249,0.00002306,0.00002446,-0.00003636,0.00012511
 ,0.00001653,0.00032649,-0.00007267,-0.00006817,-0.00006403,-0.00004645
 ,-0.00018978,-0.00012054,-0.00030218,0.00012479,-0.00042046,-0.0000091
 4,-0.00001798,-0.00009536,0.00025806,0.00035379,-0.00020640,0.00191162
 ,0.00120225,0.00060447,-0.00010498,-0.00065979,-0.00020781,-0.00121786
 ,-0.00077069,-0.00042337,0.01395931,0.02368717,0.01857642,0.00038103,-
 0.00038211,0.00011663,-0.00541849,0.00233836,0.00361610,-0.09672394,-0
 .07597493,-0.06341364,-0.00573472,-0.00799120,-0.00943873,0.10516801,-
 0.00066760,-0.00078602,-0.00127049,0.00177673,-0.00034818,0.00208223,-
 0.00014922,-0.00018397,0.00003702,0.00020080,0.00001546,0.00019058,0.0
 0008614,-0.00001244,-0.00005383,-0.00005323,0.00042744,0.00083370,-0.0
 0020864,0.00008402,-0.00017199,-0.00003031,-0.00000896,-0.00001338,-0.
 00004410,-0.00001234,-0.00006923,0.00001768,0.00003271,-0.00005581,0.0
 0012798,0.00010476,0.00016571,-0.00018878,-0.00017524,-0.00007697,-0.0
 0013375,-0.00000974,-0.00016161,-0.00000614,0.00015153,-0.00035436,-0.
 00112255,0.00168502,-0.00122424,0.00056320,0.00108221,-0.00101529,-0.0
 0006442,-0.00009118,0.00004913,0.00001912,-0.00029847,0.00025162,0.002
 74735,-0.00251583,0.00149664,-0.00025248,0.00003477,0.00068175,0.00005
 538,0.00008797,0.00005047,0.00003019,-0.00002590,0.00002289,-0.0002478
 0,-0.00030920,0.00042202,-0.00125728,-0.00073872,0.00026870,0.00161262
 ,0.00107658,-0.00026039,0.00090821,-0.00066248,0.00000892,0.00063766,-
 0.00107137,-0.00051994,0.00244721,-0.00591039,-0.00129900,0.00067926,0
 .00159181,-0.00043806,-0.00007510,-0.00008106,0.00006785,0.00114161,0.
 00059921,-0.00012630,-0.00026898,0.00023580,-0.00008961,-0.00016836,0.
 00092107,0.00050989,-0.00027027,-0.00014192,0.00047119,0.00163217,-0.0
 0366551,0.00447877,-0.00119754,0.00001836,-0.00034447,-0.00050121,-0.0
 0162189,-0.00037243,-0.00029158,-0.00005193,-0.00047099,0.00003347,-0.
 00005859,0.00012435,-0.00006010,-0.00000647,-0.00006371,0.00036162,-0.
 00130358,0.00178891,0.00025756,0.00067433,0.00021946,-0.00037734,0.005
 95087,0.00000719,0.00014521,0.00009414,0.00035358,0.00021723,-0.000410
 33,-0.00078357,-0.00115131,0.00002315,0.00100249,-0.00033936,-0.000001
 33,0.00017047,0.00001481,0.00017705,-0.00012912,-0.00064774,0.00075979
 ,0.00072373,0.00003699,0.00037079,0.00021641,0.00014001,0.00003037,-0.
 00007491,-0.00006565,-0.00001129,-0.00016600,0.00005302,-0.00001263,0.
 00001547,0.00003292,0.00001154,-0.00008387,0.00005387,0.00024949,0.000
 28183,0.00007682,-0.00060302,-0.00035031,0.00032446,0.00003174,-0.0000
 6340,0.00106533,0.00060523,-0.00039075,0.00006551,0.00002150,0.0000215
 5,-0.00001614,-0.00002008,0.00002161,0.00005118,-0.00000554,-0.0001145
 5,-0.00028448,-0.00064764,-0.00046611,0.00023060,0.00100259,0.00019096
 ,0.00027988,0.00053872,0.00011917,-0.00007610,-0.00005489,-0.00001279,
 0.00002704,-0.00020708,0.00025586,0.00006788,0.00010570,-0.00002235,-0
 .00003903,0.00003353,-0.00002025,-0.00011702,-0.00007354,-0.00003950,0
 .00003521,0.00011998,-0.00002934,0.00001457,-0.00002198,-0.00006958,-0
 .00021539,-0.00074714,-0.00055667,-0.00028714,0.00051950,0.00010298,0.
 00005141,-0.00023267,0.00125864,0.00040305,0.00044056,0.00083061,-0.00
 057875,0.00030959,-0.00025038,-0.00004518,0.00000122,0.00002280,0.0015
 0734,-0.00917317,-0.00903779,-0.00058788,0.00081816,0.00090020,0.00080
 530,0.00090151,-0.00022450,-0.07254530,-0.21571160,-0.12530195,-0.0073
 4504,-0.01664226,-0.01532978,0.07194413,0.22467198,-0.00019475,-0.0009
 1494,-0.00106906,0.00115150,0.00032024,0.00109525,-0.00032483,0.000175
 25,0.00003488,0.00007845,0.00014601,0.00011195,0.00016942,0.00016940,-
 0.00032292,-0.00098847,0.00064296,0.00069872,-0.00002866,-0.00007554,-
 0.00007021,0.00000748,-0.00009540,-0.00001443,-0.00003399,-0.00003827,
 -0.00004635,0.00001758,0.00001586,-0.00005716,0.00039543,0.00008498,-0
 .00039911,0.00010641,-0.00031958,0.00017962,0.00002510,-0.00018674,-0.
 00009647,0.00004607,-0.00045186,-0.00018422,-0.00060991,-0.00006903,-0
 .00206351,0.00002917,0.00057474,-0.00075745,-0.00004292,-0.00007181,0.
 00003700,0.00008788,-0.00009659,0.00012231,0.00158675,-0.00035935,0.00
 094716,-0.00067803,0.00005096,0.00070446,0.00000450,0.00010867,0.00004
 188,0.00000608,0.00003554,0.00001255,0.00006537,0.00029563,0.00033177,
 -0.00166299,-0.00014888,0.00039325,0.00217097,-0.00007157,0.00021227,0
 .00078933,0.00000892,-0.00036387,0.00010431,-0.00069662,0.00202213,0.0
 0543815,-0.00594325,-0.00188376,0.00040280,0.00123254,-0.00065109,-0.0
 0008932,0.00003717,-0.00005797,0.00067796,-0.00022958,0.00080547,-0.00
 019035,0.00015899,-0.00038984,-0.00042779,0.00182616,0.00107461,-0.000
 28904,-0.00006677,0.00049761,-0.00098659,0.00589503,0.00225226,-0.0010
 3531,0.00016554,-0.00071517,-0.00070463,-0.00092609,-0.00030947,-0.000
 11844,-0.00032212,-0.00060314,-0.00001220,-0.00002983,0.00011421,-0.00
 005817,0.00003716,-0.00006351,0.00038718,-0.00067921,0.00181346,0.0001
 0593,0.00055777,-0.00005342,-0.00222867,0.00222630,-0.00261083,-0.0001
 2838,0.00006874,0.00067347,0.00028406,-0.00052187,-0.00123262,-0.00151
 422,0.00024841,0.00114166,-0.00038253,0.00006057,0.00033041,-0.0000612
 2,-0.00000841,0.00042138,0.00028046,0.00040817,0.00006041,-0.00009613,
 0.00063498,0.00043647,0.00020499,0.00004318,-0.00007435,-0.00008569,-0
 .00000820,-0.00024480,-0.00002623,-0.00000716,-0.00010757,-0.00002330,
 -0.00009677,-0.00004093,0.00023495,0.00028447,0.00005049,0.00010513,-0
 .00025298,-0.00063743,0.00031288,0.00004123,-0.00017435,0.00170723,0.0
 0213648,-0.00222824,0.00054909,0.00010489,-0.00016851,-0.00007731,-0.0
 0004072,0.00006937,-0.00005398,0.00000107,-0.00004993,-0.00076619,-0.0
 0069994,0.00021880,0.00041723,0.00062444,-0.00047207,0.00021484,0.0003
 3269,0.00016987,-0.00007630,-0.00009002,0.00001099,0.00078944,-0.00043
 183,0.00027339,-0.00009413,0.00015332,-0.00005956,-0.00007252,0.000175
 18,-0.00010619,0.00006565,-0.00007832,-0.00002010,-0.00005670,-0.00002
 116,-0.00009531,-0.00002831,-0.00029004,-0.00014153,-0.00049974,0.0002
 7540,0.00091781,0.00000150,0.00002259,-0.00024795,0.00037113,0.0005148
 7,-0.00055582,-0.00013136,0.00117823,0.00196632,-0.00052725,0.00025481
 ,-0.00059801,0.00007286,-0.00027204,0.00030145,-0.00081799,-0.01359653
 ,-0.01214979,-0.00080558,0.00025005,-0.00037388,0.00158383,0.00037604,
 -0.00026512,-0.06176357,-0.12819550,-0.16995882,0.00525044,0.01278069,
 0.02035808,0.05881179,0.13368593,0.17332907,-0.00162692,-0.00167015,-0
 .00129120,0.00220274,0.00029422,0.00196304,0.00044897,-0.00030350,-0.0
 0010502,0.00014249,0.00017062,0.00054836,-0.00013706,-0.00033191,-0.00
 088289,0.00219842,0.00055344,0.00169833,-0.00023320,-0.00008213,-0.000
 16719,-0.00014920,-0.00001461,0.00000829,-0.00007503,-0.00020747,-0.00
 005453,0.00000539,0.00001153,0.00004503,-0.00023169,0.00005845,-0.0000
 5635,-0.00052090,-0.00074930,0.00030768,-0.00011708,-0.00041673,-0.000
 20530,-0.00082581,0.00033603,-0.00014462,-0.00099333,0.00106292,-0.001
 25441,0.00603106,0.00832739,-0.00842005,-0.00013771,-0.00066322,0.0011
 2796,-0.00001825,-0.00236218,0.00215677,0.00033582,-0.00855546,0.00931
 330,-0.00507481,-0.00106142,0.00539667,0.00001099,0.00041305,-0.000051
 81,-0.00000036,0.00009834,-0.00001390,0.00012505,-0.00041094,0.0000918
 5,-0.00086011,0.00024425,-0.00020102,0.00097364,-0.00020647,0.00042513
 ,0.00078578,-0.00050448,0.00007919,0.00006941,-0.00028096,0.00029241,0
 .00104252,-0.00173645,-0.00042620,0.00011186,0.00047368,-0.00007302,-0
 .00003669,0.00004279,-0.00001787,0.00072936,0.00031191,0.00060709,-0.0
 0008573,0.00004793,-0.00004358,-0.00009428,0.00035545,0.00017907,-0.00
 009588,-0.00000632,0.00015981,0.00019491,0.00268261,0.00213073,-0.0011
 8243,0.00014871,-0.00100505,-0.00064899,0.00003465,-0.00023807,0.00016
 150,-0.00046546,-0.00022164,-0.00003878,0.00003764,0.00004239,-0.00002
 097,0.00004851,-0.00001768,-0.00005396,0.00032670,0.00059526,0.0000511
 8,-0.00002432,-0.00016582,-0.00024184,0.00004475,-0.00057807,-0.000015
 20,0.00046334,0.00093537,-0.00087463,0.00036731,0.00028126,0.00314849,
 -0.00071976,-0.00070854,-0.00042313,-0.00025630,0.00104788,0.00032425,
 -0.00183361,0.00152125,0.00075896,0.00020452,-0.00016713,-0.00003056,-
 0.00040401,-0.00012898,-0.00040205,-0.00008392,0.00005670,0.00013534,-
 0.00065494,0.00001634,-0.00002398,0.00027864,-0.00038456,-0.00006962,0
 .00000218,0.00006353,0.00024318,-0.00027332,-0.00014810,0.00119001,0.0
 0121658,-0.00347326,-0.00006703,0.00060808,-0.00061846,-0.00390174,-0.
 00190024,0.00121270,0.00063476,0.00029576,-0.00024025,-0.00008711,-0.0
 0002188,-0.00003324,-0.00008569,0.00001819,0.00007437,-0.00068794,0.00
 000070,0.00052654,0.00025031,-0.00026237,-0.00027944,0.00020321,0.0006
 4699,0.00026073,0.00004068,-0.00032141,0.00022721,0.00004811,0.0002760
 6,-0.00024092,-0.00010240,-0.00021302,0.00002019,0.00003347,0.00000354
 ,0.00000560,0.00008113,0.00034546,-0.00005720,-0.00003802,-0.00014452,
 0.00011190,-0.00001103,0.00015734,0.00009441,0.00055424,0.00024214,0.0
 0091608,0.00025010,-0.00041682,-0.00002677,0.00025578,-0.00036366,-0.0
 0077178,-0.00132754,0.00080718,0.00205944,-0.00001775,-0.00006494,-0.0
 0040160,0.00010704,-0.00006957,0.00022351,-0.01862551,0.00918776,-0.00
 765144,0.00087191,-0.00097284,-0.00075109,0.00131524,-0.00044247,-0.00
 056210,-0.18592726,0.06520848,-0.10786462,0.01806664,-0.00128894,0.008
 09231,-0.00622350,-0.00100146,-0.00631762,0.18830875,0.00036804,0.0012
 7900,0.00072146,-0.00116244,-0.00089889,-0.00093289,-0.00013123,-0.000
 08935,0.00007506,0.00000721,-0.00024167,-0.00022927,-0.00024918,-0.000
 20891,0.00089314,0.00155586,-0.00079202,-0.00050949,0.00008815,0.00010
 446,0.00009593,0.00007065,0.00006595,-0.00000877,0.00003225,0.00013663
 ,0.00001299,-0.00000814,0.00000569,-0.00002352,-0.00113395,-0.00025180
 ,0.00032098,-0.00025782,0.00056404,-0.00052633,-0.00006073,0.00033667,
 0.00005575,0.00051425,0.00022647,0.00001672,0.00059422,0.00009236,0.00
 124790,0.00160964,-0.00349967,0.00329273,-0.00006137,0.00039407,-0.000
 46854,-0.00013551,0.00022194,-0.00026015,-0.00833343,-0.00460416,-0.00
 142604,0.00147813,0.00100891,-0.00339226,0.00003881,-0.00019816,0.0000
 0220,0.00002201,-0.00008754,0.00001984,-0.00024301,0.00001444,-0.00008
 389,0.00039893,-0.00029447,0.00020378,-0.00025326,0.00083272,-0.000494
 18,-0.00021667,-0.00058661,0.00004348,-0.00001132,0.00012523,-0.000910
 47,-0.00103194,0.00110318,0.00003236,0.00003256,-0.00031659,-0.0000190
 9,-0.00002074,-0.00009662,0.00010982,0.00006063,0.00013176,-0.00055750
 ,0.00003357,0.00003710,0.00012432,0.00008455,-0.00030425,-0.00016465,0
 .00006039,-0.00000014,-0.00012031,0.00011880,-0.00336620,-0.00173241,0
 .00016207,-0.00005734,0.00064087,0.00011637,-0.00062090,-0.00000674,-0
 .00013956,0.00027416,0.00014343,0.00003317,-0.00002769,-0.00000897,0.0
 0000673,-0.00002739,0.00000399,0.00003347,-0.00023431,-0.00028872,0.00
 001026,0.00005133,0.00007715,0.00016873,0.00017850,0.00038093,0.000258
 28,-0.00016892,-0.00066812,0.00028167,-0.00020935,-0.00057093,-0.00117
 153,-0.00022124,0.00066198,-0.00048383,-0.00014701,0.00050797,-0.00033
 167,0.00114338,-0.00052483,-0.00035801,0.00018820,0.00031202,0.0000524
 2,0.00033162,0.00017812,0.00008257,0.00001972,-0.00001136,-0.00034665,
 0.00011522,-0.00037969,0.00003672,-0.00020140,0.00013006,0.00003387,-0
 .00000983,-0.00004827,0.00005290,0.00010949,0.00004618,-0.00047359,-0.
 00112334,0.00146718,0.00056741,0.00009300,-0.00004538,0.00014652,0.000
 59757,-0.00080226,-0.00019579,-0.00008522,0.00010258,0.00003013,0.0000
 0474,0.00002292,0.00002074,-0.00001772,-0.00005410,0.00019431,-0.00012
 325,-0.00022719,-0.00010011,0.00022131,0.00013614,0.00013894,0.0000633
 1,-0.00009735,-0.00010731,-0.00001805,-0.00007446,0.00035238,-0.000112
 78,0.00003818,-0.00000693,0.00010145,-0.00002370,-0.00005571,0.0000627
 9,-0.00005013,-0.00010012,0.00011219,0.00009629,0.00000767,0.00005032,
 -0.00005776,0.00003189,-0.00009583,-0.00007558,-0.00006721,0.00005508,
 -0.00020163,-0.00001012,0.00010111,-0.00007718,-0.00002135,-0.00006341
 ,0.00018291,0.00048271,-0.00014138,-0.00057510,0.00007613,0.00032727,0
 .00014174,0.00023433,-0.00000196,-0.00009398,0.00790541,-0.00521703,0.
 00425323,-0.00117454,0.00084987,0.00040565,0.00000131,-0.00059444,0.00
 033942,0.06440554,-0.09965429,0.05533448,0.01900622,-0.00947294,0.0156
 6717,-0.01895242,0.01805577,-0.01301770,-0.06469233,0.10469610,-0.0005
 0817,-0.00145053,-0.00182747,0.00171528,0.00019165,0.00167786,0.000119
 25,-0.00004642,0.00000629,0.00009410,0.00025732,0.00039850,0.00011626,
 0.00004690,-0.00084664,-0.00047950,0.00100828,0.00182641,-0.00017920,-
 0.00008821,-0.00013941,-0.00008330,-0.00005198,-0.00002376,-0.00005808
 ,-0.00015479,-0.00005516,0.00003596,0.00003923,-0.00005276,0.00078041,
 0.00042628,0.00005730,-0.00004041,-0.00069372,0.00040692,-0.00001149,-
 0.00039536,-0.00018003,-0.00050599,-0.00009526,-0.00019847,-0.00055529
 ,0.00094427,-0.00140588,0.00063599,0.00394525,-0.00550239,-0.00032768,
 -0.00007967,0.00010021,0.00009774,-0.00117743,0.00093654,0.00732274,-0
 .00194814,-0.00873592,0.00196625,-0.00248357,0.00848747,-0.00000680,0.
 00030830,0.00000736,-0.00000499,0.00008839,-0.00001125,0.00009843,-0.0
 0016135,0.00016979,-0.00014779,0.00016710,0.00005019,0.00023513,0.0001
 9256,-0.00000584,0.00113459,-0.00163296,-0.00023548,-0.00044627,-0.000
 25645,0.00073973,0.00028959,-0.00083405,-0.00028329,-0.00012052,0.0001
 0242,-0.00004581,-0.00003512,-0.00000813,0.00013266,0.00056438,-0.0002
 7554,-0.00036174,0.00008800,0.00013434,-0.00007195,0.00002571,0.000123
 41,0.00008233,-0.00004427,0.00001885,0.00007255,0.00023604,0.00069948,
 0.00085102,-0.00103947,0.00082816,-0.00088468,-0.00036255,0.00017655,0
 .00007664,0.00008543,-0.00020374,-0.00013693,-0.00003011,0.00001688,0.
 00001401,0.00000321,0.00002129,-0.00000333,-0.00000249,0.00016827,0.00
 030704,0.00000025,-0.00003129,-0.00009190,-0.00003882,0.00011369,-0.00
 025063,-0.00013452,-0.00000294,0.00106581,-0.00038732,0.00006643,0.000
 17901,0.00147515,0.00004232,-0.00035133,0.00016813,0.00006388,0.000115
 20,0.00066755,-0.00093949,0.00043812,0.00096985,0.00000891,-0.00030799
 ,-0.00019802,-0.00002883,-0.00007621,-0.00014364,-0.00007344,0.0000244
 9,0.00011644,-0.00019573,0.00041242,-0.00007233,0.00018208,-0.00020036
 ,-0.00003398,-0.00005465,0.00008390,-0.00038603,0.00003074,-0.00012547
 ,0.00011642,0.00100891,-0.00242071,-0.00041978,0.00003128,-0.00025987,
 -0.00091734,-0.00094326,0.00061119,0.00022824,0.00009846,-0.00013959,-
 0.00001861,-0.00001761,-0.00001422,-0.00003403,0.00001562,0.00003255,-
 0.00023422,0.00002504,0.00028445,0.00003868,-0.00010539,-0.00014302,0.
 00020538,0.00021078,0.00012919,0.00004986,-0.00011640,0.00018562,-0.00
 020350,0.00003142,-0.00007333,-0.00004064,-0.00013626,0.00004115,0.000
 02734,-0.00002140,0.00002043,0.00003170,0.00015279,0.00011041,-0.00000
 495,-0.00006854,0.00004806,0.00002856,0.00012875,0.00001872,-0.0001529
 5,0.00035053,-0.00084440,0.00000254,-0.00004638,0.00013201,-0.00030415
 ,0.00016090,-0.00001234,0.00393754,-0.00290498,-0.00493742,0.00168959,
 -0.00058239,0.00118922,-0.00008792,0.00014102,0.00002196,0.01353723,-0
 .00651905,0.02129359,0.00079326,0.00039153,0.00013793,0.00009170,-0.00
 081974,-0.00007808,-0.10954760,0.05678445,-0.15778123,-0.01207194,0.00
 683219,-0.01224476,-0.01094486,0.00756631,-0.01144643,0.10154672,-0.05
 869816,0.16983128\\-0.00002184,0.00002399,0.00000986,-0.00000242,-0.00
 000131,0.00000449,0.00002140,-0.00000725,0.00001465,-0.00001602,0.0000
 2446,0.00000771,-0.00000429,0.00000349,-0.00001171,0.00000529,-0.00002
 049,-0.00000166,-0.00000145,0.00000722,0.00000281,0.00000181,0.0000078
 2,0.00000690,0.00001254,0.00000087,-0.00000127,0.00001246,0.00000622,-
 0.00000283,0.00000576,-0.00000222,-0.00000195,0.00000058,-0.00002753,-
 0.00000216,0.00000643,-0.00002509,0.00000518,0.00000092,0.00000708,-0.
 00001713,0.00001258,-0.00000841,0.00000480,0.00000043,0.00000208,0.000
 00684,0.00000717,-0.00000161,-0.00000754,-0.00000317,0.00000516,-0.000
 00593,-0.00000326,0.00000342,0.00000914,-0.00001065,-0.00000118,-0.000
 00310,0.00000665,0.00002475,0.00000655,0.00001052,0.00001710,-0.000005
 76,0.00000472,0.00000197,0.00002112,0.00001281,-0.00001259,-0.00000765
 ,-0.00002202,-0.00001060,0.00000362,0.00000111,-0.00000313,-0.00000782
 ,0.00000412,0.00000768,-0.00000689,0.00001233,-0.00000378,-0.00001213,
 -0.00002580,-0.00000319,0.00001296,-0.00000561,0.00000944,0.00000143,0
 .00000240,-0.00000784,-0.00000439,-0.00000071,0.00000575,0.00001001,0.
 00000344,0.00000383,-0.00000153,-0.00000405,0.00000364,0.00000429,-0.0
 0000513,-0.00000180,0.00001425,-0.00001706,0.00000243,0.00001903,-0.00
 000174,0.00000729,0.00000975,0.00000917,-0.00003039,-0.00000983,-0.000
 00568,-0.00000056,0.00001062,0.00000045,0.00000752,0.00000605,0.000001
 54,0.00002307,-0.00000430,-0.00001667,-0.00001341,0.00000815,0.0000009
 7,0.00000376,0.00000420,0.00003507,-0.00001211,-0.00002835,-0.00001294
 ,-0.00001197,-0.00000539,-0.00000352,-0.00000437,0.00001597,-0.0000129
 5,-0.00000551,-0.00001544,-0.00000138,0.00002682,-0.00001946,0.0000006
 7,0.00001152,0.00000454,0.00000308,-0.00000472,-0.00000524,-0.00000339
 ,-0.00000582,-0.00000730,0.00000626,0.00000498,-0.00001035,-0.00000962
 ,-0.00000491,0.00000141,-0.00000725,-0.00000850,0.00000563,0.00001080,
 -0.00000712,-0.00001077,0.00001820,-0.00002069,-0.00001375,0.00000078,
 0.00001588,0.00001322,0.00003163,0.00000097,0.00000931,0.00000480,0.00
 000698,-0.00001219,-0.00000163,-0.00000886,0.00000100,-0.00001211,0.00
 000212,-0.00000054,-0.00000336,-0.00001229,0.00000031,-0.00000808,0.00
 000274,0.00000380,-0.00003010,0.00001196,0.00001760,0.00000397,-0.0000
 1188,-0.00001855,-0.00002341,0.00001412,-0.00000874,-0.00000174,-0.000
 00994,-0.00000480,0.00000078,-0.00000270,0.00000638,-0.00000329,0.0000
 0491,-0.00000247,-0.00000151,-0.00000601,0.00000564,0.00000484,0.00000
 207,-0.00000953,0.00000427,-0.00000641,-0.00000389,0.00000247,-0.00000
 101,0.00000513,-0.00000588,0.00000316,0.00000874,-0.00000044,0.0000049
 0,0.00000231,0.00000243,-0.00000313,-0.00000017,0.00000416,0.00000395,
 0.00000563,-0.00000077,-0.00000045,0.00000173,0.00000214,0.00000350,-0
 .00000309,-0.00000013,-0.00000545,-0.00000232,0.00000247,-0.00000055,-
 0.00001233,-0.00000379,-0.00000134,-0.00000289,0.00000250,0.00000585,0
 .00000665,0.00001595,0.00000166,-0.00000627\\\@


 WE STILL HAVE JUDGEMENT HERE,
 THAT WE TEACH BUT BLOODY INSTRUCTIONS,
 WHICH, BEING TAUGHT,
 RETURN TO PLAGUE THE INVENTOR.
           MACBETH ACT I, SCENE VII
 Job cpu time:      20 days 15 hours  0 minutes 16.8 seconds.
 File lengths (MBytes):  RWF=  17192 Int=      0 D2E=      0 Chk=     98 Scr=      1
 Normal termination of Gaussian 09 at Sat Apr  9 00:43:00 2016.
